<event>
10    4  0.3403565E-005  0.1436259E+03  0.7546771E-02  0.1210916E+00
         21   -1    0    0  503  502  0.00000000000E+00  0.00000000000E+00  0.76779241934E+02  0.76779241934E+02  0.00000000000E+00 0. -1.
          2   -1    0    0  502    0 -0.00000000000E+00 -0.00000000000E+00 -0.74049644167E+03  0.74049644167E+03  0.00000000000E+00 0. -1.
         24    2    1    2    0    0 -0.13116262870E+03  0.91795569931E+01 -0.42715774880E+03  0.45414890917E+03  0.80620034168E+02 0.  0.
         23    2    1    2    0    0  0.68056139920E+02  0.42348133498E+02 -0.11473221002E+03  0.16758940849E+03  0.92183117935E+02 0.  0.
        -13    1    3    3    0    0 -0.81746239090E+02 -0.31522392199E+02 -0.20468523009E+03  0.22264804565E+03  0.00000000000E+00 0.  1.
         14    1    3    3    0    0 -0.49416389606E+02  0.40701949192E+02 -0.22247251871E+03  0.23150086352E+03  0.00000000000E+00 0. -1.
        -11    1    4    4    0    0  0.32806538457E+01 -0.24524626823E+02 -0.44692067749E+02  0.51084253251E+02  0.00000000000E+00 0.  1.
         11    1    4    4    0    0  0.64775486075E+02  0.66872760322E+02 -0.70040142267E+02  0.11650515524E+03  0.00000000000E+00 0. -1.
         21    1    1    2  503  501  0.28177047537E+02  0.25939426832E+02  0.91795943072E+01  0.39383560326E+02  0.00000000000E+00 0. -1.
          1    1    1    2  501    0  0.34929441239E+02 -0.77467117324E+02 -0.13100683523E+03  0.15615380562E+03  0.00000000000E+00 0. -1.
<scales pt_clust_5="13000.00000" pt_clust_6="13000.00000" pt_clust_7="13000.00000" pt_clust_8="13000.00000" pt_clust_9="38.29882" pt_clust_10="82.54851"></scales>
<clustering>
<clus scale="   38.299">  1  9  2 -1</clus>
<clus scale="   80.620">  5  6 -1 -1</clus>
<clus scale="   82.549">  1 10  2 -1</clus>
<clus scale="   92.183">  7  8 -1 -1</clus>
<clus scale="  136.493">  2  5  1 -1</clus>
<clus scale="   38.299">  1  5  2 -1</clus>
</clustering>
</event>
<event>
10    4  0.3403565E-005  0.1670035E+03  0.7546771E-02  0.1182731E+00
         -1   -1    0    0    0  501 -0.00000000000E+00  0.00000000000E+00  0.12799740780E+03  0.12799740780E+03  0.00000000000E+00 0.  1.
         21   -1    0    0  503  502  0.00000000000E+00 -0.00000000000E+00 -0.44421667624E+03  0.44421667624E+03  0.00000000000E+00 0.  1.
         23    2    1    2    0    0  0.47311184155E+02  0.13451488914E+03  0.10194221038E+00  0.16969360946E+03  0.91996234446E+02 0.  0.
         24    2    1    2    0    0 -0.68902067236E+02 -0.11480486591E+03 -0.16524405392E+03  0.22721151408E+03  0.79948875342E+02 0.  0.
        -13    1    4    4    0    0 -0.12896641306E+02 -0.94418530924E+02 -0.88586029616E+02  0.13011021091E+03  0.00000000000E+00 0.  1.
         14    1    4    4    0    0 -0.56005425930E+02 -0.20386334984E+02 -0.76658024305E+02  0.97101303174E+02  0.00000000000E+00 0. -1.
        -11    1    3    3    0    0  0.25369859210E+02  0.10880687572E+03 -0.38697768805E+02  0.11823740216E+03  0.00000000000E+00 0.  1.
         11    1    3    3    0    0  0.21941324945E+02  0.25708013425E+02  0.38799711015E+02  0.51456207297E+02  0.00000000000E+00 0. -1.
         21    1    1    2  503  501 -0.73549942845E+01 -0.25563237845E+02 -0.14191814627E+03  0.14438952632E+03  0.00000000000E+00 0.  1.
         -2    1    1    2    0  502  0.28945877365E+02  0.58532146128E+01 -0.91590104518E+01  0.30919434183E+02  0.00000000000E+00 0.  1.
<scales pt_clust_5="13000.00000" pt_clust_6="13000.00000" pt_clust_7="13000.00000" pt_clust_8="13000.00000" pt_clust_9="26.60028" pt_clust_10="28.75760"></scales>
<clustering>
<clus scale="   26.600">  2  9  1 -1</clus>
<clus scale="   28.758">  2 10  1 -1</clus>
<clus scale="   79.949">  5  6 -1 -1</clus>
<clus scale="   91.996">  7  8 -1 -1</clus>
<clus scale="  160.682">  2  5  1 -1</clus>
<clus scale="   26.600">  2  5  1 -1</clus>
</clustering>
</event>
<event>
10    4  0.3403565E-005  0.2512563E+03  0.7546771E-02  0.1112975E+00
         21   -1    0    0  501  502  0.00000000000E+00  0.00000000000E+00  0.43105302977E+02  0.43105302977E+02  0.00000000000E+00 0. -1.
          2   -1    0    0  503    0 -0.00000000000E+00 -0.00000000000E+00 -0.25741822533E+04  0.25741822533E+04  0.00000000000E+00 0. -1.
         24    2    1    2    0    0 -0.51183788311E+01 -0.23640369728E+03 -0.17774821815E+04  0.17950750868E+04  0.83299195790E+02 0.  0.
         23    2    1    2    0    0 -0.18092694212E+02  0.22754766177E+03 -0.63794906866E+03  0.68372653318E+03  0.91638823765E+02 0.  0.
        -13    1    3    3    0    0 -0.38887980229E+02 -0.83237126478E+02 -0.55139543075E+03  0.55899697251E+03  0.00000000000E+00 0.  1.
         14    1    3    3    0    0  0.33769601398E+02 -0.15316657080E+03 -0.12260867507E+04  0.12360781143E+04  0.00000000000E+00 0. -1.
        -11    1    4    4    0    0  0.25327466591E+02  0.89964765514E+02 -0.16944202391E+03  0.19350901546E+03  0.00000000000E+00 0.  1.
         11    1    4    4    0    0 -0.43420160803E+02  0.13758289625E+03 -0.46850704475E+03  0.49021751773E+03  0.00000000000E+00 0. -1.
         21    1    1    2  503  502  0.23118949303E+02 -0.16114418021E+02 -0.99581255539E+01  0.29888535420E+02  0.00000000000E+00 0.  1.
          1    1    1    2  501    0  0.92123740627E-01  0.24970453537E+02 -0.10568757468E+03  0.10859740089E+03  0.00000000000E+00 0. -1.
<scales pt_clust_5="13000.00000" pt_clust_6="13000.00000" pt_clust_7="13000.00000" pt_clust_8="13000.00000" pt_clust_9="25.26511" pt_clust_10="24.97064"></scales>
<clustering>
<clus scale="   24.971">  1 10  2 -1</clus>
<clus scale="   25.265">  1  9  2 -1</clus>
<clus scale="   83.299">  5  6 -1 -1</clus>
<clus scale="   91.639">  7  8 -1 -1</clus>
<clus scale="  248.336">  2  5  1 -1</clus>
<clus scale="   24.971">  1  5  2 -1</clus>
</clustering>
</event>
<event>
10    4  0.3403565E-005  0.1682612E+03  0.7546771E-02  0.1199923E+00
         21   -1    0    0  503  502  0.00000000000E+00  0.00000000000E+00  0.79284529715E+03  0.79284529715E+03  0.00000000000E+00 0. -1.
         -3   -1    0    0    0  501 -0.00000000000E+00 -0.00000000000E+00 -0.23490608279E+03  0.23490608279E+03  0.00000000000E+00 0.  1.
         23    2    1    2    0    0 -0.59231778287E+02  0.14259731459E+02 -0.98830040504E+02  0.14660609320E+03  0.89522210406E+02 0.  0.
         24    2    1    2    0    0 -0.12214866480E+03 -0.86792710538E+00  0.49428474553E+02  0.15384144397E+03  0.79391222283E+02 0.  0.
        -11    1    4    4    0    0 -0.12937398616E+03  0.22039612352E+00  0.58673765642E+02  0.14205733928E+03  0.00000000000E+00 0.  1.
         12    1    4    4    0    0  0.72253213515E+01 -0.10883232289E+01 -0.92452910892E+01  0.11784104693E+02  0.00000000000E+00 0. -1.
        -11    1    3    3    0    0 -0.23854127660E+02 -0.21600846333E+02 -0.89848110882E+02  0.95437408797E+02  0.00000000000E+00 0.  1.
         11    1    3    3    0    0 -0.35377650627E+02  0.35860577792E+02 -0.89819296221E+01  0.51168684400E+02  0.00000000000E+00 0. -1.
         21    1    1    2  503  501  0.14738527185E+03  0.31048218549E+02  0.64336318926E+03  0.66075911158E+03  0.00000000000E+00 0. -1.
         -4    1    1    2    0  502  0.33995171242E+02 -0.44440022902E+02 -0.36022408956E+02  0.66544731199E+02  0.00000000000E+00 0.  1.
<scales pt_clust_5="13000.00000" pt_clust_6="13000.00000" pt_clust_7="13000.00000" pt_clust_8="13000.00000" pt_clust_9="148.35380" pt_clust_10="55.95168"></scales>
<clustering>
<clus scale="   55.952">  1 10  2 -1</clus>
<clus scale="   79.391">  5  6 -1 -1</clus>
<clus scale="   89.522">  7  8 -1 -1</clus>
<clus scale="  107.547">  2  7  1 -1</clus>
<clus scale="  148.354">  1  9  2 -1</clus>
<clus scale="   55.952">  1  5  2 -1</clus>
</clustering>
</event>
<event>
10    4  0.3403565E-005  0.1332614E+03  0.7546771E-02  0.1235123E+00
         -1   -1    0    0    0  501 -0.00000000000E+00  0.00000000000E+00  0.36404645426E+03  0.36404645426E+03  0.00000000000E+00 0.  1.
         21   -1    0    0  501  502  0.00000000000E+00 -0.00000000000E+00 -0.15662989422E+03  0.15662989422E+03  0.00000000000E+00 0. -1.
         24    2    1    2    0    0 -0.65157795028E+02  0.18054298557E+02  0.82458712649E+02  0.13353028592E+03  0.80370405109E+02 0.  0.
         23    2    1    2    0    0  0.26481783943E+02  0.10103331607E+03 -0.61165423265E+02  0.15227321949E+03  0.92395392378E+02 0.  0.
        -11    1    3    3    0    0 -0.11860028941E+02  0.43734831060E+02  0.29047489010E+02  0.53825201831E+02  0.00000000000E+00 0.  1.
         12    1    3    3    0    0 -0.53297766087E+02 -0.25680532502E+02  0.53411223638E+02  0.79705084091E+02  0.00000000000E+00 0. -1.
        -11    1    4    4    0    0 -0.34613292811E+02  0.35882094643E+02 -0.17344374472E+02  0.52786665750E+02  0.00000000000E+00 0.  1.
         11    1    4    4    0    0  0.61095076754E+02  0.65151221432E+02 -0.43821048793E+02  0.99486553740E+02  0.00000000000E+00 0. -1.
         21    1    1    2  503  502  0.14424844723E+02 -0.15437801355E+02  0.78823313964E+00  0.21142922396E+02  0.00000000000E+00 0.  1.
         -2    1    1    2    0  503  0.24251166361E+02 -0.10364981328E+03  0.18533503752E+03  0.21372992068E+03  0.00000000000E+00 0.  1.
<scales pt_clust_5="13000.00000" pt_clust_6="13000.00000" pt_clust_7="13000.00000" pt_clust_8="13000.00000" pt_clust_9="21.12822" pt_clust_10="96.02971"></scales>
<clustering>
<clus scale="   21.128">  2  9  1 -1</clus>
<clus scale="   80.370">  5  6 -1 -1</clus>
<clus scale="   92.395">  7  8 -1 -1</clus>
<clus scale="  103.051">  1  5  2 -1</clus>
<clus scale="   96.030">  2 10  1 -1</clus>
<clus scale="   21.128">  2  5  1 -1</clus>
</clustering>
</event>
<event>
10    4  0.3403565E-005  0.1016060E+03  0.7546771E-02  0.1281258E+00
         21   -1    0    0  501  502  0.00000000000E+00  0.00000000000E+00  0.60026832064E+02  0.60026832064E+02  0.00000000000E+00 0. -1.
          2   -1    0    0  503    0 -0.00000000000E+00 -0.00000000000E+00 -0.46835194555E+03  0.46835194555E+03  0.00000000000E+00 0. -1.
         23    2    1    2    0    0 -0.24967308296E+02 -0.61998503874E+02 -0.13051429626E+03  0.17177283105E+03  0.89469229316E+02 0.  0.
         24    2    1    2    0    0  0.15982875666E+02  0.20242069487E+02 -0.43885212382E+02  0.95046822963E+02  0.80267010645E+02 0.  0.
        -11    1    4    4    0    0  0.30572627709E+02  0.56827122239E+01 -0.60860678729E+02  0.68344721805E+02  0.00000000000E+00 0.  1.
         12    1    4    4    0    0 -0.14589752043E+02  0.14559357263E+02  0.16975466347E+02  0.26702101159E+02  0.00000000000E+00 0. -1.
        -13    1    3    3    0    0  0.29070329315E+02 -0.41277311503E+02 -0.40337653923E+02  0.64622185164E+02  0.00000000000E+00 0.  1.
         13    1    3    3    0    0 -0.54037637610E+02 -0.20721192371E+02 -0.90176642335E+02  0.10715064589E+03  0.00000000000E+00 0. -1.
         21    1    1    2  503  502  0.36592818113E+02  0.24360957057E+02 -0.25968443984E+02  0.51057327086E+02  0.00000000000E+00 0.  1.
          1    1    1    2  501    0 -0.27608385483E+02  0.17395477330E+02 -0.20795716086E+03  0.21050179651E+03  0.00000000000E+00 0. -1.
<scales pt_clust_5="13000.00000" pt_clust_6="13000.00000" pt_clust_7="13000.00000" pt_clust_8="13000.00000" pt_clust_9="41.60034" pt_clust_10="32.63168"></scales>
<clustering>
<clus scale="   32.632">  1 10  2 -1</clus>
<clus scale="   41.600">  1  9  2 -1</clus>
<clus scale="   80.267">  5  6 -1 -1</clus>
<clus scale="   89.469">  7  8 -1 -1</clus>
<clus scale="   93.605">  1  5  2 -1</clus>
<clus scale="   32.632">  1  5  2 -1</clus>
</clustering>
</event>
<event>
10    4  0.3403565E-005  0.1250391E+03  0.7546771E-02  0.1238001E+00
          2   -1    0    0  502    0 -0.00000000000E+00  0.00000000000E+00  0.38751083697E+03  0.38751083697E+03  0.00000000000E+00 0. -1.
         21   -1    0    0  503  502  0.00000000000E+00 -0.00000000000E+00 -0.10097339987E+03  0.10097339987E+03  0.00000000000E+00 0. -1.
         23    2    1    2    0    0 -0.11558136695E+02 -0.37902387826E+02  0.52650192459E+02  0.11256603141E+03  0.91262736839E+02 0.  0.
         24    2    1    2    0    0  0.23290259128E+02  0.14425884539E+03  0.13752559637E+03  0.21632302224E+03  0.80804143771E+02 0.  0.
        -13    1    4    4    0    0  0.37932214918E+02  0.32847403320E+02  0.20856170018E+02  0.54339531294E+02  0.00000000000E+00 0.  1.
         14    1    4    4    0    0 -0.14641955790E+02  0.11141144207E+03  0.11666942636E+03  0.16198349095E+03  0.00000000000E+00 0. -1.
        -13    1    3    3    0    0  0.28495939425E+02 -0.49191465156E+02  0.22330272878E+02  0.61077490901E+02  0.00000000000E+00 0. -1.
         13    1    3    3    0    0 -0.40054076120E+02  0.11289077330E+02  0.30319919581E+02  0.51488540513E+02  0.00000000000E+00 0.  1.
         21    1    1    2  503  501  0.41040337892E+01 -0.46753987538E+02  0.21363379134E+01  0.46982362475E+02  0.00000000000E+00 0. -1.
          1    1    1    2  501    0 -0.15836156223E+02 -0.59602470027E+02  0.94225310352E+02  0.11261282071E+03  0.00000000000E+00 0. -1.
<scales pt_clust_5="13000.00000" pt_clust_6="13000.00000" pt_clust_7="13000.00000" pt_clust_8="13000.00000" pt_clust_9="46.93377" pt_clust_10="66.86195"></scales>
<clustering>
<clus scale="   46.934">  2  9  1 -1</clus>
<clus scale="   66.862">  2 10  1 -1</clus>
<clus scale="   80.804">  5  6 -1 -1</clus>
<clus scale="   91.263">  7  8 -1 -1</clus>
<clus scale="  117.623">  2  5  1 -1</clus>
<clus scale="   46.934">  2  5  1 -1</clus>
</clustering>
</event>
<event>
10    4  0.3403565E-005  0.1327752E+03  0.7546771E-02  0.1226340E+00
         21   -1    0    0  501  502  0.00000000000E+00  0.00000000000E+00  0.10651625758E+03  0.10651625758E+03  0.00000000000E+00 0. -1.
          2   -1    0    0  503    0 -0.00000000000E+00 -0.00000000000E+00 -0.79109170717E+03  0.79109170717E+03  0.00000000000E+00 0. -1.
         24    2    1    2    0    0  0.44443439280E+02  0.98044931585E+02 -0.61494755780E+03  0.62930145217E+03  0.79194639627E+02 0.  0.
         23    2    1    2    0    0 -0.31943049765E+01 -0.60841148372E+02 -0.92955198211E+02  0.14373451084E+03  0.91143248865E+02 0.  0.
        -11    1    3    3    0    0  0.55893734118E+02  0.10046298309E+03 -0.46898230262E+03  0.48286780868E+03  0.00000000000E+00 0.  1.
         12    1    3    3    0    0 -0.11450294838E+02 -0.24180515058E+01 -0.14596525518E+03  0.14643364349E+03  0.00000000000E+00 0. -1.
        -13    1    4    4    0    0 -0.35312520307E+02 -0.12628908591E+00 -0.54713663378E+02  0.65119697478E+02  0.00000000000E+00 0.  1.
         13    1    4    4    0    0  0.32118215331E+02 -0.60714859286E+02 -0.38241534832E+02  0.78614813366E+02  0.00000000000E+00 0. -1.
         21    1    1    2  503  502  0.27667415795E+02 -0.24628802386E+02 -0.20105483443E+02  0.42146106205E+02  0.00000000000E+00 0.  1.
          1    1    1    2  501    0 -0.68916550099E+02 -0.12574980827E+02  0.43432789866E+02  0.82425895542E+02  0.00000000000E+00 0. -1.
<scales pt_clust_5="13000.00000" pt_clust_6="13000.00000" pt_clust_7="13000.00000" pt_clust_8="13000.00000" pt_clust_9="37.04138" pt_clust_10="58.29772"></scales>
<clustering>
<clus scale="   37.041">  1  9  2 -1</clus>
<clus scale="   58.298">  1 10  2 -1</clus>
<clus scale="   79.195">  5  6 -1 -1</clus>
<clus scale="   91.143">  7  8 -1 -1</clus>
<clus scale="  124.876">  2  5  1 -1</clus>
<clus scale="   37.041">  1  5  2 -1</clus>
</clustering>
</event>
<event>
10    4  0.3403565E-005  0.1672105E+03  0.7546771E-02  0.1182655E+00
          2   -1    0    0  502    0 -0.00000000000E+00  0.00000000000E+00  0.10925852546E+04  0.10925852546E+04  0.00000000000E+00 0. -1.
         21   -1    0    0  503  502  0.00000000000E+00 -0.00000000000E+00 -0.59740057961E+02  0.59740057961E+02  0.00000000000E+00 0.  1.
         23    2    1    2    0    0 -0.81156616697E+02 -0.73810512713E+02  0.30550123943E+03  0.33721798644E+03  0.91381479885E+02 0.  0.
         24    2    1    2    0    0  0.17792684156E+03  0.50435654311E+02  0.50589427328E+03  0.54427692322E+03  0.78144975805E+02 0.  0.
        -13    1    4    4    0    0  0.78413848442E+02 -0.10094295171E+02  0.14639389272E+03  0.16637847892E+03  0.00000000000E+00 0.  1.
         14    1    4    4    0    0  0.99512993119E+02  0.60529949482E+02  0.35950038056E+03  0.37789844430E+03  0.00000000000E+00 0. -1.
        -11    1    3    3    0    0 -0.89716343807E-01 -0.59496382033E+02  0.14774944825E+03  0.15927877129E+03  0.00000000000E+00 0. -1.
         11    1    3    3    0    0 -0.81066900353E+02 -0.14314130681E+02  0.15775179118E+03  0.17793921515E+03  0.00000000000E+00 0.  1.
         21    1    1    2  503  501 -0.42806055833E+02 -0.12188963982E+02  0.48227707468E+01  0.44768162533E+02  0.00000000000E+00 0.  1.
          1    1    1    2  501    0 -0.53964169032E+02  0.35563822384E+02  0.21662691317E+03  0.22606224035E+03  0.00000000000E+00 0. -1.
<scales pt_clust_5="13000.00000" pt_clust_6="13000.00000" pt_clust_7="13000.00000" pt_clust_8="13000.00000" pt_clust_9="44.50763" pt_clust_10="68.19110"></scales>
<clustering>
<clus scale="   44.508">  2  9  1 -1</clus>
<clus scale="   68.191">  2 10  1 -1</clus>
<clus scale="   78.145">  5  6 -1 -1</clus>
<clus scale="   91.381">  7  8 -1 -1</clus>
<clus scale="  160.360">  2  5  1 -1</clus>
<clus scale="   44.508">  2  5  1 -1</clus>
</clustering>
</event>
<event>
10    4  0.3403565E-005  0.1474808E+03  0.7546771E-02  0.1206328E+00
         21   -1    0    0  501  502  0.00000000000E+00  0.00000000000E+00  0.50609288056E+03  0.50609288056E+03  0.00000000000E+00 0.  1.
         -1   -1    0    0    0  501 -0.00000000000E+00 -0.00000000000E+00 -0.22801479795E+03  0.22801479795E+03  0.00000000000E+00 0.  1.
         23    2    1    2    0    0  0.49804767181E+02 -0.68885292596E+02  0.31922571443E+02  0.12898389247E+03  0.91608381598E+02 0.  0.
         24    2    1    2    0    0 -0.15254107781E+03  0.62658775766E+02  0.23121329397E+02  0.18361165328E+03  0.77354642700E+02 0.  0.
        -11    1    4    4    0    0 -0.77623488454E+02 -0.82565292978E+01  0.19155001207E+02  0.80377175286E+02  0.00000000000E+00 0.  1.
         12    1    4    4    0    0 -0.74917589355E+02  0.70915305064E+02  0.39663281897E+01  0.10323447799E+03  0.00000000000E+00 0. -1.
        -13    1    3    3    0    0  0.64392232047E+02 -0.44949966040E+02 -0.93593110832E+01  0.79085116798E+02  0.00000000000E+00 0.  1.
         13    1    3    3    0    0 -0.14587464866E+02 -0.23935326555E+02  0.41281882527E+02  0.49898775671E+02  0.00000000000E+00 0. -1.
         21    1    1    2  503  502  0.16369032755E+02 -0.61535839564E+02  0.28732377330E+03  0.29429501437E+03  0.00000000000E+00 0.  1.
         -2    1    1    2    0  503  0.86367277872E+02  0.67762356393E+02 -0.64289591536E+02  0.12721711839E+03  0.00000000000E+00 0.  1.
<scales pt_clust_5="13000.00000" pt_clust_6="13000.00000" pt_clust_7="13000.00000" pt_clust_8="13000.00000" pt_clust_9="63.67578" pt_clust_10="106.45215"></scales>
<clustering>
<clus scale="   63.676">  1  9  2 -1</clus>
<clus scale="   77.355">  5  6 -1 -1</clus>
<clus scale="   91.608">  7  8 -1 -1</clus>
<clus scale="  106.452">  1 10  2 -1</clus>
<clus scale="  139.076">  1  5  2 -1</clus>
<clus scale="   63.676">  1  5  2 -1</clus>
</clustering>
</event>
<event>
10    4  0.3403565E-005  0.2000344E+03  0.7546771E-02  0.1177273E+00
         21   -1    0    0  503  502  0.00000000000E+00  0.00000000000E+00  0.43702043784E+02  0.43702043784E+02  0.00000000000E+00 0.  1.
          2   -1    0    0  502    0 -0.00000000000E+00 -0.00000000000E+00 -0.17740820610E+04  0.17740820610E+04  0.00000000000E+00 0. -1.
         24    2    1    2    0    0  0.36258718377E+01 -0.75182138245E+02 -0.38659463348E+03  0.40184707769E+03  0.79750626066E+02 0.  0.
         23    2    1    2    0    0  0.15546976369E+03 -0.42954818415E+02 -0.39397746476E+03  0.43570200493E+03  0.92747132101E+02 0.  0.
        -11    1    3    3    0    0  0.23208723718E+02 -0.70738508678E+02 -0.18745692396E+03  0.20169947894E+03  0.00000000000E+00 0.  1.
         12    1    3    3    0    0 -0.19582851880E+02 -0.44436295664E+01 -0.19913770952E+03  0.20014759875E+03  0.00000000000E+00 0. -1.
        -13    1    4    4    0    0  0.53758748910E+02  0.77652106888E+01 -0.51470482813E+02  0.74829888296E+02  0.00000000000E+00 0.  1.
         13    1    4    4    0    0  0.10171101478E+03 -0.50720029104E+02 -0.34250698195E+03  0.36087211663E+03  0.00000000000E+00 0. -1.
         21    1    1    2  503  501  0.21737425153E+02  0.32816967699E+02 -0.10635281024E+03  0.11340365632E+03  0.00000000000E+00 0.  1.
          1    1    1    2  501    0 -0.18083306068E+03  0.85319988960E+02 -0.84345510877E+03  0.86683136588E+03  0.00000000000E+00 0. -1.
<scales pt_clust_5="13000.00000" pt_clust_6="13000.00000" pt_clust_7="13000.00000" pt_clust_8="13000.00000" pt_clust_9="39.36330" pt_clust_10="177.23361"></scales>
<clustering>
<clus scale="   39.363">  1  9  2 -1</clus>
<clus scale="   79.751">  5  6 -1 -1</clus>
<clus scale="   92.747">  7  8 -1 -1</clus>
<clus scale="  105.711">  2  5  1 -1</clus>
<clus scale="  177.234">  1 10  2 -1</clus>
<clus scale="   39.363">  1  5  2 -1</clus>
</clustering>
</event>
<event>
10    4  0.3403565E-005  0.9974732E+02  0.7546771E-02  0.1286314E+00
         21   -1    0    0  501  502  0.00000000000E+00  0.00000000000E+00  0.68597496423E+02  0.68597496423E+02  0.00000000000E+00 0. -1.
          2   -1    0    0  503    0 -0.00000000000E+00 -0.00000000000E+00 -0.43402154097E+03  0.43402154097E+03  0.00000000000E+00 0. -1.
         24    2    1    2    0    0 -0.40852409156E+02  0.16587887843E+02 -0.14210922128E+03  0.16924555440E+03  0.80653267474E+02 0.  0.
         23    2    1    2    0    0  0.29213709355E+02 -0.65508630616E+01 -0.41850423870E+02  0.10496642501E+03  0.91488457087E+02 0.  0.
        -13    1    3    3    0    0  0.13235512002E+02  0.30923209800E+02 -0.72591129650E+02  0.80005598468E+02  0.00000000000E+00 0.  1.
         14    1    3    3    0    0 -0.54087921158E+02 -0.14335321957E+02 -0.69518091626E+02  0.89239955929E+02  0.00000000000E+00 0. -1.
        -11    1    4    4    0    0 -0.10108114787E+02 -0.41327687065E+02 -0.27083645759E+02  0.50434864630E+02  0.00000000000E+00 0.  1.
         11    1    4    4    0    0  0.39321824142E+02  0.34776824003E+02 -0.14766778112E+02  0.54531560380E+02  0.00000000000E+00 0. -1.
         21    1    1    2  503  502 -0.26106233032E+02  0.93728110565E+00  0.13579421952E+02  0.29441715295E+02  0.00000000000E+00 0. -1.
          1    1    1    2  501    0  0.37744932833E+02 -0.10974305887E+02 -0.19504382135E+03  0.19896534269E+03  0.00000000000E+00 0. -1.
<scales pt_clust_5="13000.00000" pt_clust_6="13000.00000" pt_clust_7="13000.00000" pt_clust_8="13000.00000" pt_clust_9="26.12305" pt_clust_10="38.25413"></scales>
<clustering>
<clus scale="   26.123">  1  9  2 -1</clus>
<clus scale="   38.254">  1 10  2 -1</clus>
<clus scale="   80.653">  5  6 -1 -1</clus>
<clus scale="   89.913">  2  5  1 -1</clus>
<clus scale="   91.488">  7  8 -1 -1</clus>
<clus scale="   26.123">  1  5  2 -1</clus>
</clustering>
</event>
<event>
10    4  0.3403565E-005  0.3948485E+03  0.7546771E-02  0.1045578E+00
          2   -1    0    0  503    0 -0.00000000000E+00  0.00000000000E+00  0.95856205151E+03  0.95856205151E+03  0.00000000000E+00 0. -1.
         21   -1    0    0  501  502  0.00000000000E+00 -0.00000000000E+00 -0.60503993141E+03  0.60503993141E+03  0.00000000000E+00 0. -1.
         24    2    1    2    0    0 -0.16430424110E+03  0.27074162868E+02  0.41089678674E+03  0.45048487747E+03  0.79822061775E+02 0.  0.
         23    2    1    2    0    0 -0.18268085764E+03 -0.17960465853E+02  0.42989056275E+03  0.47773892126E+03  0.98659550259E+02 0.  0.
        -11    1    3    3    0    0 -0.48528480925E+02  0.25817449421E+02  0.61902093915E+02  0.82785405637E+02  0.00000000000E+00 0.  1.
         12    1    3    3    0    0 -0.11577576017E+03  0.12567134470E+01  0.34899469282E+03  0.36769947184E+03  0.00000000000E+00 0. -1.
        -11    1    4    4    0    0 -0.13605178309E+03  0.32270790035E+02  0.29231398561E+03  0.32403542670E+03  0.00000000000E+00 0. -1.
         11    1    4    4    0    0 -0.46629074550E+02 -0.50231255888E+02  0.13757657714E+03  0.15370349456E+03  0.00000000000E+00 0.  1.
         21    1    1    2  503  502 -0.20636921634E+02 -0.53319758776E+01 -0.96614946368E+02  0.98938164340E+02  0.00000000000E+00 0. -1.
          1    1    1    2  501    0  0.36762202037E+03 -0.37817211381E+01 -0.39065028302E+03  0.53644001985E+03  0.00000000000E+00 0. -1.
<scales pt_clust_5="13000.00000" pt_clust_6="13000.00000" pt_clust_7="13000.00000" pt_clust_8="13000.00000" pt_clust_9="21.31461" pt_clust_10="348.87104"></scales>
<clustering>
<clus scale="   21.315">  2  9  1 -1</clus>
<clus scale="   79.822">  5  6 -1 -1</clus>
<clus scale="   98.660">  7  8 -1 -1</clus>
<clus scale="  108.112">  5  7 -1 -1</clus>
<clus scale="  348.871">  2 10  1 -1</clus>
<clus scale="   21.315">  2  5  1 -1</clus>
</clustering>
</event>
<event>
10    4  0.3403565E-005  0.1547754E+03  0.7546771E-02  0.1199534E+00
          2   -1    0    0  503    0 -0.00000000000E+00  0.00000000000E+00  0.47663345107E+03  0.47663345107E+03  0.00000000000E+00 0. -1.
         21   -1    0    0  501  502  0.00000000000E+00 -0.00000000000E+00 -0.33324699255E+03  0.33324699255E+03  0.00000000000E+00 0.  1.
         23    2    1    2    0    0 -0.18629791185E+02 -0.84738341976E+02 -0.39005454229E+02  0.13187914052E+03  0.91340169283E+02 0.  0.
         24    2    1    2    0    0  0.86255984042E+02 -0.32525316474E+02 -0.14317192905E+03  0.18817152373E+03  0.80077025909E+02 0.  0.
        -11    1    4    4    0    0  0.89602368031E+02 -0.49705043160E+02 -0.10792769684E+03  0.14882057458E+03  0.00000000000E+00 0.  1.
         12    1    4    4    0    0 -0.33463839884E+01  0.17179726686E+02 -0.35244232212E+02  0.39350949150E+02  0.00000000000E+00 0. -1.
        -13    1    3    3    0    0  0.35958357227E+02 -0.46763204860E+02 -0.12538539232E+02  0.60307675708E+02  0.00000000000E+00 0.  1.
         13    1    3    3    0    0 -0.54588148412E+02 -0.37975137116E+02 -0.26466914997E+02  0.71571464813E+02  0.00000000000E+00 0. -1.
         21    1    1    2  503  502  0.28680800340E+02 -0.65418194086E+02 -0.30931407128E+02  0.77838810194E+02  0.00000000000E+00 0.  1.
          1    1    1    2  501    0 -0.96306993197E+02  0.18268185254E+03  0.35649524893E+03  0.41199096919E+03  0.00000000000E+00 0. -1.
<scales pt_clust_5="13000.00000" pt_clust_6="13000.00000" pt_clust_7="13000.00000" pt_clust_8="13000.00000" pt_clust_9="71.42918" pt_clust_10="132.45047"></scales>
<clustering>
<clus scale="   71.429">  2  9  1 -1</clus>
<clus scale="   80.077">  5  6 -1 -1</clus>
<clus scale="   91.340">  7  8 -1 -1</clus>
<clus scale="  139.353">  1  7  2 -1</clus>
<clus scale="  132.450">  2 10  1 -1</clus>
<clus scale="   71.429">  2  5  1 -1</clus>
</clustering>
</event>
<event>
10    4  0.3403565E-005  0.1369160E+03  0.7546771E-02  0.1219551E+00
         21   -1    0    0  501  502  0.00000000000E+00  0.00000000000E+00  0.45633787268E+03  0.45633787268E+03  0.00000000000E+00 0. -1.
         -3   -1    0    0    0  501 -0.00000000000E+00 -0.00000000000E+00 -0.40024219467E+03  0.40024219467E+03  0.00000000000E+00 0.  1.
         24    2    1    2    0    0 -0.53632069779E+02 -0.83071091818E+02 -0.29557451201E+03  0.32238967662E+03  0.82423335489E+02 0.  0.
         23    2    1    2    0    0  0.12669038179E+02  0.15918296425E+03  0.11674313734E+03  0.21781652642E+03  0.91188587164E+02 0.  0.
        -13    1    3    3    0    0 -0.10503981417E+02 -0.84111454688E+02 -0.21248195748E+03  0.22876549716E+03  0.00000000000E+00 0.  1.
         14    1    3    3    0    0 -0.43128088362E+02  0.10403628696E+01 -0.83092554528E+02  0.93624179455E+02  0.00000000000E+00 0. -1.
        -13    1    4    4    0    0  0.35586324989E+02  0.15655314065E+03  0.10589534796E+03  0.19232549777E+03  0.00000000000E+00 0. -1.
         13    1    4    4    0    0 -0.22917286811E+02  0.26298235988E+01  0.10847789377E+02  0.25491028643E+02  0.00000000000E+00 0.  1.
         21    1    1    2  503  502 -0.14139106030E+02 -0.26343486764E+02  0.24008967461E+03  0.24194409575E+03  0.00000000000E+00 0. -1.
         -4    1    1    2    0  503  0.55102137630E+02 -0.49768385668E+02 -0.51626219222E+01  0.74429768564E+02  0.00000000000E+00 0.  1.
<scales pt_clust_5="13000.00000" pt_clust_6="13000.00000" pt_clust_7="13000.00000" pt_clust_8="13000.00000" pt_clust_9="29.89805" pt_clust_10="75.54732"></scales>
<clustering>
<clus scale="   29.898">  1  9  2 -1</clus>
<clus scale="   75.547">  1 10  2 -1</clus>
<clus scale="   82.423">  5  6 -1 -1</clus>
<clus scale="   91.189">  7  8 -1 -1</clus>
<clus scale="  131.241">  2  5  1 -1</clus>
<clus scale="   29.898">  1  5  2 -1</clus>
</clustering>
</event>
<event>
10    4  0.3403565E-005  0.2322976E+03  0.7546771E-02  0.1146334E+00
          2   -1    0    0  502    0 -0.00000000000E+00  0.00000000000E+00  0.10734928723E+04  0.10734928723E+04  0.00000000000E+00 0. -1.
         21   -1    0    0  503  502  0.00000000000E+00 -0.00000000000E+00 -0.99155996849E+02  0.99155996849E+02  0.00000000000E+00 0. -1.
         23    2    1    2    0    0 -0.32365133951E+02  0.71475088057E+02  0.36283329682E+03  0.38906977436E+03  0.11649505538E+03 0.  0.
         24    2    1    2    0    0 -0.20255064443E+03 -0.40021891234E+02  0.35588976048E+03  0.41937438696E+03  0.81171666818E+02 0.  0.
        -11    1    4    4    0    0 -0.80315433919E+02 -0.55225292574E+02  0.13577882780E+03  0.16714153267E+03  0.00000000000E+00 0.  1.
         12    1    4    4    0    0 -0.12223521051E+03  0.15203401340E+02  0.22011093268E+03  0.25223285430E+03  0.00000000000E+00 0. -1.
        -11    1    3    3    0    0 -0.56203233218E+02  0.83337485906E+02  0.33810845506E+03  0.35273398952E+03  0.00000000000E+00 0. -1.
         11    1    3    3    0    0  0.23838099268E+02 -0.11862397848E+02  0.24724841760E+02  0.36335784834E+02  0.00000000000E+00 0.  1.
         21    1    1    2  503  501  0.72668336116E+01 -0.24539881557E+02  0.59727729700E+01  0.26280918449E+02  0.00000000000E+00 0.  1.
          1    1    1    2  501    0  0.22764894476E+03 -0.69133152667E+01  0.24964104514E+03  0.33792378933E+03  0.00000000000E+00 0. -1.
<scales pt_clust_5="13000.00000" pt_clust_6="13000.00000" pt_clust_7="13000.00000" pt_clust_8="13000.00000" pt_clust_9="25.59322" pt_clust_10="217.65417"></scales>
<clustering>
<clus scale="   25.593">  2  9  1 -1</clus>
<clus scale="   81.172">  5  6 -1 -1</clus>
<clus scale="  116.495">  7  8 -1 -1</clus>
<clus scale="  138.402">  1  7  2 -1</clus>
<clus scale="  217.654">  2 10  1 -1</clus>
<clus scale="   25.593">  2  5  1 -1</clus>
</clustering>
</event>
<event>
10    4  0.3403565E-005  0.1861480E+03  0.7546771E-02  0.1196415E+00
         21   -1    0    0  503  502  0.00000000000E+00  0.00000000000E+00  0.74918202731E+02  0.74918202731E+02  0.00000000000E+00 0.  1.
         -1   -1    0    0    0  501 -0.00000000000E+00 -0.00000000000E+00 -0.90439785901E+03  0.90439785901E+03  0.00000000000E+00 0.  1.
         23    2    1    2    0    0 -0.23003565149E+00 -0.69581659849E+01 -0.23943873003E+03  0.25435772398E+03  0.85548099448E+02 0.  0.
         24    2    1    2    0    0 -0.10002127799E+03  0.96061547146E+02 -0.16651634658E+03  0.23112121574E+03  0.80356989703E+02 0.  0.
        -11    1    4    4    0    0 -0.99388615671E+02  0.10703577262E+03 -0.13960018653E+03  0.20204693917E+03  0.00000000000E+00 0.  1.
         12    1    4    4    0    0 -0.63266232125E+00 -0.10974225477E+02 -0.26916160051E+02  0.29074276574E+02  0.00000000000E+00 0. -1.
        -13    1    3    3    0    0 -0.37924074501E+02 -0.11095331894E+02 -0.17657709927E+03  0.18094422843E+03  0.00000000000E+00 0.  1.
         13    1    3    3    0    0  0.37694038849E+02  0.41371659091E+01 -0.62861630762E+02  0.73413495548E+02  0.00000000000E+00 0. -1.
         21    1    1    2  503  501 -0.40090729562E+02  0.36436318613E+02 -0.42612761341E+02  0.68925462204E+02  0.00000000000E+00 0. -1.
         -2    1    1    2    0  502  0.14034204321E+03 -0.12553969977E+03 -0.38091181832E+03  0.42491165981E+03  0.00000000000E+00 0.  1.
<scales pt_clust_5="13000.00000" pt_clust_6="13000.00000" pt_clust_7="13000.00000" pt_clust_8="13000.00000" pt_clust_9="54.17446" pt_clust_10="167.91028"></scales>
<clustering>
<clus scale="   54.174">  1  9  2 -1</clus>
<clus scale="   80.357">  5  6 -1 -1</clus>
<clus scale="   85.548">  7  8 -1 -1</clus>
<clus scale="   85.736">  2  7  1 -1</clus>
<clus scale="  167.910">  1 10  2 -1</clus>
<clus scale="   54.174">  1  5  2 -1</clus>
</clustering>
</event>
<event>
10    4  0.3403565E-005  0.1954205E+03  0.7546771E-02  0.1195578E+00
         21   -1    0    0  501  502  0.00000000000E+00  0.00000000000E+00  0.60202079006E+03  0.60202079006E+03  0.00000000000E+00 0.  1.
          2   -1    0    0  503    0 -0.00000000000E+00 -0.00000000000E+00 -0.14311305582E+03  0.14311305582E+03  0.00000000000E+00 0. -1.
         24    2    1    2    0    0 -0.90328522721E+01 -0.17573759955E+02 -0.52963735792E+02  0.91957172964E+02  0.72529544955E+02 0.  0.
         23    2    1    2    0    0 -0.56967791817E+02 -0.12828903727E+03  0.18035564117E+03  0.25141526864E+03  0.10477630274E+03 0.  0.
        -13    1    3    3    0    0  0.19506313933E+02 -0.35980295315E+02 -0.24943478024E+02  0.47929688400E+02  0.00000000000E+00 0.  1.
         14    1    3    3    0    0 -0.28539166205E+02  0.18406535359E+02 -0.28020257768E+02  0.44027484564E+02  0.00000000000E+00 0. -1.
        -13    1    4    4    0    0 -0.84202972010E+02 -0.65379931567E+02  0.11065234163E+03  0.15365095722E+03  0.00000000000E+00 0. -1.
         13    1    4    4    0    0  0.27235180192E+02 -0.62909105699E+02  0.69703299539E+02  0.97764311416E+02  0.00000000000E+00 0.  1.
         21    1    1    2  503  502 -0.88271923500E+01 -0.27922061125E+02  0.91871985333E+02  0.96426254263E+02  0.00000000000E+00 0.  1.
          1    1    1    2  501    0  0.74827836439E+02  0.17378485835E+03  0.23964384353E+03  0.30533515002E+03  0.00000000000E+00 0. -1.
<scales pt_clust_5="13000.00000" pt_clust_6="13000.00000" pt_clust_7="13000.00000" pt_clust_8="13000.00000" pt_clust_9="29.28414" pt_clust_10="164.95786"></scales>
<clustering>
<clus scale="   29.284">  1  9  2 -1</clus>
<clus scale="   72.530">  5  6 -1 -1</clus>
<clus scale="   75.472">  2  5  1 -1</clus>
<clus scale="  104.776">  7  8 -1 -1</clus>
<clus scale="  164.958">  1 10  2 -1</clus>
<clus scale="   29.284">  1  5  2 -1</clus>
</clustering>
</event>
<event>
10    4  0.3403565E-005  0.1457219E+03  0.7546771E-02  0.1232163E+00
         21   -1    0    0  503  502  0.00000000000E+00  0.00000000000E+00  0.44281606770E+02  0.44281606770E+02  0.00000000000E+00 0.  1.
          2   -1    0    0  502    0 -0.00000000000E+00 -0.00000000000E+00 -0.94846747198E+03  0.94846747198E+03  0.00000000000E+00 0. -1.
         23    2    1    2    0    0  0.32010193399E+02  0.35270820397E+01 -0.22076664389E+03  0.23678416154E+03  0.79320459620E+02 0.  0.
         24    2    1    2    0    0 -0.98322392186E+02  0.67095096630E+02 -0.24204493403E+03  0.28158678260E+03  0.80847518489E+02 0.  0.
        -13    1    4    4    0    0 -0.56741321246E+02  0.18789570704E+01 -0.54408013910E+02  0.78634216433E+02  0.00000000000E+00 0.  1.
         14    1    4    4    0    0 -0.41581070940E+02  0.65216139560E+02 -0.18763692012E+03  0.20295256616E+03  0.00000000000E+00 0. -1.
        -13    1    3    3    0    0  0.35870549273E+01  0.39472211049E+02 -0.95457771460E+02  0.10335912413E+03  0.00000000000E+00 0. -1.
         13    1    3    3    0    0  0.28423138472E+02 -0.35945129009E+02 -0.12530887243E+03  0.13342503742E+03  0.00000000000E+00 0.  1.
         21    1    1    2  503  501 -0.23455708817E+02 -0.70791370535E+00 -0.57788845048E+01  0.24167476576E+02  0.00000000000E+00 0.  1.
          1    1    1    2  501    0  0.89767907604E+02 -0.69914264965E+02 -0.43559540278E+03  0.45021065803E+03  0.00000000000E+00 0. -1.
<scales pt_clust_5="13000.00000" pt_clust_6="13000.00000" pt_clust_7="13000.00000" pt_clust_8="13000.00000" pt_clust_9="23.46639" pt_clust_10="121.23769"></scales>
<clustering>
<clus scale="   23.466">  1  9  2 -1</clus>
<clus scale="   79.320">  7  8 -1 -1</clus>
<clus scale="   80.848">  5  6 -1 -1</clus>
<clus scale="   83.747">  2  7  1 -1</clus>
<clus scale="  121.238">  1 10  2 -1</clus>
<clus scale="   23.466">  1  5  2 -1</clus>
</clustering>
</event>
<event>
10    4  0.3403565E-005  0.9770322E+02  0.7546771E-02  0.1292331E+00
         21   -1    0    0  501  502  0.00000000000E+00  0.00000000000E+00  0.50655151378E+02  0.50655151378E+02  0.00000000000E+00 0. -1.
          2   -1    0    0  503    0 -0.00000000000E+00 -0.00000000000E+00 -0.76640964513E+03  0.76640964513E+03  0.00000000000E+00 0. -1.
         24    2    1    2    0    0  0.78523685400E+00  0.27315701389E+02 -0.44720518948E+03  0.45469108750E+03  0.77490253647E+02 0.  0.
         23    2    1    2    0    0  0.46392491440E+02 -0.94073369963E+02 -0.15825335884E+03  0.21045697626E+03  0.90807219292E+02 0.  0.
        -13    1    3    3    0    0 -0.15603475405E+01 -0.27248119635E+02 -0.13242689897E+03  0.13521012639E+03  0.00000000000E+00 0.  1.
         14    1    3    3    0    0  0.23455843945E+01  0.54563821024E+02 -0.31477829051E+03  0.31948096111E+03  0.00000000000E+00 0. -1.
        -11    1    4    4    0    0 -0.24998625243E+02 -0.66571730402E+01 -0.28941962555E+02  0.38818634874E+02  0.00000000000E+00 0.  1.
         11    1    4    4    0    0  0.71391116683E+02 -0.87416196922E+02 -0.12931139629E+03  0.17163834139E+03  0.00000000000E+00 0. -1.
         21    1    1    2  503  502  0.12629672657E+02  0.15893278944E+02 -0.56107596419E+01  0.21061471240E+02  0.00000000000E+00 0.  1.
          1    1    1    2  501    0 -0.59807400951E+02  0.50864389630E+02 -0.10468518579E+03  0.13085526151E+03  0.00000000000E+00 0. -1.
<scales pt_clust_5="13000.00000" pt_clust_6="13000.00000" pt_clust_7="13000.00000" pt_clust_8="13000.00000" pt_clust_9="20.30037" pt_clust_10="78.96036"></scales>
<clustering>
<clus scale="   20.300">  1  9  2 -1</clus>
<clus scale="   77.490">  5  6 -1 -1</clus>
<clus scale="   78.960">  1 10  2 -1</clus>
<clus scale="   85.468">  2  5  1 -1</clus>
<clus scale="   90.807">  7  8 -1 -1</clus>
<clus scale="   20.300">  1  5  2 -1</clus>
</clustering>
</event>
<event>
10    4  0.3403565E-005  0.9499202E+02  0.7546771E-02  0.1297063E+00
         -3   -1    0    0    0  501 -0.00000000000E+00  0.00000000000E+00  0.62191550487E+03  0.62191550487E+03  0.00000000000E+00 0.  1.
         21   -1    0    0  501  502  0.00000000000E+00 -0.00000000000E+00 -0.47609588833E+03  0.47609588833E+03  0.00000000000E+00 0.  1.
         24    2    1    2    0    0  0.29173667471E+02 -0.36955761748E+02  0.37461440493E+03  0.38590492119E+03  0.79811181023E+02 0.  0.
         23    2    1    2    0    0  0.26445502777E+02  0.11229808303E+02  0.20037522740E+03  0.22162152270E+03  0.90224134002E+02 0.  0.
        -11    1    3    3    0    0  0.37706106508E+02  0.12695157944E+02  0.21069490086E+03  0.21441841981E+03  0.00000000000E+00 0.  1.
         12    1    3    3    0    0 -0.85324390365E+01 -0.49650919692E+02  0.16391950407E+03  0.17148650138E+03  0.00000000000E+00 0. -1.
        -11    1    4    4    0    0 -0.28415572122E+02 -0.82598217781E+01  0.11161314317E+03  0.11546931680E+03  0.00000000000E+00 0. -1.
         11    1    4    4    0    0  0.54861074899E+02  0.19489630081E+02  0.88762084233E+02  0.10615220590E+03  0.00000000000E+00 0.  1.
         21    1    1    2  503  502  0.60316544525E+02  0.62554473426E+02 -0.30304072440E+03  0.31525359369E+03  0.00000000000E+00 0.  1.
         -4    1    1    2    0  503 -0.11593571477E+03 -0.36828519981E+02 -0.12612929140E+03  0.17523135562E+03  0.00000000000E+00 0.  1.
<scales pt_clust_5="13000.00000" pt_clust_6="13000.00000" pt_clust_7="13000.00000" pt_clust_8="13000.00000" pt_clust_9="86.89734" pt_clust_10="64.55384"></scales>
<clustering>
<clus scale="   79.811">  5  6 -1 -1</clus>
<clus scale="   86.897">  2  9  1 -1</clus>
<clus scale="   64.554">  2 10  1 -1</clus>
<clus scale="   85.164">  1  5  2 -1</clus>
<clus scale="   90.224">  7  8 -1 -1</clus>
<clus scale="   86.897">  2  5  1 -1</clus>
</clustering>
</event>
<event>
10    4  0.3403565E-005  0.9096689E+02  0.7546771E-02  0.1303508E+00
         -1   -1    0    0    0  501 -0.00000000000E+00  0.00000000000E+00  0.12818881173E+04  0.12818881173E+04  0.00000000000E+00 0.  1.
         21   -1    0    0  503  502  0.00000000000E+00 -0.00000000000E+00 -0.37177426626E+02  0.37177426626E+02  0.00000000000E+00 0. -1.
         24    2    1    2    0    0  0.31648222142E+02 -0.15490117960E+01  0.74769453694E+03  0.75273066789E+03  0.80946453959E+02 0.  0.
         23    2    1    2    0    0 -0.40280457971E+02  0.59258431297E+02  0.82951088333E+02  0.13937758020E+03  0.86088035367E+02 0.  0.
        -11    1    3    3    0    0  0.20306710691E+02 -0.33582017484E+02  0.19046865785E+03  0.19446959665E+03  0.00000000000E+00 0.  1.
         12    1    3    3    0    0  0.11341511451E+02  0.32033005688E+02  0.55722587909E+03  0.55826107124E+03  0.00000000000E+00 0. -1.
        -11    1    4    4    0    0 -0.34794864756E+02  0.80992163525E+02  0.56484650970E+02  0.10469445526E+03  0.00000000000E+00 0. -1.
         11    1    4    4    0    0 -0.54855932149E+01 -0.21733732228E+02  0.26466437363E+02  0.34683124948E+02  0.00000000000E+00 0.  1.
         21    1    1    2  503  501 -0.63931475571E+01  0.21703809411E+02  0.71880169660E+02  0.75357059848E+02  0.00000000000E+00 0.  1.
         -2    1    1    2    0  502  0.15025383387E+02 -0.79413228912E+02  0.34218489578E+03  0.35160023603E+03  0.00000000000E+00 0.  1.
<scales pt_clust_5="13000.00000" pt_clust_6="13000.00000" pt_clust_7="13000.00000" pt_clust_8="13000.00000" pt_clust_9="22.62582" pt_clust_10="74.36127"></scales>
<clustering>
<clus scale="   22.626">  1  9  2 -1</clus>
<clus scale="   74.361">  2 10  1 -1</clus>
<clus scale="   80.946">  5  6 -1 -1</clus>
<clus scale="   86.088">  7  8 -1 -1</clus>
<clus scale="   86.117">  1  5  2 -1</clus>
<clus scale="   74.361">  2  5  1 -1</clus>
</clustering>
</event>
<event>
10    4  0.3403565E-005  0.1019029E+03  0.7546771E-02  0.1283500E+00
          2   -1    0    0  503    0 -0.00000000000E+00  0.00000000000E+00  0.38315432317E+03  0.38315432317E+03  0.00000000000E+00 0. -1.
         21   -1    0    0  501  502  0.00000000000E+00 -0.00000000000E+00 -0.44176712115E+03  0.44176712115E+03  0.00000000000E+00 0. -1.
         24    2    1    2    0    0 -0.39590610937E+02 -0.25023437732E+02  0.29124458831E+03  0.30509686032E+03  0.77891559539E+02 0.  0.
         23    2    1    2    0    0  0.36990113482E+02 -0.31014040286E+02  0.18246661215E+02  0.10585855733E+03  0.92428103545E+02 0.  0.
        -11    1    3    3    0    0 -0.15881207084E+02  0.14465819621E+02  0.18084392383E+02  0.28080561312E+02  0.00000000000E+00 0.  1.
         12    1    3    3    0    0 -0.23709403854E+02 -0.39489257354E+02  0.27316019593E+03  0.27701629901E+03  0.00000000000E+00 0. -1.
        -13    1    4    4    0    0  0.37931429285E+02 -0.99266384349E+01 -0.32480556490E+02  0.50914811481E+02  0.00000000000E+00 0.  1.
         13    1    4    4    0    0 -0.94131580341E+00 -0.21087401851E+02  0.50727217704E+02  0.54943745852E+02  0.00000000000E+00 0. -1.
         21    1    1    2  503  502 -0.50090896092E+02  0.49157583005E+02 -0.35128793406E+03  0.35823006359E+03  0.00000000000E+00 0. -1.
          1    1    1    2  501    0  0.52691393547E+02  0.68798950131E+01 -0.16816113447E+02  0.55735963083E+02  0.00000000000E+00 0. -1.
<scales pt_clust_5="13000.00000" pt_clust_6="13000.00000" pt_clust_7="13000.00000" pt_clust_8="13000.00000" pt_clust_9="55.32093" pt_clust_10="53.13865"></scales>
<clustering>
<clus scale="   53.139">  2 10  1 -1</clus>
<clus scale="   55.321">  2  9  1 -1</clus>
<clus scale="   77.892">  5  6 -1 -1</clus>
<clus scale="   88.929">  1  5  2 -1</clus>
<clus scale="   92.428">  7  8 -1 -1</clus>
<clus scale="   53.139">  2  5  1 -1</clus>
</clustering>
</event>
<event>
10    4  0.3403565E-005  0.1060746E+03  0.7546771E-02  0.1273013E+00
          2   -1    0    0  502    0 -0.00000000000E+00  0.00000000000E+00  0.50196261060E+03  0.50196261060E+03  0.00000000000E+00 0. -1.
         21   -1    0    0  503  502  0.00000000000E+00 -0.00000000000E+00 -0.14819197267E+03  0.14819197267E+03  0.00000000000E+00 0.  1.
         23    2    1    2    0    0  0.24178206375E+02  0.59494671343E+02  0.27955082601E+03  0.30126451354E+03  0.92127309802E+02 0.  0.
         24    2    1    2    0    0 -0.47503478228E+02  0.23943266609E+02 -0.20964880954E+00  0.96652908177E+02  0.80696222010E+02 0.  0.
        -13    1    4    4    0    0 -0.47145199611E+02  0.49134016988E+01 -0.33681105855E+02  0.58148329763E+02  0.00000000000E+00 0.  1.
         14    1    4    4    0    0 -0.35827861690E+00  0.19029864910E+02  0.33471457045E+02  0.38504578414E+02  0.00000000000E+00 0. -1.
        -11    1    3    3    0    0  0.45220982952E+02 -0.13916122030E+01  0.84479556920E+02  0.95831463628E+02  0.00000000000E+00 0. -1.
         11    1    3    3    0    0 -0.21042776577E+02  0.60886283546E+02  0.19507126909E+03  0.20543304991E+03  0.00000000000E+00 0.  1.
         21    1    1    2  503  501  0.19269694875E+02 -0.22489198001E+02 -0.80460383488E+02  0.85737730775E+02  0.00000000000E+00 0.  1.
          1    1    1    2  501    0  0.40555769772E+01 -0.60948739951E+02  0.15488984422E+03  0.16649943078E+03  0.00000000000E+00 0. -1.
<scales pt_clust_5="13000.00000" pt_clust_6="13000.00000" pt_clust_7="13000.00000" pt_clust_8="13000.00000" pt_clust_9="29.61562" pt_clust_10="63.21852"></scales>
<clustering>
<clus scale="   29.616">  2  9  1 -1</clus>
<clus scale="   63.219">  2 10  1 -1</clus>
<clus scale="   80.696">  5  6 -1 -1</clus>
<clus scale="   92.127">  7  8 -1 -1</clus>
<clus scale="   96.313">  2  5  1 -1</clus>
<clus scale="   29.616">  2  5  1 -1</clus>
</clustering>
</event>
<event>
10    4  0.3403565E-005  0.3704811E+03  0.7546771E-02  0.1054790E+00
          2   -1    0    0  503    0 -0.00000000000E+00  0.00000000000E+00  0.41520415438E+03  0.41520415438E+03  0.00000000000E+00 0. -1.
         21   -1    0    0  501  502  0.00000000000E+00 -0.00000000000E+00 -0.10752739720E+04  0.10752739720E+04  0.00000000000E+00 0.  1.
         23    2    1    2    0    0 -0.10982461662E+03  0.30546289127E+03  0.19343521584E+03  0.38901852158E+03  0.92461900522E+02 0.  0.
         24    2    1    2    0    0  0.20825945759E+03 -0.23551356958E+03 -0.80765082913E+03  0.87035759838E+03  0.79898961973E+02 0.  0.
        -11    1    4    4    0    0  0.16492746886E+03 -0.22538622577E+03 -0.67738763412E+03  0.73270323297E+03  0.00000000000E+00 0.  1.
         12    1    4    4    0    0  0.43331988732E+02 -0.10127343809E+02 -0.13026319502E+03  0.13765436541E+03  0.00000000000E+00 0. -1.
        -13    1    3    3    0    0 -0.54390511223E+02  0.43379600299E+02  0.36809941960E+02  0.78708889335E+02  0.00000000000E+00 0.  1.
         13    1    3    3    0    0 -0.55434105396E+02  0.26208329097E+03  0.15662527388E+03  0.31030963225E+03  0.00000000000E+00 0. -1.
         21    1    1    2  503  502 -0.10428775497E+02  0.64525911286E+02 -0.19757341605E+02  0.68284003492E+02  0.00000000000E+00 0.  1.
          1    1    1    2  501    0 -0.88006065472E+02 -0.13447523298E+03 -0.26096862774E+02  0.16281800297E+03  0.00000000000E+00 0. -1.
<scales pt_clust_5="13000.00000" pt_clust_6="13000.00000" pt_clust_7="13000.00000" pt_clust_8="13000.00000" pt_clust_9="65.36324" pt_clust_10="152.46537"></scales>
<clustering>
<clus scale="   65.363">  1  9  2 -1</clus>
<clus scale="   79.899">  5  6 -1 -1</clus>
<clus scale="   92.462">  7  8 -1 -1</clus>
<clus scale="  152.465">  2 10  1 -1</clus>
<clus scale="  367.547">  2  5  1 -1</clus>
<clus scale="  152.465">  2  5  1 -1</clus>
</clustering>
</event>
<event>
10    4  0.3403565E-005  0.1335499E+03  0.7546771E-02  0.1222446E+00
          2   -1    0    0  502    0 -0.00000000000E+00  0.00000000000E+00  0.31064883298E+03  0.31064883298E+03  0.00000000000E+00 0. -1.
         21   -1    0    0  503  502  0.00000000000E+00 -0.00000000000E+00 -0.38516754627E+03  0.38516754627E+03  0.00000000000E+00 0. -1.
         24    2    1    2    0    0  0.61308833566E+02 -0.34732232801E+02  0.34948414149E+02  0.11713189255E+03  0.86795089338E+02 0.  0.
         23    2    1    2    0    0 -0.16013076670E+03  0.11972016909E+02  0.45394795577E+02  0.18841965508E+03  0.87499070401E+02 0.  0.
        -11    1    3    3    0    0  0.44024251536E+02 -0.12609687786E+02 -0.24100314817E+02  0.51749049495E+02  0.00000000000E+00 0.  1.
         12    1    3    3    0    0  0.17284582030E+02 -0.22122545015E+02  0.59048728966E+02  0.65382843059E+02  0.00000000000E+00 0. -1.
        -13    1    4    4    0    0 -0.15351803757E+03 -0.12608622862E+02  0.51181735180E+02  0.16231554222E+03  0.00000000000E+00 0. -1.
         13    1    4    4    0    0 -0.66127291293E+01  0.24580639771E+02 -0.57869396039E+01  0.26104112857E+02  0.00000000000E+00 0.  1.
         21    1    1    2  503  501  0.18270907463E+02 -0.58963019981E+02 -0.23972510388E+03  0.24754512561E+03  0.00000000000E+00 0. -1.
          1    1    1    2  501    0  0.80551025670E+02  0.81723235873E+02  0.84863180862E+02  0.14271970601E+03  0.00000000000E+00 0. -1.
<scales pt_clust_5="13000.00000" pt_clust_6="13000.00000" pt_clust_7="13000.00000" pt_clust_8="13000.00000" pt_clust_9="61.72895" pt_clust_10="109.35348"></scales>
<clustering>
<clus scale="   61.729">  2  9  1 -1</clus>
<clus scale="   86.795">  5  6 -1 -1</clus>
<clus scale="   87.499">  7  8 -1 -1</clus>
<clus scale="  109.353">  2 10  1 -1</clus>
<clus scale="  133.090">  1  5  2 -1</clus>
<clus scale="   61.729">  2  5  1 -1</clus>
</clustering>
</event>
<event>
10    4  0.3403565E-005  0.3506004E+03  0.7546771E-02  0.1108450E+00
          2   -1    0    0  502    0 -0.00000000000E+00  0.00000000000E+00  0.20253061363E+04  0.20253061363E+04  0.00000000000E+00 0. -1.
         21   -1    0    0  503  502  0.00000000000E+00 -0.00000000000E+00 -0.13019569081E+03  0.13019569081E+03  0.00000000000E+00 0.  1.
         24    2    1    2    0    0  0.18948503845E+02 -0.34440646482E+02  0.53714389096E+02  0.10757741327E+03  0.84513077820E+02 0.  0.
         23    2    1    2    0    0 -0.38260631237E+03  0.49815341431E+01  0.49315251184E+03  0.63079546406E+03  0.91055541299E+02 0.  0.
        -11    1    3    3    0    0 -0.17486535777E+02 -0.49875332941E+02  0.23751582957E+02  0.57943640396E+02  0.00000000000E+00 0.  1.
         12    1    3    3    0    0  0.36435039622E+02  0.15434686459E+02  0.29962806139E+02  0.49633772877E+02  0.00000000000E+00 0. -1.
        -13    1    4    4    0    0 -0.18107222285E+03 -0.32383179367E+02  0.18651447188E+03  0.26196081465E+03  0.00000000000E+00 0.  1.
         13    1    4    4    0    0 -0.20153408952E+03  0.37364713510E+02  0.30663803996E+03  0.36883464941E+03  0.00000000000E+00 0. -1.
         21    1    1    2  503  501  0.62035284176E+02 -0.55761152291E+02  0.10042507286E+03  0.13054837359E+03  0.00000000000E+00 0.  1.
          1    1    1    2  501    0  0.30162252435E+03  0.85220264630E+02  0.12478184717E+04  0.12865805761E+04  0.00000000000E+00 0. -1.
<scales pt_clust_5="13000.00000" pt_clust_6="13000.00000" pt_clust_7="13000.00000" pt_clust_8="13000.00000" pt_clust_9="83.41272" pt_clust_10="338.57003"></scales>
<clustering>
<clus scale="   83.413">  2  9  1 -1</clus>
<clus scale="   84.513">  5  6 -1 -1</clus>
<clus scale="   91.056">  7  8 -1 -1</clus>
<clus scale="  102.551">  1  5  2 -1</clus>
<clus scale="  338.570">  2 10  1 -1</clus>
<clus scale="   83.413">  2  5  1 -1</clus>
</clustering>
</event>
<event>
10    4  0.3403565E-005  0.2018722E+03  0.7546771E-02  0.1179348E+00
         -3   -1    0    0    0  501 -0.00000000000E+00  0.00000000000E+00  0.24476968446E+03  0.24476968446E+03  0.00000000000E+00 0.  1.
         21   -1    0    0  503  502  0.00000000000E+00 -0.00000000000E+00 -0.38950828681E+03  0.38950828681E+03  0.00000000000E+00 0.  1.
         23    2    1    2    0    0 -0.24381875723E+02 -0.25658312777E+02  0.89631523693E+02  0.13307257546E+03  0.91769686830E+02 0.  0.
         24    2    1    2    0    0 -0.15422009527E+03 -0.78565313728E+02 -0.12721553721E+03  0.22981808474E+03  0.81708095449E+02 0.  0.
        -11    1    4    4    0    0 -0.78000238084E+02 -0.11478781113E+02 -0.18345796066E+02  0.80946697217E+02  0.00000000000E+00 0.  1.
         12    1    4    4    0    0 -0.76219857185E+02 -0.67086532615E+02 -0.10886974114E+03  0.14887138753E+03  0.00000000000E+00 0. -1.
        -11    1    3    3    0    0 -0.41910063852E+02 -0.37347591503E+01  0.95534088478E+02  0.10438948194E+03  0.00000000000E+00 0.  1.
         11    1    3    3    0    0  0.17528188130E+02 -0.21923553627E+02 -0.59025647853E+01  0.28683093518E+02  0.00000000000E+00 0. -1.
         21    1    1    2  503  501 -0.65761670541E+01  0.18987370403E+02 -0.58434588846E+02  0.61792939577E+02  0.00000000000E+00 0.  1.
         -4    1    1    2    0  502  0.18517813805E+03  0.85236256102E+02 -0.48719999987E+02  0.20959437150E+03  0.00000000000E+00 0.  1.
<scales pt_clust_5="13000.00000" pt_clust_6="13000.00000" pt_clust_7="13000.00000" pt_clust_8="13000.00000" pt_clust_9="20.09393" pt_clust_10="184.59737"></scales>
<clustering>
<clus scale="   20.094">  2  9  1 -1</clus>
<clus scale="   81.708">  5  6 -1 -1</clus>
<clus scale="   91.770">  7  8 -1 -1</clus>
<clus scale="   98.149">  1  7  2 -1</clus>
<clus scale="  184.597">  2 10  1 -1</clus>
<clus scale="   20.094">  2  5  1 -1</clus>
</clustering>
</event>
<event>
10    4  0.3474887E-005  0.1979240E+03  0.7546771E-02  0.1173438E+00
         21   -1    0    0  501  502  0.00000000000E+00  0.00000000000E+00  0.14453975064E+03  0.14453975064E+03  0.00000000000E+00 0. -1.
          2   -1    0    0  503    0 -0.00000000000E+00 -0.00000000000E+00 -0.18188807670E+04  0.18188807670E+04  0.00000000000E+00 0. -1.
         24    2    1    2    0    0 -0.73016300958E+02  0.17440148493E+02 -0.37291192395E+03  0.39144933106E+03  0.92378226764E+02 0.  0.
         23    2    1    2    0    0  0.69146400442E+01  0.17106402493E+03 -0.44577017326E+03  0.48601327208E+03  0.90482818223E+02 0.  0.
        -11    1    3    3    0    0  0.13360861828E+02 -0.20628483741E+02 -0.82324909201E+02  0.85915293430E+02  0.00000000000E+00 0.  1.
         12    1    3    3    0    0 -0.86377162785E+02  0.38068632234E+02 -0.29058701475E+03  0.30553403763E+03  0.00000000000E+00 0. -1.
        -11    1    4    4    0    0 -0.66080756198E+00  0.72867039453E+02 -0.84606648953E+02  0.11166166375E+03  0.00000000000E+00 0. -1.
         11    1    4    4    0    0  0.75754476062E+01  0.98196985478E+02 -0.36116352431E+03  0.37435160833E+03  0.00000000000E+00 0.  1.
         21    1    1    2  503  502  0.19377833863E+03 -0.13778341506E+03 -0.19477541069E+02  0.23856589990E+03  0.00000000000E+00 0. -1.
          1    1    1    2  501    0 -0.12767667772E+03 -0.50720758365E+02 -0.83618137811E+03  0.84739201463E+03  0.00000000000E+00 0. -1.
<scales pt_clust_5="13000.00000" pt_clust_6="13000.00000" pt_clust_7="13000.00000" pt_clust_8="13000.00000" pt_clust_9="176.03054" pt_clust_10="175.20402"></scales>
<clustering>
<clus scale="   90.483">  7  8 -1 -1</clus>
<clus scale="   92.378">  5  6 -1 -1</clus>
<clus scale="  119.035">  2  5  1 -1</clus>
<clus scale="  175.204">  1 10  2 -1</clus>
<clus scale="  176.031">  1  9  2 -1</clus>
<clus scale="  175.204">  1  5  2 -1</clus>
</clustering>
</event>
<event>
10    4  0.3403565E-005  0.2219148E+03  0.7546771E-02  0.1133410E+00
          2   -1    0    0  503    0 -0.00000000000E+00  0.00000000000E+00  0.28962515431E+03  0.28962515431E+03  0.00000000000E+00 0. -1.
         21   -1    0    0  501  502  0.00000000000E+00 -0.00000000000E+00 -0.48622337252E+03  0.48622337252E+03  0.00000000000E+00 0. -1.
         24    2    1    2    0    0 -0.19779317661E+03 -0.42877499108E+02  0.56292179591E+02  0.22434900156E+03  0.78759408165E+02 0.  0.
         23    2    1    2    0    0  0.20765147672E+03 -0.40860075718E+02 -0.79068916539E+01  0.23082219748E+03  0.91802431044E+02 0.  0.
        -13    1    3    3    0    0 -0.21748370508E+02  0.13126075754E+01  0.35503740774E+02  0.41656094000E+02  0.00000000000E+00 0.  1.
         14    1    3    3    0    0 -0.17604480610E+03 -0.44190106683E+02  0.20788438817E+02  0.18269290756E+03  0.00000000000E+00 0. -1.
        -11    1    4    4    0    0  0.19187168317E+03 -0.10858935874E+02  0.10089317199E+02  0.19244337768E+03  0.00000000000E+00 0. -1.
         11    1    4    4    0    0  0.15779793540E+02 -0.30001139844E+02 -0.17996208853E+02  0.38378819800E+02  0.00000000000E+00 0.  1.
         21    1    1    2  503  502 -0.52146834729E+02  0.68073436488E+02 -0.25950071740E+03  0.27330186143E+03  0.00000000000E+00 0. -1.
          1    1    1    2  501    0  0.42288534624E+02  0.15664138337E+02  0.14517211258E+02  0.47375466364E+02  0.00000000000E+00 0. -1.
<scales pt_clust_5="13000.00000" pt_clust_6="13000.00000" pt_clust_7="13000.00000" pt_clust_8="13000.00000" pt_clust_9="81.94864" pt_clust_10="45.09642"></scales>
<clustering>
<clus scale="   45.096">  2 10  1 -1</clus>
<clus scale="   78.759">  5  6 -1 -1</clus>
<clus scale="   81.949">  2  9  1 -1</clus>
<clus scale="   91.802">  7  8 -1 -1</clus>
<clus scale="  216.844">  1  5  2 -1</clus>
<clus scale="   45.096">  2  5  1 -1</clus>
</clustering>
</event>
<event>
10    4  0.3403565E-005  0.1347471E+03  0.7546771E-02  0.1221326E+00
         21   -1    0    0  501  502  0.00000000000E+00  0.00000000000E+00  0.14268221976E+03  0.14268221976E+03  0.00000000000E+00 0. -1.
          2   -1    0    0  503    0 -0.00000000000E+00 -0.00000000000E+00 -0.37116974058E+03  0.37116974058E+03  0.00000000000E+00 0. -1.
         24    2    1    2    0    0  0.25100616419E+01  0.10647490457E+03 -0.23602571437E+03  0.27128662296E+03  0.80901719644E+02 0.  0.
         23    2    1    2    0    0  0.96008576343E+01 -0.10185939689E+03 -0.61539925284E+02  0.14615303630E+03  0.84297297784E+02 0.  0.
        -13    1    3    3    0    0  0.35951424315E+02  0.55172295769E+02 -0.79648909365E+02  0.10334619438E+03  0.00000000000E+00 0.  1.
         14    1    3    3    0    0 -0.33441362673E+02  0.51302608799E+02 -0.15637680500E+03  0.16794042857E+03  0.00000000000E+00 0. -1.
        -13    1    4    4    0    0 -0.37555807224E+02 -0.43280974538E+02 -0.28812074698E+02  0.64139044751E+02  0.00000000000E+00 0.  1.
         13    1    4    4    0    0  0.47156664858E+02 -0.58578422356E+02 -0.32727850586E+02  0.82013991552E+02  0.00000000000E+00 0. -1.
         21    1    1    2  503  502 -0.17777962168E+02  0.24699671444E+02  0.13438327641E+02  0.33267376784E+02  0.00000000000E+00 0. -1.
          1    1    1    2  501    0  0.56670428922E+01 -0.29315179119E+02  0.55639791186E+02  0.63144924302E+02  0.00000000000E+00 0. -1.
<scales pt_clust_5="13000.00000" pt_clust_6="13000.00000" pt_clust_7="13000.00000" pt_clust_8="13000.00000" pt_clust_9="23.10160" pt_clust_10="29.85792"></scales>
<clustering>
<clus scale="   29.858">  1 10  2 -1</clus>
<clus scale="   23.102">  1  9  2 -1</clus>
<clus scale="   80.902">  5  6 -1 -1</clus>
<clus scale="   84.297">  7  8 -1 -1</clus>
<clus scale="  132.649">  2  5  1 -1</clus>
<clus scale="   29.858">  1  5  2 -1</clus>
</clustering>
</event>
<event>
10    4  0.3403565E-005  0.9398238E+02  0.7546771E-02  0.1298865E+00
         21   -1    0    0  501  502  0.00000000000E+00  0.00000000000E+00  0.35097928974E+03  0.35097928974E+03  0.00000000000E+00 0. -1.
          2   -1    0    0  503    0 -0.00000000000E+00 -0.00000000000E+00 -0.12731464810E+03  0.12731464810E+03  0.00000000000E+00 0. -1.
         23    2    1    2    0    0 -0.16767814120E+02 -0.72647572912E+01 -0.42232389529E+02  0.10096471967E+03  0.89868590749E+02 0.  0.
         24    2    1    2    0    0  0.53178055047E+02  0.30422358007E+02  0.82886462961E+02  0.13077458847E+03  0.80488519945E+02 0.  0.
        -11    1    4    4    0    0  0.36155793644E+02 -0.47604742766E+01 -0.28202844552E+01  0.36576734870E+02  0.00000000000E+00 0.  1.
         12    1    4    4    0    0  0.17022261403E+02  0.35182832283E+02  0.85706747417E+02  0.94197853603E+02  0.00000000000E+00 0. -1.
        -11    1    3    3    0    0  0.21791719869E+02  0.30268736267E+02 -0.11668773189E+02  0.39079863329E+02  0.00000000000E+00 0.  1.
         11    1    3    3    0    0 -0.38559533989E+02 -0.37533493558E+02 -0.30563616340E+02  0.61884856338E+02  0.00000000000E+00 0. -1.
         21    1    1    2  503  502 -0.62906444656E+02  0.95518234771E+00  0.19797358229E+03  0.20772980633E+03  0.00000000000E+00 0. -1.
          1    1    1    2  501    0  0.26496203729E+02 -0.24112783063E+02 -0.14963014091E+02  0.38824823371E+02  0.00000000000E+00 0. -1.
<scales pt_clust_5="13000.00000" pt_clust_6="13000.00000" pt_clust_7="13000.00000" pt_clust_8="13000.00000" pt_clust_9="48.94429" pt_clust_10="35.82564"></scales>
<clustering>
<clus scale="   35.826">  1 10  2 -1</clus>
<clus scale="   48.944">  1  9  2 -1</clus>
<clus scale="   80.489">  5  6 -1 -1</clus>
<clus scale="   85.057">  1  5  2 -1</clus>
<clus scale="   89.869">  7  8 -1 -1</clus>
<clus scale="   35.826">  1  5  2 -1</clus>
</clustering>
</event>
<event>
10    4  0.3403565E-005  0.9717220E+02  0.7546771E-02  0.1292738E+00
         -3   -1    0    0    0  501 -0.00000000000E+00  0.00000000000E+00  0.76995111298E+02  0.76995111298E+02  0.00000000000E+00 0.  1.
         21   -1    0    0  503  502  0.00000000000E+00 -0.00000000000E+00 -0.32828880754E+03  0.32828880754E+03  0.00000000000E+00 0.  1.
         23    2    1    2    0    0 -0.17677937320E+02 -0.21103618410E+02  0.11585188914E+02  0.96544338310E+02  0.91808063260E+02 0.  0.
         24    2    1    2    0    0  0.51847768153E+02  0.21629778763E+02 -0.18409913330E+03  0.20849086581E+03  0.80124352412E+02 0.  0.
        -11    1    4    4    0    0  0.50541932736E+02  0.96865323608E+01 -0.18872584759E+03  0.19561636287E+03  0.00000000000E+00 0.  1.
         12    1    4    4    0    0  0.13058354164E+01  0.11943246402E+02  0.46267142864E+01  0.12874502936E+02  0.00000000000E+00 0. -1.
        -13    1    3    3    0    0  0.33330707640E+02  0.92315482392E+01  0.13598596786E+02  0.37162876492E+02  0.00000000000E+00 0. -1.
         13    1    3    3    0    0 -0.51008644960E+02 -0.30335166650E+02 -0.20134078713E+01  0.59381461817E+02  0.00000000000E+00 0.  1.
         21    1    1    2  503  501 -0.14851557244E+02 -0.20660601500E+02 -0.63561521626E+02  0.68465292217E+02  0.00000000000E+00 0.  1.
         -4    1    1    2    0  502 -0.19318273588E+02  0.20134441147E+02 -0.15218230221E+02  0.31783422500E+02  0.00000000000E+00 0.  1.
<scales pt_clust_5="13000.00000" pt_clust_6="13000.00000" pt_clust_7="13000.00000" pt_clust_8="13000.00000" pt_clust_9="25.44463" pt_clust_10="27.58002"></scales>
<clustering>
<clus scale="   25.445">  2  9  1 -1</clus>
<clus scale="   27.580">  2 10  1 -1</clus>
<clus scale="   80.124">  5  6 -1 -1</clus>
<clus scale="   86.218">  2  5  1 -1</clus>
<clus scale="   91.808">  7  8 -1 -1</clus>
<clus scale="   25.445">  2  5  1 -1</clus>
</clustering>
</event>
<event>
10    4  0.3403565E-005  0.3006840E+03  0.7546771E-02  0.1131814E+00
         -3   -1    0    0    0  501 -0.00000000000E+00  0.00000000000E+00  0.16593501169E+03  0.16593501169E+03  0.00000000000E+00 0.  1.
         21   -1    0    0  503  502  0.00000000000E+00 -0.00000000000E+00 -0.13158633180E+04  0.13158633180E+04  0.00000000000E+00 0.  1.
         24    2    1    2    0    0  0.19531448924E+02 -0.26419758821E+02 -0.15969286676E+03  0.18177962914E+03  0.80389929231E+02 0.  0.
         23    2    1    2    0    0 -0.20761799164E+03 -0.16283754397E+03 -0.83136099097E+02  0.29192365141E+03  0.93201454404E+02 0.  0.
        -13    1    3    3    0    0  0.32803777017E+02 -0.31824310412E+02 -0.38547171521E+02  0.59789287937E+02  0.00000000000E+00 0.  1.
         14    1    3    3    0    0 -0.13272328093E+02  0.54045515918E+01 -0.12114569524E+03  0.12199034120E+03  0.00000000000E+00 0. -1.
        -13    1    4    4    0    0 -0.16398898660E+03 -0.83041068351E+02 -0.81216539162E+02  0.20095853550E+03  0.00000000000E+00 0.  1.
         13    1    4    4    0    0 -0.43629005038E+02 -0.79796475617E+02 -0.19195599348E+01  0.90965115906E+02  0.00000000000E+00 0. -1.
         21    1    1    2  503  501 -0.18377356004E+02 -0.66285445556E+02 -0.38599639547E+03  0.39207742197E+03  0.00000000000E+00 0.  1.
         -4    1    1    2    0  502  0.20646389872E+03  0.25554274834E+03 -0.52110294497E+03  0.61601762715E+03  0.00000000000E+00 0.  1.
<scales pt_clust_5="13000.00000" pt_clust_6="13000.00000" pt_clust_7="13000.00000" pt_clust_8="13000.00000" pt_clust_9="68.78581" pt_clust_10="285.87471"></scales>
<clustering>
<clus scale="   68.786">  2  9  1 -1</clus>
<clus scale="   80.390">  5  6 -1 -1</clus>
<clus scale="   90.640">  1  5  2 -1</clus>
<clus scale="   93.201">  7  8 -1 -1</clus>
<clus scale="  285.875">  2 10  1 -1</clus>
<clus scale="   68.786">  2  5  1 -1</clus>
</clustering>
</event>
<event>
10    4  0.3403565E-005  0.5214541E+03  0.7546771E-02  0.1008326E+00
          2   -1    0    0  502    0 -0.00000000000E+00  0.00000000000E+00  0.17117567304E+04  0.17117567304E+04  0.00000000000E+00 0. -1.
         21   -1    0    0  503  502  0.00000000000E+00 -0.00000000000E+00 -0.17305841037E+03  0.17305841037E+03  0.00000000000E+00 0. -1.
         24    2    1    2    0    0  0.52921919017E+02  0.13346136071E+03  0.30708192167E+03  0.34947036818E+03  0.84956266997E+02 0.  0.
         23    2    1    2    0    0  0.98202908630E+02  0.31784671641E+03  0.62994319480E+03  0.71816910088E+03  0.90928996408E+02 0.  0.
        -13    1    3    3    0    0 -0.20048969043E+02  0.24080990406E+02  0.94001344822E+02  0.99086366807E+02  0.00000000000E+00 0.  1.
         14    1    3    3    0    0  0.72970888061E+02  0.10938037030E+03  0.21308057685E+03  0.25038400137E+03  0.00000000000E+00 0. -1.
        -13    1    4    4    0    0  0.11348222163E+03  0.23944611488E+03  0.48057456390E+03  0.54878462809E+03  0.00000000000E+00 0.  1.
         13    1    4    4    0    0 -0.15279313003E+02  0.78400601534E+02  0.14936863090E+03  0.16938447279E+03  0.00000000000E+00 0. -1.
         21    1    1    2  503  501  0.14748839461E+02  0.21217956293E+02 -0.90502111029E+01  0.27379486038E+02  0.00000000000E+00 0. -1.
          1    1    1    2  501    0 -0.16587366711E+03 -0.47252603342E+03  0.61072341470E+03  0.78979618570E+03  0.00000000000E+00 0. -1.
<scales pt_clust_5="13000.00000" pt_clust_6="13000.00000" pt_clust_7="13000.00000" pt_clust_8="13000.00000" pt_clust_9="25.84047" pt_clust_10="486.40936"></scales>
<clustering>
<clus scale="   25.840">  2  9  1 -1</clus>
<clus scale="   84.956">  5  6 -1 -1</clus>
<clus scale="   90.929">  7  8 -1 -1</clus>
<clus scale="   91.716">  5  7 -1 -1</clus>
<clus scale="  486.409">  2 10  1 -1</clus>
<clus scale="   25.840">  2  5  1 -1</clus>
</clustering>
</event>
<event>
10    4  0.3403565E-005  0.1294407E+03  0.7546771E-02  0.1242833E+00
         -1   -1    0    0    0  501 -0.00000000000E+00  0.00000000000E+00  0.17147859764E+03  0.17147859764E+03  0.00000000000E+00 0.  1.
         21   -1    0    0  503  502  0.00000000000E+00 -0.00000000000E+00 -0.29393277228E+03  0.29393277228E+03  0.00000000000E+00 0.  1.
         23    2    1    2    0    0  0.93877026973E+02 -0.32898852980E+02  0.50670354466E+02  0.14429189787E+03  0.91419014695E+02 0.  0.
         24    2    1    2    0    0  0.21291138287E+02  0.51449684549E+02 -0.97754857709E+02  0.13589862578E+03  0.76236747527E+02 0.  0.
        -11    1    4    4    0    0 -0.25277916615E+02  0.47800941016E+00 -0.23743249697E+02  0.34683475425E+02  0.00000000000E+00 0.  1.
         12    1    4    4    0    0  0.46569054902E+02  0.50971675139E+02 -0.74011608012E+02  0.10121515036E+03  0.00000000000E+00 0. -1.
        -11    1    3    3    0    0  0.24823014886E+02  0.26736123971E+02 -0.58715545835E+01  0.36952368615E+02  0.00000000000E+00 0. -1.
         11    1    3    3    0    0  0.69054012086E+02 -0.59634976950E+02  0.56541909050E+02  0.10733952925E+03  0.00000000000E+00 0.  1.
         21    1    1    2  503  501 -0.81898627654E+02 -0.34642502681E+02 -0.10518496453E+03  0.13773657818E+03  0.00000000000E+00 0.  1.
         -2    1    1    2    0  502 -0.33269537606E+02  0.16091671112E+02  0.29815293139E+02  0.47484268096E+02  0.00000000000E+00 0.  1.
<scales pt_clust_5="13000.00000" pt_clust_6="13000.00000" pt_clust_7="13000.00000" pt_clust_8="13000.00000" pt_clust_9="91.63759" pt_clust_10="36.95680"></scales>
<clustering>
<clus scale="   36.957">  2 10  1 -1</clus>
<clus scale="   76.237">  5  6 -1 -1</clus>
<clus scale="   91.419">  7  8 -1 -1</clus>
<clus scale="   96.124">  2  5  1 -1</clus>
<clus scale="   91.638">  2  9  1 -1</clus>
<clus scale="   36.957">  2  5  1 -1</clus>
</clustering>
</event>
<event>
10    4  0.3403565E-005  0.1186670E+03  0.7546771E-02  0.1250905E+00
         21   -1    0    0  501  502  0.00000000000E+00  0.00000000000E+00  0.18476291618E+03  0.18476291618E+03  0.00000000000E+00 0. -1.
          2   -1    0    0  503    0 -0.00000000000E+00 -0.00000000000E+00 -0.94550586349E+03  0.94550586349E+03  0.00000000000E+00 0. -1.
         23    2    1    2    0    0  0.57663522127E+02  0.38471874361E+02 -0.44168355633E+03  0.45714161934E+03  0.95335876275E+02 0.  0.
         24    2    1    2    0    0  0.14772565095E+02 -0.98611535541E+02 -0.44830478975E+03  0.46602661523E+03  0.79127479212E+02 0.  0.
        -11    1    4    4    0    0 -0.22693222483E+02 -0.59367148849E+02 -0.15130646237E+03  0.16411302893E+03  0.00000000000E+00 0.  1.
         12    1    4    4    0    0  0.37465787578E+02 -0.39244386693E+02 -0.29699832738E+03  0.30191358630E+03  0.00000000000E+00 0. -1.
        -13    1    3    3    0    0  0.49073661257E+02  0.59371209764E+02 -0.41539709159E+03  0.42247829350E+03  0.00000000000E+00 0.  1.
         13    1    3    3    0    0  0.85898608702E+01 -0.20899335402E+02 -0.26286464734E+02  0.34663325839E+02  0.00000000000E+00 0. -1.
         21    1    1    2  503  502  0.34838442977E+02  0.22280078036E+02  0.63294980095E+02  0.75606702689E+02  0.00000000000E+00 0. -1.
          1    1    1    2  501    0 -0.10727453020E+03  0.37859583144E+02  0.65950418680E+02  0.13149384240E+03  0.00000000000E+00 0. -1.
<scales pt_clust_5="13000.00000" pt_clust_6="13000.00000" pt_clust_7="13000.00000" pt_clust_8="13000.00000" pt_clust_9="41.35358" pt_clust_10="96.12359"></scales>
<clustering>
<clus scale="   41.354">  1  9  2 -1</clus>
<clus scale="   79.127">  5  6 -1 -1</clus>
<clus scale="   95.336">  7  8 -1 -1</clus>
<clus scale="   96.124">  1 10  2 -1</clus>
<clus scale="  106.085">  1  5  2 -1</clus>
<clus scale="   41.354">  1  5  2 -1</clus>
</clustering>
</event>
<event>
10    4  0.3403565E-005  0.1330108E+03  0.7546771E-02  0.1245921E+00
         21   -1    0    0  503  502  0.00000000000E+00  0.00000000000E+00  0.21019776934E+03  0.21019776934E+03  0.00000000000E+00 0. -1.
          2   -1    0    0  502    0 -0.00000000000E+00 -0.00000000000E+00 -0.84209327073E+03  0.84209327073E+03  0.00000000000E+00 0. -1.
         24    2    1    2    0    0 -0.22402955156E+02  0.27350035910E+01 -0.60451005670E+03  0.61025657027E+03  0.80444392371E+02 0.  0.
         23    2    1    2    0    0 -0.86265100061E+02 -0.10048527030E+02 -0.18342920939E+03  0.22267650152E+03  0.91629193415E+02 0.  0.
        -13    1    3    3    0    0 -0.80412307780E+01  0.28894308909E+02 -0.89681245191E+02  0.94563567079E+02  0.00000000000E+00 0.  1.
         14    1    3    3    0    0 -0.14361724378E+02 -0.26159305318E+02 -0.51482881151E+03  0.51569300320E+03  0.00000000000E+00 0. -1.
        -13    1    4    4    0    0 -0.67622109416E+02  0.33545250384E+02 -0.13640676101E+03  0.15590008966E+03  0.00000000000E+00 0. -1.
         13    1    4    4    0    0 -0.18642990646E+02 -0.43593777413E+02 -0.47022448380E+02  0.66776411861E+02  0.00000000000E+00 0.  1.
         21    1    1    2  503  501  0.30675071422E+02 -0.16558332152E+02  0.12869198649E+03  0.13332953820E+03  0.00000000000E+00 0. -1.
          1    1    1    2  501    0  0.77992983795E+02  0.23871855591E+02  0.27351778218E+02  0.86028430082E+02  0.00000000000E+00 0. -1.
<scales pt_clust_5="13000.00000" pt_clust_6="13000.00000" pt_clust_7="13000.00000" pt_clust_8="13000.00000" pt_clust_9="34.85883" pt_clust_10="96.41563"></scales>
<clustering>
<clus scale="   34.859">  1  9  2 -1</clus>
<clus scale="   80.444">  5  6 -1 -1</clus>
<clus scale="   83.241">  2  5  1 -1</clus>
<clus scale="   91.629">  7  8 -1 -1</clus>
<clus scale="   96.416">  1 10  2 -1</clus>
<clus scale="   34.859">  1  5  2 -1</clus>
</clustering>
</event>
<event>
10    4  0.3403565E-005  0.4289593E+03  0.7546771E-02  0.1034189E+00
         21   -1    0    0  501  502  0.00000000000E+00  0.00000000000E+00  0.77130268791E+03  0.77130268791E+03  0.00000000000E+00 0. -1.
          2   -1    0    0  503    0 -0.00000000000E+00 -0.00000000000E+00 -0.80139787548E+03  0.80139787548E+03  0.00000000000E+00 0. -1.
         24    2    1    2    0    0  0.19293849217E+03 -0.26958480323E+03 -0.46040411683E+03  0.57301915899E+03  0.80484643788E+02 0.  0.
         23    2    1    2    0    0  0.50972576584E+02 -0.26950014103E+02 -0.13854433157E+03  0.17463212945E+03  0.89315967217E+02 0.  0.
        -11    1    3    3    0    0  0.90271073526E+02 -0.12419035008E+03 -0.14676967624E+03  0.21239926467E+03  0.00000000000E+00 0.  1.
         12    1    3    3    0    0  0.10266741864E+03 -0.14539445315E+03 -0.31363444059E+03  0.36061989432E+03  0.00000000000E+00 0. -1.
        -11    1    4    4    0    0  0.42816950877E+02  0.26247781249E+01 -0.12174190629E+02  0.44591385491E+02  0.00000000000E+00 0. -1.
         11    1    4    4    0    0  0.81556257075E+01 -0.29574792228E+02 -0.12637014094E+03  0.13004074395E+03  0.00000000000E+00 0.  1.
         21    1    1    2  503  502 -0.24611458509E+03 -0.37344804524E+02  0.33521479697E+03  0.41753560749E+03  0.00000000000E+00 0. -1.
          1    1    1    2  501    0  0.22035163412E+01  0.33387962186E+03  0.23363846386E+03  0.40751366746E+03  0.00000000000E+00 0. -1.
<scales pt_clust_5="13000.00000" pt_clust_6="13000.00000" pt_clust_7="13000.00000" pt_clust_8="13000.00000" pt_clust_9="248.93176" pt_clust_10="362.19933"></scales>
<clustering>
<clus scale="   80.485">  5  6 -1 -1</clus>
<clus scale="   89.316">  7  8 -1 -1</clus>
<clus scale="   97.191">  5  7 -1 -1</clus>
<clus scale="  248.932">  1  9  2 -1</clus>
<clus scale="  362.199">  1 10  2 -1</clus>
<clus scale="  248.932">  1  5  2 -1</clus>
</clustering>
</event>
<event>
10    4  0.3403565E-005  0.1161936E+03  0.7546771E-02  0.1253488E+00
         21   -1    0    0  503  502  0.00000000000E+00  0.00000000000E+00  0.55884001092E+03  0.55884001092E+03  0.00000000000E+00 0. -1.
         -3   -1    0    0    0  501 -0.00000000000E+00 -0.00000000000E+00 -0.14988439253E+03  0.14988439253E+03  0.00000000000E+00 0.  1.
         23    2    1    2    0    0  0.64991696987E+02 -0.21060320446E+02 -0.94723417921E+02  0.14861305327E+03  0.91901337992E+02 0.  0.
         24    2    1    2    0    0 -0.80669443537E+02  0.40648473917E+02  0.15725212146E+03  0.19838166599E+03  0.80418891712E+02 0.  0.
        -11    1    4    4    0    0 -0.27833759435E+02  0.13577555224E+02  0.72816459525E+00  0.30977385200E+02  0.00000000000E+00 0.  1.
         12    1    4    4    0    0 -0.52835684102E+02  0.27070918693E+02  0.15652395687E+03  0.16740428079E+03  0.00000000000E+00 0. -1.
        -11    1    3    3    0    0  0.23405467260E+02 -0.33635796809E+02 -0.96801233661E+02  0.10511737042E+03  0.00000000000E+00 0.  1.
         11    1    3    3    0    0  0.41586229727E+02  0.12575476363E+02  0.20778157402E+01  0.43495682854E+02  0.00000000000E+00 0. -1.
         21    1    1    2  503  501 -0.16797932100E+02  0.34635609843E+02  0.17055783810E+03  0.17484785423E+03  0.00000000000E+00 0. -1.
         -4    1    1    2    0  502  0.32475678650E+02 -0.54223763314E+02  0.17586907675E+03  0.18688182996E+03  0.00000000000E+00 0.  1.
<scales pt_clust_5="13000.00000" pt_clust_6="13000.00000" pt_clust_7="13000.00000" pt_clust_8="13000.00000" pt_clust_9="38.49410" pt_clust_10="45.22177"></scales>
<clustering>
<clus scale="   38.494">  1  9  2 -1</clus>
<clus scale="   45.222">  1 10  2 -1</clus>
<clus scale="   80.419">  5  6 -1 -1</clus>
<clus scale="   91.901">  7  8 -1 -1</clus>
<clus scale="  107.342">  1  5  2 -1</clus>
<clus scale="   38.494">  1  5  2 -1</clus>
</clustering>
</event>
<event>
10    4  0.3403565E-005  0.1579379E+03  0.7546771E-02  0.1205212E+00
         21   -1    0    0  501  502  0.00000000000E+00  0.00000000000E+00  0.11060499129E+03  0.11060499129E+03  0.00000000000E+00 0. -1.
          2   -1    0    0  503    0 -0.00000000000E+00 -0.00000000000E+00 -0.62345401065E+03  0.62345401065E+03  0.00000000000E+00 0. -1.
         24    2    1    2    0    0  0.43195039421E+01 -0.79754487827E+02 -0.19552229243E+03  0.22502743729E+03  0.77646276493E+02 0.  0.
         23    2    1    2    0    0  0.98252092321E+02  0.16050437933E+03 -0.29056501961E+03  0.35835679778E+03  0.92609040953E+02 0.  0.
        -11    1    3    3    0    0  0.97807087692E+01 -0.39679844186E+02 -0.17493302685E+03  0.17964330264E+03  0.00000000000E+00 0.  1.
         12    1    3    3    0    0 -0.54612048271E+01 -0.40074643641E+02 -0.20589265578E+02  0.45384134652E+02  0.00000000000E+00 0. -1.
        -11    1    4    4    0    0 -0.58326121840E+01  0.63247102984E+02 -0.12293891505E+03  0.13837699315E+03  0.00000000000E+00 0.  1.
         11    1    4    4    0    0  0.10408470451E+03  0.97257276342E+02 -0.16762610456E+03  0.21997980463E+03  0.00000000000E+00 0. -1.
         21    1    1    2  503  502 -0.38766440218E+01 -0.41099560291E+02 -0.13792644546E+02  0.43525156732E+02  0.00000000000E+00 0. -1.
          1    1    1    2  501    0 -0.98694952241E+02 -0.39650331208E+02 -0.12969062780E+02  0.10714961014E+03  0.00000000000E+00 0. -1.
<scales pt_clust_5="13000.00000" pt_clust_6="13000.00000" pt_clust_7="13000.00000" pt_clust_8="13000.00000" pt_clust_9="41.28198" pt_clust_10="127.93732"></scales>
<clustering>
<clus scale="   41.282">  1  9  2 -1</clus>
<clus scale="   77.646">  5  6 -1 -1</clus>
<clus scale="   92.609">  7  8 -1 -1</clus>
<clus scale="  115.991">  2  5  1 -1</clus>
<clus scale="  127.937">  1 10  2 -1</clus>
<clus scale="   41.282">  1  5  2 -1</clus>
</clustering>
</event>
<event>
10    4  0.3403565E-005  0.9402751E+02  0.7546771E-02  0.1299545E+00
         -1   -1    0    0    0  501 -0.00000000000E+00  0.00000000000E+00  0.52765094324E+03  0.52765094324E+03  0.00000000000E+00 0.  1.
         21   -1    0    0  503  502  0.00000000000E+00 -0.00000000000E+00 -0.13754615521E+03  0.13754615521E+03  0.00000000000E+00 0.  1.
         24    2    1    2    0    0  0.92380234946E+01  0.33720377852E+02  0.34679660356E+03  0.35750923530E+03  0.79514552891E+02 0.  0.
         23    2    1    2    0    0 -0.10397215211E+02  0.38015206787E+02  0.23954463934E+02  0.10127068661E+03  0.90159179192E+02 0.  0.
        -11    1    3    3    0    0 -0.32609155253E+02  0.29848159037E+02  0.19918240344E+03  0.20402916322E+03  0.00000000000E+00 0.  1.
         12    1    3    3    0    0  0.41847178748E+02  0.38722188156E+01  0.14761420013E+03  0.15348007209E+03  0.00000000000E+00 0. -1.
        -11    1    4    4    0    0 -0.43975102184E+02  0.41349212775E+02  0.83608184602E+00  0.60367756643E+02  0.00000000000E+00 0.  1.
         11    1    4    4    0    0  0.33577886972E+02 -0.33340059882E+01  0.23118382088E+02  0.40902929966E+02  0.00000000000E+00 0. -1.
         21    1    1    2  503  501 -0.39805820701E+02 -0.60637858406E+02 -0.74151957593E+02  0.10373025619E+03  0.00000000000E+00 0.  1.
         -2    1    1    2    0  502  0.40965012418E+02 -0.11097726234E+02  0.93505678127E+02  0.10268692036E+03  0.00000000000E+00 0.  1.
<scales pt_clust_5="13000.00000" pt_clust_6="13000.00000" pt_clust_7="13000.00000" pt_clust_8="13000.00000" pt_clust_9="69.18245" pt_clust_10="42.44165"></scales>
<clustering>
<clus scale="   42.442">  2 10  1 -1</clus>
<clus scale="   69.182">  2  9  1 -1</clus>
<clus scale="   79.515">  5  6 -1 -1</clus>
<clus scale="   83.875">  1  5  2 -1</clus>
<clus scale="   90.159">  7  8 -1 -1</clus>
<clus scale="   42.442">  2  5  1 -1</clus>
</clustering>
</event>
<event>
10    4  0.3403565E-005  0.1691965E+03  0.7546771E-02  0.1205413E+00
          2   -1    0    0  502    0 -0.00000000000E+00  0.00000000000E+00  0.14104628651E+04  0.14104628651E+04  0.00000000000E+00 0. -1.
         21   -1    0    0  503  502  0.00000000000E+00 -0.00000000000E+00 -0.16726751589E+03  0.16726751589E+03  0.00000000000E+00 0.  1.
         23    2    1    2    0    0 -0.10194981040E+01 -0.18552134305E+02  0.54436178090E+03  0.55243613455E+03  0.92253526688E+02 0.  0.
         24    2    1    2    0    0  0.12275411648E+03 -0.65775522347E+01 -0.57700369794E+02  0.15886643344E+03  0.82446186659E+02 0.  0.
        -13    1    4    4    0    0  0.12730330718E+03  0.79744784213E+01 -0.63585968952E+02  0.14252333063E+03  0.00000000000E+00 0.  1.
         14    1    4    4    0    0 -0.45491907012E+01 -0.14552030656E+02  0.58855991583E+01  0.16343102817E+02  0.00000000000E+00 0. -1.
        -11    1    3    3    0    0  0.39264173281E+02 -0.33006255838E+02  0.30141314694E+03  0.30574658359E+03  0.00000000000E+00 0.  1.
         11    1    3    3    0    0 -0.40283671385E+02  0.14454121534E+02  0.24294863396E+03  0.24668955096E+03  0.00000000000E+00 0. -1.
         21    1    1    2  503  501  0.26673765142E+02  0.25492791139E+02 -0.41026283851E+02  0.55177242715E+02  0.00000000000E+00 0.  1.
          1    1    1    2  501    0 -0.14840838352E+03 -0.36310459988E+00  0.79756022192E+03  0.81125057025E+03  0.00000000000E+00 0. -1.
<scales pt_clust_5="13000.00000" pt_clust_6="13000.00000" pt_clust_7="13000.00000" pt_clust_8="13000.00000" pt_clust_9="36.89678" pt_clust_10="147.75015"></scales>
<clustering>
<clus scale="   36.897">  2  9  1 -1</clus>
<clus scale="   82.446">  5  6 -1 -1</clus>
<clus scale="   92.254">  7  8 -1 -1</clus>
<clus scale="   93.934">  1  7  2 -1</clus>
<clus scale="  147.750">  2 10  1 -1</clus>
<clus scale="   36.897">  2  5  1 -1</clus>
</clustering>
</event>
<event>
10    4  0.3403565E-005  0.2048130E+03  0.7546771E-02  0.1165963E+00
          2   -1    0    0  502    0 -0.00000000000E+00  0.00000000000E+00  0.11081396987E+04  0.11081396987E+04  0.00000000000E+00 0. -1.
         21   -1    0    0  503  502  0.00000000000E+00 -0.00000000000E+00 -0.11162329808E+03  0.11162329808E+03  0.00000000000E+00 0.  1.
         23    2    1    2    0    0  0.74395318494E+02 -0.72039637212E+02  0.18415094473E+03  0.22618766379E+03  0.80776952532E+02 0.  0.
         24    2    1    2    0    0 -0.28690089148E+02  0.19137779075E+03  0.68180036407E+02  0.22045030372E+03  0.80630261315E+02 0.  0.
        -13    1    4    4    0    0 -0.53466837449E+02  0.16018758554E+03  0.46791249723E+02  0.17523751401E+03  0.00000000000E+00 0.  1.
         14    1    4    4    0    0  0.24776748301E+02  0.31190205213E+02  0.21388786684E+02  0.45212789710E+02  0.00000000000E+00 0. -1.
        -11    1    3    3    0    0  0.41582900128E+02  0.46509089900E+01  0.96539737265E+02  0.10521734367E+03  0.00000000000E+00 0. -1.
         11    1    3    3    0    0  0.32812418366E+02 -0.76690546202E+02  0.87611207468E+02  0.12097032012E+03  0.00000000000E+00 0.  1.
         21    1    1    2  503  501 -0.24623528665E+02  0.95997849836E+01  0.11397882314E+02  0.28781691349E+02  0.00000000000E+00 0.  1.
          1    1    1    2  501    0 -0.21081700681E+02 -0.12893793852E+03  0.73278753721E+03  0.74434333797E+03  0.00000000000E+00 0. -1.
<scales pt_clust_5="13000.00000" pt_clust_6="13000.00000" pt_clust_7="13000.00000" pt_clust_8="13000.00000" pt_clust_9="26.42866" pt_clust_10="188.27414"></scales>
<clustering>
<clus scale="   26.429">  2  9  1 -1</clus>
<clus scale="   80.630">  5  6 -1 -1</clus>
<clus scale="   80.777">  7  8 -1 -1</clus>
<clus scale="  127.467">  1  7  2 -1</clus>
<clus scale="  188.274">  2 10  1 -1</clus>
<clus scale="   26.429">  2  5  1 -1</clus>
</clustering>
</event>
<event>
10    4  0.3403565E-005  0.1419024E+03  0.7546771E-02  0.1236329E+00
          2   -1    0    0  503    0 -0.00000000000E+00  0.00000000000E+00  0.55606765054E+03  0.55606765054E+03  0.00000000000E+00 0. -1.
         21   -1    0    0  501  502  0.00000000000E+00 -0.00000000000E+00 -0.18670922736E+03  0.18670922736E+03  0.00000000000E+00 0. -1.
         24    2    1    2    0    0 -0.13306973707E+02 -0.13691712272E+02  0.89433983559E+02  0.12165424154E+03  0.80229536549E+02 0.  0.
         23    2    1    2    0    0 -0.21607393174E+02  0.15926003602E+03 -0.40290537693E+02  0.18931364654E+03  0.91573417674E+02 0.  0.
        -13    1    3    3    0    0 -0.40341074989E+02 -0.28925439152E+02  0.42274385069E+02  0.65201280619E+02  0.00000000000E+00 0.  1.
         14    1    3    3    0    0  0.27034101282E+02  0.15233726880E+02  0.47159598491E+02  0.56452960920E+02  0.00000000000E+00 0. -1.
        -13    1    4    4    0    0  0.24719383448E+02  0.99743996048E+02  0.21258557898E+01  0.10278342244E+03  0.00000000000E+00 0.  1.
         13    1    4    4    0    0 -0.46326776622E+02  0.59516039973E+02 -0.42416393483E+02  0.86530224098E+02  0.00000000000E+00 0. -1.
         21    1    1    2  503  502  0.11383597669E+02 -0.82298967365E+02 -0.19592603725E+02  0.85361445899E+02  0.00000000000E+00 0.  1.
          1    1    1    2  501    0  0.23530769212E+02 -0.63269356384E+02  0.33980758104E+03  0.34644754393E+03  0.00000000000E+00 0. -1.
<scales pt_clust_5="13000.00000" pt_clust_6="13000.00000" pt_clust_7="13000.00000" pt_clust_8="13000.00000" pt_clust_9="108.40022" pt_clust_10="67.50343"></scales>
<clustering>
<clus scale="   67.503">  2 10  1 -1</clus>
<clus scale="   80.230">  5  6 -1 -1</clus>
<clus scale="   83.269">  1  5  2 -1</clus>
<clus scale="   91.573">  7  8 -1 -1</clus>
<clus scale="  108.400">  1  9  2 -1</clus>
<clus scale="   67.503">  2  5  1 -1</clus>
</clustering>
</event>
<event>
10    4  0.3403565E-005  0.1321593E+03  0.7546771E-02  0.1246260E+00
          2   -1    0    0  502    0 -0.00000000000E+00  0.00000000000E+00  0.26541230007E+03  0.26541230007E+03  0.00000000000E+00 0. -1.
         21   -1    0    0  503  502  0.00000000000E+00 -0.00000000000E+00 -0.12727933258E+03  0.12727933258E+03  0.00000000000E+00 0. -1.
         24    2    1    2    0    0 -0.29547219222E+02  0.53179458432E+01  0.12262896377E+03  0.14880136469E+03  0.78756997570E+02 0.  0.
         23    2    1    2    0    0  0.26137276422E+01 -0.99855143256E+02 -0.15155761691E+02  0.13440437635E+03  0.88639483652E+02 0.  0.
        -13    1    3    3    0    0  0.27121932615E+02  0.83848692748E+00  0.33867541487E+02  0.43397150315E+02  0.00000000000E+00 0.  1.
         14    1    3    3    0    0 -0.56669151837E+02  0.44794589157E+01  0.88761422287E+02  0.10540421438E+03  0.00000000000E+00 0. -1.
        -11    1    4    4    0    0 -0.40927121359E+02 -0.38903247417E+02  0.54126577654E+01  0.56725556731E+02  0.00000000000E+00 0.  1.
         11    1    4    4    0    0  0.43540849001E+02 -0.60951895839E+02 -0.20568419456E+02  0.77678819616E+02  0.00000000000E+00 0. -1.
         21    1    1    2  503  501  0.88736838852E+01  0.41816079528E+02  0.32543835871E+02  0.53725487675E+02  0.00000000000E+00 0. -1.
          1    1    1    2  501    0  0.18059807695E+02  0.52721117885E+02 -0.18840704618E+01  0.55760403931E+02  0.00000000000E+00 0. -1.
<scales pt_clust_5="13000.00000" pt_clust_6="13000.00000" pt_clust_7="13000.00000" pt_clust_8="13000.00000" pt_clust_9="32.58764" pt_clust_10="104.85024"></scales>
<clustering>
<clus scale="   32.588">  9 10 -1 -1</clus>
<clus scale="   78.757">  5  6 -1 -1</clus>
<clus scale="   84.285">  1  5  2 -1</clus>
<clus scale="   88.639">  7  8 -1 -1</clus>
<clus scale="  104.850">  2  9  1 -1</clus>
<clus scale="  104.850">  2  5  1 -1</clus>
</clustering>
</event>
<event>
10    4  0.3403565E-005  0.1709508E+03  0.7546771E-02  0.1178072E+00
          2   -1    0    0  503    0 -0.00000000000E+00  0.00000000000E+00  0.85951502107E+03  0.85951502107E+03  0.00000000000E+00 0. -1.
         21   -1    0    0  501  502  0.00000000000E+00 -0.00000000000E+00 -0.11286721194E+03  0.11286721194E+03  0.00000000000E+00 0.  1.
         23    2    1    2    0    0  0.15169880622E+03  0.47540690430E+02  0.60895259667E+03  0.63582593821E+03  0.90436240858E+02 0.  0.
         24    2    1    2    0    0 -0.10712466031E+03  0.47470964707E+02  0.48879100867E+02  0.15080057506E+03  0.81378508227E+02 0.  0.
        -11    1    4    4    0    0 -0.57101192399E+02  0.64416016029E+02  0.13259822016E+02  0.87096453282E+02  0.00000000000E+00 0.  1.
         12    1    4    4    0    0 -0.50023467909E+02 -0.16945051322E+02  0.35619278851E+02  0.63704121780E+02  0.00000000000E+00 0. -1.
        -11    1    3    3    0    0  0.16278923375E+02 -0.24206356456E+02  0.11525404418E+03  0.11888837513E+03  0.00000000000E+00 0.  1.
         11    1    3    3    0    0  0.13541988284E+03  0.71747046885E+02  0.49369855248E+03  0.51693756309E+03  0.00000000000E+00 0. -1.
         21    1    1    2  503  502 -0.33936829070E+02  0.68101116121E+00 -0.20838481300E+02  0.39829818559E+02  0.00000000000E+00 0.  1.
          1    1    1    2  501    0 -0.10637316838E+02 -0.95692666297E+02  0.10965459289E+03  0.14592590118E+03  0.00000000000E+00 0. -1.
<scales pt_clust_5="13000.00000" pt_clust_6="13000.00000" pt_clust_7="13000.00000" pt_clust_8="13000.00000" pt_clust_9="33.94366" pt_clust_10="97.24135"></scales>
<clustering>
<clus scale="   33.944">  2  9  1 -1</clus>
<clus scale="   81.379">  5  6 -1 -1</clus>
<clus scale="   90.436">  7  8 -1 -1</clus>
<clus scale="   97.241">  2 10  1 -1</clus>
<clus scale="  166.337">  2  5  1 -1</clus>
<clus scale="   33.944">  2  5  1 -1</clus>
</clustering>
</event>
<event>
10    4  0.3403565E-005  0.1048696E+03  0.7546771E-02  0.1275497E+00
         -1   -1    0    0    0  501 -0.00000000000E+00  0.00000000000E+00  0.59603740042E+02  0.59603740042E+02  0.00000000000E+00 0.  1.
         21   -1    0    0  503  502  0.00000000000E+00 -0.00000000000E+00 -0.47297576869E+03  0.47297576869E+03  0.00000000000E+00 0.  1.
         23    2    1    2    0    0 -0.29694765753E+02  0.58655275968E+02 -0.55137517689E+02  0.12534456538E+03  0.91372280818E+02 0.  0.
         24    2    1    2    0    0 -0.18308402077E+02 -0.41850637709E+02 -0.85414167961E+02  0.12555396493E+03  0.79884570217E+02 0.  0.
        -13    1    4    4    0    0  0.15234607374E+02 -0.53648788017E+02 -0.44500794197E+02  0.71348485630E+02  0.00000000000E+00 0.  1.
         14    1    4    4    0    0 -0.33543009452E+02  0.11798150308E+02 -0.40913373764E+02  0.54205479303E+02  0.00000000000E+00 0. -1.
        -11    1    3    3    0    0  0.18628782140E+02  0.20376190568E+02  0.15441349180E+02  0.31633146075E+02  0.00000000000E+00 0. -1.
         11    1    3    3    0    0 -0.48323547893E+02  0.38279085399E+02 -0.70578866869E+02  0.93711419307E+02  0.00000000000E+00 0.  1.
         21    1    1    2  503  501  0.33205675868E+02 -0.33665567315E+02 -0.19811859355E+03  0.20368349085E+03  0.00000000000E+00 0.  1.
         -2    1    1    2    0  502  0.14797491962E+02  0.16860929057E+02 -0.74701749445E+02  0.77997487570E+02  0.00000000000E+00 0.  1.
<scales pt_clust_5="13000.00000" pt_clust_6="13000.00000" pt_clust_7="13000.00000" pt_clust_8="13000.00000" pt_clust_9="47.83136" pt_clust_10="22.43338"></scales>
<clustering>
<clus scale="   22.433">  2 10  1 -1</clus>
<clus scale="   47.831">  2  9  1 -1</clus>
<clus scale="   79.885">  5  6 -1 -1</clus>
<clus scale="   91.372">  7  8 -1 -1</clus>
<clus scale="   95.028">  2  5  1 -1</clus>
<clus scale="   22.433">  2  5  1 -1</clus>
</clustering>
</event>
<event>
10    4  0.3403565E-005  0.2318855E+03  0.7546771E-02  0.1150487E+00
         21   -1    0    0  503  502  0.00000000000E+00  0.00000000000E+00  0.43106419668E+03  0.43106419668E+03  0.00000000000E+00 0.  1.
          2   -1    0    0  502    0 -0.00000000000E+00 -0.00000000000E+00 -0.85646351151E+03  0.85646351151E+03  0.00000000000E+00 0. -1.
         23    2    1    2    0    0  0.11068597975E+03 -0.40903219036E+02 -0.93366596459E+02  0.17770500685E+03  0.94537234384E+02 0.  0.
         24    2    1    2    0    0 -0.10274282074E+03  0.19097583378E+03 -0.14618916834E+03  0.27570746956E+03  0.87266714910E+02 0.  0.
        -11    1    4    4    0    0 -0.98934523496E+02  0.19928952624E+03 -0.14677073798E+03  0.26654456426E+03  0.00000000000E+00 0.  1.
         12    1    4    4    0    0 -0.38082972493E+01 -0.83136924666E+01  0.58156963626E+00  0.91629053040E+01  0.00000000000E+00 0. -1.
        -11    1    3    3    0    0  0.21695055857E+02 -0.51130249768E+02 -0.60904353904E+02  0.82427654427E+02  0.00000000000E+00 0. -1.
         11    1    3    3    0    0  0.88990923898E+02  0.10227030731E+02 -0.32462242555E+02  0.95277352427E+02  0.00000000000E+00 0.  1.
         21    1    1    2  503  501 -0.12506358414E+03 -0.23717278741E+02  0.29610014183E+03  0.32230219263E+03  0.00000000000E+00 0.  1.
          1    1    1    2  501    0  0.11712042513E+03 -0.12635533600E+03 -0.48194369185E+03  0.51181303913E+03  0.00000000000E+00 0. -1.
<scales pt_clust_5="13000.00000" pt_clust_6="13000.00000" pt_clust_7="13000.00000" pt_clust_8="13000.00000" pt_clust_9="127.29261" pt_clust_10="214.83818"></scales>
<clustering>
<clus scale="   87.267">  5  6 -1 -1</clus>
<clus scale="   94.537">  7  8 -1 -1</clus>
<clus scale="  127.293">  1  9  2 -1</clus>
<clus scale="  126.068">  2  7  1 -1</clus>
<clus scale="  214.838">  1 10  2 -1</clus>
<clus scale="  127.293">  1  5  2 -1</clus>
</clustering>
</event>
<event>
10    4  0.3403565E-005  0.1221189E+03  0.7546771E-02  0.1242310E+00
         -1   -1    0    0    0  501 -0.00000000000E+00  0.00000000000E+00  0.46621139348E+03  0.46621139348E+03  0.00000000000E+00 0.  1.
         21   -1    0    0  503  502  0.00000000000E+00 -0.00000000000E+00 -0.10854594892E+03  0.10854594892E+03  0.00000000000E+00 0. -1.
         24    2    1    2    0    0  0.69735217920E+02  0.49057068837E+02  0.36510895998E+03  0.38355153296E+03  0.80855606875E+02 0.  0.
         23    2    1    2    0    0 -0.66058438805E+02 -0.23014394170E+02  0.30973668123E+01  0.11388650490E+03  0.89817384963E+02 0.  0.
        -13    1    3    3    0    0  0.80868515203E+02  0.20933721304E+02  0.22003289142E+03  0.23535592354E+03  0.00000000000E+00 0.  1.
         14    1    3    3    0    0 -0.11133297284E+02  0.28123347533E+02  0.14507606855E+03  0.14819560942E+03  0.00000000000E+00 0. -1.
        -11    1    4    4    0    0 -0.15909884448E+02  0.24280069040E+02  0.28252943388E+02  0.40507715139E+02  0.00000000000E+00 0.  1.
         11    1    4    4    0    0 -0.50148554357E+02 -0.47294463210E+02 -0.25155576576E+02  0.73378789764E+02  0.00000000000E+00 0. -1.
         21    1    1    2  503  501 -0.33669154214E+02 -0.56960387862E+01  0.10101510727E+02  0.35610354145E+02  0.00000000000E+00 0. -1.
         -2    1    1    2    0  502  0.29992375100E+02 -0.20346635881E+02 -0.20642392958E+02  0.41708950393E+02  0.00000000000E+00 0.  1.
<scales pt_clust_5="13000.00000" pt_clust_6="13000.00000" pt_clust_7="13000.00000" pt_clust_8="13000.00000" pt_clust_9="34.14757" pt_clust_10="29.24340"></scales>
<clustering>
<clus scale="   34.148">  2  9  1 -1</clus>
<clus scale="   29.243">  2 10  1 -1</clus>
<clus scale="   80.856">  5  6 -1 -1</clus>
<clus scale="   89.817">  7  8 -1 -1</clus>
<clus scale="  115.687">  1  5  2 -1</clus>
<clus scale="   34.148">  2  5  1 -1</clus>
</clustering>
</event>
<event>
10    4  0.3403565E-005  0.2080349E+03  0.7546771E-02  0.1144249E+00
          2   -1    0    0  503    0 -0.00000000000E+00  0.00000000000E+00  0.32105839001E+03  0.32105839001E+03  0.00000000000E+00 0. -1.
         21   -1    0    0  501  502  0.00000000000E+00 -0.00000000000E+00 -0.21014339606E+03  0.21014339606E+03  0.00000000000E+00 0.  1.
         23    2    1    2    0    0 -0.18599552989E+03  0.13958838691E+02  0.16599885609E+03  0.26591259697E+03  0.91458748550E+02 0.  0.
         24    2    1    2    0    0  0.18636506366E+03 -0.23726606570E+02 -0.42770761927E+02  0.20792525339E+03  0.78158071291E+02 0.  0.
        -13    1    4    4    0    0  0.17832884124E+03 -0.41760001326E+02 -0.43194804422E+02  0.18817774698E+03  0.00000000000E+00 0.  1.
         14    1    4    4    0    0  0.80362224157E+01  0.18033394756E+02  0.42404249540E+00  0.19747506405E+02  0.00000000000E+00 0. -1.
        -13    1    3    3    0    0 -0.18575910166E+02  0.26800108212E+02  0.44590995475E+01  0.32911909812E+02  0.00000000000E+00 0.  1.
         13    1    3    3    0    0 -0.16741961973E+03 -0.12841269522E+02  0.16153975654E+03  0.23300068716E+03  0.00000000000E+00 0. -1.
         21    1    1    2  503  502 -0.21246880079E+02 -0.12769733045E+02 -0.93742764132E+01  0.26502321660E+02  0.00000000000E+00 0.  1.
          1    1    1    2  501    0  0.20877346314E+02  0.22537500924E+02 -0.29388237977E+01  0.30861614059E+02  0.00000000000E+00 0. -1.
<scales pt_clust_5="13000.00000" pt_clust_6="13000.00000" pt_clust_7="13000.00000" pt_clust_8="13000.00000" pt_clust_9="24.78903" pt_clust_10="28.63453"></scales>
<clustering>
<clus scale="   24.789">  2  9  1 -1</clus>
<clus scale="   28.635">  2 10  1 -1</clus>
<clus scale="   78.158">  5  6 -1 -1</clus>
<clus scale="   91.459">  7  8 -1 -1</clus>
<clus scale="  202.540">  2  5  1 -1</clus>
<clus scale="   24.789">  2  5  1 -1</clus>
</clustering>
</event>
<event>
10    4  0.3403565E-005  0.1663273E+03  0.7546771E-02  0.1202456E+00
         21   -1    0    0  503  502  0.00000000000E+00  0.00000000000E+00  0.10736869976E+04  0.10736869976E+04  0.00000000000E+00 0.  1.
          2   -1    0    0  502    0 -0.00000000000E+00 -0.00000000000E+00 -0.34855882122E+03  0.34855882122E+03  0.00000000000E+00 0. -1.
         23    2    1    2    0    0  0.56683690242E+02 -0.10257096069E+02 -0.29251608581E+03  0.31074965177E+03  0.87643806730E+02 0.  0.
         24    2    1    2    0    0 -0.21187774681E+03 -0.35951339351E+02  0.58466922038E+03  0.62810849191E+03  0.80607083796E+02 0.  0.
        -11    1    4    4    0    0 -0.46024687262E+02 -0.26148370036E+02  0.23620448240E+03  0.24206314589E+03  0.00000000000E+00 0.  1.
         12    1    4    4    0    0 -0.16585305954E+03 -0.98029693149E+01  0.34846473798E+03  0.38604534602E+03  0.00000000000E+00 0. -1.
        -13    1    3    3    0    0  0.73924619321E+02 -0.28952844030E+02 -0.22579523693E+03  0.23934620435E+03  0.00000000000E+00 0. -1.
         13    1    3    3    0    0 -0.17240929079E+02  0.18695747961E+02 -0.66720848880E+02  0.71403447414E+02  0.00000000000E+00 0.  1.
         21    1    1    2  503  501  0.75304621674E+02 -0.36793344254E+02  0.27751455004E+03  0.28989456999E+03  0.00000000000E+00 0. -1.
          1    1    1    2  501    0  0.79889434890E+02  0.83001779674E+02  0.15546049176E+03  0.19349310513E+03  0.00000000000E+00 0. -1.
<scales pt_clust_5="13000.00000" pt_clust_6="13000.00000" pt_clust_7="13000.00000" pt_clust_8="13000.00000" pt_clust_9="83.81251" pt_clust_10="145.48988"></scales>
<clustering>
<clus scale="   80.607">  5  6 -1 -1</clus>
<clus scale="   83.813">  1  9  2 -1</clus>
<clus scale="   87.644">  7  8 -1 -1</clus>
<clus scale="  105.394">  2  7  1 -1</clus>
<clus scale="  145.490">  1 10  2 -1</clus>
<clus scale="   83.813">  1  5  2 -1</clus>
</clustering>
</event>
<event>
10    4  0.3403565E-005  0.9859150E+02  0.7546771E-02  0.1286672E+00
          2   -1    0    0  503    0 -0.00000000000E+00  0.00000000000E+00  0.48603334835E+03  0.48603334835E+03  0.00000000000E+00 0. -1.
         21   -1    0    0  501  502  0.00000000000E+00 -0.00000000000E+00 -0.10258781567E+03  0.10258781567E+03  0.00000000000E+00 0.  1.
         23    2    1    2    0    0 -0.41117603337E+02 -0.47351823872E+01  0.22239942476E+03  0.24410303182E+03  0.91715357238E+02 0.  0.
         24    2    1    2    0    0 -0.37577813014E+00 -0.67672536685E+02 -0.36565262997E+02  0.11472504668E+03  0.85118179304E+02 0.  0.
        -13    1    4    4    0    0  0.28330428194E+02  0.45583803963E+01  0.30705299016E+00  0.28696450565E+02  0.00000000000E+00 0.  1.
         14    1    4    4    0    0 -0.28706206324E+02 -0.72230917081E+02 -0.36872315987E+02  0.86028596119E+02  0.00000000000E+00 0. -1.
        -11    1    3    3    0    0 -0.54774951781E+02 -0.36440844787E+02  0.13653832230E+03  0.15156168370E+03  0.00000000000E+00 0.  1.
         11    1    3    3    0    0  0.13657348445E+02  0.31705662400E+02  0.85861102461E+02  0.92541348113E+02  0.00000000000E+00 0. -1.
         21    1    1    2  503  502 -0.10525684400E+02  0.26961993469E+02  0.11268889534E+02  0.31060054656E+02  0.00000000000E+00 0. -1.
          1    1    1    2  501    0  0.52019065867E+02  0.45445725603E+02  0.18634248138E+03  0.19873303086E+03  0.00000000000E+00 0. -1.
<scales pt_clust_5="13000.00000" pt_clust_6="13000.00000" pt_clust_7="13000.00000" pt_clust_8="13000.00000" pt_clust_9="28.94372" pt_clust_10="69.75417"></scales>
<clustering>
<clus scale="   28.944">  2  9  1 -1</clus>
<clus scale="   69.754">  2 10  1 -1</clus>
<clus scale="   85.118">  5  6 -1 -1</clus>
<clus scale="   91.715">  7  8 -1 -1</clus>
<clus scale="   92.486">  2  5  1 -1</clus>
<clus scale="   28.944">  2  5  1 -1</clus>
</clustering>
</event>
<event>
10    4  0.3403565E-005  0.2396170E+03  0.7546771E-02  0.1134515E+00
          2   -1    0    0  502    0 -0.00000000000E+00  0.00000000000E+00  0.20064241722E+04  0.20064241722E+04  0.00000000000E+00 0. -1.
         21   -1    0    0  503  502  0.00000000000E+00 -0.00000000000E+00 -0.80426210240E+02  0.80426210240E+02  0.00000000000E+00 0.  1.
         23    2    1    2    0    0  0.14791658057E+03 -0.58325934793E+02  0.34052007959E+03  0.38577298007E+03  0.87095568590E+02 0.  0.
         24    2    1    2    0    0 -0.27637891854E+03 -0.11363519687E+03  0.99047242926E+03  0.10380845841E+04  0.85356347613E+02 0.  0.
        -13    1    4    4    0    0 -0.23416156357E+03 -0.10294826097E+03  0.92291934395E+03  0.95771086332E+03  0.00000000000E+00 0.  1.
         14    1    4    4    0    0 -0.42217354969E+02 -0.10686935900E+02  0.67553085316E+02  0.80373720800E+02  0.00000000000E+00 0. -1.
        -11    1    3    3    0    0  0.13761570245E+03 -0.75940917054E+02  0.27060789993E+03  0.31294366897E+03  0.00000000000E+00 0. -1.
         11    1    3    3    0    0  0.10300878124E+02  0.17614982261E+02  0.69912179660E+02  0.72829311098E+02  0.00000000000E+00 0.  1.
         21    1    1    2  503  501 -0.21847623409E+02  0.73023221277E+02  0.55551666931E+02  0.94317003733E+02  0.00000000000E+00 0.  1.
          1    1    1    2  501    0  0.15030996138E+03  0.98937910382E+02  0.53945378614E+03  0.56867581448E+03  0.00000000000E+00 0. -1.
<scales pt_clust_5="13000.00000" pt_clust_6="13000.00000" pt_clust_7="13000.00000" pt_clust_8="13000.00000" pt_clust_9="76.22145" pt_clust_10="223.89868"></scales>
<clustering>
<clus scale="   76.221">  2  9  1 -1</clus>
<clus scale="   85.356">  5  6 -1 -1</clus>
<clus scale="   87.096">  7  8 -1 -1</clus>
<clus scale="  167.666">  1  7  2 -1</clus>
<clus scale="  223.899">  2 10  1 -1</clus>
<clus scale="   76.221">  2  5  1 -1</clus>
</clustering>
</event>
<event>
10    4  0.3403565E-005  0.3983288E+03  0.7546771E-02  0.1044534E+00
          2   -1    0    0  503    0 -0.00000000000E+00  0.00000000000E+00  0.92636322970E+03  0.92636322970E+03  0.00000000000E+00 0. -1.
         21   -1    0    0  501  502  0.00000000000E+00 -0.00000000000E+00 -0.28267140956E+03  0.28267140956E+03  0.00000000000E+00 0. -1.
         24    2    1    2    0    0 -0.76236961067E+02  0.33176787408E+03  0.24361321563E+03  0.42636931388E+03  0.81002447385E+02 0.  0.
         23    2    1    2    0    0  0.55513562483E+02 -0.43930155003E+03  0.39060443597E+03  0.59731328317E+03  0.90242591845E+02 0.  0.
        -13    1    3    3    0    0  0.10634379422E+02  0.82160359376E+02  0.36211672349E+02  0.90414046988E+02  0.00000000000E+00 0.  1.
         14    1    3    3    0    0 -0.86871340489E+02  0.24960751470E+03  0.20740154328E+03  0.33595526689E+03  0.00000000000E+00 0. -1.
        -11    1    4    4    0    0  0.35547409653E+02 -0.57524353409E+02  0.39870790524E+02  0.78500633788E+02  0.00000000000E+00 0.  1.
         11    1    4    4    0    0  0.19966152830E+02 -0.38177719662E+03  0.35073364544E+03  0.51881264939E+03  0.00000000000E+00 0. -1.
         21    1    1    2  503  502 -0.17920908010E+02  0.60192854988E+02 -0.64079187842E+02  0.89724472972E+02  0.00000000000E+00 0.  1.
          1    1    1    2  501    0  0.38644306594E+02  0.47340820961E+02  0.73553356390E+02  0.95627569234E+02  0.00000000000E+00 0. -1.
<scales pt_clust_5="13000.00000" pt_clust_6="13000.00000" pt_clust_7="13000.00000" pt_clust_8="13000.00000" pt_clust_9="73.92572" pt_clust_10="61.11088"></scales>
<clustering>
<clus scale="   61.111">  2 10  1 -1</clus>
<clus scale="   73.926">  2  9  1 -1</clus>
<clus scale="   81.002">  5  6 -1 -1</clus>
<clus scale="   90.243">  7  8 -1 -1</clus>
<clus scale="  396.338">  1  5  2 -1</clus>
<clus scale="   61.111">  2  5  1 -1</clus>
</clustering>
</event>
<event>
10    4  0.3403565E-005  0.1267759E+03  0.7546771E-02  0.1254473E+00
          2   -1    0    0  503    0 -0.00000000000E+00  0.00000000000E+00  0.40230392136E+03  0.40230392136E+03  0.00000000000E+00 0. -1.
         21   -1    0    0  501  502  0.00000000000E+00 -0.00000000000E+00 -0.20475997996E+03  0.20475997996E+03  0.00000000000E+00 0.  1.
         24    2    1    2    0    0  0.43816230895E+01  0.80577964718E+01  0.32796458311E+03  0.33779387995E+03  0.80372948487E+02 0.  0.
         23    2    1    2    0    0 -0.85549710563E+01 -0.27728587762E+02 -0.14662336429E+02  0.13046452883E+03  0.12634851429E+03 0.  0.
        -11    1    3    3    0    0 -0.63029557605E+01 -0.20788403664E+02  0.24375923680E+02  0.32650737105E+02  0.00000000000E+00 0.  1.
         12    1    3    3    0    0  0.10684578850E+02  0.28846200136E+02  0.30358865943E+03  0.30514314284E+03  0.00000000000E+00 0. -1.
        -11    1    4    4    0    0 -0.49491020677E+02 -0.41905274163E+02 -0.43800749301E+02  0.78255471181E+02  0.00000000000E+00 0.  1.
         11    1    4    4    0    0  0.40936049621E+02  0.14176686401E+02  0.29138412872E+02  0.52209057649E+02  0.00000000000E+00 0. -1.
         21    1    1    2  503  502 -0.34152872699E+02  0.21257018547E+01 -0.57201490872E+02  0.66655441488E+02  0.00000000000E+00 0.  1.
          1    1    1    2  501    0  0.38326220666E+02  0.17545089436E+02 -0.58556814406E+02  0.72150051055E+02  0.00000000000E+00 0. -1.
<scales pt_clust_5="13000.00000" pt_clust_6="13000.00000" pt_clust_7="13000.00000" pt_clust_8="13000.00000" pt_clust_9="34.21896" pt_clust_10="29.29449"></scales>
<clustering>
<clus scale="   34.219">  2  9  1 -1</clus>
<clus scale="   29.294">  2 10  1 -1</clus>
<clus scale="   80.373">  5  6 -1 -1</clus>
<clus scale="   81.043">  1  5  2 -1</clus>
<clus scale="  126.349">  7  8 -1 -1</clus>
<clus scale="   34.219">  2  5  1 -1</clus>
</clustering>
</event>
<event>
10    4  0.3717520E-005  0.4810936E+03  0.7546771E-02  0.1064504E+00
          2   -1    0    0  502    0 -0.00000000000E+00  0.00000000000E+00  0.14156014188E+04  0.14156014188E+04  0.00000000000E+00 0. -1.
         21   -1    0    0  503  502  0.00000000000E+00 -0.00000000000E+00 -0.26934819617E+03  0.26934819617E+03  0.00000000000E+00 0. -1.
         24    2    1    2    0    0 -0.91130409847E+02 -0.85862648254E+01  0.84640802352E+02  0.14802151562E+03  0.79798672419E+02 0.  0.
         23    2    1    2    0    0  0.39666157555E+03 -0.35259953178E+03  0.66734025097E+03  0.85744001116E+03  0.90518102341E+02 0.  0.
        -13    1    3    3    0    0 -0.12350739425E+02  0.24246160196E+02  0.47926231507E+02  0.55112074132E+02  0.00000000000E+00 0.  1.
         14    1    3    3    0    0 -0.78779670423E+02 -0.32832425021E+02  0.36714570845E+02  0.92909441484E+02  0.00000000000E+00 0. -1.
        -11    1    4    4    0    0  0.33344785352E+02 -0.12663135669E+02  0.19712461448E+02  0.40753047144E+02  0.00000000000E+00 0.  1.
         11    1    4    4    0    0  0.36331679019E+03 -0.33993639611E+03  0.64762778952E+03  0.81668696401E+03  0.00000000000E+00 0. -1.
         21    1    1    2  503  501 -0.57976905312E+02  0.11474671651E+02 -0.38467759530E+02  0.70517786142E+02  0.00000000000E+00 0. -1.
          1    1    1    2  501    0 -0.24755426039E+03  0.34971112495E+03  0.43273992880E+03  0.60897030201E+03  0.00000000000E+00 0. -1.
<scales pt_clust_5="13000.00000" pt_clust_6="13000.00000" pt_clust_7="13000.00000" pt_clust_8="13000.00000" pt_clust_9="59.10152" pt_clust_10="472.50133"></scales>
<clustering>
<clus scale="   59.102">  2  9  1 -1</clus>
<clus scale="   79.799">  5  6 -1 -1</clus>
<clus scale="   90.518">  7  8 -1 -1</clus>
<clus scale="  127.874">  1  5  2 -1</clus>
<clus scale="  472.501">  2 10  1 -1</clus>
<clus scale="   59.102">  2  5  1 -1</clus>
</clustering>
</event>
<event>
10    4  0.3403565E-005  0.1207901E+03  0.7546771E-02  0.1245996E+00
         -1   -1    0    0    0  501 -0.00000000000E+00  0.00000000000E+00  0.23368528907E+03  0.23368528907E+03  0.00000000000E+00 0.  1.
         21   -1    0    0  503  502  0.00000000000E+00 -0.00000000000E+00 -0.14438376085E+03  0.14438376085E+03  0.00000000000E+00 0. -1.
         24    2    1    2    0    0  0.45041892966E+02  0.61809314306E+02  0.12370162269E+03  0.16472608738E+03  0.77352627287E+02 0.  0.
         23    2    1    2    0    0 -0.65884909402E+02 -0.68469341041E+02 -0.53079016405E+02  0.14178546041E+03  0.90867281524E+02 0.  0.
        -13    1    3    3    0    0  0.59819624133E+02  0.18503886721E+02  0.64393418962E+02  0.89818114325E+02  0.00000000000E+00 0.  1.
         14    1    3    3    0    0 -0.14777731167E+02  0.43305427585E+02  0.59308203731E+02  0.74907973051E+02  0.00000000000E+00 0. -1.
        -11    1    4    4    0    0 -0.56907295002E+02 -0.37209972018E+02  0.11989386582E+02  0.69041781789E+02  0.00000000000E+00 0.  1.
         11    1    4    4    0    0 -0.89776144002E+01 -0.31259369023E+02 -0.65068402987E+02  0.72743678621E+02  0.00000000000E+00 0. -1.
         21    1    1    2  503  501  0.17934781671E+02 -0.23085105418E+02 -0.92401842612E+01  0.30658758796E+02  0.00000000000E+00 0.  1.
         -2    1    1    2    0  502  0.29082347649E+01  0.29745132152E+02  0.27919106195E+02  0.40898743342E+02  0.00000000000E+00 0.  1.
<scales pt_clust_5="13000.00000" pt_clust_6="13000.00000" pt_clust_7="13000.00000" pt_clust_8="13000.00000" pt_clust_9="29.23317" pt_clust_10="28.79880"></scales>
<clustering>
<clus scale="   29.233">  2  9  1 -1</clus>
<clus scale="   28.799">  2 10  1 -1</clus>
<clus scale="   77.353">  5  6 -1 -1</clus>
<clus scale="   90.867">  7  8 -1 -1</clus>
<clus scale="  110.981">  1  5  2 -1</clus>
<clus scale="   29.233">  2  5  1 -1</clus>
</clustering>
</event>
<event>
10    4  0.3403565E-005  0.1765837E+03  0.7546771E-02  0.1172410E+00
          2   -1    0    0  503    0 -0.00000000000E+00  0.00000000000E+00  0.42662192402E+03  0.42662192402E+03  0.00000000000E+00 0. -1.
         21   -1    0    0  501  502  0.00000000000E+00 -0.00000000000E+00 -0.21786836322E+03  0.21786836322E+03  0.00000000000E+00 0. -1.
         24    2    1    2    0    0 -0.72832014744E+02  0.10380612289E+03  0.13560208720E+02  0.15045409389E+03  0.79826947751E+02 0.  0.
         23    2    1    2    0    0 -0.41484133790E+02 -0.20696754046E+03  0.75353578267E+02  0.24155101817E+03  0.90067954683E+02 0.  0.
        -11    1    3    3    0    0  0.77891255882E+01  0.49785556167E+02  0.17457590711E+02  0.53329537348E+02  0.00000000000E+00 0.  1.
         12    1    3    3    0    0 -0.80621140332E+02  0.54020566725E+02 -0.38973819916E+01  0.97124556545E+02  0.00000000000E+00 0. -1.
        -13    1    4    4    0    0 -0.57320034786E+02 -0.19355516586E+03  0.48492394942E+02  0.20760708318E+03  0.00000000000E+00 0. -1.
         13    1    4    4    0    0  0.15835900996E+02 -0.13412374592E+02  0.26861183324E+02  0.33943934983E+02  0.00000000000E+00 0.  1.
         21    1    1    2  503  502  0.86179313168E+00  0.32189636260E+02 -0.35180228786E+02  0.47692387940E+02  0.00000000000E+00 0. -1.
          1    1    1    2  501    0  0.11345435540E+03  0.70971781304E+02  0.15502000260E+03  0.20479278724E+03  0.00000000000E+00 0. -1.
<scales pt_clust_5="13000.00000" pt_clust_6="13000.00000" pt_clust_7="13000.00000" pt_clust_8="13000.00000" pt_clust_9="32.20117" pt_clust_10="136.38771"></scales>
<clustering>
<clus scale="   32.201">  2  9  1 -1</clus>
<clus scale="   79.827">  5  6 -1 -1</clus>
<clus scale="   90.068">  7  8 -1 -1</clus>
<clus scale="  136.388">  2 10  1 -1</clus>
<clus scale="  171.586">  1  5  2 -1</clus>
<clus scale="   32.201">  2  5  1 -1</clus>
</clustering>
</event>
<event>
10    4  0.3403565E-005  0.3287527E+03  0.7546771E-02  0.1115678E+00
         21   -1    0    0  503  502  0.00000000000E+00  0.00000000000E+00  0.33137849690E+03  0.33137849690E+03  0.00000000000E+00 0.  1.
         -3   -1    0    0    0  501 -0.00000000000E+00 -0.00000000000E+00 -0.84378521105E+03  0.84378521105E+03  0.00000000000E+00 0.  1.
         24    2    1    2    0    0 -0.62578254677E+02 -0.20180094991E+02  0.83110981680E+02  0.13277128998E+03  0.79984410822E+02 0.  0.
         23    2    1    2    0    0  0.14612217060E+03 -0.22554677625E+03 -0.27215735157E+02  0.28534520739E+03  0.91968223425E+02 0.  0.
        -13    1    3    3    0    0 -0.66210845301E+02 -0.16637034037E+02  0.22402067311E+02  0.71850675410E+02  0.00000000000E+00 0.  1.
         14    1    3    3    0    0  0.36325906242E+01 -0.35430609539E+01  0.60708914369E+02  0.60920614569E+02  0.00000000000E+00 0. -1.
        -11    1    4    4    0    0  0.79514152708E+02 -0.19038440309E+03 -0.36262638093E+02  0.20948436777E+03  0.00000000000E+00 0.  1.
         11    1    4    4    0    0  0.66608017893E+02 -0.35162373164E+02  0.90469029361E+01  0.75860839614E+02  0.00000000000E+00 0. -1.
         21    1    1    2  503  501 -0.24730869789E+02 -0.11352999760E+03 -0.57082941373E+02  0.12945709124E+03  0.00000000000E+00 0.  1.
         -4    1    1    2    0  502 -0.58813046136E+02  0.35925686885E+03 -0.51121901929E+03  0.62759011934E+03  0.00000000000E+00 0.  1.
<scales pt_clust_5="13000.00000" pt_clust_6="13000.00000" pt_clust_7="13000.00000" pt_clust_8="13000.00000" pt_clust_9="120.12958" pt_clust_10="315.62683"></scales>
<clustering>
<clus scale="   79.984">  5  6 -1 -1</clus>
<clus scale="   91.968">  7  8 -1 -1</clus>
<clus scale="  103.541">  2  5  1 -1</clus>
<clus scale="  120.130">  1  9  2 -1</clus>
<clus scale="  315.627">  1 10  2 -1</clus>
<clus scale="  120.130">  1  5  2 -1</clus>
</clustering>
</event>
<event>
10    4  0.3403565E-005  0.2375236E+03  0.7546771E-02  0.1121978E+00
          2   -1    0    0  502    0 -0.00000000000E+00  0.00000000000E+00  0.14848977484E+04  0.14848977484E+04  0.00000000000E+00 0. -1.
         21   -1    0    0  503  502  0.00000000000E+00 -0.00000000000E+00 -0.14588344439E+03  0.14588344439E+03  0.00000000000E+00 0. -1.
         24    2    1    2    0    0 -0.13970360487E+03  0.17612144388E+03  0.11156442440E+04  0.11410383287E+04  0.82283219408E+02 0.  0.
         23    2    1    2    0    0  0.19255911661E+03 -0.95594038913E+02  0.21667314053E+03  0.31842062789E+03  0.90703984331E+02 0.  0.
        -11    1    3    3    0    0 -0.38428509623E+02  0.27403762925E+01  0.16975362577E+03  0.17407054167E+03  0.00000000000E+00 0.  1.
         12    1    3    3    0    0 -0.10127509525E+03  0.17338106758E+03  0.94589061818E+03  0.96696778699E+03  0.00000000000E+00 0. -1.
        -11    1    4    4    0    0  0.68756910932E+02 -0.64213155322E+01  0.11799530090E+03  0.13671736221E+03  0.00000000000E+00 0.  1.
         11    1    4    4    0    0  0.12380220568E+03 -0.89172723381E+02  0.98677839626E+02  0.18170326568E+03  0.00000000000E+00 0. -1.
         21    1    1    2  503  501  0.17111033794E+01 -0.22886705301E+02 -0.62149558500E+02  0.66251768098E+02  0.00000000000E+00 0. -1.
          1    1    1    2  501    0 -0.54566615116E+02 -0.57640699661E+02  0.68846478070E+02  0.10507046819E+03  0.00000000000E+00 0. -1.
<scales pt_clust_5="13000.00000" pt_clust_6="13000.00000" pt_clust_7="13000.00000" pt_clust_8="13000.00000" pt_clust_9="22.95058" pt_clust_10="82.88237"></scales>
<clustering>
<clus scale="   22.951">  2  9  1 -1</clus>
<clus scale="   82.283">  5  6 -1 -1</clus>
<clus scale="   82.882">  2 10  1 -1</clus>
<clus scale="   90.704">  7  8 -1 -1</clus>
<clus scale="  234.437">  1  5  2 -1</clus>
<clus scale="   22.951">  2  5  1 -1</clus>
</clustering>
</event>
<event>
10    4  0.3403565E-005  0.1341223E+03  0.7546771E-02  0.1223839E+00
         21   -1    0    0  501  502  0.00000000000E+00  0.00000000000E+00  0.70826300555E+02  0.70826300555E+02  0.00000000000E+00 0.  1.
          2   -1    0    0  503    0 -0.00000000000E+00 -0.00000000000E+00 -0.83506002272E+03  0.83506002272E+03  0.00000000000E+00 0. -1.
         23    2    1    2    0    0 -0.43880753052E+02  0.10512295754E+03 -0.49828260081E+03  0.51845420275E+03  0.86792012248E+02 0.  0.
         24    2    1    2    0    0  0.16935970012E+02 -0.67269394565E+02 -0.62789687149E+02  0.12077855514E+03  0.76373529735E+02 0.  0.
        -13    1    4    4    0    0  0.34640245939E+02 -0.10502663183E+02 -0.27904304978E+01  0.36304807878E+02  0.00000000000E+00 0.  1.
         14    1    4    4    0    0 -0.17704275928E+02 -0.56766731382E+02 -0.59999256651E+02  0.84473747263E+02  0.00000000000E+00 0. -1.
        -13    1    3    3    0    0 -0.55445881042E+02  0.23120527681E+02 -0.22685123094E+03  0.23467058935E+03  0.00000000000E+00 0. -1.
         13    1    3    3    0    0  0.11565127990E+02  0.82002429858E+02 -0.27143136987E+03  0.28378361341E+03  0.00000000000E+00 0.  1.
         21    1    1    2  503  502 -0.34126726544E+02 -0.33070385239E+01  0.15045947595E+02  0.37442629548E+02  0.00000000000E+00 0. -1.
          1    1    1    2  501    0  0.61071509585E+02 -0.34546524449E+02 -0.21820738180E+03  0.22921093584E+03  0.00000000000E+00 0. -1.
<scales pt_clust_5="13000.00000" pt_clust_6="13000.00000" pt_clust_7="13000.00000" pt_clust_8="13000.00000" pt_clust_9="34.28659" pt_clust_10="66.74497"></scales>
<clustering>
<clus scale="   34.287">  1  9  2 -1</clus>
<clus scale="   66.745">  1 10  2 -1</clus>
<clus scale="   76.374">  5  6 -1 -1</clus>
<clus scale="   86.792">  7  8 -1 -1</clus>
<clus scale="  127.628">  1  5  2 -1</clus>
<clus scale="   34.287">  1  5  2 -1</clus>
</clustering>
</event>
<event>
10    4  0.3403565E-005  0.1739515E+03  0.7546771E-02  0.1195057E+00
         21   -1    0    0  501  502  0.00000000000E+00  0.00000000000E+00  0.19573390627E+03  0.19573390627E+03  0.00000000000E+00 0. -1.
          2   -1    0    0  503    0 -0.00000000000E+00 -0.00000000000E+00 -0.65161793458E+03  0.65161793458E+03  0.00000000000E+00 0. -1.
         24    2    1    2    0    0 -0.42136043193E+02  0.55713946193E+02 -0.26927603589E+03  0.28958435651E+03  0.80436472398E+02 0.  0.
         23    2    1    2    0    0  0.22560934812E+03  0.90246142730E+01 -0.20042037319E+03  0.31561216008E+03  0.91987433825E+02 0.  0.
        -11    1    3    3    0    0  0.18805081562E+02  0.28383494209E+02 -0.13992730960E+03  0.14401008925E+03  0.00000000000E+00 0.  1.
         12    1    3    3    0    0 -0.60941124755E+02  0.27330451984E+02 -0.12934872630E+03  0.14557426725E+03  0.00000000000E+00 0. -1.
        -13    1    4    4    0    0  0.15742158363E+03 -0.30746107107E+00 -0.79212781802E+02  0.17622801800E+03  0.00000000000E+00 0. -1.
         13    1    4    4    0    0  0.68187764485E+02  0.93320753440E+01 -0.12120759138E+03  0.13938414208E+03  0.00000000000E+00 0.  1.
         21    1    1    2  503  502 -0.84637543595E+02 -0.41577370199E+02  0.77721401837E+02  0.12219986826E+03  0.00000000000E+00 0. -1.
          1    1    1    2  501    0 -0.98835761332E+02 -0.23161190267E+02 -0.63909021066E+02  0.11995545601E+03  0.00000000000E+00 0. -1.
<scales pt_clust_5="13000.00000" pt_clust_6="13000.00000" pt_clust_7="13000.00000" pt_clust_8="13000.00000" pt_clust_9="94.29842" pt_clust_10="147.63960"></scales>
<clustering>
<clus scale="   80.436">  5  6 -1 -1</clus>
<clus scale="   91.987">  7  8 -1 -1</clus>
<clus scale="   94.298">  1  9  2 -1</clus>
<clus scale="  108.234">  2  5  1 -1</clus>
<clus scale="  147.640">  1 10  2 -1</clus>
<clus scale="   94.298">  1  5  2 -1</clus>
</clustering>
</event>
<event>
10    4  0.3403565E-005  0.2934854E+03  0.7546771E-02  0.1139885E+00
          2   -1    0    0  503    0 -0.00000000000E+00  0.00000000000E+00  0.14992703669E+04  0.14992703669E+04  0.00000000000E+00 0. -1.
         21   -1    0    0  501  502  0.00000000000E+00 -0.00000000000E+00 -0.87502617620E+02  0.87502617620E+02  0.00000000000E+00 0. -1.
         24    2    1    2    0    0 -0.24546852694E+02 -0.14000122016E+00  0.18448086007E+03  0.20145705210E+03  0.77130982946E+02 0.  0.
         23    2    1    2    0    0 -0.26223735050E+03  0.10260281021E+03  0.57147615250E+03  0.64310343698E+03  0.87756897847E+02 0.  0.
        -13    1    3    3    0    0 -0.12631961800E+02 -0.20203205186E+02  0.10704960648E+02  0.26121488112E+02  0.00000000000E+00 0.  1.
         14    1    3    3    0    0 -0.11914890893E+02  0.20063203966E+02  0.17377589942E+03  0.17533556398E+03  0.00000000000E+00 0. -1.
        -11    1    4    4    0    0 -0.12332240250E+03  0.33608747983E+02  0.35088168358E+03  0.37343797179E+03  0.00000000000E+00 0.  1.
         11    1    4    4    0    0 -0.13891494800E+03  0.68994062226E+02  0.22059446892E+03  0.26966546519E+03  0.00000000000E+00 0. -1.
         21    1    1    2  503  502  0.25056099531E+02  0.50800677050E+01 -0.24776582877E+01  0.25685676985E+02  0.00000000000E+00 0. -1.
          1    1    1    2  501    0  0.26172810367E+03 -0.10754287669E+03  0.65828839497E+03  0.71652681843E+03  0.00000000000E+00 0. -1.
<scales pt_clust_5="13000.00000" pt_clust_6="13000.00000" pt_clust_7="13000.00000" pt_clust_8="13000.00000" pt_clust_9="25.56590" pt_clust_10="280.05800"></scales>
<clustering>
<clus scale="   25.566">  2  9  1 -1</clus>
<clus scale="   77.131">  5  6 -1 -1</clus>
<clus scale="   80.113">  1  5  2 -1</clus>
<clus scale="   87.757">  7  8 -1 -1</clus>
<clus scale="  280.058">  2 10  1 -1</clus>
<clus scale="   25.566">  2  5  1 -1</clus>
</clustering>
</event>
<event>
10    4  0.3403565E-005  0.2626982E+03  0.7546771E-02  0.1142716E+00
          2   -1    0    0  503    0 -0.00000000000E+00  0.00000000000E+00  0.19188087858E+04  0.19188087858E+04  0.00000000000E+00 0. -1.
         21   -1    0    0  501  502  0.00000000000E+00 -0.00000000000E+00 -0.17033660521E+03  0.17033660521E+03  0.00000000000E+00 0. -1.
         23    2    1    2    0    0 -0.40272310606E+02  0.90016964462E+01 -0.92016053401E+01  0.10216645935E+03  0.93007668151E+02 0.  0.
         24    2    1    2    0    0 -0.20680939630E+03  0.76462547103E+02  0.12132087818E+04  0.12357152196E+04  0.80622008530E+02 0.  0.
        -11    1    4    4    0    0 -0.82215863433E+02  0.71703853612E+02  0.50982651976E+03  0.52136740508E+03  0.00000000000E+00 0.  1.
         12    1    4    4    0    0 -0.12459353287E+03  0.47586934906E+01  0.70338226203E+03  0.71434781454E+03  0.00000000000E+00 0. -1.
        -11    1    3    3    0    0 -0.10133969765E+01 -0.29780057201E+02  0.23563407150E+02  0.37988326324E+02  0.00000000000E+00 0.  1.
         11    1    3    3    0    0 -0.39258913629E+02  0.38781753647E+02 -0.32765012491E+02  0.64178133027E+02  0.00000000000E+00 0. -1.
         21    1    1    2  503  502 -0.11840292181E+02 -0.19837199760E+02 -0.74032109154E+02  0.77552950937E+02  0.00000000000E+00 0. -1.
          1    1    1    2  501    0  0.25892199909E+03 -0.65627043789E+02  0.61849711331E+03  0.67371076113E+03  0.00000000000E+00 0. -1.
<scales pt_clust_5="13000.00000" pt_clust_6="13000.00000" pt_clust_7="13000.00000" pt_clust_8="13000.00000" pt_clust_9="23.10210" pt_clust_10="250.02086"></scales>
<clustering>
<clus scale="   23.102">  2  9  1 -1</clus>
<clus scale="   80.622">  5  6 -1 -1</clus>
<clus scale="   93.008">  7  8 -1 -1</clus>
<clus scale="  104.354">  1  7  2 -1</clus>
<clus scale="  250.021">  2 10  1 -1</clus>
<clus scale="   23.102">  2  5  1 -1</clus>
</clustering>
</event>
<event>
10    4  0.3790860E-005  0.1095556E+03  0.7546771E-02  0.1265726E+00
         21   -1    0    0  503  502  0.00000000000E+00  0.00000000000E+00  0.57883001590E+03  0.57883001590E+03  0.00000000000E+00 0.  1.
          2   -1    0    0  502    0 -0.00000000000E+00 -0.00000000000E+00 -0.47360304130E+03  0.47360304130E+03  0.00000000000E+00 0. -1.
         24    2    1    2    0    0  0.58782552067E+02 -0.30156521853E+01 -0.10530486278E+03  0.14493395266E+03  0.80325923115E+02 0.  0.
         23    2    1    2    0    0 -0.63211881848E+02 -0.10285543326E+02 -0.83343913162E+02  0.13917235575E+03  0.91220624510E+02 0.  0.
        -13    1    3    3    0    0  0.51770650595E+02 -0.37792987468E+02 -0.66905151093E+02  0.92654246570E+02  0.00000000000E+00 0.  1.
         14    1    3    3    0    0  0.70119014725E+01  0.34777335283E+02 -0.38399711682E+02  0.52279706091E+02  0.00000000000E+00 0. -1.
        -13    1    4    4    0    0 -0.51004358440E+02 -0.48851718809E+02 -0.47388590738E+02  0.85050652806E+02  0.00000000000E+00 0. -1.
         13    1    4    4    0    0 -0.12207523407E+02  0.38566175483E+02 -0.35955322423E+02  0.54121702945E+02  0.00000000000E+00 0.  1.
         21    1    1    2  503  501  0.44410147541E+02 -0.68404105770E+02  0.51907891411E+03  0.52544676416E+03  0.00000000000E+00 0.  1.
          1    1    1    2  501    0 -0.39980817761E+02  0.81705301282E+02 -0.22520316358E+03  0.24287998463E+03  0.00000000000E+00 0. -1.
<scales pt_clust_5="13000.00000" pt_clust_6="13000.00000" pt_clust_7="13000.00000" pt_clust_8="13000.00000" pt_clust_9="81.55601" pt_clust_10="78.32781"></scales>
<clustering>
<clus scale="   80.326">  5  6 -1 -1</clus>
<clus scale="   81.556">  1  9  2 -1</clus>
<clus scale="   78.328">  1 10  2 -1</clus>
<clus scale="   91.221">  7  8 -1 -1</clus>
<clus scale="  100.665">  2  5  1 -1</clus>
<clus scale="   81.556">  1  5  2 -1</clus>
</clustering>
</event>
<event>
10    4  0.3403565E-005  0.1778290E+03  0.7546771E-02  0.1204336E+00
          2   -1    0    0  502    0 -0.00000000000E+00  0.00000000000E+00  0.30280427907E+03  0.30280427907E+03  0.00000000000E+00 0. -1.
         21   -1    0    0  503  502  0.00000000000E+00 -0.00000000000E+00 -0.30719827148E+03  0.30719827148E+03  0.00000000000E+00 0. -1.
         24    2    1    2    0    0 -0.10939570598E+02  0.45607907726E+01  0.68861134067E+02  0.10745640709E+03  0.81636686748E+02 0.  0.
         23    2    1    2    0    0 -0.10799635852E+03 -0.84828286832E+02 -0.16731474360E+03  0.23531927589E+03  0.92314064362E+02 0.  0.
        -13    1    3    3    0    0 -0.46089619712E+02  0.30098323267E+01  0.47707484905E+02  0.66402682565E+02  0.00000000000E+00 0.  1.
         14    1    3    3    0    0  0.35150049115E+02  0.15509584459E+01  0.21153649162E+02  0.41053724529E+02  0.00000000000E+00 0. -1.
        -11    1    4    4    0    0 -0.35479131198E+02  0.17571235422E+01 -0.26199394140E+01  0.35619100442E+02  0.00000000000E+00 0.  1.
         11    1    4    4    0    0 -0.72517227319E+02 -0.86585410374E+02 -0.16469480419E+03  0.19970017545E+03  0.00000000000E+00 0. -1.
         21    1    1    2  503  501 -0.25880621375E+02  0.81055366744E+01 -0.45886277963E+02  0.53301564638E+02  0.00000000000E+00 0. -1.
          1    1    1    2  501    0  0.14481655049E+03  0.72161959385E+02  0.13994589509E+03  0.21392530292E+03  0.00000000000E+00 0. -1.
<scales pt_clust_5="13000.00000" pt_clust_6="13000.00000" pt_clust_7="13000.00000" pt_clust_8="13000.00000" pt_clust_9="27.12022" pt_clust_10="151.99105"></scales>
<clustering>
<clus scale="   27.120">  2  9  1 -1</clus>
<clus scale="   81.637">  5  6 -1 -1</clus>
<clus scale="   82.808">  1  5  2 -1</clus>
<clus scale="   92.314">  7  8 -1 -1</clus>
<clus scale="  151.991">  2 10  1 -1</clus>
<clus scale="   27.120">  2  5  1 -1</clus>
</clustering>
</event>
<event>
10    4  0.3403565E-005  0.9543282E+02  0.7546771E-02  0.1299155E+00
         21   -1    0    0  501  502  0.00000000000E+00  0.00000000000E+00  0.23385435770E+03  0.23385435770E+03  0.00000000000E+00 0.  1.
          2   -1    0    0  503    0 -0.00000000000E+00 -0.00000000000E+00 -0.86841396419E+02  0.86841396419E+02  0.00000000000E+00 0. -1.
         23    2    1    2    0    0 -0.34388579611E+02  0.59952719935E+01  0.10156681147E+01  0.99169391860E+02  0.92817126686E+02 0.  0.
         24    2    1    2    0    0 -0.22428446366E+02 -0.36350366337E+02  0.76345867773E+02  0.11700343965E+03  0.77696390030E+02 0.  0.
        -13    1    4    4    0    0 -0.21186057628E+02 -0.42006991627E+02  0.90340953435E+02  0.10185737210E+03  0.00000000000E+00 0.  1.
         14    1    4    4    0    0 -0.12423887373E+01  0.56566252894E+01 -0.13995085662E+02  0.15146067547E+02  0.00000000000E+00 0. -1.
        -13    1    3    3    0    0 -0.51892222529E+01 -0.42312457789E+02 -0.16301905391E+01  0.42660633292E+02  0.00000000000E+00 0.  1.
         13    1    3    3    0    0 -0.29199357358E+02  0.48307729782E+02  0.26458586538E+01  0.56508758568E+02  0.00000000000E+00 0. -1.
         21    1    1    2  503  502  0.35218534171E+02  0.16186752782E+02  0.68452141613E+02  0.78664171045E+02  0.00000000000E+00 0.  1.
          1    1    1    2  501    0  0.21598491805E+02  0.14168341562E+02  0.11992837778E+01  0.25858751564E+02  0.00000000000E+00 0. -1.
<scales pt_clust_5="13000.00000" pt_clust_6="13000.00000" pt_clust_7="13000.00000" pt_clust_8="13000.00000" pt_clust_9="47.30517" pt_clust_10="25.83094"></scales>
<clustering>
<clus scale="   25.831">  1 10  2 -1</clus>
<clus scale="   47.305">  1  9  2 -1</clus>
<clus scale="   77.696">  5  6 -1 -1</clus>
<clus scale="   80.803">  1  5  2 -1</clus>
<clus scale="   92.817">  7  8 -1 -1</clus>
<clus scale="   25.831">  1  5  2 -1</clus>
</clustering>
</event>
<event>
10    4  0.3403565E-005  0.1945213E+03  0.7546771E-02  0.1187810E+00
         -1   -1    0    0    0  501 -0.00000000000E+00  0.00000000000E+00  0.66855123288E+03  0.66855123288E+03  0.00000000000E+00 0.  1.
         21   -1    0    0  503  502  0.00000000000E+00 -0.00000000000E+00 -0.90710863985E+02  0.90710863985E+02  0.00000000000E+00 0.  1.
         23    2    1    2    0    0  0.31789197364E+02  0.55502958369E+02  0.11194156204E+03  0.14492183462E+03  0.66183784880E+02 0.  0.
         24    2    1    2    0    0 -0.21479614148E+02  0.14632351388E+03  0.23002429653E+03  0.28537741933E+03  0.81591359396E+02 0.  0.
        -13    1    4    4    0    0  0.23050541404E+02  0.75160998883E+02  0.72802885254E+02  0.10714832389E+03  0.00000000000E+00 0.  1.
         14    1    4    4    0    0 -0.44530155553E+02  0.71162514998E+02  0.15722141128E+03  0.17822909543E+03  0.00000000000E+00 0. -1.
        -11    1    3    3    0    0  0.62691547461E+01  0.42540048175E+02  0.10772441810E+03  0.11598925922E+03  0.00000000000E+00 0.  1.
         11    1    3    3    0    0  0.25520042618E+02  0.12962910194E+02  0.42171439342E+01  0.28932575393E+02  0.00000000000E+00 0. -1.
         21    1    1    2  503  501 -0.24449444243E+02  0.24066626847E+01  0.24194061008E+02  0.34480718339E+02  0.00000000000E+00 0. -1.
         -2    1    1    2    0  502  0.14139861028E+02 -0.20423313493E+03  0.21168044932E+03  0.29448212458E+03  0.00000000000E+00 0.  1.
<scales pt_clust_5="13000.00000" pt_clust_6="13000.00000" pt_clust_7="13000.00000" pt_clust_8="13000.00000" pt_clust_9="24.56761" pt_clust_10="176.58264"></scales>
<clustering>
<clus scale="   24.568">  2  9  1 -1</clus>
<clus scale="   66.184">  7  8 -1 -1</clus>
<clus scale="   81.591">  5  6 -1 -1</clus>
<clus scale="   90.806">  1  7  2 -1</clus>
<clus scale="  176.583">  2 10  1 -1</clus>
<clus scale="   24.568">  2  5  1 -1</clus>
</clustering>
</event>
<event>
10    4  0.3403565E-005  0.9766764E+02  0.7546771E-02  0.1293203E+00
          4   -1    0    0  503    0 -0.00000000000E+00  0.00000000000E+00  0.42739907887E+03  0.42739907887E+03  0.00000000000E+00 0. -1.
         21   -1    0    0  501  502  0.00000000000E+00 -0.00000000000E+00 -0.13210622611E+03  0.13210622611E+03  0.00000000000E+00 0.  1.
         24    2    1    2    0    0  0.19955266486E+02  0.13647281581E+02  0.27459885071E+03  0.28677342283E+03  0.79056981200E+02 0.  0.
         23    2    1    2    0    0 -0.18298000985E+02 -0.47899399435E+02  0.11214841604E+03  0.15462553929E+03  0.93287838827E+02 0.  0.
        -13    1    3    3    0    0  0.31784190202E+02  0.36679840509E+02  0.23118334989E+03  0.23622317141E+03  0.00000000000E+00 0.  1.
         14    1    3    3    0    0 -0.11828923716E+02 -0.23032558928E+02  0.43415500827E+02  0.50550251424E+02  0.00000000000E+00 0. -1.
        -11    1    4    4    0    0 -0.43775872663E+02 -0.61971582281E+02  0.91876948114E+02  0.11915610615E+03  0.00000000000E+00 0. -1.
         11    1    4    4    0    0  0.25477871678E+02  0.14072182846E+02  0.20271467930E+02  0.35469433141E+02  0.00000000000E+00 0.  1.
         21    1    1    2  503  502 -0.20117687146E+02  0.22057843167E+02 -0.91219687449E+02  0.95980733273E+02  0.00000000000E+00 0.  1.
          3    1    1    2  501    0  0.18460421645E+02  0.12194274687E+02 -0.23472654826E+00  0.22125609574E+02  0.00000000000E+00 0. -1.
<scales pt_clust_5="13000.00000" pt_clust_6="13000.00000" pt_clust_7="13000.00000" pt_clust_8="13000.00000" pt_clust_9="32.03136" pt_clust_10="22.12436"></scales>
<clustering>
<clus scale="   22.124">  2 10  1 -1</clus>
<clus scale="   32.031">  2  9  1 -1</clus>
<clus scale="   79.057">  5  6 -1 -1</clus>
<clus scale="   84.180">  1  5  2 -1</clus>
<clus scale="   93.288">  7  8 -1 -1</clus>
<clus scale="   22.124">  2  5  1 -1</clus>
</clustering>
</event>
<event>
10    4  0.3403565E-005  0.1250870E+03  0.7546771E-02  0.1238736E+00
          2   -1    0    0  503    0 -0.00000000000E+00  0.00000000000E+00  0.31234915166E+03  0.31234915166E+03  0.00000000000E+00 0. -1.
         21   -1    0    0  501  502  0.00000000000E+00 -0.00000000000E+00 -0.15320819126E+03  0.15320819126E+03  0.00000000000E+00 0. -1.
         24    2    1    2    0    0  0.56271591350E+02  0.25967634805E+02  0.69983105727E+02  0.12046325728E+03  0.75979939575E+02 0.  0.
         23    2    1    2    0    0 -0.13407884820E+03  0.18833149761E+02  0.13075872875E+03  0.20845364288E+03  0.89572601965E+02 0.  0.
        -11    1    3    3    0    0  0.20514520055E+02 -0.51221545983E+01 -0.13060453126E+02  0.24852714875E+02  0.00000000000E+00 0.  1.
         12    1    3    3    0    0  0.35757071295E+02  0.31089789403E+02  0.83043558853E+02  0.95610542409E+02  0.00000000000E+00 0. -1.
        -11    1    4    4    0    0 -0.12341901611E+03 -0.68880268342E+01  0.71057931978E+02  0.14257955025E+03  0.00000000000E+00 0. -1.
         11    1    4    4    0    0 -0.10659832087E+02  0.25721176595E+02  0.59700796768E+02  0.65874092634E+02  0.00000000000E+00 0.  1.
         21    1    1    2  503  502  0.21869281064E+01  0.23835910184E+02 -0.22287349137E+02  0.32705644779E+02  0.00000000000E+00 0. -1.
          1    1    1    2  501    0  0.75620328742E+02 -0.68636694750E+02 -0.19313524941E+02  0.10393479798E+03  0.00000000000E+00 0. -1.
<scales pt_clust_5="13000.00000" pt_clust_6="13000.00000" pt_clust_7="13000.00000" pt_clust_8="13000.00000" pt_clust_9="23.93602" pt_clust_10="95.52634"></scales>
<clustering>
<clus scale="   23.936">  2  9  1 -1</clus>
<clus scale="   75.980">  5  6 -1 -1</clus>
<clus scale="   89.573">  7  8 -1 -1</clus>
<clus scale="   95.526">  2 10  1 -1</clus>
<clus scale="  115.743">  1  5  2 -1</clus>
<clus scale="   23.936">  2  5  1 -1</clus>
</clustering>
</event>
<event>
10    4  0.3403565E-005  0.1661256E+03  0.7546771E-02  0.1193326E+00
         21   -1    0    0  503  502  0.00000000000E+00  0.00000000000E+00  0.16847691783E+03  0.16847691783E+03  0.00000000000E+00 0. -1.
          2   -1    0    0  502    0 -0.00000000000E+00 -0.00000000000E+00 -0.91953158711E+03  0.91953158711E+03  0.00000000000E+00 0. -1.
         23    2    1    2    0    0 -0.74924131435E+02 -0.47822581028E+02 -0.22480954693E+03  0.25794938604E+03  0.89988491690E+02 0.  0.
         24    2    1    2    0    0 -0.13409522802E+03  0.78025366700E+02  0.24419004388E+02  0.17559770624E+03  0.78541572645E+02 0.  0.
        -13    1    4    4    0    0 -0.21233444800E+02 -0.17378580703E+01 -0.21205235398E+02  0.30058964337E+02  0.00000000000E+00 0.  1.
         14    1    4    4    0    0 -0.11286178322E+03  0.79763224770E+02  0.45624239786E+02  0.14553874190E+03  0.00000000000E+00 0. -1.
        -11    1    3    3    0    0 -0.21110710744E+02 -0.34921443398E+02 -0.19338669023E+02  0.45156986577E+02  0.00000000000E+00 0.  1.
         11    1    3    3    0    0 -0.53813420691E+02 -0.12901137631E+02 -0.20547087791E+03  0.21279239946E+03  0.00000000000E+00 0. -1.
         21    1    1    2  503  501  0.88305313573E+00 -0.54102712631E+02  0.10805653056E+02  0.55178305836E+02  0.00000000000E+00 0.  1.
          1    1    1    2  501    0  0.20813630632E+03  0.23899926960E+02 -0.56146977979E+03  0.59928310684E+03  0.00000000000E+00 0. -1.
<scales pt_clust_5="13000.00000" pt_clust_6="13000.00000" pt_clust_7="13000.00000" pt_clust_8="13000.00000" pt_clust_9="54.10992" pt_clust_10="146.38632"></scales>
<clustering>
<clus scale="   54.110">  1  9  2 -1</clus>
<clus scale="   78.542">  5  6 -1 -1</clus>
<clus scale="   89.988">  7  8 -1 -1</clus>
<clus scale="  129.070">  2  7  1 -1</clus>
<clus scale="  146.386">  1 10  2 -1</clus>
<clus scale="   54.110">  1  5  2 -1</clus>
</clustering>
</event>
<event>
10    4  0.3403565E-005  0.1003779E+03  0.7546771E-02  0.1287165E+00
         21   -1    0    0  501  502  0.00000000000E+00  0.00000000000E+00  0.26160334751E+02  0.26160334751E+02  0.00000000000E+00 0. -1.
          2   -1    0    0  503    0 -0.00000000000E+00 -0.00000000000E+00 -0.99949018673E+03  0.99949018673E+03  0.00000000000E+00 0. -1.
         24    2    1    2    0    0  0.29967513015E+02  0.42684241241E+02 -0.73522936844E+03  0.74068279494E+03  0.72998508309E+02 0.  0.
         23    2    1    2    0    0  0.32100600579E+01 -0.33063568280E+02 -0.19220627733E+03  0.21427187386E+03  0.88688662474E+02 0.  0.
        -13    1    3    3    0    0 -0.86565016581E+01  0.38089114427E+02 -0.18490959696E+03  0.18899014447E+03  0.00000000000E+00 0.  1.
         14    1    3    3    0    0  0.38624014673E+02  0.45951268135E+01 -0.55031977148E+03  0.55169265047E+03  0.00000000000E+00 0. -1.
        -13    1    4    4    0    0  0.21917941426E+02 -0.58641086117E+02 -0.11788443149E+03  0.13347626128E+03  0.00000000000E+00 0.  1.
         13    1    4    4    0    0 -0.18707881368E+02  0.25577517837E+02 -0.74321845838E+02  0.80795612583E+02  0.00000000000E+00 0. -1.
         21    1    1    2  503  502 -0.22488279473E+02  0.76784243648E+01 -0.39593944557E+01  0.24090614746E+02  0.00000000000E+00 0. -1.
          1    1    1    2  501    0 -0.10689293600E+02 -0.17299097325E+02 -0.41934811760E+02  0.46605237939E+02  0.00000000000E+00 0. -1.
<scales pt_clust_5="13000.00000" pt_clust_6="13000.00000" pt_clust_7="13000.00000" pt_clust_8="13000.00000" pt_clust_9="27.00681" pt_clust_10="20.33519"></scales>
<clustering>
<clus scale="   20.335">  1 10  2 -1</clus>
<clus scale="   27.007">  1  9  2 -1</clus>
<clus scale="   72.999">  5  6 -1 -1</clus>
<clus scale="   86.826">  2  5  1 -1</clus>
<clus scale="   88.689">  7  8 -1 -1</clus>
<clus scale="   20.335">  1  5  2 -1</clus>
</clustering>
</event>
<event>
10    4  0.3403565E-005  0.3432016E+03  0.7546771E-02  0.1108226E+00
          2   -1    0    0  503    0 -0.00000000000E+00  0.00000000000E+00  0.14039780340E+04  0.14039780340E+04  0.00000000000E+00 0. -1.
         21   -1    0    0  501  502  0.00000000000E+00 -0.00000000000E+00 -0.71874232297E+03  0.71874232297E+03  0.00000000000E+00 0.  1.
         24    2    1    2    0    0  0.71676806696E+01  0.61637025878E+02 -0.20220646801E+03  0.22659145590E+03  0.81275664123E+02 0.  0.
         23    2    1    2    0    0 -0.28317521822E+03 -0.64285606249E+02 -0.26761103283E+03  0.40487171627E+03  0.89356579846E+02 0.  0.
        -11    1    3    3    0    0  0.39946940140E+02  0.32578394531E+02 -0.14904634835E+03  0.15770835036E+03  0.00000000000E+00 0.  1.
         12    1    3    3    0    0 -0.32779259470E+02  0.29058631347E+02 -0.53160119657E+02  0.68883105542E+02  0.00000000000E+00 0. -1.
        -11    1    4    4    0    0 -0.26674928645E+02 -0.20911523429E+02 -0.71379433819E+02  0.79018144768E+02  0.00000000000E+00 0. -1.
         11    1    4    4    0    0 -0.25650028958E+03 -0.43374082820E+02 -0.19623159901E+03  0.32585357150E+03  0.00000000000E+00 0.  1.
         21    1    1    2  503  502 -0.74716710881E+02  0.25335808431E+02 -0.13380835183E+03  0.15533565300E+03  0.00000000000E+00 0. -1.
          1    1    1    2  501    0  0.35072424843E+03 -0.22687228060E+02  0.12888615636E+04  0.13359215318E+04  0.00000000000E+00 0. -1.
<scales pt_clust_5="13000.00000" pt_clust_6="13000.00000" pt_clust_7="13000.00000" pt_clust_8="13000.00000" pt_clust_9="78.89544" pt_clust_10="331.36510"></scales>
<clustering>
<clus scale="   78.895">  2  9  1 -1</clus>
<clus scale="   81.276">  5  6 -1 -1</clus>
<clus scale="   89.357">  7  8 -1 -1</clus>
<clus scale="  109.956">  1  5  2 -1</clus>
<clus scale="  331.365">  2 10  1 -1</clus>
<clus scale="   78.895">  2  5  1 -1</clus>
</clustering>
</event>
<event>
10    4  0.3403565E-005  0.1514402E+03  0.7546771E-02  0.1200439E+00
          2   -1    0    0  502    0 -0.00000000000E+00  0.00000000000E+00  0.42112102967E+03  0.42112102967E+03  0.00000000000E+00 0. -1.
         21   -1    0    0  503  502  0.00000000000E+00 -0.00000000000E+00 -0.13858470861E+03  0.13858470861E+03  0.00000000000E+00 0. -1.
         24    2    1    2    0    0 -0.10591587993E+03 -0.90515424674E+02  0.13506710644E+03  0.21022876204E+03  0.80881353983E+02 0.  0.
         23    2    1    2    0    0  0.29773830749E+02  0.10561906715E+03  0.53962199261E+02  0.15215664454E+03  0.90542018894E+02 0.  0.
        -13    1    3    3    0    0 -0.30458755564E+02 -0.69130739721E+02  0.35462902062E+02  0.83453054992E+02  0.00000000000E+00 0.  1.
         14    1    3    3    0    0 -0.75457124370E+02 -0.21384684954E+02  0.99604204376E+02  0.12677570705E+03  0.00000000000E+00 0. -1.
        -13    1    4    4    0    0  0.24725869898E+01  0.77582462486E+02 -0.88776707910E+01  0.78127877294E+02  0.00000000000E+00 0. -1.
         13    1    4    4    0    0  0.27301243760E+02  0.28036604667E+02  0.62839870052E+02  0.74028767248E+02  0.00000000000E+00 0.  1.
         21    1    1    2  503  501 -0.33060442364E+02  0.11374676005E+02 -0.17734708862E+02  0.39203265195E+02  0.00000000000E+00 0. -1.
          1    1    1    2  501    0  0.10920249155E+03 -0.26478318483E+02  0.11124172422E+03  0.15811706650E+03  0.00000000000E+00 0. -1.
<scales pt_clust_5="13000.00000" pt_clust_6="13000.00000" pt_clust_7="13000.00000" pt_clust_8="13000.00000" pt_clust_9="34.96250" pt_clust_10="104.95997"></scales>
<clustering>
<clus scale="   34.962">  2  9  1 -1</clus>
<clus scale="   80.881">  5  6 -1 -1</clus>
<clus scale="   90.542">  7  8 -1 -1</clus>
<clus scale="  104.960">  2 10  1 -1</clus>
<clus scale="  145.870">  1  5  2 -1</clus>
<clus scale="   34.962">  2  5  1 -1</clus>
</clustering>
</event>
<event>
10    4  0.3403565E-005  0.2186584E+03  0.7546771E-02  0.1164783E+00
         21   -1    0    0  501  502  0.00000000000E+00  0.00000000000E+00  0.42406972580E+02  0.42406972580E+02  0.00000000000E+00 0.  1.
          2   -1    0    0  503    0 -0.00000000000E+00 -0.00000000000E+00 -0.18738232172E+04  0.18738232172E+04  0.00000000000E+00 0. -1.
         24    2    1    2    0    0 -0.54606306687E+02 -0.55565384331E+02 -0.37025904543E+03  0.38642588215E+03  0.78510133165E+02 0.  0.
         23    2    1    2    0    0  0.13873820301E+03 -0.13838166548E+03 -0.80436164366E+03  0.83287246261E+03  0.91000609183E+02 0.  0.
        -11    1    3    3    0    0 -0.56138880171E+02 -0.53524102752E+02 -0.17819285766E+03  0.19434273324E+03  0.00000000000E+00 0.  1.
         12    1    3    3    0    0  0.15325734837E+01 -0.20412815786E+01 -0.19206618777E+03  0.19208314891E+03  0.00000000000E+00 0. -1.
        -13    1    4    4    0    0  0.85279936727E+02 -0.22825970635E+02 -0.35605163602E+03  0.36683301386E+03  0.00000000000E+00 0.  1.
         13    1    4    4    0    0  0.53458266279E+02 -0.11555569485E+03 -0.44831000763E+03  0.46603944875E+03  0.00000000000E+00 0. -1.
         21    1    1    2  503  502  0.14001051252E+02  0.14614753602E+02 -0.21373259129E+02  0.29435296241E+02  0.00000000000E+00 0. -1.
          1    1    1    2  501    0 -0.98132947571E+02  0.17933229621E+03 -0.63542229645E+03  0.66749654883E+03  0.00000000000E+00 0. -1.
<scales pt_clust_5="13000.00000" pt_clust_6="13000.00000" pt_clust_7="13000.00000" pt_clust_8="13000.00000" pt_clust_9="20.23908" pt_clust_10="198.82253"></scales>
<clustering>
<clus scale="   20.239">  1  9  2 -1</clus>
<clus scale="   78.510">  5  6 -1 -1</clus>
<clus scale="   91.001">  7  8 -1 -1</clus>
<clus scale="  107.644">  2  5  1 -1</clus>
<clus scale="  198.823">  1 10  2 -1</clus>
<clus scale="   20.239">  1  5  2 -1</clus>
</clustering>
</event>
<event>
10    4  0.3403565E-005  0.3857961E+03  0.7546771E-02  0.1092502E+00
         21   -1    0    0  503  502  0.00000000000E+00  0.00000000000E+00  0.14660580678E+04  0.14660580678E+04  0.00000000000E+00 0.  1.
         -1   -1    0    0    0  501 -0.00000000000E+00 -0.00000000000E+00 -0.57083132962E+03  0.57083132962E+03  0.00000000000E+00 0.  1.
         24    2    1    2    0    0  0.78340540097E+02  0.60481525097E+02  0.22856103213E+03  0.26110047485E+03  0.78345755841E+02 0.  0.
         23    2    1    2    0    0 -0.18064833500E+03  0.34034098286E+03  0.79252454707E+03  0.88581200006E+03  0.90010755959E+02 0.  0.
        -13    1    3    3    0    0  0.90768799389E+02  0.63300352568E+02  0.21827219608E+03  0.24472159929E+03  0.00000000000E+00 0.  1.
         14    1    3    3    0    0 -0.12428259292E+02 -0.28188274710E+01  0.10288836049E+02  0.16378875560E+02  0.00000000000E+00 0. -1.
        -11    1    4    4    0    0 -0.97895378113E+02  0.22520487400E+03  0.58525671313E+03  0.63468587552E+03  0.00000000000E+00 0.  1.
         11    1    4    4    0    0 -0.82752956886E+02  0.11513610886E+03  0.20726783395E+03  0.25112612454E+03  0.00000000000E+00 0. -1.
         21    1    1    2  503  501 -0.43730156094E+02 -0.43432953805E+02  0.30516497260E+03  0.31132685161E+03  0.00000000000E+00 0.  1.
         -2    1    1    2    0  502  0.14603795100E+03 -0.35738955415E+03 -0.43102381367E+03  0.57865007085E+03  0.00000000000E+00 0.  1.
<scales pt_clust_5="13000.00000" pt_clust_6="13000.00000" pt_clust_7="13000.00000" pt_clust_8="13000.00000" pt_clust_9="61.63398" pt_clust_10="375.14905"></scales>
<clustering>
<clus scale="   61.634">  1  9  2 -1</clus>
<clus scale="   78.346">  5  6 -1 -1</clus>
<clus scale="   90.011">  7  8 -1 -1</clus>
<clus scale="  116.376">  2  5  1 -1</clus>
<clus scale="  375.149">  1 10  2 -1</clus>
<clus scale="   61.634">  1  5  2 -1</clus>
</clustering>
</event>
<event>
10    4  0.3403565E-005  0.1136709E+03  0.7546771E-02  0.1258074E+00
         21   -1    0    0  503  502  0.00000000000E+00  0.00000000000E+00  0.49937468245E+02  0.49937468245E+02  0.00000000000E+00 0.  1.
         -3   -1    0    0    0  501 -0.00000000000E+00 -0.00000000000E+00 -0.76439929398E+03  0.76439929398E+03  0.00000000000E+00 0.  1.
         23    2    1    2    0    0 -0.24680728609E+02  0.59998021306E+02 -0.12522261074E+03  0.16837346392E+03  0.91978368031E+02 0.  0.
         24    2    1    2    0    0  0.91018946538E+02 -0.56784620960E+01 -0.16378584198E+03  0.20406747185E+03  0.80629011361E+02 0.  0.
        -11    1    4    4    0    0  0.70956550499E+02 -0.31237958805E+01 -0.46141243998E+02  0.84697134291E+02  0.00000000000E+00 0.  1.
         12    1    4    4    0    0  0.20062396040E+02 -0.25546662155E+01 -0.11764459799E+03  0.11937033756E+03  0.00000000000E+00 0. -1.
        -13    1    3    3    0    0  0.26758361555E+02  0.14201929303E+02 -0.81118770083E+02  0.86590759143E+02  0.00000000000E+00 0.  1.
         13    1    3    3    0    0 -0.51439090164E+02  0.45796092003E+02 -0.44103840657E+02  0.81782704775E+02  0.00000000000E+00 0. -1.
         21    1    1    2  503  501 -0.91801518115E+01 -0.60924824016E+02 -0.20513101361E+03  0.21418413133E+03  0.00000000000E+00 0.  1.
         -4    1    1    2    0  502 -0.57158066118E+02  0.66052648061E+01 -0.22032235940E+03  0.22771169513E+03  0.00000000000E+00 0.  1.
<scales pt_clust_5="13000.00000" pt_clust_6="13000.00000" pt_clust_7="13000.00000" pt_clust_8="13000.00000" pt_clust_9="62.06266" pt_clust_10="57.53849"></scales>
<clustering>
<clus scale="   57.538">  1 10  2 -1</clus>
<clus scale="   62.063">  2  9  1 -1</clus>
<clus scale="   80.629">  5  6 -1 -1</clus>
<clus scale="   91.978">  7  8 -1 -1</clus>
<clus scale="  104.700">  1  5  2 -1</clus>
<clus scale="   57.538">  1  5  2 -1</clus>
</clustering>
</event>
<event>
10    4  0.3403565E-005  0.1726816E+03  0.7546771E-02  0.1209703E+00
         21   -1    0    0  503  502  0.00000000000E+00  0.00000000000E+00  0.21353646160E+03  0.21353646160E+03  0.00000000000E+00 0. -1.
         -3   -1    0    0    0  501 -0.00000000000E+00 -0.00000000000E+00 -0.37518823717E+03  0.37518823717E+03  0.00000000000E+00 0.  1.
         24    2    1    2    0    0  0.88590732634E+01  0.29636890353E+01 -0.11700194453E+03  0.14178066359E+03  0.79530088097E+02 0.  0.
         23    2    1    2    0    0 -0.11754828339E+03 -0.11080023056E+03  0.57603475002E+02  0.19382478432E+03  0.90308342169E+02 0.  0.
        -11    1    3    3    0    0  0.35653456182E+02  0.25598155190E+02 -0.76546741216E+02  0.88237396141E+02  0.00000000000E+00 0.  1.
         12    1    3    3    0    0 -0.26794382919E+02 -0.22634466155E+02 -0.40455203313E+02  0.53543267450E+02  0.00000000000E+00 0. -1.
        -13    1    4    4    0    0 -0.20448288902E+02 -0.36187636932E+02  0.58015006706E+02  0.71368190315E+02  0.00000000000E+00 0. -1.
         13    1    4    4    0    0 -0.97099994491E+02 -0.74612593629E+02 -0.41153170413E+00  0.12245659401E+03  0.00000000000E+00 0.  1.
         21    1    1    2  503  501  0.57424124104E+02 -0.25223330956E+02  0.19432830695E+02  0.65661109970E+02  0.00000000000E+00 0. -1.
         -4    1    1    2    0  502  0.51265086025E+02  0.13305987248E+03 -0.12168613674E+03  0.18745814089E+03  0.00000000000E+00 0.  1.
<scales pt_clust_5="13000.00000" pt_clust_6="13000.00000" pt_clust_7="13000.00000" pt_clust_8="13000.00000" pt_clust_9="62.71959" pt_clust_10="147.18477"></scales>
<clustering>
<clus scale="   62.720">  1  9  2 -1</clus>
<clus scale="   79.530">  5  6 -1 -1</clus>
<clus scale="   80.597">  2  5  1 -1</clus>
<clus scale="   90.308">  7  8 -1 -1</clus>
<clus scale="  147.185">  1 10  2 -1</clus>
<clus scale="   62.720">  1  5  2 -1</clus>
</clustering>
</event>
<event>
10    4  0.3403565E-005  0.3378407E+03  0.7546771E-02  0.1121569E+00
          2   -1    0    0  503    0 -0.00000000000E+00  0.00000000000E+00  0.18105973473E+04  0.18105973473E+04  0.00000000000E+00 0. -1.
         21   -1    0    0  501  502  0.00000000000E+00 -0.00000000000E+00 -0.22196921126E+03  0.22196921126E+03  0.00000000000E+00 0. -1.
         24    2    1    2    0    0  0.36145636474E+01 -0.19670046460E+02  0.25142967254E+03  0.26455883359E+03  0.79840593681E+02 0.  0.
         23    2    1    2    0    0 -0.25068687634E+02 -0.39392632647E+03  0.36039074935E+03  0.54242192971E+03  0.92377853559E+02 0.  0.
        -13    1    3    3    0    0  0.31953977687E+02  0.27908726687E+01  0.46664864578E+02  0.56625570605E+02  0.00000000000E+00 0.  1.
         14    1    3    3    0    0 -0.28339414040E+02 -0.22460919128E+02  0.20476480796E+03  0.20793326298E+03  0.00000000000E+00 0. -1.
        -13    1    4    4    0    0 -0.34907359435E+02 -0.94147376961E+02  0.12971072326E+03  0.16403391131E+03  0.00000000000E+00 0.  1.
         13    1    4    4    0    0  0.98386718003E+01 -0.29977894950E+03  0.23068002609E+03  0.37838801839E+03  0.00000000000E+00 0. -1.
         21    1    1    2  503  502 -0.10302668132E+03  0.30550976650E+03  0.10075561351E+04  0.10578847196E+04  0.00000000000E+00 0. -1.
          1    1    1    2  501    0  0.12448080531E+03  0.10808660643E+03 -0.30748421006E+02  0.16770107565E+03  0.00000000000E+00 0. -1.
<scales pt_clust_5="13000.00000" pt_clust_6="13000.00000" pt_clust_7="13000.00000" pt_clust_8="13000.00000" pt_clust_9="324.96568" pt_clust_10="164.41142"></scales>
<clustering>
<clus scale="   79.841">  5  6 -1 -1</clus>
<clus scale="   82.307">  1  5  2 -1</clus>
<clus scale="   92.378">  7  8 -1 -1</clus>
<clus scale="  164.411">  2 10  1 -1</clus>
<clus scale="  324.966">  1  9  2 -1</clus>
<clus scale="  164.411">  2  5  1 -1</clus>
</clustering>
</event>
<event>
10    4  0.3403565E-005  0.5033866E+03  0.7546771E-02  0.1012899E+00
          2   -1    0    0  503    0 -0.00000000000E+00  0.00000000000E+00  0.59630439058E+03  0.59630439058E+03  0.00000000000E+00 0. -1.
         21   -1    0    0  501  502  0.00000000000E+00 -0.00000000000E+00 -0.48242009594E+03  0.48242009594E+03  0.00000000000E+00 0. -1.
         24    2    1    2    0    0  0.32108071642E+02  0.45833678873E+02  0.27154066819E+02  0.10141371472E+03  0.80098338338E+02 0.  0.
         23    2    1    2    0    0  0.13116924251E+03  0.34192276996E+03  0.10273166109E+03  0.39131849781E+03  0.91977289243E+02 0.  0.
        -13    1    3    3    0    0  0.38298043283E+02 -0.13914927436E+00 -0.12604389330E+02  0.40319103564E+02  0.00000000000E+00 0.  1.
         14    1    3    3    0    0 -0.61899716409E+01  0.45972828147E+02  0.39758456149E+02  0.61094611155E+02  0.00000000000E+00 0. -1.
        -11    1    4    4    0    0  0.13403963895E+01  0.51086762871E+02  0.44030006359E+02  0.67455877898E+02  0.00000000000E+00 0.  1.
         11    1    4    4    0    0  0.12982884612E+03  0.29083600709E+03  0.58701654734E+02  0.32386261991E+03  0.00000000000E+00 0. -1.
         21    1    1    2  503  502  0.70825564091E+02  0.48691457719E+02 -0.28546088990E+02  0.90564881605E+02  0.00000000000E+00 0. -1.
          1    1    1    2  501    0 -0.23410287825E+03 -0.43644790656E+03  0.12544655720E+02  0.49542739239E+03  0.00000000000E+00 0. -1.
<scales pt_clust_5="13000.00000" pt_clust_6="13000.00000" pt_clust_7="13000.00000" pt_clust_8="13000.00000" pt_clust_9="85.94835" pt_clust_10="452.21439"></scales>
<clustering>
<clus scale="   80.098">  5  6 -1 -1</clus>
<clus scale="   85.948">  2  9  1 -1</clus>
<clus scale="   91.977">  7  8 -1 -1</clus>
<clus scale="   93.416">  5  7 -1 -1</clus>
<clus scale="  452.214">  2 10  1 -1</clus>
<clus scale="   85.948">  2  5  1 -1</clus>
</clustering>
</event>
<event>
10    4  0.3403565E-005  0.1271274E+03  0.7546771E-02  0.1244441E+00
         21   -1    0    0  503  502  0.00000000000E+00  0.00000000000E+00  0.16301400397E+03  0.16301400397E+03  0.00000000000E+00 0. -1.
          2   -1    0    0  502    0 -0.00000000000E+00 -0.00000000000E+00 -0.25006523860E+03  0.25006523860E+03  0.00000000000E+00 0. -1.
         24    2    1    2    0    0 -0.89993721785E+00 -0.48565313089E+02 -0.57658785432E+01  0.92381307132E+02  0.78368750339E+02 0.  0.
         23    2    1    2    0    0  0.20486161291E+02  0.74406861434E+02 -0.31772017326E-01  0.13642161220E+03  0.11249351729E+03 0.  0.
        -13    1    3    3    0    0 -0.34054057780E+02 -0.46931125498E+02 -0.10256125684E+02  0.58884611792E+02  0.00000000000E+00 0.  1.
         14    1    3    3    0    0  0.33154120563E+02 -0.16341875909E+01  0.44902471404E+01  0.33496695341E+02  0.00000000000E+00 0. -1.
        -13    1    4    4    0    0 -0.44875642871E+02  0.44744013484E+02  0.92643701064E+01  0.64044348847E+02  0.00000000000E+00 0. -1.
         13    1    4    4    0    0  0.65361804162E+02  0.29662847950E+02 -0.92961421237E+01  0.72377263351E+02  0.00000000000E+00 0.  1.
         21    1    1    2  503  501  0.42711760995E+02 -0.27250211847E+02  0.28453292899E+02  0.58107301175E+02  0.00000000000E+00 0. -1.
          1    1    1    2  501    0 -0.62297985068E+02  0.14086635020E+01 -0.10970687696E+03  0.12616902206E+03  0.00000000000E+00 0. -1.
<scales pt_clust_5="13000.00000" pt_clust_6="13000.00000" pt_clust_7="13000.00000" pt_clust_8="13000.00000" pt_clust_9="50.66427" pt_clust_10="59.36362"></scales>
<clustering>
<clus scale="   50.664">  1  9  2 -1</clus>
<clus scale="   59.364">  1 10  2 -1</clus>
<clus scale="   78.369">  5  6 -1 -1</clus>
<clus scale="   98.226">  2  5  1 -1</clus>
<clus scale="  112.494">  7  8 -1 -1</clus>
<clus scale="   50.664">  1  5  2 -1</clus>
</clustering>
</event>
<event>
10    4  0.3403565E-005  0.2410103E+03  0.7546771E-02  0.1156681E+00
          2   -1    0    0  503    0 -0.00000000000E+00  0.00000000000E+00  0.14980751829E+03  0.14980751829E+03  0.00000000000E+00 0. -1.
         21   -1    0    0  501  502  0.00000000000E+00 -0.00000000000E+00 -0.69995963961E+03  0.69995963961E+03  0.00000000000E+00 0.  1.
         23    2    1    2    0    0  0.35609121561E+01  0.25261738860E+02 -0.22787659988E+02  0.99718311608E+02  0.93667650107E+02 0.  0.
         24    2    1    2    0    0 -0.11590869859E+03 -0.21453672098E+03 -0.28760533031E+03  0.38532352230E+03  0.79350864853E+02 0.  0.
        -11    1    4    4    0    0 -0.12245889154E+03 -0.21573708772E+03 -0.28575777412E+03  0.37841270672E+03  0.00000000000E+00 0.  1.
         12    1    4    4    0    0  0.65501929500E+01  0.12003667461E+01 -0.18475561889E+01  0.69108155726E+01  0.00000000000E+00 0. -1.
        -11    1    3    3    0    0  0.15374986844E+02 -0.29403796303E+02  0.10291672931E+02  0.34740351023E+02  0.00000000000E+00 0.  1.
         11    1    3    3    0    0 -0.11814074688E+02  0.54665535163E+02 -0.33079332919E+02  0.64977960585E+02  0.00000000000E+00 0. -1.
         21    1    1    2  503  502  0.44814267446E+02 -0.11895815556E+02 -0.10112999900E+03  0.11125244129E+03  0.00000000000E+00 0.  1.
          1    1    1    2  501    0  0.67533518991E+02  0.20117079767E+03 -0.13862913202E+03  0.25347288271E+03  0.00000000000E+00 0. -1.
<scales pt_clust_5="13000.00000" pt_clust_6="13000.00000" pt_clust_7="13000.00000" pt_clust_8="13000.00000" pt_clust_9="46.36625" pt_clust_10="227.57299"></scales>
<clustering>
<clus scale="   46.366">  2  9  1 -1</clus>
<clus scale="   79.351">  5  6 -1 -1</clus>
<clus scale="   93.668">  7  8 -1 -1</clus>
<clus scale="   97.048">  1  7  2 -1</clus>
<clus scale="  227.573">  2 10  1 -1</clus>
<clus scale="   46.366">  2  5  1 -1</clus>
</clustering>
</event>
<event>
10    4  0.3403565E-005  0.2518269E+03  0.7546771E-02  0.1144557E+00
          2   -1    0    0  502    0 -0.00000000000E+00  0.00000000000E+00  0.26531850005E+04  0.26531850005E+04  0.00000000000E+00 0. -1.
         21   -1    0    0  503  502  0.00000000000E+00 -0.00000000000E+00 -0.64359821040E+02  0.64359821040E+02  0.00000000000E+00 0.  1.
         24    2    1    2    0    0  0.36341273510E+02 -0.78213493974E+02  0.67385945244E+03  0.68397291338E+03  0.79336913171E+02 0.  0.
         23    2    1    2    0    0  0.53429903529E+02 -0.22679026797E+03  0.44323723590E+03  0.50896150044E+03  0.91071298484E+02 0.  0.
        -13    1    3    3    0    0  0.53665255359E+02 -0.83322839042E+02  0.56607962445E+03  0.57469017423E+03  0.00000000000E+00 0.  1.
         14    1    3    3    0    0 -0.17323981849E+02  0.51093450675E+01  0.10777982799E+03  0.10928273914E+03  0.00000000000E+00 0. -1.
        -13    1    4    4    0    0  0.25375982918E+02 -0.78163935246E+02  0.76568686857E+02  0.11232232676E+03  0.00000000000E+00 0.  1.
         13    1    4    4    0    0  0.28053920611E+02 -0.14862633272E+03  0.36666854904E+03  0.39663917368E+03  0.00000000000E+00 0. -1.
         21    1    1    2  503  501 -0.90892186007E+02  0.22663479605E+02  0.18613201718E+03  0.20837502394E+03  0.00000000000E+00 0.  1.
          1    1    1    2  501    0  0.11210089685E+01  0.28234028234E+03  0.12855964739E+04  0.13162353838E+04  0.00000000000E+00 0. -1.
<scales pt_clust_5="13000.00000" pt_clust_6="13000.00000" pt_clust_7="13000.00000" pt_clust_8="13000.00000" pt_clust_9="93.67509" pt_clust_10="234.78256"></scales>
<clustering>
<clus scale="   79.337">  5  6 -1 -1</clus>
<clus scale="   91.071">  7  8 -1 -1</clus>
<clus scale="   93.675">  2  9  1 -1</clus>
<clus scale="  113.346">  1  5  2 -1</clus>
<clus scale="  234.783">  2 10  1 -1</clus>
<clus scale="   93.675">  2  5  1 -1</clus>
</clustering>
</event>
<event>
10    4  0.3403565E-005  0.1347274E+03  0.7546771E-02  0.1243530E+00
         21   -1    0    0  503  502  0.00000000000E+00  0.00000000000E+00  0.55154843836E+03  0.55154843836E+03  0.00000000000E+00 0. -1.
         -1   -1    0    0    0  501 -0.00000000000E+00 -0.00000000000E+00 -0.10068589655E+03  0.10068589655E+03  0.00000000000E+00 0.  1.
         24    2    1    2    0    0 -0.19492787568E+02  0.14673829557E+02  0.82287371298E+02  0.11733449555E+03  0.80005514368E+02 0.  0.
         23    2    1    2    0    0 -0.17039218271E+02 -0.11462280577E+03  0.13282471130E+03  0.19854223743E+03  0.91366807692E+02 0.  0.
        -11    1    3    3    0    0  0.25213142786E+01 -0.21498980431E+02 -0.32505985446E+01  0.21889028671E+02  0.00000000000E+00 0.  1.
         12    1    3    3    0    0 -0.22014101847E+02  0.36172809988E+02  0.85537969843E+02  0.95445466877E+02  0.00000000000E+00 0. -1.
        -11    1    4    4    0    0 -0.19449781717E+02  0.98004716386E+01  0.11029901587E+02  0.24413151829E+02  0.00000000000E+00 0. -1.
         11    1    4    4    0    0  0.24105634468E+01 -0.12442327741E+03  0.12179480971E+03  0.17412908560E+03  0.00000000000E+00 0.  1.
         21    1    1    2  503  501  0.24384815076E+02  0.75560019399E+02  0.27631274166E+03  0.28749376853E+03  0.00000000000E+00 0. -1.
         -2    1    1    2    0  502  0.12147190762E+02  0.24388956817E+02 -0.40562282452E+02  0.48863833412E+02  0.00000000000E+00 0.  1.
<scales pt_clust_5="13000.00000" pt_clust_6="13000.00000" pt_clust_7="13000.00000" pt_clust_8="13000.00000" pt_clust_9="99.01306" pt_clust_10="27.24658"></scales>
<clustering>
<clus scale="   27.247">  1 10  2 -1</clus>
<clus scale="   80.006">  5  6 -1 -1</clus>
<clus scale="   84.054">  2  5  1 -1</clus>
<clus scale="   91.367">  7  8 -1 -1</clus>
<clus scale="   99.013">  1  9  2 -1</clus>
<clus scale="   27.247">  1  5  2 -1</clus>
</clustering>
</event>
<event>
10    4  0.3403565E-005  0.2290393E+03  0.7546771E-02  0.1146144E+00
         21   -1    0    0  501  502  0.00000000000E+00  0.00000000000E+00  0.31585053141E+03  0.31585053141E+03  0.00000000000E+00 0.  1.
         -3   -1    0    0    0  501 -0.00000000000E+00 -0.00000000000E+00 -0.29975042212E+03  0.29975042212E+03  0.00000000000E+00 0.  1.
         24    2    1    2    0    0  0.65863148674E+02  0.97702934385E+02  0.23418609557E+02  0.14692846233E+03  0.84591512752E+02 0.  0.
         23    2    1    2    0    0 -0.23828868226E+03 -0.27657688083E+02  0.56673817208E+02  0.26266624054E+03  0.90747939698E+02 0.  0.
        -11    1    3    3    0    0  0.76116216195E+02  0.91155201936E+02  0.40925334380E+02  0.12560984118E+03  0.00000000000E+00 0.  1.
         12    1    3    3    0    0 -0.10253067520E+02  0.65477324492E+01 -0.17506724823E+02  0.21318621152E+02  0.00000000000E+00 0. -1.
        -13    1    4    4    0    0 -0.21664414941E+03 -0.13320524175E+02  0.76350226229E+02  0.23009015816E+03  0.00000000000E+00 0.  1.
         13    1    4    4    0    0 -0.21644532855E+02 -0.14337163908E+02 -0.19676409021E+02  0.32576082383E+02  0.00000000000E+00 0. -1.
         21    1    1    2  503  502  0.39463480763E+02  0.92935133644E+00  0.58244716929E+01  0.39901810464E+02  0.00000000000E+00 0. -1.
         -4    1    1    2    0  503  0.13296205282E+03 -0.70974597639E+02 -0.69816789162E+02  0.16610444019E+03  0.00000000000E+00 0.  1.
<scales pt_clust_5="13000.00000" pt_clust_6="13000.00000" pt_clust_7="13000.00000" pt_clust_8="13000.00000" pt_clust_9="31.15765" pt_clust_10="218.93035"></scales>
<clustering>
<clus scale="   31.158">  9 10 -1 -1</clus>
<clus scale="   84.592">  5  6 -1 -1</clus>
<clus scale="   90.748">  7  8 -1 -1</clus>
<clus scale="  145.050">  2  5  1 -1</clus>
<clus scale="  218.930">  1  9  2 -1</clus>
<clus scale="  218.930">  1  5  2 -1</clus>
</clustering>
</event>
<event>
10    4  0.3403565E-005  0.1546557E+03  0.7546771E-02  0.1196961E+00
          2   -1    0    0  503    0 -0.00000000000E+00  0.00000000000E+00  0.54497373412E+03  0.54497373412E+03  0.00000000000E+00 0. -1.
         21   -1    0    0  501  502  0.00000000000E+00 -0.00000000000E+00 -0.68816597464E+03  0.68816597464E+03  0.00000000000E+00 0. -1.
         23    2    1    2    0    0 -0.29240778009E+01 -0.12116621783E+03  0.50028471494E+03  0.52330543271E+03  0.94201790460E+02 0.  0.
         24    2    1    2    0    0  0.27251151944E+02  0.16278037252E+03 -0.29670642273E+03  0.34936287757E+03  0.82338593471E+02 0.  0.
        -11    1    4    4    0    0  0.29180628905E+02  0.34505195535E+02 -0.32519687388E+02  0.55674479701E+02  0.00000000000E+00 0.  1.
         12    1    4    4    0    0 -0.19294769618E+01  0.12827517699E+03 -0.26418673534E+03  0.29368839787E+03  0.00000000000E+00 0. -1.
        -13    1    3    3    0    0  0.38141692082E+02 -0.91731829968E+02  0.38147450449E+03  0.39419831923E+03  0.00000000000E+00 0. -1.
         13    1    3    3    0    0 -0.41065769883E+02 -0.29434387861E+02  0.11881021045E+03  0.12910711349E+03  0.00000000000E+00 0.  1.
         21    1    1    2  503  502  0.19867184677E+02  0.16212408759E+02 -0.87753683837E+02  0.91423499451E+02  0.00000000000E+00 0.  1.
          1    1    1    2  501    0 -0.44194258820E+02 -0.57826563455E+02 -0.25901684890E+03  0.26904789902E+03  0.00000000000E+00 0. -1.
<scales pt_clust_5="13000.00000" pt_clust_6="13000.00000" pt_clust_7="13000.00000" pt_clust_8="13000.00000" pt_clust_9="25.64268" pt_clust_10="61.83307"></scales>
<clustering>
<clus scale="   25.643">  2  9  1 -1</clus>
<clus scale="   61.833">  2 10  1 -1</clus>
<clus scale="   82.339">  5  6 -1 -1</clus>
<clus scale="   94.202">  7  8 -1 -1</clus>
<clus scale="  147.730">  2  5  1 -1</clus>
<clus scale="   25.643">  2  5  1 -1</clus>
</clustering>
</event>
<event>
10    4  0.3403565E-005  0.4519373E+03  0.7546771E-02  0.1050840E+00
         -3   -1    0    0    0  501 -0.00000000000E+00  0.00000000000E+00  0.10989420481E+04  0.10989420481E+04  0.00000000000E+00 0.  1.
         21   -1    0    0  501  502  0.00000000000E+00 -0.00000000000E+00 -0.68833281380E+03  0.68833281380E+03  0.00000000000E+00 0.  1.
         24    2    1    2    0    0 -0.83493775179E+02 -0.22094746542E+03 -0.54506906497E+02  0.25497956807E+03  0.79085929904E+02 0.  0.
         23    2    1    2    0    0  0.49205491621E+03  0.11313736858E+03  0.64147010734E+03  0.82396458684E+03  0.11187330793E+03 0.  0.
        -11    1    3    3    0    0 -0.65791306102E+02 -0.22013371924E+03 -0.42710282200E+02  0.23369107495E+03  0.00000000000E+00 0.  1.
         12    1    3    3    0    0 -0.17702469078E+02 -0.81374617068E+00 -0.11796624297E+02  0.21288493114E+02  0.00000000000E+00 0. -1.
        -13    1    4    4    0    0  0.22997396163E+03  0.45000779741E+02  0.21059157826E+03  0.31505857557E+03  0.00000000000E+00 0.  1.
         13    1    4    4    0    0  0.26208095458E+03  0.68136588839E+02  0.43087852907E+03  0.50890601127E+03  0.00000000000E+00 0. -1.
         21    1    1    2  503  502  0.14874566039E+02  0.63789454524E+02 -0.26543110694E+03  0.27339352544E+03  0.00000000000E+00 0.  1.
         -4    1    1    2    0  503 -0.42343570707E+03  0.44020642311E+02  0.89077140417E+02  0.43493718157E+03  0.00000000000E+00 0.  1.
<scales pt_clust_5="13000.00000" pt_clust_6="13000.00000" pt_clust_7="13000.00000" pt_clust_8="13000.00000" pt_clust_9="65.50074" pt_clust_10="437.87175"></scales>
<clustering>
<clus scale="   65.501">  2  9  1 -1</clus>
<clus scale="   79.086">  5  6 -1 -1</clus>
<clus scale="  111.873">  7  8 -1 -1</clus>
<clus scale="  226.493">  1  5  2 -1</clus>
<clus scale="  437.872">  2 10  1 -1</clus>
<clus scale="   65.501">  2  5  1 -1</clus>
</clustering>
</event>
<event>
10    4  0.3403565E-005  0.9777828E+02  0.7546771E-02  0.1291322E+00
         21   -1    0    0  501  502  0.00000000000E+00  0.00000000000E+00  0.12131128278E+03  0.12131128278E+03  0.00000000000E+00 0. -1.
          2   -1    0    0  503    0 -0.00000000000E+00 -0.00000000000E+00 -0.15182310094E+04  0.15182310094E+04  0.00000000000E+00 0. -1.
         24    2    1    2    0    0  0.42642436896E+02 -0.12023576564E+02 -0.11577453570E+04  0.11613038900E+04  0.79306175126E+02 0.  0.
         23    2    1    2    0    0  0.48609847209E+02  0.31028595998E+02 -0.18805222680E+03  0.21676951346E+03  0.91102639613E+02 0.  0.
        -13    1    3    3    0    0  0.23436350697E+02  0.11634159254E+02 -0.10828894080E+03  0.11140516547E+03  0.00000000000E+00 0.  1.
         14    1    3    3    0    0  0.19206086199E+02 -0.23657735818E+02 -0.10494564162E+04  0.10498987245E+04  0.00000000000E+00 0. -1.
        -11    1    4    4    0    0  0.66441961129E+02  0.43365294893E+02 -0.10913709079E+03  0.13492956528E+03  0.00000000000E+00 0. -1.
         11    1    4    4    0    0 -0.17832113920E+02 -0.12336698895E+02 -0.78915136012E+02  0.81839948181E+02  0.00000000000E+00 0.  1.
         21    1    1    2  503  502 -0.46526968718E+02 -0.38346659356E+02  0.92158393085E+02  0.11012899036E+03  0.00000000000E+00 0. -1.
          1    1    1    2  501    0 -0.44725315387E+02  0.19341639923E+02 -0.14328053597E+03  0.15133989843E+03  0.00000000000E+00 0. -1.
<scales pt_clust_5="13000.00000" pt_clust_6="13000.00000" pt_clust_7="13000.00000" pt_clust_8="13000.00000" pt_clust_9="87.81298" pt_clust_10="48.72838"></scales>
<clustering>
<clus scale="   48.728">  1 10  2 -1</clus>
<clus scale="   79.306">  5  6 -1 -1</clus>
<clus scale="   87.813">  1  9  2 -1</clus>
<clus scale="   86.893">  2  5  1 -1</clus>
<clus scale="   91.103">  7  8 -1 -1</clus>
<clus scale="   48.728">  1  5  2 -1</clus>
</clustering>
</event>
<event>
10    4  0.3403565E-005  0.1601856E+03  0.7546771E-02  0.1190567E+00
          2   -1    0    0  502    0 -0.00000000000E+00  0.00000000000E+00  0.32337984602E+03  0.32337984602E+03  0.00000000000E+00 0. -1.
         21   -1    0    0  503  502  0.00000000000E+00 -0.00000000000E+00 -0.38028499661E+03  0.38028499661E+03  0.00000000000E+00 0. -1.
         23    2    1    2    0    0 -0.11237172505E+03 -0.31661587504E+02  0.57110745612E+01  0.14936664503E+03  0.92994180260E+02 0.  0.
         24    2    1    2    0    0  0.16714066891E+03  0.36332439815E+02 -0.17012185038E+03  0.25414802365E+03  0.79960768881E+02 0.  0.
        -11    1    4    4    0    0  0.12676296645E+03  0.10104301989E+02 -0.16096637431E+03  0.20513683297E+03  0.00000000000E+00 0.  1.
         12    1    4    4    0    0  0.40377702457E+02  0.26228137825E+02 -0.91554760713E+01  0.49011190677E+02  0.00000000000E+00 0. -1.
        -13    1    3    3    0    0  0.55354424005E+01 -0.30640791125E+02  0.44126944136E+01  0.31447910508E+02  0.00000000000E+00 0.  1.
         13    1    3    3    0    0 -0.11790716745E+03 -0.10207963788E+01  0.12983801476E+01  0.11791873452E+03  0.00000000000E+00 0. -1.
         21    1    1    2  503  501  0.12713472580E+01 -0.41667420019E+02 -0.85866254082E+02  0.95450530668E+02  0.00000000000E+00 0.  1.
          1    1    1    2  501    0 -0.56040291123E+02  0.36996567709E+02  0.19337187931E+03  0.20469964328E+03  0.00000000000E+00 0. -1.
<scales pt_clust_5="13000.00000" pt_clust_6="13000.00000" pt_clust_7="13000.00000" pt_clust_8="13000.00000" pt_clust_9="41.68681" pt_clust_10="66.68471"></scales>
<clustering>
<clus scale="   41.687">  2  9  1 -1</clus>
<clus scale="   66.685">  2 10  1 -1</clus>
<clus scale="   79.961">  5  6 -1 -1</clus>
<clus scale="   92.994">  7  8 -1 -1</clus>
<clus scale="  152.988">  2  5  1 -1</clus>
<clus scale="   41.687">  2  5  1 -1</clus>
</clustering>
</event>
<event>
10    4  0.3403565E-005  0.1949644E+03  0.7546771E-02  0.1156407E+00
         21   -1    0    0  503  502  0.00000000000E+00  0.00000000000E+00  0.23147506659E+03  0.23147506659E+03  0.00000000000E+00 0. -1.
          2   -1    0    0  502    0 -0.00000000000E+00 -0.00000000000E+00 -0.43570906453E+03  0.43570906453E+03  0.00000000000E+00 0. -1.
         23    2    1    2    0    0 -0.66951786562E+02 -0.10065915733E+03 -0.21876766543E+02  0.15993294726E+03  0.10239700693E+03 0.  0.
         24    2    1    2    0    0 -0.47297853043E+01  0.24122768047E+03 -0.92607274045E+02  0.27074996505E+03  0.80723427030E+02 0.  0.
        -13    1    4    4    0    0 -0.39862196212E+02  0.12497437322E+03 -0.64108198910E+02  0.14600496504E+03  0.00000000000E+00 0.  1.
         14    1    4    4    0    0  0.35132410907E+02  0.11625330725E+03 -0.28499075135E+02  0.12474500001E+03  0.00000000000E+00 0. -1.
        -13    1    3    3    0    0 -0.77552485332E+02 -0.32296436247E+02  0.83807926624E+01  0.84425620880E+02  0.00000000000E+00 0. -1.
         13    1    3    3    0    0  0.10600698770E+02 -0.68362721083E+02 -0.30257559205E+02  0.75507326382E+02  0.00000000000E+00 0.  1.
         21    1    1    2  503  501  0.36217598590E+01 -0.33763172946E+02  0.41827265886E+02  0.53875682486E+02  0.00000000000E+00 0. -1.
          1    1    1    2  501    0  0.68059812007E+02 -0.10680535020E+03 -0.13157722324E+03  0.18262553632E+03  0.00000000000E+00 0. -1.
<scales pt_clust_5="13000.00000" pt_clust_6="13000.00000" pt_clust_7="13000.00000" pt_clust_8="13000.00000" pt_clust_9="33.95687" pt_clust_10="130.89253"></scales>
<clustering>
<clus scale="   33.957">  1  9  2 -1</clus>
<clus scale="   80.723">  5  6 -1 -1</clus>
<clus scale="  102.397">  7  8 -1 -1</clus>
<clus scale="  130.893">  1 10  2 -1</clus>
<clus scale="  184.505">  1  5  2 -1</clus>
<clus scale="   33.957">  1  5  2 -1</clus>
</clustering>
</event>
<event>
10    4  0.3403565E-005  0.1123314E+03  0.7546771E-02  0.1258514E+00
         21   -1    0    0  501  502  0.00000000000E+00  0.00000000000E+00  0.34002675033E+03  0.34002675033E+03  0.00000000000E+00 0.  1.
         -3   -1    0    0    0  501 -0.00000000000E+00 -0.00000000000E+00 -0.32220885806E+03  0.32220885806E+03  0.00000000000E+00 0.  1.
         23    2    1    2    0    0  0.75620791654E+02 -0.20817215228E+02 -0.22936420290E+03  0.25769841760E+03  0.87456710907E+02 0.  0.
         24    2    1    2    0    0 -0.49711320252E+02  0.10624895797E+02 -0.29983297897E+02  0.10040728006E+03  0.81231274546E+02 0.  0.
        -13    1    4    4    0    0 -0.37300490558E+02  0.45166458752E+02 -0.23599340491E+02  0.63152707493E+02  0.00000000000E+00 0.  1.
         14    1    4    4    0    0 -0.12410829694E+02 -0.34541562954E+02 -0.63839574063E+01  0.37254572567E+02  0.00000000000E+00 0. -1.
        -11    1    3    3    0    0  0.39391648733E+02  0.33533958525E+02 -0.90599765097E+02  0.10432902664E+03  0.00000000000E+00 0.  1.
         11    1    3    3    0    0  0.36229142922E+02 -0.54351173753E+02 -0.13876443780E+03  0.15336939096E+03  0.00000000000E+00 0. -1.
         21    1    1    2  503  502  0.31210643277E+02 -0.24644058323E+02  0.19069971819E+03  0.19480199275E+03  0.00000000000E+00 0.  1.
         -4    1    1    2    0  503 -0.57120114679E+02  0.34836377754E+02  0.86465674886E+02  0.10932791798E+03  0.00000000000E+00 0.  1.
<scales pt_clust_5="13000.00000" pt_clust_6="13000.00000" pt_clust_7="13000.00000" pt_clust_8="13000.00000" pt_clust_9="39.76725" pt_clust_10="40.78783"></scales>
<clustering>
<clus scale="   39.767">  1  9  2 -1</clus>
<clus scale="   40.788">  1 10  2 -1</clus>
<clus scale="   81.231">  5  6 -1 -1</clus>
<clus scale="   87.457">  7  8 -1 -1</clus>
<clus scale="  107.555">  1  5  2 -1</clus>
<clus scale="   39.767">  1  5  2 -1</clus>
</clustering>
</event>
<event>
10    4  0.3403565E-005  0.2289496E+03  0.7546771E-02  0.1155958E+00
         21   -1    0    0  503  502  0.00000000000E+00  0.00000000000E+00  0.71280193290E+02  0.71280193290E+02  0.00000000000E+00 0.  1.
          2   -1    0    0  502    0 -0.00000000000E+00 -0.00000000000E+00 -0.17470067900E+04  0.17470067900E+04  0.00000000000E+00 0. -1.
         24    2    1    2    0    0  0.56153524991E+02  0.57530091336E+02 -0.25962815143E+03  0.28278201092E+03  0.78076622024E+02 0.  0.
         23    2    1    2    0    0 -0.12241771789E+03  0.13865522803E+03 -0.31417101198E+03  0.37655249583E+03  0.94217765999E+02 0.  0.
        -13    1    3    3    0    0  0.51386886627E+02  0.19033272619E+02 -0.68323234689E+02  0.87583913946E+02  0.00000000000E+00 0.  1.
         14    1    3    3    0    0  0.47666383642E+01  0.38496818718E+02 -0.19130491674E+03  0.19519809697E+03  0.00000000000E+00 0. -1.
        -11    1    4    4    0    0 -0.84641309424E+02  0.12487974985E+03 -0.29641414961E+03  0.33259652925E+03  0.00000000000E+00 0.  1.
         11    1    4    4    0    0 -0.37776408471E+02  0.13775478177E+02 -0.17756862372E+02  0.43955966571E+02  0.00000000000E+00 0. -1.
         21    1    1    2  503  501 -0.79166965290E+01  0.34821865636E+02 -0.56588963851E+01  0.36156044012E+02  0.00000000000E+00 0. -1.
          1    1    1    2  501    0  0.74180889432E+02 -0.23100718500E+03 -0.10962685369E+04  0.11227964325E+04  0.00000000000E+00 0. -1.
<scales pt_clust_5="13000.00000" pt_clust_6="13000.00000" pt_clust_7="13000.00000" pt_clust_8="13000.00000" pt_clust_9="35.71045" pt_clust_10="208.66476"></scales>
<clustering>
<clus scale="   35.710">  1  9  2 -1</clus>
<clus scale="   78.077">  5  6 -1 -1</clus>
<clus scale="   94.218">  7  8 -1 -1</clus>
<clus scale="  115.141">  2  5  1 -1</clus>
<clus scale="  208.665">  1 10  2 -1</clus>
<clus scale="   35.710">  1  5  2 -1</clus>
</clustering>
</event>
<event>
10    4  0.3403565E-005  0.1276905E+03  0.7546771E-02  0.1248749E+00
         21   -1    0    0  501  502  0.00000000000E+00  0.00000000000E+00  0.14732026526E+03  0.14732026526E+03  0.00000000000E+00 0. -1.
         -1   -1    0    0    0  501 -0.00000000000E+00 -0.00000000000E+00 -0.34756102809E+03  0.34756102809E+03  0.00000000000E+00 0.  1.
         24    2    1    2    0    0 -0.22907700872E+02 -0.22754340581E+02 -0.18816985948E+03  0.20767180143E+03  0.81713880819E+02 0.  0.
         23    2    1    2    0    0 -0.46406244030E+02  0.63513790471E+02 -0.13242220776E+02  0.12565171821E+03  0.97084791873E+02 0.  0.
        -13    1    3    3    0    0  0.15515560052E+02 -0.41368476732E+02 -0.80160346466E+02  0.91530129555E+02  0.00000000000E+00 0.  1.
         14    1    3    3    0    0 -0.38423260924E+02  0.18614136151E+02 -0.10800951302E+03  0.11614167188E+03  0.00000000000E+00 0. -1.
        -13    1    4    4    0    0 -0.76991039325E+02  0.46592966654E+02 -0.10122540472E+02  0.90559320357E+02  0.00000000000E+00 0. -1.
         13    1    4    4    0    0  0.30584795295E+02  0.16920823816E+02 -0.31196803031E+01  0.35092397852E+02  0.00000000000E+00 0.  1.
         21    1    1    2  503  502 -0.21194535720E+02 -0.16043303643E+02  0.49375692288E+02  0.56076331237E+02  0.00000000000E+00 0. -1.
         -2    1    1    2    0  503  0.90508480622E+02 -0.24716146246E+02 -0.48204374863E+02  0.10548144247E+03  0.00000000000E+00 0.  1.
<scales pt_clust_5="13000.00000" pt_clust_6="13000.00000" pt_clust_7="13000.00000" pt_clust_8="13000.00000" pt_clust_9="26.58187" pt_clust_10="82.94225"></scales>
<clustering>
<clus scale="   26.582">  1  9  2 -1</clus>
<clus scale="   81.714">  5  6 -1 -1</clus>
<clus scale="   88.896">  2  5  1 -1</clus>
<clus scale="   82.942">  1 10  2 -1</clus>
<clus scale="   97.085">  7  8 -1 -1</clus>
<clus scale="   26.582">  1  5  2 -1</clus>
</clustering>
</event>
<event>
10    4  0.3403565E-005  0.8838467E+02  0.7546771E-02  0.1308426E+00
          2   -1    0    0  503    0 -0.00000000000E+00  0.00000000000E+00  0.37986859181E+03  0.37986859181E+03  0.00000000000E+00 0. -1.
         21   -1    0    0  501  502  0.00000000000E+00 -0.00000000000E+00 -0.96049428772E+02  0.96049428772E+02  0.00000000000E+00 0.  1.
         23    2    1    2    0    0  0.29295982232E+02 -0.37838367353E+01  0.18812192017E+03  0.20803465720E+03  0.83761505186E+02 0.  0.
         24    2    1    2    0    0 -0.21825384329E+02 -0.32513102562E+01 -0.17330056390E+02  0.85773276048E+02  0.81054337391E+02 0.  0.
        -13    1    4    4    0    0 -0.38220963750E+02  0.67506430564E+00 -0.41423736646E+02  0.56366867392E+02  0.00000000000E+00 0.  1.
         14    1    4    4    0    0  0.16395579421E+02 -0.39263745619E+01  0.24093680256E+02  0.29406408656E+02  0.00000000000E+00 0. -1.
        -13    1    3    3    0    0  0.39179202574E+02 -0.34160745632E+02  0.80940943756E+02  0.96194609166E+02  0.00000000000E+00 0. -1.
         13    1    3    3    0    0 -0.98832203419E+01  0.30376908896E+02  0.10718097641E+03  0.11184004803E+03  0.00000000000E+00 0.  1.
         21    1    1    2  503  502 -0.41527383426E+02  0.22006873042E+02 -0.14566199972E+02  0.49203660605E+02  0.00000000000E+00 0.  1.
          1    1    1    2  501    0  0.34056785523E+02 -0.14971726051E+02  0.12759349923E+03  0.13290642673E+03  0.00000000000E+00 0. -1.
<scales pt_clust_5="13000.00000" pt_clust_6="13000.00000" pt_clust_7="13000.00000" pt_clust_8="13000.00000" pt_clust_9="34.34351" pt_clust_10="37.20240"></scales>
<clustering>
<clus scale="   37.202">  2 10  1 -1</clus>
<clus scale="   34.344">  2  9  1 -1</clus>
<clus scale="   81.054">  5  6 -1 -1</clus>
<clus scale="   83.762">  7  8 -1 -1</clus>
<clus scale="   85.823">  2  5  1 -1</clus>
<clus scale="   37.202">  2  5  1 -1</clus>
</clustering>
</event>
<event>
10    4  0.4057987E-005  0.2697094E+03  0.7546771E-02  0.1148101E+00
          2   -1    0    0  503    0 -0.00000000000E+00  0.00000000000E+00  0.82345372619E+03  0.82345372619E+03  0.00000000000E+00 0. -1.
         21   -1    0    0  501  502  0.00000000000E+00 -0.00000000000E+00 -0.28433465056E+03  0.28433465056E+03  0.00000000000E+00 0. -1.
         24    2    1    2    0    0  0.24210763170E+02 -0.17533169327E+02 -0.63309245590E+02  0.10309312100E+03  0.75674024207E+02 0.  0.
         23    2    1    2    0    0 -0.23250544686E+03  0.14675193333E+03 -0.33040360232E+02  0.29254350794E+03  0.94313974973E+02 0.  0.
        -11    1    3    3    0    0 -0.18690689559E+02 -0.24088181332E+02 -0.57836855835E+01  0.31032779041E+02  0.00000000000E+00 0.  1.
         12    1    3    3    0    0  0.42901452729E+02  0.65550120054E+01 -0.57525560007E+02  0.72060341956E+02  0.00000000000E+00 0. -1.
        -13    1    4    4    0    0 -0.18224043328E+03  0.14935588264E+03 -0.47097207546E+02  0.24028504356E+03  0.00000000000E+00 0. -1.
         13    1    4    4    0    0 -0.50265013583E+02 -0.26039493090E+01  0.14056847314E+02  0.52258464376E+02  0.00000000000E+00 0.  1.
         21    1    1    2  503  502  0.24890793807E+02 -0.10494982520E+02 -0.11448158726E+02  0.29338653900E+02  0.00000000000E+00 0. -1.
          1    1    1    2  501    0  0.18340388989E+03 -0.11872378148E+03  0.64691684018E+03  0.68281309391E+03  0.00000000000E+00 0. -1.
<scales pt_clust_5="13000.00000" pt_clust_6="13000.00000" pt_clust_7="13000.00000" pt_clust_8="13000.00000" pt_clust_9="27.01289" pt_clust_10="252.68186"></scales>
<clustering>
<clus scale="   27.013">  2  9  1 -1</clus>
<clus scale="   75.674">  5  6 -1 -1</clus>
<clus scale="   84.786">  1  5  2 -1</clus>
<clus scale="   94.314">  7  8 -1 -1</clus>
<clus scale="  252.682">  2 10  1 -1</clus>
<clus scale="   27.013">  2  5  1 -1</clus>
</clustering>
</event>
<event>
10    4  0.3403565E-005  0.1638888E+03  0.7546771E-02  0.1206537E+00
         21   -1    0    0  503  502  0.00000000000E+00  0.00000000000E+00  0.22714046441E+03  0.22714046441E+03  0.00000000000E+00 0.  1.
         -1   -1    0    0    0  501 -0.00000000000E+00 -0.00000000000E+00 -0.38370104760E+03  0.38370104760E+03  0.00000000000E+00 0.  1.
         24    2    1    2    0    0  0.61010668110E+02  0.87178011822E+01 -0.15052132487E+03  0.18105561206E+03  0.79537184618E+02 0.  0.
         23    2    1    2    0    0 -0.25088766138E+00  0.15074823121E+03  0.11321926859E+03  0.20953066065E+03  0.91429769862E+02 0.  0.
        -11    1    3    3    0    0 -0.14248770351E+02  0.18884259341E+02 -0.47537506375E+02  0.53098561372E+02  0.00000000000E+00 0.  1.
         12    1    3    3    0    0  0.75259438461E+02 -0.10166458159E+02 -0.10298381850E+03  0.12795705069E+03  0.00000000000E+00 0. -1.
        -13    1    4    4    0    0 -0.11709070014E+02  0.43022831232E+02 -0.97570500800E+01  0.45642812732E+02  0.00000000000E+00 0. -1.
         13    1    4    4    0    0  0.11458182352E+02  0.10772539997E+03  0.12297631867E+03  0.16388784792E+03  0.00000000000E+00 0.  1.
         21    1    1    2  503  501  0.93211009964E+01 -0.23855580318E+02  0.14423131146E+01  0.25652522356E+02  0.00000000000E+00 0.  1.
         -2    1    1    2    0  502 -0.70080881445E+02 -0.13561045207E+03 -0.12070084002E+03  0.19460271693E+03  0.00000000000E+00 0.  1.
<scales pt_clust_5="13000.00000" pt_clust_6="13000.00000" pt_clust_7="13000.00000" pt_clust_8="13000.00000" pt_clust_9="25.61194" pt_clust_10="136.01526"></scales>
<clustering>
<clus scale="   25.612">  1  9  2 -1</clus>
<clus scale="   79.537">  5  6 -1 -1</clus>
<clus scale="   91.430">  7  8 -1 -1</clus>
<clus scale="  100.893">  2  5  1 -1</clus>
<clus scale="  136.015">  1 10  2 -1</clus>
<clus scale="   25.612">  1  5  2 -1</clus>
</clustering>
</event>
<event>
10    4  0.3403565E-005  0.9633434E+02  0.7546771E-02  0.1292004E+00
         -3   -1    0    0    0  501 -0.00000000000E+00  0.00000000000E+00  0.35392222896E+02  0.35392222896E+02  0.00000000000E+00 0.  1.
         21   -1    0    0  503  502  0.00000000000E+00 -0.00000000000E+00 -0.11466346508E+04  0.11466346508E+04  0.00000000000E+00 0.  1.
         24    2    1    2    0    0 -0.25995541049E+02  0.14016801160E+02 -0.80939014077E+02  0.11851725086E+03  0.81381667976E+02 0.  0.
         23    2    1    2    0    0  0.61536695606E+02 -0.83463444274E+02 -0.71286654006E+03  0.72580122746E+03  0.88632987171E+02 0.  0.
        -13    1    3    3    0    0 -0.55585249198E+02  0.10976323232E+02 -0.49489344936E+02  0.75228949629E+02  0.00000000000E+00 0.  1.
         14    1    3    3    0    0  0.29589708150E+02  0.30404779283E+01 -0.31449669141E+02  0.43288301231E+02  0.00000000000E+00 0. -1.
        -13    1    4    4    0    0  0.58705262674E+02 -0.65920804944E+01 -0.28185907592E+03  0.28798316282E+03  0.00000000000E+00 0.  1.
         13    1    4    4    0    0  0.28314329321E+01 -0.76871363780E+02 -0.43100746414E+03  0.43781806464E+03  0.00000000000E+00 0. -1.
         21    1    1    2  503  501 -0.10419499451E+02  0.33006139833E+02 -0.27230298389E+03  0.27449387292E+03  0.00000000000E+00 0.  1.
         -4    1    1    2    0  502 -0.25121655107E+02  0.36440503281E+02 -0.45133889916E+02  0.63214522490E+02  0.00000000000E+00 0.  1.
<scales pt_clust_5="13000.00000" pt_clust_6="13000.00000" pt_clust_7="13000.00000" pt_clust_8="13000.00000" pt_clust_9="34.61172" pt_clust_10="46.31774"></scales>
<clustering>
<clus scale="   34.612">  2  9  1 -1</clus>
<clus scale="   46.318">  2 10  1 -1</clus>
<clus scale="   81.382">  5  6 -1 -1</clus>
<clus scale="   88.633">  7  8 -1 -1</clus>
<clus scale="   89.708">  1  5  2 -1</clus>
<clus scale="   34.612">  2  5  1 -1</clus>
</clustering>
</event>
<event>
10    4  0.3403565E-005  0.3429581E+03  0.7546771E-02  0.1066325E+00
          2   -1    0    0  503    0 -0.00000000000E+00  0.00000000000E+00  0.52909504564E+03  0.52909504564E+03  0.00000000000E+00 0. -1.
         21   -1    0    0  501  502  0.00000000000E+00 -0.00000000000E+00 -0.48456560819E+03  0.48456560819E+03  0.00000000000E+00 0. -1.
         23    2    1    2    0    0 -0.24985749331E+03  0.30797999985E+03  0.11378998959E+03  0.42716983944E+03  0.11065921890E+03 0.  0.
         24    2    1    2    0    0  0.59856896088E+02 -0.25761334148E+03 -0.51664196769E+02  0.28262938597E+03  0.85221469540E+02 0.  0.
        -13    1    4    4    0    0 -0.20755644079E+02 -0.77822432309E+02 -0.91679189926E+01  0.81062805715E+02  0.00000000000E+00 0.  1.
         14    1    4    4    0    0  0.80612540167E+02 -0.17979090917E+03 -0.42496277776E+02  0.20156658026E+03  0.00000000000E+00 0. -1.
        -11    1    3    3    0    0 -0.19888229298E+03  0.16017936648E+03  0.68271598496E+02  0.26433427146E+03  0.00000000000E+00 0. -1.
         11    1    3    3    0    0 -0.50975200330E+02  0.14780063336E+03  0.45518391089E+02  0.16283556798E+03  0.00000000000E+00 0.  1.
         21    1    1    2  503  502  0.67961843204E+01 -0.85781085330E+02 -0.69018965857E+02  0.11030956608E+03  0.00000000000E+00 0.  1.
          1    1    1    2  501    0  0.18320441290E+03  0.35414426961E+02  0.51422610487E+02  0.19355186233E+03  0.00000000000E+00 0. -1.
<scales pt_clust_5="13000.00000" pt_clust_6="13000.00000" pt_clust_7="13000.00000" pt_clust_8="13000.00000" pt_clust_9="86.04989" pt_clust_10="185.50638"></scales>
<clustering>
<clus scale="   85.221">  5  6 -1 -1</clus>
<clus scale="   86.050">  2  9  1 -1</clus>
<clus scale="  110.659">  7  8 -1 -1</clus>
<clus scale="  185.506">  2 10  1 -1</clus>
<clus scale="  335.615">  2  5  1 -1</clus>
<clus scale="   86.050">  2  5  1 -1</clus>
</clustering>
</event>
<event>
10    4  0.3403565E-005  0.1568587E+03  0.7546771E-02  0.1213868E+00
          2   -1    0    0  503    0 -0.00000000000E+00  0.00000000000E+00  0.11331060566E+03  0.11331060566E+03  0.00000000000E+00 0. -1.
         21   -1    0    0  501  502  0.00000000000E+00 -0.00000000000E+00 -0.80038316485E+03  0.80038316485E+03  0.00000000000E+00 0.  1.
         23    2    1    2    0    0  0.23424479075E+02  0.74937653257E+01 -0.87039763485E+02  0.12791769716E+03  0.90455260099E+02 0.  0.
         24    2    1    2    0    0  0.10930278286E+03  0.51308731384E+02 -0.44838731239E+03  0.47142908494E+03  0.81329674500E+02 0.  0.
        -13    1    4    4    0    0  0.11088979586E+03  0.24811537440E+02 -0.30233009271E+03  0.32297932468E+03  0.00000000000E+00 0.  1.
         14    1    4    4    0    0 -0.15870130074E+01  0.26497193944E+02 -0.14605721969E+03  0.14844976026E+03  0.00000000000E+00 0. -1.
        -13    1    3    3    0    0  0.32831210262E+02  0.44358998609E+02 -0.44912612505E+02  0.71153017413E+02  0.00000000000E+00 0. -1.
         13    1    3    3    0    0 -0.94067311876E+01 -0.36865233284E+02 -0.42127150980E+02  0.56764679744E+02  0.00000000000E+00 0.  1.
         21    1    1    2  503  502  0.67305838853E+02 -0.17744508490E+01 -0.38607411292E+02  0.77612865082E+02  0.00000000000E+00 0. -1.
          1    1    1    2  501    0 -0.20003310078E+03 -0.57028045861E+02 -0.11303807201E+03  0.23673412333E+03  0.00000000000E+00 0. -1.
<scales pt_clust_5="13000.00000" pt_clust_6="13000.00000" pt_clust_7="13000.00000" pt_clust_8="13000.00000" pt_clust_9="67.32923" pt_clust_10="134.12733"></scales>
<clustering>
<clus scale="   67.329">  1  9  2 -1</clus>
<clus scale="   81.330">  5  6 -1 -1</clus>
<clus scale="   90.455">  7  8 -1 -1</clus>
<clus scale="   98.405">  1  7  2 -1</clus>
<clus scale="  134.127">  2 10  1 -1</clus>
<clus scale="  134.127">  2  5  1 -1</clus>
</clustering>
</event>
<event>
10    4  0.3403565E-005  0.1375095E+03  0.7546771E-02  0.1247393E+00
          2   -1    0    0  503    0 -0.00000000000E+00  0.00000000000E+00  0.53833651996E+03  0.53833651996E+03  0.00000000000E+00 0. -1.
         21   -1    0    0  501  502  0.00000000000E+00 -0.00000000000E+00 -0.83949153906E+02  0.83949153906E+02  0.00000000000E+00 0. -1.
         24    2    1    2    0    0  0.35843121243E+02  0.31005379008E+02  0.14297670511E+03  0.16021634322E+03  0.54597395210E+02 0.  0.
         23    2    1    2    0    0 -0.80086238148E+02 -0.97044915481E+02  0.16063441649E+03  0.22389657375E+03  0.92166907372E+02 0.  0.
        -11    1    3    3    0    0  0.45174184973E+02  0.32744770664E+02  0.86399349995E+02  0.10284830904E+03  0.00000000000E+00 0.  1.
         12    1    3    3    0    0 -0.93310637296E+01 -0.17393916566E+01  0.56577355114E+02  0.57368034178E+02  0.00000000000E+00 0. -1.
        -13    1    4    4    0    0 -0.83574027387E+02 -0.66718550862E+02  0.16110459833E+03  0.19336668453E+03  0.00000000000E+00 0.  1.
         13    1    4    4    0    0  0.34877892389E+01 -0.30326364620E+02 -0.47018184098E+00  0.30529889220E+02  0.00000000000E+00 0. -1.
         21    1    1    2  503  502  0.18605780932E+02 -0.11617592481E+02 -0.31503887949E+02  0.38387999362E+02  0.00000000000E+00 0. -1.
          1    1    1    2  501    0  0.25637335972E+02  0.77657128955E+02  0.18228013240E+03  0.19978475753E+03  0.00000000000E+00 0. -1.
<scales pt_clust_5="13000.00000" pt_clust_6="13000.00000" pt_clust_7="13000.00000" pt_clust_8="13000.00000" pt_clust_9="21.93498" pt_clust_10="102.04962"></scales>
<clustering>
<clus scale="   21.935">  2  9  1 -1</clus>
<clus scale="   54.597">  5  6 -1 -1</clus>
<clus scale="   73.142">  1  5  2 -1</clus>
<clus scale="   92.167">  7  8 -1 -1</clus>
<clus scale="  102.050">  2 10  1 -1</clus>
<clus scale="   21.935">  2  5  1 -1</clus>
</clustering>
</event>
<event>
10    4  0.3403565E-005  0.1273984E+03  0.7546771E-02  0.1236610E+00
         21   -1    0    0  501  502  0.00000000000E+00  0.00000000000E+00  0.60592913594E+03  0.60592913594E+03  0.00000000000E+00 0. -1.
         -3   -1    0    0    0  501 -0.00000000000E+00 -0.00000000000E+00 -0.11565192095E+03  0.11565192095E+03  0.00000000000E+00 0.  1.
         23    2    1    2    0    0 -0.15875718411E+02 -0.56931598040E+02  0.59197355255E+01  0.11309746428E+03  0.96243170502E+02 0.  0.
         24    2    1    2    0    0 -0.37493692698E+02 -0.47837590743E+02  0.30464423403E+03  0.32503677476E+03  0.95637772545E+02 0.  0.
        -13    1    4    4    0    0 -0.51348690547E+02  0.15014447630E+01  0.83536611585E+02  0.98067873599E+02  0.00000000000E+00 0.  1.
         14    1    4    4    0    0  0.13854997849E+02 -0.49339035506E+02  0.22110762244E+03  0.22696890116E+03  0.00000000000E+00 0. -1.
        -11    1    3    3    0    0  0.34690188066E+02 -0.63504308054E+00  0.13098073768E+02  0.37086007660E+02  0.00000000000E+00 0.  1.
         11    1    3    3    0    0 -0.50565906477E+02 -0.56296554960E+02 -0.71783382421E+01  0.76011456624E+02  0.00000000000E+00 0. -1.
         21    1    1    2  503  502  0.25184513873E+02 -0.28502726104E+02  0.13472406940E+03  0.13999014254E+03  0.00000000000E+00 0. -1.
         -4    1    1    2    0  503  0.28184897237E+02  0.13327191489E+03  0.44989176046E+02  0.14345667531E+03  0.00000000000E+00 0.  1.
<scales pt_clust_5="13000.00000" pt_clust_6="13000.00000" pt_clust_7="13000.00000" pt_clust_8="13000.00000" pt_clust_9="38.03505" pt_clust_10="84.16516"></scales>
<clustering>
<clus scale="   38.035">  1  9  2 -1</clus>
<clus scale="   95.638">  5  6 -1 -1</clus>
<clus scale="   96.243">  7  8 -1 -1</clus>
<clus scale="  114.411">  2  7  1 -1</clus>
<clus scale="   84.165">  1 10  2 -1</clus>
<clus scale="   38.035">  1  5  2 -1</clus>
</clustering>
</event>
<event>
10    4  0.3403565E-005  0.1581584E+03  0.7546771E-02  0.1191523E+00
         21   -1    0    0  501  502  0.00000000000E+00  0.00000000000E+00  0.65466938757E+03  0.65466938757E+03  0.00000000000E+00 0. -1.
         -3   -1    0    0    0  501 -0.00000000000E+00 -0.00000000000E+00 -0.13594515608E+03  0.13594515608E+03  0.00000000000E+00 0.  1.
         24    2    1    2    0    0 -0.13653522013E+03  0.70477044267E+01 -0.85000820302E+01  0.16011180530E+03  0.82897541146E+02 0.  0.
         23    2    1    2    0    0  0.10098461789E+03  0.12455857723E+03  0.39445269381E+03  0.43470859562E+03  0.87555144020E+02 0.  0.
        -11    1    3    3    0    0 -0.14294904082E+03 -0.40660901653E+01 -0.18015184267E+02  0.14413711605E+03  0.00000000000E+00 0.  1.
         12    1    3    3    0    0  0.64138206847E+01  0.11113794592E+02  0.95151022369E+01  0.15974689249E+02  0.00000000000E+00 0. -1.
        -13    1    4    4    0    0 -0.11762925499E+02  0.38719048578E+02  0.10197578776E+03  0.10971140519E+03  0.00000000000E+00 0.  1.
         13    1    4    4    0    0  0.11274754338E+03  0.85839528653E+02  0.29247690604E+03  0.32499719043E+03  0.00000000000E+00 0. -1.
         21    1    1    2  503  502  0.25399873460E+02 -0.21362650587E+02  0.30807052348E+02  0.45283450468E+02  0.00000000000E+00 0.  1.
         -4    1    1    2    0  503  0.10150728788E+02 -0.11024363107E+03  0.10196456736E+03  0.15051069226E+03  0.00000000000E+00 0.  1.
<scales pt_clust_5="13000.00000" pt_clust_6="13000.00000" pt_clust_7="13000.00000" pt_clust_8="13000.00000" pt_clust_9="25.22771" pt_clust_10="143.89942"></scales>
<clustering>
<clus scale="   25.228">  9 10 -1 -1</clus>
<clus scale="   82.898">  5  6 -1 -1</clus>
<clus scale="   87.555">  7  8 -1 -1</clus>
<clus scale="  143.899">  1  9  2 -1</clus>
<clus scale="  155.628">  2  5  1 -1</clus>
<clus scale="  143.899">  1  5  2 -1</clus>
</clustering>
</event>
<event>
10    4  0.3403565E-005  0.2652369E+03  0.7546771E-02  0.1131629E+00
         21   -1    0    0  503  502  0.00000000000E+00  0.00000000000E+00  0.30509506666E+03  0.30509506666E+03  0.00000000000E+00 0.  1.
          2   -1    0    0  502    0 -0.00000000000E+00 -0.00000000000E+00 -0.63820084131E+03  0.63820084131E+03  0.00000000000E+00 0. -1.
         24    2    1    2    0    0 -0.35170070107E+02  0.94414121707E+02 -0.32878419704E+02  0.13872650515E+03  0.89515878698E+02 0.  0.
         23    2    1    2    0    0 -0.64200327977E+02 -0.25174037250E+03  0.13029352346E+03  0.30491745037E+03  0.92213621690E+02 0.  0.
        -11    1    3    3    0    0 -0.38049928904E+01  0.83594930658E+02 -0.53817233591E+02  0.99493140638E+02  0.00000000000E+00 0.  1.
         12    1    3    3    0    0 -0.31365077216E+02  0.10819191049E+02  0.20938813887E+02  0.39233364510E+02  0.00000000000E+00 0. -1.
        -11    1    4    4    0    0 -0.41587318160E+02 -0.65083339836E+02  0.77976310940E+02  0.10975268208E+03  0.00000000000E+00 0. -1.
         11    1    4    4    0    0 -0.22613009817E+02 -0.18665703266E+03  0.52317212523E+02  0.19516476829E+03  0.00000000000E+00 0.  1.
         21    1    1    2  503  501  0.20650294684E+02 -0.92301732499E+01  0.80114201799E+01  0.23996116812E+02  0.00000000000E+00 0.  1.
          1    1    1    2  501    0  0.78720103400E+02  0.16655642404E+03 -0.43853229859E+03  0.47565583564E+03  0.00000000000E+00 0. -1.
<scales pt_clust_5="13000.00000" pt_clust_6="13000.00000" pt_clust_7="13000.00000" pt_clust_8="13000.00000" pt_clust_9="22.61926" pt_clust_10="248.69121"></scales>
<clustering>
<clus scale="   22.619">  1  9  2 -1</clus>
<clus scale="   89.516">  5  6 -1 -1</clus>
<clus scale="   92.214">  7  8 -1 -1</clus>
<clus scale="  132.651">  2  5  1 -1</clus>
<clus scale="  248.691">  1 10  2 -1</clus>
<clus scale="   22.619">  1  5  2 -1</clus>
</clustering>
</event>
<event>
10    4  0.3403565E-005  0.3070176E+03  0.7546771E-02  0.1081784E+00
         -3   -1    0    0    0  501 -0.00000000000E+00  0.00000000000E+00  0.98363363535E+03  0.98363363535E+03  0.00000000000E+00 0.  1.
         21   -1    0    0  503  502  0.00000000000E+00 -0.00000000000E+00 -0.15743337812E+03  0.15743337812E+03  0.00000000000E+00 0.  1.
         24    2    1    2    0    0 -0.45944820295E+02  0.11624385558E+03  0.23975371941E+03  0.28218162343E+03  0.80753093782E+02 0.  0.
         23    2    1    2    0    0 -0.65927585830E+02  0.10722115981E+03  0.45716125439E+03  0.48275217307E+03  0.90611392269E+02 0.  0.
        -11    1    3    3    0    0 -0.49590531989E+02  0.25801828473E+02  0.67927144493E+02  0.87971882863E+02  0.00000000000E+00 0.  1.
         12    1    3    3    0    0  0.36457116945E+01  0.90442027109E+02  0.17182657492E+03  0.19420974057E+03  0.00000000000E+00 0. -1.
        -13    1    4    4    0    0 -0.86954732413E+02  0.68231572569E+02  0.31330272318E+03  0.33222773716E+03  0.00000000000E+00 0.  1.
         13    1    4    4    0    0  0.21027146583E+02  0.38989587240E+02  0.14385853121E+03  0.15052443592E+03  0.00000000000E+00 0. -1.
         21    1    1    2  503  501 -0.78070255209E+02 -0.89329536930E+02  0.63063444750E+02  0.13435672287E+03  0.00000000000E+00 0.  1.
         -4    1    1    2    0  502  0.18994266133E+03 -0.13413547846E+03  0.66221838676E+02  0.24177649409E+03  0.00000000000E+00 0.  1.
<scales pt_clust_5="13000.00000" pt_clust_6="13000.00000" pt_clust_7="13000.00000" pt_clust_8="13000.00000" pt_clust_9="118.63697" pt_clust_10="239.32957"></scales>
<clustering>
<clus scale="   80.753">  5  6 -1 -1</clus>
<clus scale="   90.611">  7  8 -1 -1</clus>
<clus scale="  118.637">  2  9  1 -1</clus>
<clus scale="  122.439">  5  7 -1 -1</clus>
<clus scale="  239.330">  2 10  1 -1</clus>
<clus scale="  118.637">  2  5  1 -1</clus>
</clustering>
</event>
<event>
10    4  0.3628292E-005  0.1398356E+03  0.7546771E-02  0.1229022E+00
         21   -1    0    0  501  502  0.00000000000E+00  0.00000000000E+00  0.45012017902E+03  0.45012017902E+03  0.00000000000E+00 0. -1.
          2   -1    0    0  503    0 -0.00000000000E+00 -0.00000000000E+00 -0.70460164195E+03  0.70460164195E+03  0.00000000000E+00 0. -1.
         24    2    1    2    0    0  0.49290906484E+02  0.30840696572E+02 -0.39879909573E+03  0.41085336466E+03  0.79868807841E+02 0.  0.
         23    2    1    2    0    0 -0.29046048372E+02  0.90311330389E+02 -0.10320649700E+03  0.16344866228E+03  0.84048050883E+02 0.  0.
        -11    1    3    3    0    0 -0.15362623451E+02 -0.12952032913E+02 -0.64631792252E+02  0.67683335657E+02  0.00000000000E+00 0.  1.
         12    1    3    3    0    0  0.64653529936E+02  0.43792729485E+02 -0.33416730348E+03  0.34317002900E+03  0.00000000000E+00 0. -1.
        -13    1    4    4    0    0 -0.48944470184E+02  0.59345559637E+02 -0.10047258257E+03  0.12653930795E+03  0.00000000000E+00 0. -1.
         13    1    4    4    0    0  0.19898421812E+02  0.30965770751E+02 -0.27339144318E+01  0.36909354329E+02  0.00000000000E+00 0.  1.
         21    1    1    2  503  502  0.45692466780E+02  0.98967692158E+01  0.37993372538E+03  0.38279940340E+03  0.00000000000E+00 0. -1.
          1    1    1    2  501    0 -0.65937324893E+02 -0.13104879618E+03 -0.13240959558E+03  0.19762039064E+03  0.00000000000E+00 0. -1.
<scales pt_clust_5="13000.00000" pt_clust_6="13000.00000" pt_clust_7="13000.00000" pt_clust_8="13000.00000" pt_clust_9="46.75198" pt_clust_10="111.75842"></scales>
<clustering>
<clus scale="   46.752">  1  9  2 -1</clus>
<clus scale="   79.869">  5  6 -1 -1</clus>
<clus scale="   84.048">  7  8 -1 -1</clus>
<clus scale="  101.119">  2  5  1 -1</clus>
<clus scale="  111.758">  1 10  2 -1</clus>
<clus scale="   46.752">  1  5  2 -1</clus>
</clustering>
</event>
<event>
10    4  0.3403565E-005  0.2857889E+03  0.7546771E-02  0.1104633E+00
          2   -1    0    0  502    0 -0.00000000000E+00  0.00000000000E+00  0.22182083876E+04  0.22182083876E+04  0.00000000000E+00 0. -1.
         21   -1    0    0  503  502  0.00000000000E+00 -0.00000000000E+00 -0.16379316970E+03  0.16379316970E+03  0.00000000000E+00 0. -1.
         24    2    1    2    0    0 -0.80519630752E+02  0.17269882838E+03  0.13196033289E+04  0.13358333700E+04  0.82398728508E+02 0.  0.
         23    2    1    2    0    0  0.25936402007E+03  0.14542701293E+03  0.33298918235E+03  0.45635028619E+03  0.94631269396E+02 0.  0.
        -11    1    3    3    0    0 -0.26011419135E+01  0.85485180466E+02  0.41659968670E+03  0.42528788012E+03  0.00000000000E+00 0.  1.
         12    1    3    3    0    0 -0.77918488838E+02  0.87213647911E+02  0.90300364223E+03  0.91054548990E+03  0.00000000000E+00 0. -1.
        -13    1    4    4    0    0  0.21503186755E+03  0.15044581402E+03  0.30997406682E+03  0.40614845700E+03  0.00000000000E+00 0. -1.
         13    1    4    4    0    0  0.44332152524E+02 -0.50188010921E+01  0.23015115526E+02  0.50201829195E+02  0.00000000000E+00 0.  1.
         21    1    1    2  503  501 -0.91752969762E+02 -0.22348092879E+02  0.15763692907E+02  0.95742042643E+02  0.00000000000E+00 0. -1.
          1    1    1    2  501    0 -0.87091419562E+02 -0.29577774843E+03  0.38605901369E+03  0.49407585842E+03  0.00000000000E+00 0. -1.
<scales pt_clust_5="13000.00000" pt_clust_6="13000.00000" pt_clust_7="13000.00000" pt_clust_8="13000.00000" pt_clust_9="94.43540" pt_clust_10="269.66704"></scales>
<clustering>
<clus scale="   82.399">  5  6 -1 -1</clus>
<clus scale="   94.435">  2  9  1 -1</clus>
<clus scale="   94.631">  7  8 -1 -1</clus>
<clus scale="  208.803">  1  5  2 -1</clus>
<clus scale="  269.667">  2 10  1 -1</clus>
<clus scale="   94.435">  2  5  1 -1</clus>
</clustering>
</event>
<event>
10    4  0.3403565E-005  0.1310169E+03  0.7546771E-02  0.1226940E+00
         21   -1    0    0  501  502  0.00000000000E+00  0.00000000000E+00  0.33481832462E+03  0.33481832462E+03  0.00000000000E+00 0. -1.
          2   -1    0    0  503    0 -0.00000000000E+00 -0.00000000000E+00 -0.41895806423E+03  0.41895806423E+03  0.00000000000E+00 0. -1.
         24    2    1    2    0    0  0.45562987075E+02  0.98315470729E+02 -0.26451961872E+03  0.30129302811E+03  0.95209991717E+02 0.  0.
         23    2    1    2    0    0 -0.84972552106E+02  0.56029482599E+01 -0.28527984454E+02  0.12822635756E+03  0.91522812652E+02 0.  0.
        -13    1    3    3    0    0  0.63282744669E+02  0.27773370255E+02 -0.15636708797E+03  0.17095827581E+03  0.00000000000E+00 0.  1.
         14    1    3    3    0    0 -0.17719757594E+02  0.70542100474E+02 -0.10815253075E+03  0.13033475230E+03  0.00000000000E+00 0. -1.
        -11    1    4    4    0    0 -0.88655676454E+02  0.28540402048E+02 -0.22662036708E+01  0.93163937206E+02  0.00000000000E+00 0. -1.
         11    1    4    4    0    0  0.36831243480E+01 -0.22937453788E+02 -0.26261780783E+02  0.35062420355E+02  0.00000000000E+00 0.  1.
         21    1    1    2  503  502  0.28515492982E+01 -0.58487862046E+02  0.24749815581E+03  0.25433108042E+03  0.00000000000E+00 0. -1.
          1    1    1    2  501    0  0.36558015733E+02 -0.45430556943E+02 -0.38590292248E+02  0.69925922763E+02  0.00000000000E+00 0. -1.
<scales pt_clust_5="13000.00000" pt_clust_6="13000.00000" pt_clust_7="13000.00000" pt_clust_8="13000.00000" pt_clust_9="99.36169" pt_clust_10="58.31318"></scales>
<clustering>
<clus scale="   58.313">  1 10  2 -1</clus>
<clus scale="   91.523">  7  8 -1 -1</clus>
<clus scale="   95.210">  5  6 -1 -1</clus>
<clus scale="   99.362">  1  9  2 -1</clus>
<clus scale="  128.362">  1  7  2 -1</clus>
<clus scale="   58.313">  1  5  2 -1</clus>
</clustering>
</event>
<event>
10    4  0.3403565E-005  0.1083238E+03  0.7546771E-02  0.1270842E+00
          2   -1    0    0  503    0 -0.00000000000E+00  0.00000000000E+00  0.76742227995E+03  0.76742227995E+03  0.00000000000E+00 0. -1.
         21   -1    0    0  501  502  0.00000000000E+00 -0.00000000000E+00 -0.73556697618E+02  0.73556697618E+02  0.00000000000E+00 0.  1.
         24    2    1    2    0    0 -0.25037096614E+02  0.50440334371E+02  0.58340625005E+03  0.59158330800E+03  0.80230132554E+02 0.  0.
         23    2    1    2    0    0  0.30171763359E+02  0.24751965422E+02  0.44196234355E+02  0.11293428190E+03  0.96321595715E+02 0.  0.
        -13    1    3    3    0    0  0.16427594161E+01  0.42026232911E+02  0.11684248322E+03  0.12418159605E+03  0.00000000000E+00 0.  1.
         14    1    3    3    0    0 -0.26679856031E+02  0.84141014593E+01  0.46656376682E+03  0.46740171195E+03  0.00000000000E+00 0. -1.
        -11    1    4    4    0    0 -0.17455871512E+02  0.41523453920E+02 -0.11630428291E+01  0.45058377072E+02  0.00000000000E+00 0.  1.
         11    1    4    4    0    0  0.47627634871E+02 -0.16771488499E+02  0.45359277184E+02  0.67875904830E+02  0.00000000000E+00 0. -1.
         21    1    1    2  503  502 -0.24555642985E+02 -0.19697302251E+02 -0.16027462559E+02  0.35324819525E+02  0.00000000000E+00 0. -1.
          1    1    1    2  501    0  0.19420976240E+02 -0.55494997541E+02  0.82290560492E+02  0.10113656815E+03  0.00000000000E+00 0. -1.
<scales pt_clust_5="13000.00000" pt_clust_6="13000.00000" pt_clust_7="13000.00000" pt_clust_8="13000.00000" pt_clust_9="31.47957" pt_clust_10="61.13749"></scales>
<clustering>
<clus scale="   31.480">  2  9  1 -1</clus>
<clus scale="   61.137">  2 10  1 -1</clus>
<clus scale="   80.230">  5  6 -1 -1</clus>
<clus scale="   94.303">  1  5  2 -1</clus>
<clus scale="   96.322">  7  8 -1 -1</clus>
<clus scale="   31.480">  2  5  1 -1</clus>
</clustering>
</event>
<event>
10    4  0.3403565E-005  0.1593850E+03  0.7546771E-02  0.1206981E+00
         -3   -1    0    0    0  501 -0.00000000000E+00  0.00000000000E+00  0.20601800291E+03  0.20601800291E+03  0.00000000000E+00 0.  1.
         21   -1    0    0  501  502  0.00000000000E+00 -0.00000000000E+00 -0.42657596949E+03  0.42657596949E+03  0.00000000000E+00 0.  1.
         23    2    1    2    0    0 -0.12228113796E+02  0.50206114130E+02 -0.16882743822E+03  0.19911119871E+03  0.92045558792E+02 0.  0.
         24    2    1    2    0    0  0.16356249673E+03 -0.37528152218E+02 -0.17812820084E+02  0.18686628777E+03  0.80253725149E+02 0.  0.
        -11    1    4    4    0    0  0.15748287792E+03 -0.15293710640E+02 -0.29612580136E+02  0.16097098908E+03  0.00000000000E+00 0.  1.
         12    1    4    4    0    0  0.60796188159E+01 -0.22234441578E+02  0.11799760052E+02  0.25895298696E+02  0.00000000000E+00 0. -1.
        -11    1    3    3    0    0 -0.34852644911E+02  0.32385235057E+01 -0.12855438925E+03  0.13323447710E+03  0.00000000000E+00 0.  1.
         11    1    3    3    0    0  0.22624531115E+02  0.46967590625E+02 -0.40273048968E+02  0.65876721613E+02  0.00000000000E+00 0. -1.
         21    1    1    2  503  502 -0.40207031795E+02 -0.82043412823E+01 -0.10628230518E+03  0.11392912277E+03  0.00000000000E+00 0.  1.
         -4    1    1    2    0  503 -0.11112735114E+03 -0.44736206295E+01  0.72364596905E+02  0.13268736315E+03  0.00000000000E+00 0.  1.
<scales pt_clust_5="13000.00000" pt_clust_6="13000.00000" pt_clust_7="13000.00000" pt_clust_8="13000.00000" pt_clust_9="41.03555" pt_clust_10="137.70594"></scales>
<clustering>
<clus scale="   41.036">  2  9  1 -1</clus>
<clus scale="   80.254">  5  6 -1 -1</clus>
<clus scale="   92.046">  7  8 -1 -1</clus>
<clus scale="  108.648">  1  7  2 -1</clus>
<clus scale="  137.706">  2 10  1 -1</clus>
<clus scale="   41.036">  2  5  1 -1</clus>
</clustering>
</event>
<event>
10    4  0.6440173E-005  0.1219754E+03  0.7546771E-02  0.1272044E+00
         -1   -1    0    0    0  501 -0.00000000000E+00  0.00000000000E+00  0.39807843392E+03  0.39807843392E+03  0.00000000000E+00 0.  1.
         21   -1    0    0  503  502  0.00000000000E+00 -0.00000000000E+00 -0.50125742802E+03  0.50125742802E+03  0.00000000000E+00 0.  1.
         23    2    1    2    0    0 -0.72999180674E+01  0.57586819870E+01  0.20733520052E+03  0.21724783162E+03  0.64205013414E+02 0.  0.
         24    2    1    2    0    0 -0.78862265669E+02 -0.36200460027E+02  0.99638609044E+02  0.15470707991E+03  0.80477934304E+02 0.  0.
        -11    1    4    4    0    0 -0.74436276131E+02 -0.20816168333E+02  0.11086939856E+03  0.13515212024E+03  0.00000000000E+00 0.  1.
         12    1    4    4    0    0 -0.44259895377E+01 -0.15384291694E+02 -0.11230789521E+02  0.19554959667E+02  0.00000000000E+00 0. -1.
        -11    1    3    3    0    0  0.16358227896E+02  0.27924818618E+02  0.10934686756E+03  0.11403562847E+03  0.00000000000E+00 0. -1.
         11    1    3    3    0    0 -0.23658145964E+02 -0.22166136631E+02  0.97988332964E+02  0.10321220316E+03  0.00000000000E+00 0.  1.
         21    1    1    2  503  501  0.21288951226E+02 -0.49753833633E+02 -0.42026658602E+03  0.42373655345E+03  0.00000000000E+00 0.  1.
         -2    1    1    2    0  502  0.64873232510E+02  0.80195611673E+02  0.10113782350E+02  0.10364439696E+03  0.00000000000E+00 0.  1.
<scales pt_clust_5="13000.00000" pt_clust_6="13000.00000" pt_clust_7="13000.00000" pt_clust_8="13000.00000" pt_clust_9="54.11713" pt_clust_10="91.65861"></scales>
<clustering>
<clus scale="   54.117">  2  9  1 -1</clus>
<clus scale="   64.205">  7  8 -1 -1</clus>
<clus scale="   64.536">  1  7  2 -1</clus>
<clus scale="   80.478">  5  6 -1 -1</clus>
<clus scale="   91.659">  2 10  1 -1</clus>
<clus scale="   54.117">  2  5  1 -1</clus>
</clustering>
</event>
<event>
10    4  0.3403565E-005  0.1856660E+03  0.7546771E-02  0.1163466E+00
         21   -1    0    0  503  502  0.00000000000E+00  0.00000000000E+00  0.28406768594E+03  0.28406768594E+03  0.00000000000E+00 0. -1.
          2   -1    0    0  502    0 -0.00000000000E+00 -0.00000000000E+00 -0.11631912829E+04  0.11631912829E+04  0.00000000000E+00 0. -1.
         23    2    1    2    0    0 -0.13620855907E+03 -0.65400903527E+02 -0.62854099202E+03  0.65278240767E+03  0.90725097792E+02 0.  0.
         24    2    1    2    0    0  0.97964857138E+02  0.18719006701E+03 -0.46844522479E+03  0.52028204811E+03  0.81334165830E+02 0.  0.
        -13    1    4    4    0    0  0.11163185023E+03  0.15391363116E+03 -0.40302453817E+03  0.44562299560E+03  0.00000000000E+00 0.  1.
         14    1    4    4    0    0 -0.13666993089E+02  0.33276435849E+02 -0.65420686624E+02  0.74659052507E+02  0.00000000000E+00 0. -1.
        -13    1    3    3    0    0 -0.61511553581E+02  0.14039098427E+02 -0.16662759406E+03  0.17817273251E+03  0.00000000000E+00 0.  1.
         13    1    3    3    0    0 -0.74697005489E+02 -0.79440001954E+02 -0.46191339796E+03  0.47460967516E+03  0.00000000000E+00 0. -1.
         21    1    1    2  503  501  0.37017266899E+02  0.28497548650E+01  0.25726782913E+02  0.45169309387E+02  0.00000000000E+00 0.  1.
          1    1    1    2  501    0  0.12264350330E+01 -0.12463891835E+03  0.19213583691E+03  0.22902520371E+03  0.00000000000E+00 0. -1.
<scales pt_clust_5="13000.00000" pt_clust_6="13000.00000" pt_clust_7="13000.00000" pt_clust_8="13000.00000" pt_clust_9="37.12680" pt_clust_10="126.49289"></scales>
<clustering>
<clus scale="   37.127">  1  9  2 -1</clus>
<clus scale="   81.334">  5  6 -1 -1</clus>
<clus scale="   90.725">  7  8 -1 -1</clus>
<clus scale="  126.493">  1 10  2 -1</clus>
<clus scale="  181.262">  1  5  2 -1</clus>
<clus scale="   37.127">  1  5  2 -1</clus>
</clustering>
</event>
<event>
10    4  0.3403565E-005  0.1441139E+03  0.7546771E-02  0.1222499E+00
         21   -1    0    0  501  502  0.00000000000E+00  0.00000000000E+00  0.70799161656E+03  0.70799161656E+03  0.00000000000E+00 0. -1.
          2   -1    0    0  503    0 -0.00000000000E+00 -0.00000000000E+00 -0.16220192835E+03  0.16220192835E+03  0.00000000000E+00 0. -1.
         23    2    1    2    0    0 -0.11756939421E+02 -0.48148863966E+02  0.76792987632E+02  0.13174483986E+03  0.94884145959E+02 0.  0.
         24    2    1    2    0    0 -0.30168619316E+02 -0.82747344316E+02 -0.35090316553E+02  0.12616699553E+03  0.83243689628E+02 0.  0.
        -11    1    4    4    0    0  0.12113144207E+02 -0.77361674398E+02 -0.18742279045E+02  0.80516022952E+02  0.00000000000E+00 0.  1.
         12    1    4    4    0    0 -0.42281763523E+02 -0.53856699186E+01 -0.16348037508E+02  0.45650972580E+02  0.00000000000E+00 0. -1.
        -11    1    3    3    0    0  0.18041528428E+02 -0.64569645855E+02  0.70232932073E+02  0.97094802443E+02  0.00000000000E+00 0. -1.
         11    1    3    3    0    0 -0.29798467849E+02  0.16420781890E+02  0.65600555584E+01  0.34650037416E+02  0.00000000000E+00 0.  1.
         21    1    1    2  503  502  0.11237472876E+03  0.84458900060E+02  0.50871217776E+03  0.52777785598E+03  0.00000000000E+00 0. -1.
          1    1    1    2  501    0 -0.70449170019E+02  0.46437308222E+02 -0.46251606404E+01  0.84503853535E+02  0.00000000000E+00 0. -1.
<scales pt_clust_5="13000.00000" pt_clust_6="13000.00000" pt_clust_7="13000.00000" pt_clust_8="13000.00000" pt_clust_9="117.64053" pt_clust_10="84.37723"></scales>
<clustering>
<clus scale="   83.244">  5  6 -1 -1</clus>
<clus scale="   84.377">  1 10  2 -1</clus>
<clus scale="   94.884">  7  8 -1 -1</clus>
<clus scale="  105.800">  2  7  1 -1</clus>
<clus scale="  117.641">  1  9  2 -1</clus>
<clus scale="   84.377">  1  5  2 -1</clus>
</clustering>
</event>
<event>
10    4  0.3403565E-005  0.2203983E+03  0.7546771E-02  0.1167482E+00
          2   -1    0    0  502    0 -0.00000000000E+00  0.00000000000E+00  0.91185762264E+03  0.91185762264E+03  0.00000000000E+00 0. -1.
         21   -1    0    0  503  502  0.00000000000E+00 -0.00000000000E+00 -0.32007186872E+03  0.32007186872E+03  0.00000000000E+00 0.  1.
         24    2    1    2    0    0  0.57202919054E+02 -0.23879893288E+01  0.47049725166E+03  0.48075457833E+03  0.80494871404E+02 0.  0.
         23    2    1    2    0    0  0.95474925351E+02  0.58733002976E+02 -0.10437810478E+03  0.17981513891E+03  0.94200150809E+02 0.  0.
        -11    1    3    3    0    0  0.74063791033E+02 -0.28656678705E+01  0.43709733771E+03  0.44333704991E+03  0.00000000000E+00 0.  1.
         12    1    3    3    0    0 -0.16860871979E+02  0.47767854174E+00  0.33399913958E+02  0.37417528421E+02  0.00000000000E+00 0. -1.
        -11    1    4    4    0    0  0.36675408493E+02 -0.13309108321E+02  0.13140371068E+01  0.39037733617E+02  0.00000000000E+00 0. -1.
         11    1    4    4    0    0  0.58799516858E+02  0.72042111297E+02 -0.10569214189E+03  0.14077740529E+03  0.00000000000E+00 0.  1.
         21    1    1    2  503  501 -0.24916562258E+03  0.56130397446E+02 -0.48248915702E+02  0.25992707989E+03  0.00000000000E+00 0.  1.
          1    1    1    2  501    0  0.96487778177E+02 -0.11247541109E+03  0.27391552275E+03  0.31143269424E+03  0.00000000000E+00 0. -1.
<scales pt_clust_5="13000.00000" pt_clust_6="13000.00000" pt_clust_7="13000.00000" pt_clust_8="13000.00000" pt_clust_9="220.39826" pt_clust_10="13000.00000"></scales>
<clustering>
<clus scale="   80.495">  5  6 -1 -1</clus>
<clus scale="   94.200">  7  8 -1 -1</clus>
<clus scale="   98.779">  1  5  2 -1</clus>
<clus scale="  149.611">  1  7  2 -1</clus>
<clus scale="  220.398">  2  9  1 -1</clus>
<clus scale="  220.398">  2  5  1 -1</clus>
</clustering>
</event>
<event>
10    4  0.3403565E-005  0.1504170E+03  0.7546771E-02  0.1222810E+00
         -1   -1    0    0    0  501 -0.00000000000E+00  0.00000000000E+00  0.26995211762E+03  0.26995211762E+03  0.00000000000E+00 0.  1.
         21   -1    0    0  501  502  0.00000000000E+00 -0.00000000000E+00 -0.42397052316E+03  0.42397052316E+03  0.00000000000E+00 0.  1.
         24    2    1    2    0    0  0.15754585190E+01  0.51564184124E+02  0.45848312597E+02  0.10399744848E+03  0.77794950786E+02 0.  0.
         23    2    1    2    0    0 -0.56675010295E+02  0.11995333366E+03 -0.16982862207E+03  0.23380777629E+03  0.90683274793E+02 0.  0.
        -13    1    3    3    0    0 -0.10846110288E+02  0.68223839579E+02  0.46386724536E+02  0.83209726646E+02  0.00000000000E+00 0.  1.
         14    1    3    3    0    0  0.12421568807E+02 -0.16659655455E+02 -0.53841193964E+00  0.20787721831E+02  0.00000000000E+00 0. -1.
        -13    1    4    4    0    0 -0.51954904693E+02  0.85390797214E+02 -0.17191625551E+03  0.19886201065E+03  0.00000000000E+00 0.  1.
         13    1    4    4    0    0 -0.47201056020E+01  0.34562536451E+02  0.20876334337E+01  0.34945765640E+02  0.00000000000E+00 0. -1.
         21    1    1    2  503  502  0.26523011117E+02 -0.16880062085E+02 -0.15318711538E+03  0.15637998252E+03  0.00000000000E+00 0.  1.
         -2    1    1    2    0  503  0.28576540659E+02 -0.15463745570E+03  0.12314901931E+03  0.19973743350E+03  0.00000000000E+00 0.  1.
<scales pt_clust_5="13000.00000" pt_clust_6="13000.00000" pt_clust_7="13000.00000" pt_clust_8="13000.00000" pt_clust_9="31.43893" pt_clust_10="120.00759"></scales>
<clustering>
<clus scale="   31.439">  2  9  1 -1</clus>
<clus scale="   77.795">  5  6 -1 -1</clus>
<clus scale="   90.683">  7  8 -1 -1</clus>
<clus scale="   92.444">  1  5  2 -1</clus>
<clus scale="  120.008">  2 10  1 -1</clus>
<clus scale="   31.439">  2  5  1 -1</clus>
</clustering>
</event>
<event>
10    4  0.3403565E-005  0.1109016E+03  0.7546771E-02  0.1264123E+00
          2   -1    0    0  503    0 -0.00000000000E+00  0.00000000000E+00  0.55462274466E+03  0.55462274466E+03  0.00000000000E+00 0. -1.
         21   -1    0    0  501  502  0.00000000000E+00 -0.00000000000E+00 -0.80548963326E+02  0.80548963326E+02  0.00000000000E+00 0.  1.
         24    2    1    2    0    0  0.58189619245E+01  0.44616606171E+02  0.88137883770E+02  0.12608596915E+03  0.78133751964E+02 0.  0.
         23    2    1    2    0    0  0.35073679511E+02 -0.95785696757E+02  0.91600012456E+02  0.16484770810E+03  0.91537652830E+02 0.  0.
        -11    1    3    3    0    0  0.57589311356E+01  0.66537495834E+02  0.55856344516E+02  0.87065118517E+02  0.00000000000E+00 0.  1.
         12    1    3    3    0    0  0.60030788906E-01 -0.21920889662E+02  0.32281539254E+02  0.39020850630E+02  0.00000000000E+00 0. -1.
        -11    1    4    4    0    0 -0.26861288452E+02 -0.56307542512E+02  0.53083180435E+02  0.81913931697E+02  0.00000000000E+00 0.  1.
         11    1    4    4    0    0  0.61934967963E+02 -0.39478154245E+02  0.38516832021E+02  0.82933776401E+02  0.00000000000E+00 0. -1.
         21    1    1    2  503  502 -0.38024525541E+02  0.14213795933E+02 -0.65137744438E+01  0.41113571907E+02  0.00000000000E+00 0.  1.
          1    1    1    2  501    0 -0.28681158943E+01  0.36955294653E+02  0.30084965956E+03  0.30312445884E+03  0.00000000000E+00 0. -1.
<scales pt_clust_5="13000.00000" pt_clust_6="13000.00000" pt_clust_7="13000.00000" pt_clust_8="13000.00000" pt_clust_9="46.38848" pt_clust_10="37.06644"></scales>
<clustering>
<clus scale="   37.066">  2 10  1 -1</clus>
<clus scale="   46.388">  2  9  1 -1</clus>
<clus scale="   78.134">  5  6 -1 -1</clus>
<clus scale="   91.538">  7  8 -1 -1</clus>
<clus scale="  100.125">  1  5  2 -1</clus>
<clus scale="   37.066">  2  5  1 -1</clus>
</clustering>
</event>
<event>
10    4  0.3403565E-005  0.1268102E+03  0.7546771E-02  0.1235831E+00
         21   -1    0    0  501  502  0.00000000000E+00  0.00000000000E+00  0.16004897701E+03  0.16004897701E+03  0.00000000000E+00 0.  1.
          2   -1    0    0  503    0 -0.00000000000E+00 -0.00000000000E+00 -0.18069479640E+03  0.18069479640E+03  0.00000000000E+00 0. -1.
         24    2    1    2    0    0  0.85671688456E+02  0.13605640873E+02 -0.91223659333E+02  0.14883397646E+03  0.79404312612E+02 0.  0.
         23    2    1    2    0    0 -0.87985843444E+02 -0.80772161603E+01  0.39566220738E+02  0.13365870843E+03  0.92154296956E+02 0.  0.
        -11    1    3    3    0    0  0.37374092904E+02  0.16644679626E+02  0.49104500513E+01  0.41206561370E+02  0.00000000000E+00 0.  1.
         12    1    3    3    0    0  0.48297595553E+02 -0.30390387529E+01 -0.96134109384E+02  0.10762741509E+03  0.00000000000E+00 0. -1.
        -13    1    4    4    0    0 -0.64891833935E+02  0.20168171126E+02 -0.13478953355E+02  0.69277611258E+02  0.00000000000E+00 0. -1.
         13    1    4    4    0    0 -0.23094009509E+02 -0.28245387287E+02  0.53045174093E+02  0.64381097169E+02  0.00000000000E+00 0.  1.
         21    1    1    2  503  502 -0.23083897525E+02 -0.43423820626E+01  0.18579871880E+02  0.29948860512E+02  0.00000000000E+00 0.  1.
          1    1    1    2  501    0  0.25398052512E+02 -0.11860426501E+01  0.12431747331E+02  0.28302228009E+02  0.00000000000E+00 0. -1.
<scales pt_clust_5="13000.00000" pt_clust_6="13000.00000" pt_clust_7="13000.00000" pt_clust_8="13000.00000" pt_clust_9="23.48878" pt_clust_10="22.01240"></scales>
<clustering>
<clus scale="   23.489">  1  9  2 -1</clus>
<clus scale="   22.012">  1 10  2 -1</clus>
<clus scale="   79.404">  5  6 -1 -1</clus>
<clus scale="   92.154">  7  8 -1 -1</clus>
<clus scale="  117.870">  2  5  1 -1</clus>
<clus scale="   23.489">  1  5  2 -1</clus>
</clustering>
</event>
<event>
10    4  0.3403565E-005  0.2356944E+03  0.7546771E-02  0.1153201E+00
          2   -1    0    0  503    0 -0.00000000000E+00  0.00000000000E+00  0.78069484029E+03  0.78069484029E+03  0.00000000000E+00 0. -1.
         21   -1    0    0  501  502  0.00000000000E+00 -0.00000000000E+00 -0.50613031237E+03  0.50613031237E+03  0.00000000000E+00 0.  1.
         24    2    1    2    0    0 -0.33860399853E+02 -0.79879398359E+02  0.28318865055E+03  0.30677152431E+03  0.79910646150E+02 0.  0.
         23    2    1    2    0    0 -0.43897578037E+02  0.21362416389E+03  0.13142812820E+03  0.27014103358E+03  0.90224965423E+02 0.  0.
        -11    1    3    3    0    0  0.20056922984E+02  0.15451291056E+01  0.42285428659E+02  0.46826542264E+02  0.00000000000E+00 0.  1.
         12    1    3    3    0    0 -0.53917322837E+02 -0.81424527465E+02  0.24090322189E+03  0.25994498204E+03  0.00000000000E+00 0. -1.
        -11    1    4    4    0    0 -0.66522873973E+02  0.17128442915E+03  0.12372548262E+03  0.22152120324E+03  0.00000000000E+00 0. -1.
         11    1    4    4    0    0  0.22625295935E+02  0.42339734739E+02  0.77026455736E+01  0.48619830345E+02  0.00000000000E+00 0.  1.
         21    1    1    2  503  502  0.34231257372E+02  0.66612542351E+02 -0.38400640212E+03  0.39124151959E+03  0.00000000000E+00 0.  1.
          1    1    1    2  501    0  0.43526720519E+02 -0.20035730788E+03  0.24395415129E+03  0.31867107518E+03  0.00000000000E+00 0. -1.
<scales pt_clust_5="13000.00000" pt_clust_6="13000.00000" pt_clust_7="13000.00000" pt_clust_8="13000.00000" pt_clust_9="74.89332" pt_clust_10="217.74137"></scales>
<clustering>
<clus scale="   74.893">  2  9  1 -1</clus>
<clus scale="   79.911">  5  6 -1 -1</clus>
<clus scale="   90.225">  7  8 -1 -1</clus>
<clus scale="  112.601">  1  5  2 -1</clus>
<clus scale="  217.741">  2 10  1 -1</clus>
<clus scale="   74.893">  2  5  1 -1</clus>
</clustering>
</event>
<event>
10    4  0.3403565E-005  0.1069260E+03  0.7546771E-02  0.1275539E+00
         21   -1    0    0  501  502  0.00000000000E+00  0.00000000000E+00  0.16389168043E+03  0.16389168043E+03  0.00000000000E+00 0.  1.
          4   -1    0    0  503    0 -0.00000000000E+00 -0.00000000000E+00 -0.35527005598E+03  0.35527005598E+03  0.00000000000E+00 0. -1.
         24    2    1    2    0    0  0.32124240952E+02  0.13689911222E+02 -0.90924557155E+02  0.12779599819E+03  0.82735491376E+02 0.  0.
         23    2    1    2    0    0 -0.36914965178E+02  0.52063833148E+02 -0.48533495464E+02  0.12916266651E+03  0.10126271211E+03 0.  0.
        -11    1    3    3    0    0  0.25956162045E+02 -0.22922194951E+02 -0.60464134194E+01  0.35152645487E+02  0.00000000000E+00 0.  1.
         12    1    3    3    0    0  0.61680789066E+01  0.36612106173E+02 -0.84878143735E+02  0.92643352701E+02  0.00000000000E+00 0. -1.
        -11    1    4    4    0    0 -0.22753696905E+02  0.30268021131E+02  0.28802273691E+02  0.47575779508E+02  0.00000000000E+00 0.  1.
         11    1    4    4    0    0 -0.14161268273E+02  0.21795812017E+02 -0.77335769155E+02  0.81586887007E+02  0.00000000000E+00 0. -1.
         21    1    1    2  503  502  0.85888021257E+02 -0.37953242982E+02  0.67179607448E+02  0.11545692056E+03  0.00000000000E+00 0.  1.
          3    1    1    2  501    0 -0.81097297031E+02 -0.27800501388E+02 -0.11909993038E+03  0.14674615116E+03  0.00000000000E+00 0. -1.
<scales pt_clust_5="13000.00000" pt_clust_6="13000.00000" pt_clust_7="13000.00000" pt_clust_8="13000.00000" pt_clust_9="65.92318" pt_clust_10="85.73008"></scales>
<clustering>
<clus scale="   82.735">  5  6 -1 -1</clus>
<clus scale="   85.730">  1 10  2 -1</clus>
<clus scale="   65.923">  1  9  2 -1</clus>
<clus scale="   89.578">  2  5  1 -1</clus>
<clus scale="  101.263">  7  8 -1 -1</clus>
<clus scale="   85.730">  1  5  2 -1</clus>
</clustering>
</event>
<event>
10    4  0.3403565E-005  0.9863608E+02  0.7546771E-02  0.1289523E+00
          2   -1    0    0  502    0 -0.00000000000E+00  0.00000000000E+00  0.62213291479E+03  0.62213291479E+03  0.00000000000E+00 0. -1.
         21   -1    0    0  503  502  0.00000000000E+00 -0.00000000000E+00 -0.62426952826E+02  0.62426952826E+02  0.00000000000E+00 0. -1.
         24    2    1    2    0    0  0.24884704735E+02 -0.27405616390E+02  0.34818744210E+03  0.35921559663E+03  0.80193725973E+02 0.  0.
         23    2    1    2    0    0  0.16078245417E+02  0.41848620334E+02  0.43291594210E+02  0.11126570632E+03  0.92174173577E+02 0.  0.
        -13    1    3    3    0    0  0.47577304008E+02 -0.39924656375E+02  0.25866032561E+03  0.26601267280E+03  0.00000000000E+00 0.  1.
         14    1    3    3    0    0 -0.22692599273E+02  0.12519039984E+02  0.89527116490E+02  0.93202923832E+02  0.00000000000E+00 0. -1.
        -13    1    4    4    0    0 -0.27434597382E+02 -0.10452076105E+02  0.29941995212E+02  0.41933591614E+02  0.00000000000E+00 0.  1.
         13    1    4    4    0    0  0.43512842799E+02  0.52300696439E+02  0.13349598999E+02  0.69332114708E+02  0.00000000000E+00 0. -1.
         21    1    1    2  503  501  0.27170637014E+02  0.30610073995E+02  0.21709020023E+02  0.46330353939E+02  0.00000000000E+00 0. -1.
          1    1    1    2  501    0 -0.68133587166E+02 -0.45053077939E+02  0.14651790563E+03  0.16774821073E+03  0.00000000000E+00 0. -1.
<scales pt_clust_5="13000.00000" pt_clust_6="13000.00000" pt_clust_7="13000.00000" pt_clust_8="13000.00000" pt_clust_9="40.92945" pt_clust_10="73.33962"></scales>
<clustering>
<clus scale="   40.929">  2  9  1 -1</clus>
<clus scale="   73.340">  2 10  1 -1</clus>
<clus scale="   80.194">  5  6 -1 -1</clus>
<clus scale="   87.544">  1  5  2 -1</clus>
<clus scale="   92.174">  7  8 -1 -1</clus>
<clus scale="   40.929">  2  5  1 -1</clus>
</clustering>
</event>
<event>
10    4  0.3403565E-005  0.2001075E+03  0.7546771E-02  0.1179011E+00
         21   -1    0    0  501  502  0.00000000000E+00  0.00000000000E+00  0.64712199752E+03  0.64712199752E+03  0.00000000000E+00 0. -1.
         -1   -1    0    0    0  501 -0.00000000000E+00 -0.00000000000E+00 -0.86524643167E+03  0.86524643167E+03  0.00000000000E+00 0.  1.
         24    2    1    2    0    0 -0.37746308942E+02 -0.52720954702E+02 -0.13233569368E+03  0.16680066568E+03  0.78137336438E+02 0.  0.
         23    2    1    2    0    0  0.48176824264E+02 -0.65439404626E+02 -0.16109563825E+02  0.12623741577E+03  0.95252532875E+02 0.  0.
        -11    1    3    3    0    0 -0.56143149496E+02 -0.12823083501E+02 -0.73747299497E+02  0.93568952591E+02  0.00000000000E+00 0.  1.
         12    1    3    3    0    0  0.18396840555E+02 -0.39897871202E+02 -0.58588394181E+02  0.73231713086E+02  0.00000000000E+00 0. -1.
        -13    1    4    4    0    0  0.50088396352E+02 -0.28235745506E+02  0.31676147019E+02  0.65646653101E+02  0.00000000000E+00 0.  1.
         13    1    4    4    0    0 -0.19115720878E+01 -0.37203659120E+02 -0.47785710843E+02  0.60590762667E+02  0.00000000000E+00 0. -1.
         21    1    1    2  503  502 -0.16380433448E+03 -0.11203929300E+03  0.52619857350E+03  0.56237852193E+03  0.00000000000E+00 0. -1.
         -2    1    1    2    0  503  0.15337381915E+03  0.23019965233E+03 -0.59587775014E+03  0.65695182582E+03  0.00000000000E+00 0.  1.
<scales pt_clust_5="13000.00000" pt_clust_6="13000.00000" pt_clust_7="13000.00000" pt_clust_8="13000.00000" pt_clust_9="200.10747" pt_clust_10="13000.00000"></scales>
<clustering>
<clus scale="   78.137">  5  6 -1 -1</clus>
<clus scale="   95.253">  7  8 -1 -1</clus>
<clus scale="  101.537">  2  5  1 -1</clus>
<clus scale="  126.659">  2  7  1 -1</clus>
<clus scale="  200.107">  1  9  2 -1</clus>
<clus scale="  200.107">  1  5  2 -1</clus>
</clustering>
</event>
<event>
10    4  0.3403565E-005  0.9279744E+02  0.7546771E-02  0.1306923E+00
          2   -1    0    0  503    0 -0.00000000000E+00  0.00000000000E+00  0.62332313289E+03  0.62332313289E+03  0.00000000000E+00 0. -1.
         21   -1    0    0  501  502  0.00000000000E+00 -0.00000000000E+00 -0.89811053983E+02  0.89811053983E+02  0.00000000000E+00 0. -1.
         23    2    1    2    0    0  0.32938553870E+02  0.45546856877E+01  0.38561411696E+03  0.39716577261E+03  0.89088216076E+02 0.  0.
         24    2    1    2    0    0  0.13833511118E+02  0.58132352917E+02  0.42917215155E+02  0.10269411323E+03  0.71648147562E+02 0.  0.
        -11    1    4    4    0    0 -0.22546151335E+02  0.17809807124E+02  0.38731251561E+02  0.48224765601E+02  0.00000000000E+00 0.  1.
         12    1    4    4    0    0  0.36379662453E+02  0.40322545794E+02  0.41859635944E+01  0.54469347625E+02  0.00000000000E+00 0. -1.
        -13    1    3    3    0    0 -0.22818818913E+02  0.18467117862E+02  0.63388106947E+02  0.69855458205E+02  0.00000000000E+00 0.  1.
         13    1    3    3    0    0  0.55757372783E+02 -0.13912432175E+02  0.32222601001E+03  0.32731031440E+03  0.00000000000E+00 0. -1.
         21    1    1    2  503  502 -0.31620832778E+02 -0.27886049510E+02 -0.43168008858E+02  0.60340581797E+02  0.00000000000E+00 0. -1.
          1    1    1    2  501    0 -0.15151232209E+02 -0.34800989095E+02  0.14814875565E+03  0.15293371924E+03  0.00000000000E+00 0. -1.
<scales pt_clust_5="13000.00000" pt_clust_6="13000.00000" pt_clust_7="13000.00000" pt_clust_8="13000.00000" pt_clust_9="63.23621" pt_clust_10="37.95616"></scales>
<clustering>
<clus scale="   37.956">  2 10  1 -1</clus>
<clus scale="   63.236">  2  9  1 -1</clus>
<clus scale="   71.648">  5  6 -1 -1</clus>
<clus scale="   76.211">  2  5  1 -1</clus>
<clus scale="   89.088">  7  8 -1 -1</clus>
<clus scale="   37.956">  2  5  1 -1</clus>
</clustering>
</event>
<event>
10    4  0.3403565E-005  0.3455315E+03  0.7546771E-02  0.1119243E+00
         21   -1    0    0  503  502  0.00000000000E+00  0.00000000000E+00  0.17973058120E+03  0.17973058120E+03  0.00000000000E+00 0.  1.
          2   -1    0    0  502    0 -0.00000000000E+00 -0.00000000000E+00 -0.14291742303E+04  0.14291742303E+04  0.00000000000E+00 0. -1.
         24    2    1    2    0    0 -0.24594443487E+02  0.22085025127E+01 -0.87163022297E+00  0.80917677495E+02  0.77052882219E+02 0.  0.
         23    2    1    2    0    0  0.13644893445E+03  0.29065678724E+03 -0.24244438633E+03  0.41294335389E+03  0.92969099041E+02 0.  0.
        -11    1    3    3    0    0  0.20305806026E+02 -0.19696573935E+02 -0.10245198006E+02  0.30087287437E+02  0.00000000000E+00 0.  1.
         12    1    3    3    0    0 -0.44900249512E+02  0.21905076448E+02  0.93735677826E+01  0.50830390058E+02  0.00000000000E+00 0. -1.
        -13    1    4    4    0    0  0.29482684303E+02  0.15535321738E+03 -0.14657897039E+03  0.21561364842E+03  0.00000000000E+00 0. -1.
         13    1    4    4    0    0  0.10696625015E+03  0.13530356986E+03 -0.95865415941E+02  0.19732970547E+03  0.00000000000E+00 0.  1.
         21    1    1    2  503  501 -0.22538140734E+01  0.24931764628E+02  0.22016649433E+02  0.33337747639E+02  0.00000000000E+00 0.  1.
          1    1    1    2  501    0 -0.10960067689E+03 -0.31779705438E+03 -0.10281442820E+04  0.10817060325E+04  0.00000000000E+00 0. -1.
<scales pt_clust_5="13000.00000" pt_clust_6="13000.00000" pt_clust_7="13000.00000" pt_clust_8="13000.00000" pt_clust_9="25.03343" pt_clust_10="332.78952"></scales>
<clustering>
<clus scale="   25.033">  1  9  2 -1</clus>
<clus scale="   77.053">  5  6 -1 -1</clus>
<clus scale="   81.538">  2  5  1 -1</clus>
<clus scale="   92.969">  7  8 -1 -1</clus>
<clus scale="  332.790">  1 10  2 -1</clus>
<clus scale="   25.033">  1  5  2 -1</clus>
</clustering>
</event>
<event>
10    4  0.3403565E-005  0.8995137E+02  0.7546771E-02  0.1309220E+00
         -1   -1    0    0    0  501 -0.00000000000E+00  0.00000000000E+00  0.28633671156E+03  0.28633671156E+03  0.00000000000E+00 0.  1.
         21   -1    0    0  503  502  0.00000000000E+00 -0.00000000000E+00 -0.10321249138E+03  0.10321249138E+03  0.00000000000E+00 0. -1.
         24    2    1    2    0    0 -0.41102843809E+01 -0.13819367819E+02  0.16626760273E+03  0.18469366315E+03  0.79113615285E+02 0.  0.
         23    2    1    2    0    0 -0.81487443304E+01  0.10614207809E+02 -0.27335894307E+01  0.89982755238E+02  0.88940206248E+02 0.  0.
        -11    1    3    3    0    0 -0.34905780194E+02 -0.28902783075E+02  0.10734587853E+03  0.11652004977E+03  0.00000000000E+00 0.  1.
         12    1    3    3    0    0  0.30795495813E+02  0.15083415256E+02  0.58921724206E+02  0.68173613382E+02  0.00000000000E+00 0. -1.
        -13    1    4    4    0    0 -0.14140358543E+02 -0.35165570009E+02  0.14669050105E+02  0.40641703763E+02  0.00000000000E+00 0.  1.
         13    1    4    4    0    0  0.59916142130E+01  0.45779777817E+02 -0.17402639535E+02  0.49341051475E+02  0.00000000000E+00 0. -1.
         21    1    1    2  503  501  0.27546742326E+02  0.29684995830E+02 -0.34195659159E+02  0.53003444185E+02  0.00000000000E+00 0. -1.
         -2    1    1    2    0  502 -0.15287713615E+02 -0.26479835820E+02  0.53785866036E+02  0.61869340370E+02  0.00000000000E+00 0.  1.
<scales pt_clust_5="13000.00000" pt_clust_6="13000.00000" pt_clust_7="13000.00000" pt_clust_8="13000.00000" pt_clust_9="27.55486" pt_clust_10="30.57608"></scales>
<clustering>
<clus scale="   30.576">  2 10  1 -1</clus>
<clus scale="   27.555">  2  9  1 -1</clus>
<clus scale="   79.114">  5  6 -1 -1</clus>
<clus scale="   80.249">  1  5  2 -1</clus>
<clus scale="   88.940">  7  8 -1 -1</clus>
<clus scale="   30.576">  2  5  1 -1</clus>
</clustering>
</event>
<event>
10    4  0.3403565E-005  0.2337260E+03  0.7546771E-02  0.1124755E+00
         -1   -1    0    0    0  501 -0.00000000000E+00  0.00000000000E+00  0.76370455797E+03  0.76370455797E+03  0.00000000000E+00 0.  1.
         21   -1    0    0  503  502  0.00000000000E+00 -0.00000000000E+00 -0.31634248182E+03  0.31634248182E+03  0.00000000000E+00 0. -1.
         24    2    1    2    0    0  0.13985605935E+02  0.21347988007E+03  0.52147035484E+03  0.56921982374E+03  0.79439413400E+02 0.  0.
         23    2    1    2    0    0  0.28586274868E+02 -0.22547644101E+03 -0.15873974871E+02  0.24517896983E+03  0.90575623708E+02 0.  0.
        -11    1    3    3    0    0 -0.29570151167E+02  0.81042901202E+02  0.24175172140E+03  0.25668315191E+03  0.00000000000E+00 0.  1.
         12    1    3    3    0    0  0.43555757102E+02  0.13243697887E+03  0.27971863344E+03  0.31253667184E+03  0.00000000000E+00 0. -1.
        -11    1    4    4    0    0  0.14567299720E+01 -0.91461345254E+02  0.36871717376E+02  0.98624658581E+02  0.00000000000E+00 0.  1.
         11    1    4    4    0    0  0.27129544896E+02 -0.13401509575E+03 -0.52745692247E+02  0.14655431125E+03  0.00000000000E+00 0. -1.
         21    1    1    2  503  501 -0.16673128664E+02  0.12474903431E+02 -0.15963698119E+03  0.16098938536E+03  0.00000000000E+00 0. -1.
         -2    1    1    2    0  502 -0.25898752140E+02 -0.47834249881E+00  0.10140267738E+03  0.10465886085E+03  0.00000000000E+00 0.  1.
<scales pt_clust_5="13000.00000" pt_clust_6="13000.00000" pt_clust_7="13000.00000" pt_clust_8="13000.00000" pt_clust_9="20.82346" pt_clust_10="26.07507"></scales>
<clustering>
<clus scale="   20.823">  2  9  1 -1</clus>
<clus scale="   26.075">  2 10  1 -1</clus>
<clus scale="   79.439">  5  6 -1 -1</clus>
<clus scale="   90.576">  7  8 -1 -1</clus>
<clus scale="  229.640">  1  5  2 -1</clus>
<clus scale="   20.823">  2  5  1 -1</clus>
</clustering>
</event>
<event>
10    4  0.3403565E-005  0.1714251E+03  0.7546771E-02  0.1205359E+00
         21   -1    0    0  503  502  0.00000000000E+00  0.00000000000E+00  0.12120935225E+03  0.12120935225E+03  0.00000000000E+00 0. -1.
          2   -1    0    0  502    0 -0.00000000000E+00 -0.00000000000E+00 -0.75340289151E+03  0.75340289151E+03  0.00000000000E+00 0. -1.
         23    2    1    2    0    0  0.27165914701E+02 -0.66151536693E+01 -0.49578738706E+02  0.10312294363E+03  0.85991528603E+02 0.  0.
         24    2    1    2    0    0  0.97732644698E+02  0.95189409003E+02 -0.59027964559E+03  0.61123399073E+03  0.81019985193E+02 0.  0.
        -13    1    4    4    0    0  0.32777335496E+02 -0.10636526874E+02 -0.13411000617E+03  0.13846654174E+03  0.00000000000E+00 0.  1.
         14    1    4    4    0    0  0.64955309203E+02  0.10582593588E+03 -0.45616963941E+03  0.47276744899E+03  0.00000000000E+00 0. -1.
        -11    1    3    3    0    0  0.37261609050E+02  0.24751090335E+02 -0.14014071432E+01  0.44754976525E+02  0.00000000000E+00 0. -1.
         11    1    3    3    0    0 -0.10095694349E+02 -0.31366244005E+02 -0.48177331563E+02  0.58367967104E+02  0.00000000000E+00 0.  1.
         21    1    1    2  503  501 -0.28308533195E+02 -0.11735946580E+02  0.19406701447E+02  0.36272931434E+02  0.00000000000E+00 0. -1.
          1    1    1    2  501    0 -0.96590026205E+02 -0.76838308754E+02 -0.11741856409E+02  0.12398237797E+03  0.00000000000E+00 0. -1.
<scales pt_clust_5="13000.00000" pt_clust_6="13000.00000" pt_clust_7="13000.00000" pt_clust_8="13000.00000" pt_clust_9="23.25425" pt_clust_10="158.11484"></scales>
<clustering>
<clus scale="   23.254">  9 10 -1 -1</clus>
<clus scale="   81.020">  5  6 -1 -1</clus>
<clus scale="   85.992">  7  8 -1 -1</clus>
<clus scale="   90.423">  2  7  1 -1</clus>
<clus scale="  158.115">  1  9  2 -1</clus>
<clus scale="  158.115">  1  5  2 -1</clus>
</clustering>
</event>
<event>
10    4  0.3403565E-005  0.1924380E+03  0.7546771E-02  0.1179798E+00
          2   -1    0    0  503    0 -0.00000000000E+00  0.00000000000E+00  0.46648095613E+03  0.46648095613E+03  0.00000000000E+00 0. -1.
         21   -1    0    0  501  502  0.00000000000E+00 -0.00000000000E+00 -0.61574317448E+03  0.61574317448E+03  0.00000000000E+00 0.  1.
         24    2    1    2    0    0 -0.51944496604E+02  0.66703634109E+02  0.37698568639E+03  0.39320566000E+03  0.73108671018E+02 0.  0.
         23    2    1    2    0    0 -0.10445463247E+03 -0.89535414119E+02 -0.22729664871E+03  0.28060288226E+03  0.90259904676E+02 0.  0.
        -13    1    3    3    0    0  0.17543732933E+02  0.16890106526E+02  0.11750525954E+03  0.12000226782E+03  0.00000000000E+00 0.  1.
         14    1    3    3    0    0 -0.69488229538E+02  0.49813527583E+02  0.25948042686E+03  0.27320339218E+03  0.00000000000E+00 0. -1.
        -13    1    4    4    0    0 -0.32563706933E+02 -0.72376183373E+02 -0.16815515804E+03  0.18594317439E+03  0.00000000000E+00 0.  1.
         13    1    4    4    0    0 -0.71890925538E+02 -0.17159230746E+02 -0.59141490670E+02  0.94659707865E+02  0.00000000000E+00 0. -1.
         21    1    1    2  503  502  0.21644808496E+03  0.26452737947E+02 -0.23114108636E+03  0.31776677395E+03  0.00000000000E+00 0.  1.
          1    1    1    2  501    0 -0.60048955880E+02 -0.36209579372E+01 -0.67810169680E+02  0.90648814392E+02  0.00000000000E+00 0. -1.
<scales pt_clust_5="13000.00000" pt_clust_6="13000.00000" pt_clust_7="13000.00000" pt_clust_8="13000.00000" pt_clust_9="169.95747" pt_clust_10="60.15803"></scales>
<clustering>
<clus scale="   60.158">  2 10  1 -1</clus>
<clus scale="   73.109">  5  6 -1 -1</clus>
<clus scale="   90.260">  7  8 -1 -1</clus>
<clus scale="  112.162">  1  5  2 -1</clus>
<clus scale="  169.957">  1  9  2 -1</clus>
<clus scale="   60.158">  2  5  1 -1</clus>
</clustering>
</event>
<event>
10    4  0.3403565E-005  0.9234631E+02  0.7546771E-02  0.1305244E+00
         -1   -1    0    0    0  501 -0.00000000000E+00  0.00000000000E+00  0.90916928960E+03  0.90916928960E+03  0.00000000000E+00 0.  1.
         21   -1    0    0  503  502  0.00000000000E+00 -0.00000000000E+00 -0.41294495766E+02  0.41294495766E+02  0.00000000000E+00 0. -1.
         24    2    1    2    0    0  0.41283709223E+01 -0.87386353946E+01  0.63767900928E+03  0.64260804143E+03  0.78849025594E+02 0.  0.
         23    2    1    2    0    0 -0.28687439285E+02  0.12041017978E+02  0.13785284928E+03  0.16839758290E+03  0.91577194679E+02 0.  0.
        -11    1    3    3    0    0  0.69863321425E+01  0.31386520249E+02  0.15760782033E+03  0.16085442959E+03  0.00000000000E+00 0.  1.
         12    1    3    3    0    0 -0.28579612202E+01 -0.40125155643E+02  0.48007118895E+03  0.48175361184E+03  0.00000000000E+00 0. -1.
        -13    1    4    4    0    0  0.22697856280E+02 -0.14607032925E+02  0.11350907324E+02  0.29281413689E+02  0.00000000000E+00 0. -1.
         13    1    4    4    0    0 -0.51385295565E+02  0.26648050903E+02  0.12650194195E+03  0.13911616921E+03  0.00000000000E+00 0.  1.
         21    1    1    2  503  501 -0.19679965084E+02  0.14347650192E+02 -0.10191338700E+02  0.26401126420E+02  0.00000000000E+00 0. -1.
         -2    1    1    2    0  502  0.44239033447E+02 -0.17650032775E+02  0.10253427398E+03  0.11305703463E+03  0.00000000000E+00 0.  1.
<scales pt_clust_5="13000.00000" pt_clust_6="13000.00000" pt_clust_7="13000.00000" pt_clust_8="13000.00000" pt_clust_9="24.35480" pt_clust_10="42.25450"></scales>
<clustering>
<clus scale="   24.355">  2  9  1 -1</clus>
<clus scale="   42.254">  2 10  1 -1</clus>
<clus scale="   78.849">  5  6 -1 -1</clus>
<clus scale="   79.741">  1  5  2 -1</clus>
<clus scale="   91.577">  7  8 -1 -1</clus>
<clus scale="   24.355">  2  5  1 -1</clus>
</clustering>
</event>
<event>
10    4  0.3403565E-005  0.1971939E+03  0.7546771E-02  0.1153124E+00
         21   -1    0    0  501  502  0.00000000000E+00  0.00000000000E+00  0.30190483414E+03  0.30190483414E+03  0.00000000000E+00 0. -1.
          2   -1    0    0  503    0 -0.00000000000E+00 -0.00000000000E+00 -0.86499348160E+03  0.86499348160E+03  0.00000000000E+00 0. -1.
         23    2    1    2    0    0  0.20701557603E+03  0.49582221833E+01 -0.59206198640E+03  0.63401217448E+03  0.92487885456E+02 0.  0.
         24    2    1    2    0    0 -0.11984732780E+03  0.22915856945E+02 -0.20780142613E+03  0.26154878303E+03  0.10167504474E+03 0.  0.
        -13    1    4    4    0    0 -0.83820276930E+02 -0.24431624515E+02 -0.16986006026E+03  0.19098477209E+03  0.00000000000E+00 0.  1.
         14    1    4    4    0    0 -0.36027050874E+02  0.47347481460E+02 -0.37941365867E+02  0.70564010935E+02  0.00000000000E+00 0. -1.
        -13    1    3    3    0    0  0.19839925214E+02  0.23434806902E+02 -0.37758371139E+02  0.48667313447E+02  0.00000000000E+00 0.  1.
         13    1    3    3    0    0  0.18717565082E+03 -0.18476584718E+02 -0.55430361526E+03  0.58534486103E+03  0.00000000000E+00 0. -1.
         21    1    1    2  503  502 -0.40321849222E+02 -0.41583006112E+02  0.44720233217E+02  0.73177162975E+02  0.00000000000E+00 0.  1.
          1    1    1    2  501    0 -0.46846399009E+02  0.13708926984E+02  0.19205453185E+03  0.19816019525E+03  0.00000000000E+00 0. -1.
<scales pt_clust_5="13000.00000" pt_clust_6="13000.00000" pt_clust_7="13000.00000" pt_clust_8="13000.00000" pt_clust_9="74.40985" pt_clust_10="48.81106"></scales>
<clustering>
<clus scale="   48.811">  1 10  2 -1</clus>
<clus scale="   74.410">  1  9  2 -1</clus>
<clus scale="   92.488">  7  8 -1 -1</clus>
<clus scale="  101.675">  5  6 -1 -1</clus>
<clus scale="  192.618">  2  7  1 -1</clus>
<clus scale="   48.811">  1  5  2 -1</clus>
</clustering>
</event>
<event>
10    4  0.3403565E-005  0.2374553E+03  0.7546771E-02  0.1158889E+00
         21   -1    0    0  503  502  0.00000000000E+00  0.00000000000E+00  0.35391802901E+03  0.35391802901E+03  0.00000000000E+00 0. -1.
         -1   -1    0    0    0  501 -0.00000000000E+00 -0.00000000000E+00 -0.82482901118E+03  0.82482901118E+03  0.00000000000E+00 0.  1.
         23    2    1    2    0    0  0.35178910149E+02  0.49567682738E+01 -0.91720717821E+02  0.13397400464E+03  0.90962731768E+02 0.  0.
         24    2    1    2    0    0 -0.49206008261E+02 -0.26036761997E+03 -0.10391326055E+03  0.29514567593E+03  0.78105540912E+02 0.  0.
        -11    1    4    4    0    0  0.58021776352E+01 -0.17150724182E+03 -0.69028816910E+02  0.18496858335E+03  0.00000000000E+00 0.  1.
         12    1    4    4    0    0 -0.55008185896E+02 -0.88860378154E+02 -0.34884443638E+02  0.11017709258E+03  0.00000000000E+00 0. -1.
        -13    1    3    3    0    0  0.56319491287E+02 -0.17747356640E+02 -0.33209788580E+02  0.67747648107E+02  0.00000000000E+00 0.  1.
         13    1    3    3    0    0 -0.21140581138E+02  0.22704124914E+02 -0.58510929242E+02  0.66226356533E+02  0.00000000000E+00 0. -1.
         21    1    1    2  503  501 -0.45946807195E+02  0.64896221355E+02  0.21016384335E+03  0.22470307005E+03  0.00000000000E+00 0. -1.
         -2    1    1    2    0  502  0.59973905307E+02  0.19051463034E+03 -0.48544084716E+03  0.52492428957E+03  0.00000000000E+00 0.  1.
<scales pt_clust_5="13000.00000" pt_clust_6="13000.00000" pt_clust_7="13000.00000" pt_clust_8="13000.00000" pt_clust_9="79.51496" pt_clust_10="224.24227"></scales>
<clustering>
<clus scale="   78.106">  5  6 -1 -1</clus>
<clus scale="   79.515">  1  9  2 -1</clus>
<clus scale="   90.963">  7  8 -1 -1</clus>
<clus scale="   96.369">  2  7  1 -1</clus>
<clus scale="  224.242">  1 10  2 -1</clus>
<clus scale="   79.515">  1  5  2 -1</clus>
</clustering>
</event>
<event>
10    4  0.3403565E-005  0.1393662E+03  0.7546771E-02  0.1217703E+00
         21   -1    0    0  501  502  0.00000000000E+00  0.00000000000E+00  0.99060726519E+02  0.99060726519E+02  0.00000000000E+00 0. -1.
         -1   -1    0    0    0  501 -0.00000000000E+00 -0.00000000000E+00 -0.10521042368E+04  0.10521042368E+04  0.00000000000E+00 0.  1.
         24    2    1    2    0    0  0.10590862516E+03 -0.28954720772E+02 -0.45764190002E+03  0.47667361677E+03  0.75674404704E+02 0.  0.
         23    2    1    2    0    0 -0.76450464623E+02  0.72345460395E+02 -0.32005724789E+03  0.34917971301E+03  0.91713089959E+02 0.  0.
        -13    1    3    3    0    0  0.60949504362E+02 -0.20409968152E+02 -0.38835002508E+03  0.39363326951E+03  0.00000000000E+00 0.  1.
         14    1    3    3    0    0  0.44959120797E+02 -0.85447526191E+01 -0.69291874940E+02  0.83040347259E+02  0.00000000000E+00 0. -1.
        -13    1    4    4    0    0 -0.30035586679E+02  0.85208620828E+02 -0.18720615577E+03  0.20786724198E+03  0.00000000000E+00 0. -1.
         13    1    4    4    0    0 -0.46414877945E+02 -0.12863160432E+02 -0.13285109212E+03  0.14131247103E+03  0.00000000000E+00 0.  1.
         21    1    1    2  503  502  0.11654384399E+02  0.29444725473E+02  0.64200320759E+02  0.71585597151E+02  0.00000000000E+00 0. -1.
         -2    1    1    2    0  503 -0.41112544935E+02 -0.72835465097E+02 -0.23954468309E+03  0.25372603636E+03  0.00000000000E+00 0.  1.
<scales pt_clust_5="13000.00000" pt_clust_6="13000.00000" pt_clust_7="13000.00000" pt_clust_8="13000.00000" pt_clust_9="31.66728" pt_clust_10="76.50709"></scales>
<clustering>
<clus scale="   31.667">  1  9  2 -1</clus>
<clus scale="   75.674">  5  6 -1 -1</clus>
<clus scale="   76.507">  1 10  2 -1</clus>
<clus scale="   91.713">  7  8 -1 -1</clus>
<clus scale="  129.376">  2  5  1 -1</clus>
<clus scale="   31.667">  1  5  2 -1</clus>
</clustering>
</event>
<event>
10    4  0.3403565E-005  0.1866142E+03  0.7546771E-02  0.1179174E+00
          2   -1    0    0  503    0 -0.00000000000E+00  0.00000000000E+00  0.19313034446E+04  0.19313034446E+04  0.00000000000E+00 0. -1.
         21   -1    0    0  501  502  0.00000000000E+00 -0.00000000000E+00 -0.11947425097E+03  0.11947425097E+03  0.00000000000E+00 0. -1.
         23    2    1    2    0    0  0.93637288355E+02 -0.32761586329E+02  0.43687857056E+02  0.14088836697E+03  0.89997998775E+02 0.  0.
         24    2    1    2    0    0  0.16148988179E+03  0.12994283597E+02  0.42622963067E+03  0.46241353820E+03  0.76855376694E+02 0.  0.
        -11    1    4    4    0    0  0.91714337778E+02 -0.27747553491E+02  0.19088312354E+03  0.21358327025E+03  0.00000000000E+00 0.  1.
         12    1    4    4    0    0  0.69775544016E+02  0.40741837088E+02  0.23534650713E+03  0.24883026795E+03  0.00000000000E+00 0. -1.
        -13    1    3    3    0    0  0.82039868191E+02 -0.55572903460E+02  0.11481655813E+02  0.99753275595E+02  0.00000000000E+00 0. -1.
         13    1    3    3    0    0  0.11597420164E+02  0.22811317132E+02  0.32206201243E+02  0.41135091373E+02  0.00000000000E+00 0.  1.
         21    1    1    2  503  502 -0.32591824505E+02 -0.21460522605E+02 -0.34799532149E+02  0.52285643276E+02  0.00000000000E+00 0. -1.
          1    1    1    2  501    0 -0.22253534564E+03  0.41227825336E+02  0.13767112381E+04  0.13951901471E+04  0.00000000000E+00 0. -1.
<scales pt_clust_5="13000.00000" pt_clust_6="13000.00000" pt_clust_7="13000.00000" pt_clust_8="13000.00000" pt_clust_9="39.02283" pt_clust_10="170.05336"></scales>
<clustering>
<clus scale="   39.023">  2  9  1 -1</clus>
<clus scale="   76.855">  5  6 -1 -1</clus>
<clus scale="   89.998">  7  8 -1 -1</clus>
<clus scale="  124.732">  1  7  2 -1</clus>
<clus scale="  170.053">  2 10  1 -1</clus>
<clus scale="   39.023">  2  5  1 -1</clus>
</clustering>
</event>
<event>
10    4  0.3403565E-005  0.1245533E+03  0.7546771E-02  0.1252978E+00
          2   -1    0    0  502    0 -0.00000000000E+00  0.00000000000E+00  0.43674416620E+03  0.43674416620E+03  0.00000000000E+00 0. -1.
         21   -1    0    0  503  502  0.00000000000E+00 -0.00000000000E+00 -0.29874279824E+03  0.29874279824E+03  0.00000000000E+00 0. -1.
         24    2    1    2    0    0  0.28324745096E+02 -0.24928606851E+02  0.16470450473E+03  0.18637157158E+03  0.78632449991E+02 0.  0.
         23    2    1    2    0    0  0.32955179867E+02 -0.43435713815E+02  0.57179796047E+02  0.12006192574E+03  0.90402609593E+02 0.  0.
        -13    1    3    3    0    0 -0.87979631662E+01  0.22593097647E+02  0.70176661874E+02  0.74246993804E+02  0.00000000000E+00 0.  1.
         14    1    3    3    0    0  0.37122708262E+02 -0.47521704497E+02  0.94527842859E+02  0.11212457778E+03  0.00000000000E+00 0. -1.
        -13    1    4    4    0    0  0.30873187789E+01 -0.40715357000E+02  0.74842051368E+02  0.85256111135E+02  0.00000000000E+00 0.  1.
         13    1    4    4    0    0  0.29867861088E+02 -0.27203568149E+01 -0.17662255320E+02  0.34805814603E+02  0.00000000000E+00 0. -1.
         21    1    1    2  503  501 -0.40173503897E+02 -0.48727002830E+02 -0.23121204524E+03  0.23968154097E+03  0.00000000000E+00 0. -1.
          1    1    1    2  501    0 -0.21106421066E+02  0.11709132350E+03  0.14732911241E+03  0.18937192615E+03  0.00000000000E+00 0. -1.
<scales pt_clust_5="13000.00000" pt_clust_6="13000.00000" pt_clust_7="13000.00000" pt_clust_8="13000.00000" pt_clust_9="63.15244" pt_clust_10="85.67909"></scales>
<clustering>
<clus scale="   63.152">  2  9  1 -1</clus>
<clus scale="   78.632">  5  6 -1 -1</clus>
<clus scale="   88.034">  1  5  2 -1</clus>
<clus scale="   85.679">  2 10  1 -1</clus>
<clus scale="   90.403">  7  8 -1 -1</clus>
<clus scale="   63.152">  2  5  1 -1</clus>
</clustering>
</event>
<event>
10    4  0.3403565E-005  0.2396661E+03  0.7546771E-02  0.1120638E+00
          2   -1    0    0  503    0 -0.00000000000E+00  0.00000000000E+00  0.12439368384E+04  0.12439368384E+04  0.00000000000E+00 0. -1.
         21   -1    0    0  501  502  0.00000000000E+00 -0.00000000000E+00 -0.13255241272E+03  0.13255241272E+03  0.00000000000E+00 0.  1.
         24    2    1    2    0    0  0.17092209210E+03 -0.12398428643E+03  0.80819552416E+03  0.83941395881E+03  0.82760643581E+02 0.  0.
         23    2    1    2    0    0 -0.22140425077E+03  0.11950384307E+03  0.34317407394E+03  0.43552232770E+03  0.92791390397E+02 0.  0.
        -13    1    3    3    0    0  0.13276039513E+03 -0.61650891709E+02  0.43029594697E+03  0.45451155864E+03  0.00000000000E+00 0.  1.
         14    1    3    3    0    0  0.38161696972E+02 -0.62333394724E+02  0.37789957719E+03  0.38490240017E+03  0.00000000000E+00 0. -1.
        -13    1    4    4    0    0 -0.22557515532E+03  0.97882832137E+02  0.31984294572E+03  0.40344108547E+03  0.00000000000E+00 0.  1.
         13    1    4    4    0    0  0.41709045440E+01  0.21621010937E+02  0.23331128220E+02  0.32081242225E+02  0.00000000000E+00 0. -1.
         21    1    1    2  503  502  0.15850447658E+02 -0.33744194153E+02 -0.32449700505E+02  0.49425604628E+02  0.00000000000E+00 0. -1.
          1    1    1    2  501    0  0.34631711014E+02  0.38224637512E+02 -0.75354719204E+01  0.52127359973E+02  0.00000000000E+00 0. -1.
<scales pt_clust_5="13000.00000" pt_clust_6="13000.00000" pt_clust_7="13000.00000" pt_clust_8="13000.00000" pt_clust_9="37.28146" pt_clust_10="48.22162"></scales>
<clustering>
<clus scale="   37.281">  2  9  1 -1</clus>
<clus scale="   48.222">  2 10  1 -1</clus>
<clus scale="   82.761">  5  6 -1 -1</clus>
<clus scale="   92.791">  7  8 -1 -1</clus>
<clus scale="  235.964">  1  5  2 -1</clus>
<clus scale="   37.281">  2  5  1 -1</clus>
</clustering>
</event>
<event>
10    4  0.3403565E-005  0.2650754E+03  0.7546771E-02  0.1104679E+00
         21   -1    0    0  501  502  0.00000000000E+00  0.00000000000E+00  0.26882583303E+03  0.26882583303E+03  0.00000000000E+00 0.  1.
          2   -1    0    0  503    0 -0.00000000000E+00 -0.00000000000E+00 -0.16657261770E+04  0.16657261770E+04  0.00000000000E+00 0. -1.
         24    2    1    2    0    0  0.17877301449E+03 -0.18370941825E+03 -0.10828597104E+04  0.11156292320E+04  0.79589508040E+02 0.  0.
         23    2    1    2    0    0 -0.13433788443E+03  0.17305832042E+03 -0.13573410130E+03  0.27332608214E+03  0.91035989933E+02 0.  0.
        -13    1    3    3    0    0  0.13422585687E+03 -0.87668023799E+02 -0.58024806312E+03  0.60198843661E+03  0.00000000000E+00 0.  1.
         14    1    3    3    0    0  0.44547157619E+02 -0.96041394447E+02 -0.50261164725E+03  0.51364079535E+03  0.00000000000E+00 0. -1.
        -13    1    4    4    0    0 -0.17006271745E+02  0.49706819221E+02 -0.77045040913E+02  0.93251914109E+02  0.00000000000E+00 0. -1.
         13    1    4    4    0    0 -0.11733161268E+03  0.12335150120E+03 -0.58689060384E+02  0.18007416803E+03  0.00000000000E+00 0.  1.
         21    1    1    2  503  502  0.86258267728E+02 -0.62231535420E+02  0.15052787467E+03  0.18431465976E+03  0.00000000000E+00 0.  1.
          1    1    1    2  501    0 -0.13069339779E+03  0.72882633247E+02 -0.32883440698E+03  0.36128203618E+03  0.00000000000E+00 0. -1.
<scales pt_clust_5="13000.00000" pt_clust_6="13000.00000" pt_clust_7="13000.00000" pt_clust_8="13000.00000" pt_clust_9="106.36378" pt_clust_10="132.75412"></scales>
<clustering>
<clus scale="   79.590">  5  6 -1 -1</clus>
<clus scale="   91.036">  7  8 -1 -1</clus>
<clus scale="  106.364">  1  9  2 -1</clus>
<clus scale="  132.754">  1 10  2 -1</clus>
<clus scale="  261.365">  2  5  1 -1</clus>
<clus scale="  106.364">  1  5  2 -1</clus>
</clustering>
</event>
<event>
10    4  0.3403565E-005  0.1867083E+03  0.7546771E-02  0.1162941E+00
         21   -1    0    0  503  502  0.00000000000E+00  0.00000000000E+00  0.45216310500E+02  0.45216310500E+02  0.00000000000E+00 0. -1.
          2   -1    0    0  502    0 -0.00000000000E+00 -0.00000000000E+00 -0.15181308952E+04  0.15181308952E+04  0.00000000000E+00 0. -1.
         24    2    1    2    0    0  0.41643929417E+02  0.17644205737E+03 -0.72208253877E+03  0.74873510817E+03  0.79593045867E+02 0.  0.
         23    2    1    2    0    0 -0.10513263659E+03 -0.10587171125E+03 -0.40152067513E+03  0.43831949890E+03  0.92970102929E+02 0.  0.
        -11    1    3    3    0    0  0.61308366021E+02  0.10718722706E+03 -0.39627048245E+03  0.41506398621E+03  0.00000000000E+00 0.  1.
         12    1    3    3    0    0 -0.19664436604E+02  0.69254830305E+02 -0.32581205632E+03  0.33367112196E+03  0.00000000000E+00 0. -1.
        -11    1    4    4    0    0 -0.59409824219E+01 -0.31733848435E+02 -0.19392175486E+03  0.19659089352E+03  0.00000000000E+00 0.  1.
         11    1    4    4    0    0 -0.99191654167E+02 -0.74137862811E+02 -0.20759892027E+03  0.24172860538E+03  0.00000000000E+00 0. -1.
         21    1    1    2  503  501 -0.94787217433E+01 -0.43024428209E+02 -0.48446701605E+02  0.65483054946E+02  0.00000000000E+00 0. -1.
          1    1    1    2  501    0  0.72967428915E+02 -0.27545917910E+02 -0.30086466924E+03  0.31080954373E+03  0.00000000000E+00 0. -1.
<scales pt_clust_5="13000.00000" pt_clust_6="13000.00000" pt_clust_7="13000.00000" pt_clust_8="13000.00000" pt_clust_9="44.05619" pt_clust_10="79.07212"></scales>
<clustering>
<clus scale="   44.056">  1  9  2 -1</clus>
<clus scale="   79.072">  1 10  2 -1</clus>
<clus scale="   79.593">  5  6 -1 -1</clus>
<clus scale="   92.970">  7  8 -1 -1</clus>
<clus scale="  180.421">  2  5  1 -1</clus>
<clus scale="   44.056">  1  5  2 -1</clus>
</clustering>
</event>
<event>
10    4  0.3403565E-005  0.1500478E+03  0.7546771E-02  0.1202584E+00
         21   -1    0    0  501  502  0.00000000000E+00  0.00000000000E+00  0.10529932521E+03  0.10529932521E+03  0.00000000000E+00 0. -1.
          2   -1    0    0  503    0 -0.00000000000E+00 -0.00000000000E+00 -0.11898433082E+04  0.11898433082E+04  0.00000000000E+00 0. -1.
         24    2    1    2    0    0  0.17685047088E+01 -0.14409705657E+03 -0.49266578227E+03  0.51949965149E+03  0.79957648544E+02 0.  0.
         23    2    1    2    0    0 -0.73308358082E+02  0.63776328934E+02 -0.15849553052E+03  0.20730528399E+03  0.91723018271E+02 0.  0.
        -13    1    3    3    0    0  0.35325775325E+02 -0.85987178240E+02 -0.34495218606E+03  0.35725861206E+03  0.00000000000E+00 0.  1.
         14    1    3    3    0    0 -0.33557270617E+02 -0.58109878330E+02 -0.14771359621E+03  0.16224103943E+03  0.00000000000E+00 0. -1.
        -13    1    4    4    0    0 -0.56278351381E+02  0.18872422007E+01 -0.30317197368E+02  0.63952693247E+02  0.00000000000E+00 0. -1.
         13    1    4    4    0    0 -0.17030006701E+02  0.61889086733E+02 -0.12817833315E+03  0.14335259075E+03  0.00000000000E+00 0.  1.
         21    1    1    2  503  502  0.21816963277E+02  0.74521102920E+01  0.61486772900E+02  0.65666864369E+02  0.00000000000E+00 0. -1.
          1    1    1    2  501    0  0.49722890096E+02  0.72868617344E+02 -0.49486944311E+03  0.50267083357E+03  0.00000000000E+00 0. -1.
<scales pt_clust_5="13000.00000" pt_clust_6="13000.00000" pt_clust_7="13000.00000" pt_clust_8="13000.00000" pt_clust_9="23.05458" pt_clust_10="89.95127"></scales>
<clustering>
<clus scale="   23.055">  1  9  2 -1</clus>
<clus scale="   79.958">  5  6 -1 -1</clus>
<clus scale="   89.951">  1 10  2 -1</clus>
<clus scale="   91.723">  7  8 -1 -1</clus>
<clus scale="  143.159">  2  5  1 -1</clus>
<clus scale="   23.055">  1  5  2 -1</clus>
</clustering>
</event>
<event>
10    4  0.3403565E-005  0.9158838E+02  0.7546771E-02  0.1306550E+00
          2   -1    0    0  502    0 -0.00000000000E+00  0.00000000000E+00  0.87483323111E+03  0.87483323111E+03  0.00000000000E+00 0. -1.
         21   -1    0    0  503  502  0.00000000000E+00 -0.00000000000E+00 -0.43722390685E+02  0.43722390685E+02  0.00000000000E+00 0.  1.
         24    2    1    2    0    0 -0.14658551601E+01  0.11132713702E+02  0.57850232700E+03  0.58407984249E+03  0.79738535261E+02 0.  0.
         23    2    1    2    0    0 -0.32926362427E+02  0.62696640900E+02  0.16253792692E+03  0.19952606544E+03  0.91526274809E+02 0.  0.
        -13    1    3    3    0    0  0.19290471602E+02 -0.26786194275E+02  0.16123421658E+03  0.16457853777E+03  0.00000000000E+00 0.  1.
         14    1    3    3    0    0 -0.20756326763E+02  0.37918907977E+02  0.41726811042E+03  0.41950130472E+03  0.00000000000E+00 0. -1.
        -13    1    4    4    0    0  0.31502378287E+02  0.12755086204E+02  0.53548959261E+02  0.63423836999E+02  0.00000000000E+00 0. -1.
         13    1    4    4    0    0 -0.64428740715E+02  0.49941554696E+02  0.10898896766E+03  0.13610222844E+03  0.00000000000E+00 0.  1.
         21    1    1    2  503  501  0.31423760065E+02 -0.15756635700E+02  0.11067113651E+02  0.36853836568E+02  0.00000000000E+00 0.  1.
          1    1    1    2  501    0  0.29684575229E+01 -0.58072718902E+02  0.79003472853E+02  0.98095877302E+02  0.00000000000E+00 0. -1.
<scales pt_clust_5="13000.00000" pt_clust_6="13000.00000" pt_clust_7="13000.00000" pt_clust_8="13000.00000" pt_clust_9="35.15287" pt_clust_10="64.21981"></scales>
<clustering>
<clus scale="   35.153">  2  9  1 -1</clus>
<clus scale="   64.220">  2 10  1 -1</clus>
<clus scale="   79.739">  5  6 -1 -1</clus>
<clus scale="   79.810">  1  5  2 -1</clus>
<clus scale="   91.526">  7  8 -1 -1</clus>
<clus scale="   35.153">  2  5  1 -1</clus>
</clustering>
</event>
<event>
10    4  0.3403565E-005  0.1552653E+03  0.7546771E-02  0.1194795E+00
         21   -1    0    0  503  502  0.00000000000E+00  0.00000000000E+00  0.41242972020E+03  0.41242972020E+03  0.00000000000E+00 0.  1.
         -1   -1    0    0    0  501 -0.00000000000E+00 -0.00000000000E+00 -0.18370406330E+03  0.18370406330E+03  0.00000000000E+00 0.  1.
         24    2    1    2    0    0 -0.25143263903E+02 -0.15450963045E+03 -0.64514858604E+02  0.18783207355E+03  0.81322267875E+02 0.  0.
         23    2    1    2    0    0 -0.78676368564E+02  0.61841933853E+02  0.14261032209E+03  0.19400893994E+03  0.85366088442E+02 0.  0.
        -11    1    3    3    0    0 -0.51685866845E+02 -0.99275882299E+02 -0.58407892804E+02  0.12624821416E+03  0.00000000000E+00 0.  1.
         12    1    3    3    0    0  0.26542602942E+02 -0.55233748152E+02 -0.61069657994E+01  0.61583859388E+02  0.00000000000E+00 0. -1.
        -11    1    4    4    0    0 -0.78995310229E+02  0.18522851304E+02  0.12076928799E+03  0.14549424724E+03  0.00000000000E+00 0.  1.
         11    1    4    4    0    0  0.31894166559E+00  0.43319082549E+02  0.21841034096E+02  0.48514692693E+02  0.00000000000E+00 0. -1.
         21    1    1    2  503  501 -0.33791163240E+01  0.20058298413E+02  0.85418144209E+01  0.22061648985E+02  0.00000000000E+00 0. -1.
         -2    1    1    2    0  502  0.10719874879E+03  0.72609398186E+02  0.14208837899E+03  0.19223112102E+03  0.00000000000E+00 0.  1.
<scales pt_clust_5="13000.00000" pt_clust_6="13000.00000" pt_clust_7="13000.00000" pt_clust_8="13000.00000" pt_clust_9="20.34094" pt_clust_10="133.25965"></scales>
<clustering>
<clus scale="   20.341">  1  9  2 -1</clus>
<clus scale="   81.322">  5  6 -1 -1</clus>
<clus scale="   85.366">  7  8 -1 -1</clus>
<clus scale="  133.260">  1 10  2 -1</clus>
<clus scale="  153.079">  2  5  1 -1</clus>
<clus scale="   20.341">  1  5  2 -1</clus>
</clustering>
</event>
<event>
10    4  0.3403565E-005  0.1342114E+03  0.7546771E-02  0.1224813E+00
          2   -1    0    0  502    0 -0.00000000000E+00  0.00000000000E+00  0.25104261823E+03  0.25104261823E+03  0.00000000000E+00 0. -1.
         21   -1    0    0  503  502  0.00000000000E+00 -0.00000000000E+00 -0.23616903256E+03  0.23616903256E+03  0.00000000000E+00 0. -1.
         24    2    1    2    0    0 -0.66228070777E+01  0.13449703858E+03  0.11983695342E+03  0.19655292203E+03  0.78350754896E+02 0.  0.
         23    2    1    2    0    0  0.55783777111E+02 -0.24485982063E+02 -0.18996663585E+02  0.11245219449E+03  0.92591736735E+02 0.  0.
        -11    1    3    3    0    0 -0.19522225223E+02  0.83036009304E+02  0.26727262945E+02  0.89389276221E+02  0.00000000000E+00 0.  1.
         12    1    3    3    0    0  0.12899418145E+02  0.51461029274E+02  0.93109690471E+02  0.10716364580E+03  0.00000000000E+00 0. -1.
        -11    1    4    4    0    0  0.60890561630E+02 -0.49400587510E+02  0.35138647367E+01  0.78488379950E+02  0.00000000000E+00 0.  1.
         11    1    4    4    0    0 -0.51067845182E+01  0.24914605447E+02 -0.22510528322E+02  0.33963814539E+02  0.00000000000E+00 0. -1.
         21    1    1    2  503  501 -0.58609925761E+02 -0.22684669350E+02 -0.13371034706E+02  0.64253421623E+02  0.00000000000E+00 0.  1.
          1    1    1    2  501    0  0.94489557270E+01 -0.87326387165E+02 -0.72595669457E+02  0.11395311265E+03  0.00000000000E+00 0. -1.
<scales pt_clust_5="13000.00000" pt_clust_6="13000.00000" pt_clust_7="13000.00000" pt_clust_8="13000.00000" pt_clust_9="62.84678" pt_clust_10="99.73180"></scales>
<clustering>
<clus scale="   62.847">  2  9  1 -1</clus>
<clus scale="   78.351">  5  6 -1 -1</clus>
<clus scale="   92.592">  7  8 -1 -1</clus>
<clus scale="   99.732">  2 10  1 -1</clus>
<clus scale="  124.813">  1  5  2 -1</clus>
<clus scale="   62.847">  2  5  1 -1</clus>
</clustering>
</event>
<event>
10    4  0.3403565E-005  0.1392495E+03  0.7546771E-02  0.1239119E+00
          2   -1    0    0  503    0 -0.00000000000E+00  0.00000000000E+00  0.34636713215E+03  0.34636713215E+03  0.00000000000E+00 0. -1.
         21   -1    0    0  501  502  0.00000000000E+00 -0.00000000000E+00 -0.11049532233E+03  0.11049532233E+03  0.00000000000E+00 0. -1.
         24    2    1    2    0    0 -0.28259186953E+01  0.21881825154E+02  0.80214695920E+02  0.11595101683E+03  0.80767820163E+02 0.  0.
         23    2    1    2    0    0  0.49581083097E+02 -0.95969013524E+02  0.86219180083E+02  0.16380760633E+03  0.87925249622E+02 0.  0.
        -13    1    3    3    0    0 -0.15045197780E+02  0.45840867260E+02  0.24559242871E+02  0.54137782535E+02  0.00000000000E+00 0.  1.
         14    1    3    3    0    0  0.12219279084E+02 -0.23959042106E+02  0.55655453048E+02  0.61813234295E+02  0.00000000000E+00 0. -1.
        -11    1    4    4    0    0 -0.16791682202E+02 -0.51294740113E+02  0.57344185872E+02  0.78749391159E+02  0.00000000000E+00 0.  1.
         11    1    4    4    0    0  0.66372765300E+02 -0.44674273410E+02  0.28874994211E+02  0.85058215176E+02  0.00000000000E+00 0. -1.
         21    1    1    2  503  502  0.22905216452E+02 -0.83605199327E+01 -0.24095135970E+02  0.34280064347E+02  0.00000000000E+00 0. -1.
          1    1    1    2  501    0 -0.69660380854E+02  0.82447708302E+02  0.93533069793E+02  0.14282376696E+03  0.00000000000E+00 0. -1.
<scales pt_clust_5="13000.00000" pt_clust_6="13000.00000" pt_clust_7="13000.00000" pt_clust_8="13000.00000" pt_clust_9="24.38334" pt_clust_10="107.97947"></scales>
<clustering>
<clus scale="   24.383">  2  9  1 -1</clus>
<clus scale="   80.768">  5  6 -1 -1</clus>
<clus scale="   83.247">  1  5  2 -1</clus>
<clus scale="   87.925">  7  8 -1 -1</clus>
<clus scale="  107.979">  2 10  1 -1</clus>
<clus scale="   24.383">  2  5  1 -1</clus>
</clustering>
</event>
<event>
10    4  0.3403565E-005  0.1277246E+03  0.7546771E-02  0.1241231E+00
         21   -1    0    0  501  502  0.00000000000E+00  0.00000000000E+00  0.25578524234E+03  0.25578524234E+03  0.00000000000E+00 0. -1.
          2   -1    0    0  503    0 -0.00000000000E+00 -0.00000000000E+00 -0.10483270361E+04  0.10483270361E+04  0.00000000000E+00 0. -1.
         24    2    1    2    0    0  0.55846277637E+00 -0.62285297154E+02 -0.50474791796E+03  0.51536561759E+03  0.83375589857E+02 0.  0.
         23    2    1    2    0    0 -0.28266778373E+02 -0.67089194226E+02 -0.12724907240E+03  0.17329884801E+03  0.92413167648E+02 0.  0.
        -11    1    3    3    0    0 -0.23062314200E+02 -0.73648389865E+02 -0.34937591939E+03  0.35779811167E+03  0.00000000000E+00 0.  1.
         12    1    3    3    0    0  0.23620776977E+02  0.11363092711E+02 -0.15537199857E+03  0.15756750592E+03  0.00000000000E+00 0. -1.
        -13    1    4    4    0    0 -0.44103217543E+02 -0.33149497330E+01 -0.22441817666E+02  0.49595542839E+02  0.00000000000E+00 0. -1.
         13    1    4    4    0    0  0.15836439170E+02 -0.63774244493E+02 -0.10480725473E+03  0.12370330517E+03  0.00000000000E+00 0.  1.
         21    1    1    2  503  502  0.46248236724E+02  0.71258815870E+02  0.21698476943E+03  0.23302169085E+03  0.00000000000E+00 0. -1.
          1    1    1    2  501    0 -0.18539921128E+02  0.58115675509E+02 -0.37752957282E+03  0.38242612198E+03  0.00000000000E+00 0. -1.
<scales pt_clust_5="13000.00000" pt_clust_6="13000.00000" pt_clust_7="13000.00000" pt_clust_8="13000.00000" pt_clust_9="88.16676" pt_clust_10="61.00135"></scales>
<clustering>
<clus scale="   61.001">  1 10  2 -1</clus>
<clus scale="   83.376">  5  6 -1 -1</clus>
<clus scale="   92.413">  7  8 -1 -1</clus>
<clus scale="  103.348">  2  5  1 -1</clus>
<clus scale="   88.167">  1  9  2 -1</clus>
<clus scale="   61.001">  1  5  2 -1</clus>
</clustering>
</event>
<event>
10    4  0.3403565E-005  0.1104598E+03  0.7546771E-02  0.1264354E+00
         21   -1    0    0  501  502  0.00000000000E+00  0.00000000000E+00  0.36505881071E+02  0.36505881071E+02  0.00000000000E+00 0.  1.
          2   -1    0    0  503    0 -0.00000000000E+00 -0.00000000000E+00 -0.58065227559E+03  0.58065227559E+03  0.00000000000E+00 0. -1.
         23    2    1    2    0    0  0.47113284568E+02 -0.46332455668E+02 -0.28171411597E+03  0.30337122679E+03  0.91131224486E+02 0.  0.
         24    2    1    2    0    0 -0.57101934048E+02  0.19825777343E+02 -0.13051689385E+03  0.16421883908E+03  0.79243139828E+02 0.  0.
        -13    1    4    4    0    0 -0.60659953143E+02 -0.16651356892E+02 -0.78689650539E+02  0.10074204040E+03  0.00000000000E+00 0.  1.
         14    1    4    4    0    0  0.35580190955E+01  0.36477134235E+02 -0.51827243314E+02  0.63476798686E+02  0.00000000000E+00 0. -1.
        -13    1    3    3    0    0  0.53344907241E+02  0.11060448452E+02 -0.12473639560E+03  0.13611458789E+03  0.00000000000E+00 0.  1.
         13    1    3    3    0    0 -0.62316226722E+01 -0.57392904121E+02 -0.15697772036E+03  0.16725663890E+03  0.00000000000E+00 0. -1.
         21    1    1    2  503  502  0.19599077685E+02 -0.89709081559E+01 -0.13159783248E+02  0.25254325063E+02  0.00000000000E+00 0.  1.
          1    1    1    2  501    0 -0.96104282060E+01  0.35477586482E+02 -0.11875560145E+03  0.12431376572E+03  0.00000000000E+00 0. -1.
<scales pt_clust_5="13000.00000" pt_clust_6="13000.00000" pt_clust_7="13000.00000" pt_clust_8="13000.00000" pt_clust_9="21.55461" pt_clust_10="35.53082"></scales>
<clustering>
<clus scale="   21.555">  1  9  2 -1</clus>
<clus scale="   35.531">  1 10  2 -1</clus>
<clus scale="   79.243">  5  6 -1 -1</clus>
<clus scale="   91.131">  7  8 -1 -1</clus>
<clus scale="  100.876">  1  5  2 -1</clus>
<clus scale="   21.555">  1  5  2 -1</clus>
</clustering>
</event>
<event>
10    4  0.3403565E-005  0.9947499E+02  0.7546771E-02  0.1284377E+00
         21   -1    0    0  501  502  0.00000000000E+00  0.00000000000E+00  0.16768450255E+03  0.16768450255E+03  0.00000000000E+00 0.  1.
         -1   -1    0    0    0  501 -0.00000000000E+00 -0.00000000000E+00 -0.47001535569E+03  0.47001535569E+03  0.00000000000E+00 0.  1.
         24    2    1    2    0    0  0.53889185713E+02  0.11632173819E+01 -0.35935300660E+03  0.37207839664E+03  0.80014701682E+02 0.  0.
         23    2    1    2    0    0  0.39843194859E+02 -0.10905576106E+02  0.10690441241E+03  0.14349754260E+03  0.86351488534E+02 0.  0.
        -11    1    3    3    0    0  0.64245584680E+02  0.40079381836E+01 -0.16038089420E+03  0.17281663677E+03  0.00000000000E+00 0.  1.
         12    1    3    3    0    0 -0.10356398967E+02 -0.28447208016E+01 -0.19897211240E+03  0.19926175987E+03  0.00000000000E+00 0. -1.
        -11    1    4    4    0    0  0.25970282430E+02 -0.48731495029E+02  0.57032570296E+02  0.79384685247E+02  0.00000000000E+00 0.  1.
         11    1    4    4    0    0  0.13872912430E+02  0.37825918924E+02  0.49871842119E+02  0.64112857354E+02  0.00000000000E+00 0. -1.
         21    1    1    2  503  502 -0.34805971329E+02 -0.83528619564E+01  0.89674347456E+01  0.36900417734E+02  0.00000000000E+00 0.  1.
         -2    1    1    2    0  503 -0.58926409244E+02  0.18095220680E+02 -0.58849693712E+02  0.85223501265E+02  0.00000000000E+00 0.  1.
<scales pt_clust_5="13000.00000" pt_clust_6="13000.00000" pt_clust_7="13000.00000" pt_clust_8="13000.00000" pt_clust_9="35.79422" pt_clust_10="64.47132"></scales>
<clustering>
<clus scale="   35.794">  1  9  2 -1</clus>
<clus scale="   64.471">  1 10  2 -1</clus>
<clus scale="   80.015">  5  6 -1 -1</clus>
<clus scale="   86.351">  7  8 -1 -1</clus>
<clus scale="   94.027">  2  5  1 -1</clus>
<clus scale="   35.794">  1  5  2 -1</clus>
</clustering>
</event>
<event>
10    4  0.3403565E-005  0.1008325E+03  0.7546771E-02  0.1284830E+00
          2   -1    0    0  502    0 -0.00000000000E+00  0.00000000000E+00  0.23621532885E+03  0.23621532885E+03  0.00000000000E+00 0. -1.
         21   -1    0    0  503  502  0.00000000000E+00 -0.00000000000E+00 -0.62108059957E+03  0.62108059957E+03  0.00000000000E+00 0. -1.
         24    2    1    2    0    0 -0.75609282621E+01 -0.49330527640E+02  0.14897641404E+03  0.17614573763E+03  0.79640946454E+02 0.  0.
         23    2    1    2    0    0 -0.60757065260E+00 -0.10558931161E+02 -0.49290086000E+02  0.10506621428E+03  0.92182084137E+02 0.  0.
        -11    1    3    3    0    0  0.10300108576E+02  0.19475872994E+02  0.25786678657E+02  0.33916878715E+02  0.00000000000E+00 0.  1.
         12    1    3    3    0    0 -0.17861036838E+02 -0.68806400634E+02  0.12318973539E+03  0.14222885892E+03  0.00000000000E+00 0. -1.
        -11    1    4    4    0    0  0.36234251443E+02  0.17096381380E+02 -0.36694142561E+01  0.40232720949E+02  0.00000000000E+00 0. -1.
         11    1    4    4    0    0 -0.36841822096E+02 -0.27655312542E+02 -0.45620671744E+02  0.64833493331E+02  0.00000000000E+00 0.  1.
         21    1    1    2  503  501  0.40911196417E+02 -0.67241073024E+02 -0.42447618407E+03  0.43171184688E+03  0.00000000000E+00 0. -1.
          1    1    1    2  501    0 -0.32742697503E+02  0.12713053183E+03 -0.60075414684E+02  0.14437212962E+03  0.00000000000E+00 0. -1.
<scales pt_clust_5="13000.00000" pt_clust_6="13000.00000" pt_clust_7="13000.00000" pt_clust_8="13000.00000" pt_clust_9="78.70888" pt_clust_10="92.18075"></scales>
<clustering>
<clus scale="   78.709">  2  9  1 -1</clus>
<clus scale="   79.641">  5  6 -1 -1</clus>
<clus scale="   92.181">  2 10  1 -1</clus>
<clus scale="   89.512">  1  5  2 -1</clus>
<clus scale="   92.182">  7  8 -1 -1</clus>
<clus scale="   78.709">  2  5  1 -1</clus>
</clustering>
</event>
<event>
10    4  0.3403565E-005  0.9429898E+02  0.7546771E-02  0.1295520E+00
         21   -1    0    0  501  502  0.00000000000E+00  0.00000000000E+00  0.23039730483E+03  0.23039730483E+03  0.00000000000E+00 0. -1.
          2   -1    0    0  503    0 -0.00000000000E+00 -0.00000000000E+00 -0.39178737219E+03  0.39178737219E+03  0.00000000000E+00 0. -1.
         23    2    1    2    0    0 -0.39493629179E+02 -0.42210699086E+02 -0.13243053045E+03  0.16939912923E+03  0.88412271350E+02 0.  0.
         24    2    1    2    0    0 -0.16699314169E+02  0.12980587479E+02 -0.55565931851E+02  0.10239444085E+03  0.83364776667E+02 0.  0.
        -11    1    4    4    0    0  0.20883959206E+02  0.68569840341E+00 -0.59108255846E+02  0.62692869160E+02  0.00000000000E+00 0.  1.
         12    1    4    4    0    0 -0.37583273375E+02  0.12294889076E+02  0.35423239953E+01  0.39701571685E+02  0.00000000000E+00 0. -1.
        -13    1    3    3    0    0  0.22288148871E+02 -0.20809640362E+02 -0.12806725452E+02  0.33072873007E+02  0.00000000000E+00 0. -1.
         13    1    3    3    0    0 -0.61781778050E+02 -0.21401058724E+02 -0.11962380499E+03  0.13632625622E+03  0.00000000000E+00 0.  1.
         21    1    1    2  503  502  0.21288481440E+02 -0.90432282461E+01  0.18361110344E+03  0.18506219691E+03  0.00000000000E+00 0. -1.
          1    1    1    2  501    0  0.34904461909E+02  0.38273339853E+02 -0.15700470850E+03  0.16532891004E+03  0.00000000000E+00 0. -1.
<scales pt_clust_5="13000.00000" pt_clust_6="13000.00000" pt_clust_7="13000.00000" pt_clust_8="13000.00000" pt_clust_9="23.12962" pt_clust_10="52.52884"></scales>
<clustering>
<clus scale="   23.130">  1  9  2 -1</clus>
<clus scale="   52.529">  1 10  2 -1</clus>
<clus scale="   83.365">  5  6 -1 -1</clus>
<clus scale="   88.412">  7  8 -1 -1</clus>
<clus scale="   89.584">  1  5  2 -1</clus>
<clus scale="   23.130">  1  5  2 -1</clus>
</clustering>
</event>
<event>
10    4  0.6587690E-005  0.1188170E+03  0.7546771E-02  0.1249293E+00
          2   -1    0    0  503    0 -0.00000000000E+00  0.00000000000E+00  0.11416168807E+04  0.11416168807E+04  0.00000000000E+00 0. -1.
         21   -1    0    0  501  502  0.00000000000E+00 -0.00000000000E+00 -0.35270924251E+03  0.35270924251E+03  0.00000000000E+00 0.  1.
         24    2    1    2    0    0  0.70206771105E+02 -0.32750411693E+02  0.41065774173E+03  0.42551188924E+03  0.80118704854E+02 0.  0.
         23    2    1    2    0    0  0.14059738918E+02  0.12654007498E+03  0.14202740854E+03  0.21214718002E+03  0.92868586603E+02 0.  0.
        -13    1    3    3    0    0 -0.16837726730E+02 -0.15111647895E+02  0.81166189100E+02  0.84260436722E+02  0.00000000000E+00 0.  1.
         14    1    3    3    0    0  0.87044497836E+02 -0.17638763798E+02  0.32949155263E+03  0.34125145252E+03  0.00000000000E+00 0. -1.
        -13    1    4    4    0    0  0.16004627368E+02  0.76219207859E+02  0.14180948057E+03  0.16178827066E+03  0.00000000000E+00 0. -1.
         13    1    4    4    0    0 -0.19448884495E+01  0.50320867124E+02  0.21792797234E+00  0.50358909359E+02  0.00000000000E+00 0.  1.
         21    1    1    2  503  502 -0.65580071724E+02 -0.24088223416E+02 -0.30385831347E+03  0.31178656639E+03  0.00000000000E+00 0.  1.
          1    1    1    2  501    0 -0.18686438299E+02 -0.69701439874E+02  0.54008080144E+03  0.54488048761E+03  0.00000000000E+00 0. -1.
<scales pt_clust_5="13000.00000" pt_clust_6="13000.00000" pt_clust_7="13000.00000" pt_clust_8="13000.00000" pt_clust_9="69.86407" pt_clust_10="74.37741"></scales>
<clustering>
<clus scale="   69.864">  2  9  1 -1</clus>
<clus scale="   74.377">  2 10  1 -1</clus>
<clus scale="   80.119">  5  6 -1 -1</clus>
<clus scale="   92.869">  7  8 -1 -1</clus>
<clus scale="  109.142">  1  5  2 -1</clus>
<clus scale="   69.864">  2  5  1 -1</clus>
</clustering>
</event>
<event>
10    4  0.3403565E-005  0.9649551E+02  0.7546771E-02  0.1297044E+00
         21   -1    0    0  503  502  0.00000000000E+00  0.00000000000E+00  0.15204595054E+03  0.15204595054E+03  0.00000000000E+00 0. -1.
         -1   -1    0    0    0  501 -0.00000000000E+00 -0.00000000000E+00 -0.30046415229E+03  0.30046415229E+03  0.00000000000E+00 0.  1.
         23    2    1    2    0    0 -0.21165660414E+02 -0.38944217821E+00 -0.18257443588E+03  0.20557364410E+03  0.92081277484E+02 0.  0.
         24    2    1    2    0    0  0.52894469231E+02 -0.38581179864E+02 -0.14157610827E+02  0.10129064351E+03  0.75980419869E+02 0.  0.
        -13    1    4    4    0    0  0.47486409621E+02 -0.27722271319E+02 -0.43128519019E+02  0.69882419667E+02  0.00000000000E+00 0.  1.
         14    1    4    4    0    0  0.54080596096E+01 -0.10858908545E+02  0.28970908192E+02  0.31408223843E+02  0.00000000000E+00 0. -1.
        -13    1    3    3    0    0 -0.46083257165E+02  0.28121189198E+02 -0.13017076519E+03  0.14092159516E+03  0.00000000000E+00 0.  1.
         13    1    3    3    0    0  0.24917596751E+02 -0.28510631377E+02 -0.52403670697E+02  0.64652048938E+02  0.00000000000E+00 0. -1.
         21    1    1    2  503  501  0.28208033781E+02 -0.13694325496E+02  0.57335809277E+02  0.65350001883E+02  0.00000000000E+00 0. -1.
         -2    1    1    2    0  502 -0.59936842598E+02  0.52664947538E+02 -0.90219643104E+01  0.80295813339E+02  0.00000000000E+00 0.  1.
<scales pt_clust_5="13000.00000" pt_clust_6="13000.00000" pt_clust_7="13000.00000" pt_clust_8="13000.00000" pt_clust_9="31.35646" pt_clust_10="67.98924"></scales>
<clustering>
<clus scale="   31.356">  1  9  2 -1</clus>
<clus scale="   67.989">  1 10  2 -1</clus>
<clus scale="   75.980">  5  6 -1 -1</clus>
<clus scale="   81.274">  1  5  2 -1</clus>
<clus scale="   92.081">  7  8 -1 -1</clus>
<clus scale="   31.356">  1  5  2 -1</clus>
</clustering>
</event>
<event>
10    4  0.3403565E-005  0.1605917E+03  0.7546771E-02  0.1192343E+00
         21   -1    0    0  503  502  0.00000000000E+00  0.00000000000E+00  0.45816478222E+03  0.45816478222E+03  0.00000000000E+00 0.  1.
         -3   -1    0    0    0  501 -0.00000000000E+00 -0.00000000000E+00 -0.31979636714E+03  0.31979636714E+03  0.00000000000E+00 0.  1.
         23    2    1    2    0    0  0.28532504484E+02  0.12583577616E+03 -0.26994291140E+03  0.31663711039E+03  0.10363946106E+03 0.  0.
         24    2    1    2    0    0 -0.33456673814E+02 -0.60506594049E+02  0.19266148787E+03  0.21946851884E+03  0.79168080110E+02 0.  0.
        -11    1    4    4    0    0 -0.38215389911E+02 -0.77781463444E+02  0.15070140870E+03  0.17384270668E+03  0.00000000000E+00 0.  1.
         12    1    4    4    0    0  0.47587160972E+01  0.17274869395E+02  0.41960079166E+02  0.45625812159E+02  0.00000000000E+00 0. -1.
        -11    1    3    3    0    0 -0.25344425982E+02  0.38605144101E+01 -0.83992309142E+02  0.87817717432E+02  0.00000000000E+00 0. -1.
         11    1    3    3    0    0  0.53876930466E+02  0.12197526175E+03 -0.18595060225E+03  0.22881939296E+03  0.00000000000E+00 0.  1.
         21    1    1    2  503  501 -0.13210352412E+02  0.18819283292E+02  0.37269993409E+02  0.43791908422E+02  0.00000000000E+00 0.  1.
         -4    1    1    2    0  502  0.18134521742E+02 -0.84148465403E+02  0.17837984520E+03  0.19806361171E+03  0.00000000000E+00 0.  1.
<scales pt_clust_5="13000.00000" pt_clust_6="13000.00000" pt_clust_7="13000.00000" pt_clust_8="13000.00000" pt_clust_9="22.99302" pt_clust_10="76.64104"></scales>
<clustering>
<clus scale="   22.993">  1  9  2 -1</clus>
<clus scale="   76.641">  1 10  2 -1</clus>
<clus scale="   79.168">  5  6 -1 -1</clus>
<clus scale="  103.639">  7  8 -1 -1</clus>
<clus scale="  146.000">  1  5  2 -1</clus>
<clus scale="   22.993">  1  5  2 -1</clus>
</clustering>
</event>
<event>
10    4  0.3403565E-005  0.2075342E+03  0.7546771E-02  0.1153261E+00
         21   -1    0    0  503  502  0.00000000000E+00  0.00000000000E+00  0.15803514717E+03  0.15803514717E+03  0.00000000000E+00 0. -1.
          2   -1    0    0  502    0 -0.00000000000E+00 -0.00000000000E+00 -0.78388107896E+03  0.78388107896E+03  0.00000000000E+00 0. -1.
         23    2    1    2    0    0  0.13520410198E+03 -0.25035181873E+02 -0.37143803804E+03  0.40631759083E+03  0.90668952717E+02 0.  0.
         24    2    1    2    0    0  0.14375846985E+03  0.59966065188E+02 -0.52353016517E+02  0.18290092459E+03  0.80308674805E+02 0.  0.
        -11    1    4    4    0    0  0.44503090770E+02 -0.19936103798E+01 -0.48466625620E+02  0.65829426319E+02  0.00000000000E+00 0.  1.
         12    1    4    4    0    0  0.99255379083E+02  0.61959675568E+02 -0.38863908968E+01  0.11707149827E+03  0.00000000000E+00 0. -1.
        -13    1    3    3    0    0  0.15522194819E+02  0.15234084276E+02 -0.10943888594E+02  0.24347167254E+02  0.00000000000E+00 0.  1.
         13    1    3    3    0    0  0.11968190716E+03 -0.40269266149E+02 -0.36049414945E+03  0.38197042357E+03  0.00000000000E+00 0. -1.
         21    1    1    2  503  501 -0.32371548565E+02 -0.79791527140E+01 -0.94028425669E+00  0.33353682991E+02  0.00000000000E+00 0.  1.
          1    1    1    2  501    0 -0.24659102327E+03 -0.26951730601E+02 -0.20111459297E+03  0.31934402772E+03  0.00000000000E+00 0. -1.
<scales pt_clust_5="13000.00000" pt_clust_6="13000.00000" pt_clust_7="13000.00000" pt_clust_8="13000.00000" pt_clust_9="24.67285" pt_clust_10="202.85515"></scales>
<clustering>
<clus scale="   24.673">  9 10 -1 -1</clus>
<clus scale="   80.309">  5  6 -1 -1</clus>
<clus scale="   90.669">  7  8 -1 -1</clus>
<clus scale="  164.705">  2  7  1 -1</clus>
<clus scale="  202.855">  1  9  2 -1</clus>
<clus scale="  202.855">  1  5  2 -1</clus>
</clustering>
</event>
<event>
10    4  0.3403565E-005  0.1353333E+03  0.7546771E-02  0.1238978E+00
          2   -1    0    0  502    0 -0.00000000000E+00  0.00000000000E+00  0.23213141892E+03  0.23213141892E+03  0.00000000000E+00 0. -1.
         21   -1    0    0  503  502  0.00000000000E+00 -0.00000000000E+00 -0.22746038271E+03  0.22746038271E+03  0.00000000000E+00 0. -1.
         24    2    1    2    0    0  0.11714931667E+02 -0.39832762763E+02 -0.50720970989E+02  0.10413246193E+03  0.80913930296E+02 0.  0.
         23    2    1    2    0    0 -0.81308986690E+02  0.10763709368E+03  0.14772508985E+03  0.21937536566E+03  0.90033069682E+02 0.  0.
        -13    1    3    3    0    0 -0.31372831861E+02 -0.28072352366E+02 -0.40279142705E+02  0.58264233312E+02  0.00000000000E+00 0.  1.
         14    1    3    3    0    0  0.43087763528E+02 -0.11760410397E+02 -0.10441828284E+02  0.45868228617E+02  0.00000000000E+00 0. -1.
        -11    1    4    4    0    0 -0.22109573004E+02 -0.14301278925E+02  0.19277637824E+02  0.32634140365E+02  0.00000000000E+00 0.  1.
         11    1    4    4    0    0 -0.59199413686E+02  0.12193837260E+03  0.12844745202E+03  0.18674122529E+03  0.00000000000E+00 0. -1.
         21    1    1    2  503  501  0.30994175380E+02 -0.32992730169E+02 -0.58882459206E+02  0.74271819377E+02  0.00000000000E+00 0. -1.
          1    1    1    2  501    0  0.38599879643E+02 -0.34811600744E+02 -0.33450623441E+02  0.61812154657E+02  0.00000000000E+00 0. -1.
<scales pt_clust_5="13000.00000" pt_clust_6="13000.00000" pt_clust_7="13000.00000" pt_clust_8="13000.00000" pt_clust_9="21.93924" pt_clust_10="103.73934"></scales>
<clustering>
<clus scale="   21.939">  9 10 -1 -1</clus>
<clus scale="   80.914">  5  6 -1 -1</clus>
<clus scale="   90.033">  7  8 -1 -1</clus>
<clus scale="   90.945">  1  5  2 -1</clus>
<clus scale="  103.739">  2  9  1 -1</clus>
<clus scale="  103.739">  2  5  1 -1</clus>
</clustering>
</event>
<event>
10    4  0.3403565E-005  0.9654572E+02  0.7546771E-02  0.1292114E+00
          4   -1    0    0  503    0 -0.00000000000E+00  0.00000000000E+00  0.26166950799E+03  0.26166950799E+03  0.00000000000E+00 0. -1.
         21   -1    0    0  501  502  0.00000000000E+00 -0.00000000000E+00 -0.17720649476E+03  0.17720649476E+03  0.00000000000E+00 0. -1.
         24    2    1    2    0    0  0.10645598894E+02  0.38480966802E+02  0.66710358932E+02  0.11379119871E+03  0.83090621206E+02 0.  0.
         23    2    1    2    0    0 -0.67349373341E+02  0.39821041845E+02 -0.57189492092E+02  0.13306916383E+03  0.91187229879E+02 0.  0.
        -13    1    3    3    0    0 -0.25867948152E+02  0.35953582709E+02  0.62987368656E+02  0.77001425061E+02  0.00000000000E+00 0.  1.
         14    1    3    3    0    0  0.36513547047E+02  0.25273840927E+01  0.37229902762E+01  0.36789773645E+02  0.00000000000E+00 0. -1.
        -13    1    4    4    0    0 -0.59575797449E+02  0.67247952378E+02 -0.33095563726E+02  0.95743820056E+02  0.00000000000E+00 0. -1.
         13    1    4    4    0    0 -0.77735758926E+01 -0.27426910533E+02 -0.24093928366E+02  0.37325343771E+02  0.00000000000E+00 0.  1.
         21    1    1    2  503  502  0.11784563634E+02 -0.61333826740E+02 -0.35320502245E+02  0.71751321392E+02  0.00000000000E+00 0. -1.
          3    1    1    2  501    0  0.44919210813E+02 -0.16968181907E+02  0.11026264864E+03  0.12026431882E+03  0.00000000000E+00 0. -1.
<scales pt_clust_5="13000.00000" pt_clust_6="13000.00000" pt_clust_7="13000.00000" pt_clust_8="13000.00000" pt_clust_9="71.41271" pt_clust_10="48.01726"></scales>
<clustering>
<clus scale="   48.017">  2 10  1 -1</clus>
<clus scale="   71.413">  2  9  1 -1</clus>
<clus scale="   83.091">  5  6 -1 -1</clus>
<clus scale="   88.938">  1  5  2 -1</clus>
<clus scale="   91.187">  7  8 -1 -1</clus>
<clus scale="   48.017">  2  5  1 -1</clus>
</clustering>
</event>
<event>
10    4  0.3403565E-005  0.9118741E+02  0.7546771E-02  0.1306785E+00
          2   -1    0    0  503    0 -0.00000000000E+00  0.00000000000E+00  0.19040777436E+03  0.19040777436E+03  0.00000000000E+00 0. -1.
         21   -1    0    0  501  502  0.00000000000E+00 -0.00000000000E+00 -0.76726515073E+03  0.76726515073E+03  0.00000000000E+00 0.  1.
         24    2    1    2    0    0 -0.46218964602E+00  0.30147549634E+01  0.15650084487E+03  0.17599522170E+03  0.80451856720E+02 0.  0.
         23    2    1    2    0    0  0.34039739852E+02  0.53676668517E+01 -0.17672260362E+03  0.20179771507E+03  0.91125865945E+02 0.  0.
        -11    1    3    3    0    0  0.31245061085E+02 -0.20375735824E+02  0.49577271665E+02  0.62042971547E+02  0.00000000000E+00 0.  1.
         12    1    3    3    0    0 -0.31707250731E+02  0.23390490788E+02  0.10692357321E+03  0.11395225015E+03  0.00000000000E+00 0. -1.
        -11    1    4    4    0    0  0.39146055781E+02  0.42412099776E+02 -0.84981443676E+02  0.10272801789E+03  0.00000000000E+00 0.  1.
         11    1    4    4    0    0 -0.51063159289E+01 -0.37044432924E+02 -0.91741159939E+02  0.99069697183E+02  0.00000000000E+00 0. -1.
         21    1    1    2  503  502  0.59822731041E+02  0.22006064462E+02 -0.19570666271E+03  0.20582546939E+03  0.00000000000E+00 0.  1.
          1    1    1    2  501    0 -0.93400281247E+02 -0.30388486277E+02 -0.36092895492E+03  0.37405451893E+03  0.00000000000E+00 0. -1.
<scales pt_clust_5="13000.00000" pt_clust_6="13000.00000" pt_clust_7="13000.00000" pt_clust_8="13000.00000" pt_clust_9="63.74187" pt_clust_10="56.92110"></scales>
<clustering>
<clus scale="   63.742">  2  9  1 -1</clus>
<clus scale="   56.921">  2 10  1 -1</clus>
<clus scale="   80.452">  5  6 -1 -1</clus>
<clus scale="   80.522">  1  5  2 -1</clus>
<clus scale="   91.126">  7  8 -1 -1</clus>
<clus scale="   63.742">  2  5  1 -1</clus>
</clustering>
</event>
<event>
10    4  0.3403565E-005  0.1228198E+03  0.7546771E-02  0.1246397E+00
         21   -1    0    0  503  502  0.00000000000E+00  0.00000000000E+00  0.35486651962E+02  0.35486651962E+02  0.00000000000E+00 0. -1.
          2   -1    0    0  502    0 -0.00000000000E+00 -0.00000000000E+00 -0.10900474122E+04  0.10900474122E+04  0.00000000000E+00 0. -1.
         24    2    1    2    0    0  0.38014017329E+02 -0.52533505127E+02 -0.34916773972E+03  0.36172706987E+03  0.68727926973E+02 0.  0.
         23    2    1    2    0    0 -0.13882798731E+03  0.25012209963E+02 -0.39651906746E+03  0.43123952764E+03  0.94028392692E+02 0.  0.
        -13    1    3    3    0    0  0.41301532245E+02 -0.25672555169E+02 -0.10110181058E+03  0.11218945029E+03  0.00000000000E+00 0.  1.
         14    1    3    3    0    0 -0.32875149154E+01 -0.26860949958E+02 -0.24806592914E+03  0.24953761958E+03  0.00000000000E+00 0. -1.
        -13    1    4    4    0    0 -0.10234359583E+03 -0.27087934872E+02 -0.25308336361E+03  0.27433402407E+03  0.00000000000E+00 0.  1.
         13    1    4    4    0    0 -0.36484391481E+02  0.52100144835E+02 -0.14343570385E+03  0.15690550358E+03  0.00000000000E+00 0. -1.
         21    1    1    2  503  501  0.28540330155E+02 -0.13696757983E+02 -0.39403568525E+02  0.50544958573E+02  0.00000000000E+00 0. -1.
          1    1    1    2  501    0  0.72273639828E+02  0.41218053147E+02 -0.26947038455E+03  0.28202250809E+03  0.00000000000E+00 0. -1.
<scales pt_clust_5="13000.00000" pt_clust_6="13000.00000" pt_clust_7="13000.00000" pt_clust_8="13000.00000" pt_clust_9="31.65678" pt_clust_10="87.14998"></scales>
<clustering>
<clus scale="   31.657">  1  9  2 -1</clus>
<clus scale="   68.728">  5  6 -1 -1</clus>
<clus scale="   87.150">  1 10  2 -1</clus>
<clus scale="   94.028">  7  8 -1 -1</clus>
<clus scale="  104.723">  2  5  1 -1</clus>
<clus scale="   31.657">  1  5  2 -1</clus>
</clustering>
</event>
<event>
10    4  0.3403565E-005  0.3299622E+03  0.7546771E-02  0.1107630E+00
         21   -1    0    0  503  502  0.00000000000E+00  0.00000000000E+00  0.41327934720E+03  0.41327934720E+03  0.00000000000E+00 0. -1.
          2   -1    0    0  502    0 -0.00000000000E+00 -0.00000000000E+00 -0.85422119677E+03  0.85422119677E+03  0.00000000000E+00 0. -1.
         24    2    1    2    0    0 -0.31229180250E+02  0.92247730437E+02  0.27203273110E+02  0.12910927723E+03  0.80276284981E+02 0.  0.
         23    2    1    2    0    0  0.12158835039E+03 -0.30113586171E+03  0.68018969021E+02  0.34407322638E+03  0.91067397091E+02 0.  0.
        -11    1    3    3    0    0 -0.49695446907E+02  0.27622947067E+02  0.69905964377E+00  0.56860824232E+02  0.00000000000E+00 0.  1.
         12    1    3    3    0    0  0.18466266656E+02  0.64624783370E+02  0.26504213466E+02  0.72248453003E+02  0.00000000000E+00 0. -1.
        -13    1    4    4    0    0  0.93228906243E+02 -0.13268941783E+03  0.57773159770E+01  0.16226979985E+03  0.00000000000E+00 0.  1.
         13    1    4    4    0    0  0.28359444146E+02 -0.16844644387E+03  0.62241653044E+02  0.18180342653E+03  0.00000000000E+00 0. -1.
         21    1    1    2  503  501 -0.79071781250E+02 -0.40779695918E+02  0.86058216794E+02  0.12377942829E+03  0.00000000000E+00 0. -1.
          1    1    1    2  501    0 -0.11287388890E+02  0.24966782719E+03 -0.62222230850E+03  0.67053861207E+03  0.00000000000E+00 0. -1.
<scales pt_clust_5="13000.00000" pt_clust_6="13000.00000" pt_clust_7="13000.00000" pt_clust_8="13000.00000" pt_clust_9="88.96814" pt_clust_10="317.14646"></scales>
<clustering>
<clus scale="   80.276">  5  6 -1 -1</clus>
<clus scale="   88.968">  1  9  2 -1</clus>
<clus scale="   91.067">  7  8 -1 -1</clus>
<clus scale="  125.628">  2  5  1 -1</clus>
<clus scale="  317.146">  1 10  2 -1</clus>
<clus scale="   88.968">  1  5  2 -1</clus>
</clustering>
</event>
<event>
10    4  0.3403565E-005  0.1021513E+03  0.7546771E-02  0.1280146E+00
         -1   -1    0    0    0  501 -0.00000000000E+00  0.00000000000E+00  0.31801244564E+03  0.31801244564E+03  0.00000000000E+00 0.  1.
         21   -1    0    0  501  502  0.00000000000E+00 -0.00000000000E+00 -0.94723753507E+02  0.94723753507E+02  0.00000000000E+00 0.  1.
         24    2    1    2    0    0 -0.44557333829E+02 -0.49891866410E-01  0.14544836080E+02  0.95323302175E+02  0.83003742048E+02 0.  0.
         23    2    1    2    0    0  0.42477387540E+02  0.16908797159E+02  0.79844324282E+01  0.10308734849E+03  0.92048978183E+02 0.  0.
        -13    1    3    3    0    0 -0.32805198625E+02  0.17200321014E+02 -0.28994300193E+02  0.47039361640E+02  0.00000000000E+00 0.  1.
         14    1    3    3    0    0 -0.11752135204E+02 -0.17250212880E+02  0.43539136272E+02  0.48283940535E+02  0.00000000000E+00 0. -1.
        -13    1    4    4    0    0 -0.70560556789E+01  0.24348622555E+02  0.37263213977E+02  0.45068730378E+02  0.00000000000E+00 0. -1.
         13    1    4    4    0    0  0.49533443219E+02 -0.74398253959E+01 -0.29278781548E+02  0.58018618115E+02  0.00000000000E+00 0.  1.
         21    1    1    2  503  502  0.20054575957E+02  0.21620701758E+01  0.11406289909E+02  0.23172483979E+02  0.00000000000E+00 0.  1.
         -2    1    1    2    0  503 -0.17974629668E+02 -0.19020975468E+02  0.18935313372E+03  0.19115306450E+03  0.00000000000E+00 0.  1.
<scales pt_clust_5="13000.00000" pt_clust_6="13000.00000" pt_clust_7="13000.00000" pt_clust_8="13000.00000" pt_clust_9="20.17078" pt_clust_10="26.01520"></scales>
<clustering>
<clus scale="   20.171">  2  9  1 -1</clus>
<clus scale="   26.015">  2 10  1 -1</clus>
<clus scale="   83.004">  5  6 -1 -1</clus>
<clus scale="   92.049">  7  8 -1 -1</clus>
<clus scale="   94.082">  1  5  2 -1</clus>
<clus scale="   20.171">  2  5  1 -1</clus>
</clustering>
</event>
<event>
10    4  0.3403565E-005  0.9419159E+02  0.7546771E-02  0.1294301E+00
         -1   -1    0    0    0  501 -0.00000000000E+00  0.00000000000E+00  0.41509678562E+03  0.41509678562E+03  0.00000000000E+00 0.  1.
         21   -1    0    0  503  502  0.00000000000E+00 -0.00000000000E+00 -0.88962285793E+02  0.88962285793E+02  0.00000000000E+00 0.  1.
         24    2    1    2    0    0  0.19846277859E+02  0.44574312704E+02  0.13675887613E+03  0.16981856045E+03  0.88060258782E+02 0.  0.
         23    2    1    2    0    0  0.37654651138E+02  0.13910523774E+02 -0.14568627665E+02  0.99977337097E+02  0.90398272091E+02 0.  0.
        -11    1    3    3    0    0  0.27019800941E+02 -0.94911269570E+01  0.10007000146E+03  0.10408725343E+03  0.00000000000E+00 0.  1.
         12    1    3    3    0    0 -0.71735230817E+01  0.54065439661E+02  0.36688874671E+02  0.65731307029E+02  0.00000000000E+00 0. -1.
        -11    1    4    4    0    0  0.58040228694E+02 -0.16301307619E+02  0.11235805517E+01  0.60296461009E+02  0.00000000000E+00 0.  1.
         11    1    4    4    0    0 -0.20385577556E+02  0.30211831393E+02 -0.15692208217E+02  0.39680876088E+02  0.00000000000E+00 0. -1.
         21    1    1    2  503  501  0.16675471949E+02 -0.23437007206E+02  0.28046495501E+02  0.40174252717E+02  0.00000000000E+00 0.  1.
         -2    1    1    2    0  502 -0.74176400946E+02 -0.35047829272E+02  0.17589775586E+03  0.19408892115E+03  0.00000000000E+00 0.  1.
<scales pt_clust_5="13000.00000" pt_clust_6="13000.00000" pt_clust_7="13000.00000" pt_clust_8="13000.00000" pt_clust_9="28.76395" pt_clust_10="80.75922"></scales>
<clustering>
<clus scale="   28.764">  1  9  2 -1</clus>
<clus scale="   80.759">  2 10  1 -1</clus>
<clus scale="   88.060">  5  6 -1 -1</clus>
<clus scale="   90.398">  7  8 -1 -1</clus>
<clus scale="   91.950">  1  5  2 -1</clus>
<clus scale="   80.759">  2  5  1 -1</clus>
</clustering>
</event>
<event>
10    4  0.3403565E-005  0.1707303E+03  0.7546771E-02  0.1206892E+00
          2   -1    0    0  502    0 -0.00000000000E+00  0.00000000000E+00  0.12640895446E+04  0.12640895446E+04  0.00000000000E+00 0. -1.
         21   -1    0    0  503  502  0.00000000000E+00 -0.00000000000E+00 -0.39981929064E+02  0.39981929064E+02  0.00000000000E+00 0. -1.
         24    2    1    2    0    0 -0.30369361093E+02 -0.14308559291E+02  0.18772294310E+03  0.20700903870E+03  0.80534500526E+02 0.  0.
         23    2    1    2    0    0  0.13843361422E+03  0.96496284064E+02  0.59315676412E+03  0.62283267519E+03  0.87236437775E+02 0.  0.
        -11    1    3    3    0    0  0.81877448054E+01 -0.31121330271E+02  0.30793470041E+02  0.44540028738E+02  0.00000000000E+00 0.  1.
         12    1    3    3    0    0 -0.38557105898E+02  0.16812770980E+02  0.15692947306E+03  0.16246900996E+03  0.00000000000E+00 0. -1.
        -11    1    4    4    0    0  0.35241743384E+02 -0.25825334683E+01  0.50493667981E+02  0.61630028899E+02  0.00000000000E+00 0.  1.
         11    1    4    4    0    0  0.10319187083E+03  0.99078817532E+02  0.54266309614E+03  0.56120264629E+03  0.00000000000E+00 0. -1.
         21    1    1    2  503  501 -0.17829362466E+02  0.14007848356E+02  0.17801458888E+02  0.28827034535E+02  0.00000000000E+00 0. -1.
          1    1    1    2  501    0 -0.90234890660E+02 -0.96195573130E+02  0.42542644948E+03  0.44540272529E+03  0.00000000000E+00 0. -1.
<scales pt_clust_5="13000.00000" pt_clust_6="13000.00000" pt_clust_7="13000.00000" pt_clust_8="13000.00000" pt_clust_9="22.67391" pt_clust_10="146.76053"></scales>
<clustering>
<clus scale="   22.674">  2  9  1 -1</clus>
<clus scale="   80.535">  5  6 -1 -1</clus>
<clus scale="   87.236">  7  8 -1 -1</clus>
<clus scale="   88.566">  1  5  2 -1</clus>
<clus scale="  146.761">  2 10  1 -1</clus>
<clus scale="   22.674">  2  5  1 -1</clus>
</clustering>
</event>
<event>
10    4  0.3403565E-005  0.3171518E+03  0.7546771E-02  0.1076968E+00
          2   -1    0    0  503    0 -0.00000000000E+00  0.00000000000E+00  0.11750521837E+04  0.11750521837E+04  0.00000000000E+00 0. -1.
         21   -1    0    0  501  502  0.00000000000E+00 -0.00000000000E+00 -0.13979273162E+03  0.13979273162E+03  0.00000000000E+00 0. -1.
         24    2    1    2    0    0 -0.27363047801E+02  0.10997508244E+03  0.13040431794E+03  0.19009735031E+03  0.79299819130E+02 0.  0.
         23    2    1    2    0    0 -0.12995401372E+03  0.69181532656E+02  0.22883255961E+03  0.28695200573E+03  0.91120706257E+02 0.  0.
        -13    1    3    3    0    0  0.14175829070E+02  0.66399089432E+02  0.32760065743E+02  0.75385775281E+02  0.00000000000E+00 0.  1.
         14    1    3    3    0    0 -0.41538876870E+02  0.43575993011E+02  0.97644252195E+02  0.11471157503E+03  0.00000000000E+00 0. -1.
        -13    1    4    4    0    0 -0.52276694771E+02  0.47988917929E+02  0.17827249470E+03  0.19187723009E+03  0.00000000000E+00 0.  1.
         13    1    4    4    0    0 -0.77677318951E+02  0.21192614727E+02  0.50560064911E+02  0.95074775636E+02  0.00000000000E+00 0. -1.
         21    1    1    2  503  502 -0.33944030120E+02 -0.25895933851E+02 -0.53358612868E+02  0.68336945629E+02  0.00000000000E+00 0. -1.
          1    1    1    2  501    0  0.19126109164E+03 -0.15326068125E+03  0.72938118737E+03  0.76945861362E+03  0.00000000000E+00 0. -1.
<scales pt_clust_5="13000.00000" pt_clust_6="13000.00000" pt_clust_7="13000.00000" pt_clust_8="13000.00000" pt_clust_9="42.69422" pt_clust_10="242.70586"></scales>
<clustering>
<clus scale="   42.694">  2  9  1 -1</clus>
<clus scale="   79.300">  5  6 -1 -1</clus>
<clus scale="   91.121">  7  8 -1 -1</clus>
<clus scale="  130.863">  5  7 -1 -1</clus>
<clus scale="  242.706">  2 10  1 -1</clus>
<clus scale="   42.694">  2  5  1 -1</clus>
</clustering>
</event>
<event>
10    4  0.3403565E-005  0.2159347E+03  0.7546771E-02  0.1178537E+00
          2   -1    0    0  502    0 -0.00000000000E+00  0.00000000000E+00  0.32917419699E+03  0.32917419699E+03  0.00000000000E+00 0. -1.
         21   -1    0    0  503  502  0.00000000000E+00 -0.00000000000E+00 -0.27137109904E+03  0.27137109904E+03  0.00000000000E+00 0. -1.
         24    2    1    2    0    0 -0.48466332928E+01 -0.61574803236E+01  0.43369236272E+02  0.92505046144E+02  0.81331964744E+02 0.  0.
         23    2    1    2    0    0 -0.21282645311E+03 -0.74245939348E+02  0.12054129522E+02  0.24922398609E+03  0.10563964478E+03 0.  0.
        -11    1    3    3    0    0 -0.22495200387E+02  0.14405774842E+02  0.56422701301E+02  0.62426609802E+02  0.00000000000E+00 0.  1.
         12    1    3    3    0    0  0.17648567094E+02 -0.20563255166E+02 -0.13053465030E+02  0.30078436342E+02  0.00000000000E+00 0. -1.
        -11    1    4    4    0    0 -0.12862223526E+03 -0.84712647749E+02 -0.26064829430E+02  0.15620271261E+03  0.00000000000E+00 0. -1.
         11    1    4    4    0    0 -0.84204217853E+02  0.10466708401E+02  0.38118958952E+02  0.93021273484E+02  0.00000000000E+00 0.  1.
         21    1    1    2  503  501  0.70752862927E+02 -0.35476239884E+01 -0.43958866079E+02  0.83372268503E+02  0.00000000000E+00 0. -1.
          1    1    1    2  501    0  0.14692022348E+03  0.83951043660E+02  0.46338598240E+02  0.17544399530E+03  0.00000000000E+00 0. -1.
<scales pt_clust_5="13000.00000" pt_clust_6="13000.00000" pt_clust_7="13000.00000" pt_clust_8="13000.00000" pt_clust_9="70.84175" pt_clust_10="188.32977"></scales>
<clustering>
<clus scale="   70.842">  2  9  1 -1</clus>
<clus scale="   81.332">  5  6 -1 -1</clus>
<clus scale="   81.673">  1  5  2 -1</clus>
<clus scale="  105.640">  7  8 -1 -1</clus>
<clus scale="  188.330">  2 10  1 -1</clus>
<clus scale="   70.842">  2  5  1 -1</clus>
</clustering>
</event>
<event>
10    4  0.3403565E-005  0.1817010E+03  0.7546771E-02  0.1168074E+00
         21   -1    0    0  503  502  0.00000000000E+00  0.00000000000E+00  0.14049889708E+03  0.14049889708E+03  0.00000000000E+00 0. -1.
          2   -1    0    0  502    0 -0.00000000000E+00 -0.00000000000E+00 -0.71045185422E+03  0.71045185422E+03  0.00000000000E+00 0. -1.
         23    2    1    2    0    0  0.95627940156E+02 -0.75271549425E+01 -0.24255319427E+02  0.13387604878E+03  0.90183784105E+02 0.  0.
         24    2    1    2    0    0 -0.23682711919E+03 -0.66237594999E+01 -0.15044690261E+03  0.29004544774E+03  0.73219756074E+02 0.  0.
        -11    1    4    4    0    0 -0.87454799078E+02 -0.30796847963E+02 -0.32706131362E+02  0.98318252399E+02  0.00000000000E+00 0.  1.
         12    1    4    4    0    0 -0.14937232011E+03  0.24173088463E+02 -0.11774077125E+03  0.19172719535E+03  0.00000000000E+00 0. -1.
        -13    1    3    3    0    0 -0.40313341303E+01  0.25990485179E+02 -0.18180784537E+01  0.26364035805E+02  0.00000000000E+00 0.  1.
         13    1    3    3    0    0  0.99659274286E+02 -0.33517640121E+02 -0.22437240973E+02  0.10751201297E+03  0.00000000000E+00 0. -1.
         21    1    1    2  503  501  0.25036073723E+02 -0.55632606993E+01 -0.16794921252E+02  0.30656552920E+02  0.00000000000E+00 0. -1.
          1    1    1    2  501    0  0.11616310531E+03  0.19714175142E+02 -0.37845581386E+03  0.39637270186E+03  0.00000000000E+00 0. -1.
<scales pt_clust_5="13000.00000" pt_clust_6="13000.00000" pt_clust_7="13000.00000" pt_clust_8="13000.00000" pt_clust_9="25.64673" pt_clust_10="119.41898"></scales>
<clustering>
<clus scale="   25.647">  1  9  2 -1</clus>
<clus scale="   73.220">  5  6 -1 -1</clus>
<clus scale="   90.184">  7  8 -1 -1</clus>
<clus scale="  119.419">  1 10  2 -1</clus>
<clus scale="  173.906">  1  5  2 -1</clus>
<clus scale="   25.647">  1  5  2 -1</clus>
</clustering>
</event>
<event>
10    4  0.3403565E-005  0.1966388E+03  0.7546771E-02  0.1182903E+00
          2   -1    0    0  503    0 -0.00000000000E+00  0.00000000000E+00  0.96657080121E+03  0.96657080121E+03  0.00000000000E+00 0. -1.
         21   -1    0    0  501  502  0.00000000000E+00 -0.00000000000E+00 -0.47327554808E+03  0.47327554808E+03  0.00000000000E+00 0.  1.
         24    2    1    2    0    0 -0.26320525993E+02  0.50168125892E+02  0.71439428764E+02  0.12131836195E+03  0.80030881663E+02 0.  0.
         23    2    1    2    0    0 -0.30775683590E+02 -0.18098155468E+03  0.44530906276E+03  0.48961374991E+03  0.87863512808E+02 0.  0.
        -11    1    3    3    0    0 -0.26053009966E+02 -0.12149232377E+02  0.45493961509E+02  0.53815088120E+02  0.00000000000E+00 0.  1.
         12    1    3    3    0    0 -0.26751602665E+00  0.62317358269E+02  0.25945467256E+02  0.67503273829E+02  0.00000000000E+00 0. -1.
        -13    1    4    4    0    0 -0.19611512807E+02 -0.11223018617E+02  0.15612875702E+02  0.27465059059E+02  0.00000000000E+00 0.  1.
         13    1    4    4    0    0 -0.11164170783E+02 -0.16975853607E+03  0.42969618706E+03  0.46214869085E+03  0.00000000000E+00 0. -1.
         21    1    1    2  503  502  0.96518052677E+02 -0.46398991356E+02 -0.39828557884E+03  0.41243181643E+03  0.00000000000E+00 0.  1.
          1    1    1    2  501    0 -0.39421843093E+02  0.17721242015E+03  0.37483234044E+03  0.41648242101E+03  0.00000000000E+00 0. -1.
<scales pt_clust_5="13000.00000" pt_clust_6="13000.00000" pt_clust_7="13000.00000" pt_clust_8="13000.00000" pt_clust_9="106.72242" pt_clust_10="175.91710"></scales>
<clustering>
<clus scale="   80.031">  5  6 -1 -1</clus>
<clus scale="   87.864">  7  8 -1 -1</clus>
<clus scale="   98.054">  1  5  2 -1</clus>
<clus scale="  106.722">  2  9  1 -1</clus>
<clus scale="  175.917">  2 10  1 -1</clus>
<clus scale="  106.722">  2  5  1 -1</clus>
</clustering>
</event>
<event>
10    4  0.3403565E-005  0.9261022E+02  0.7546771E-02  0.1300211E+00
         21   -1    0    0  503  502  0.00000000000E+00  0.00000000000E+00  0.96212414184E+02  0.96212414184E+02  0.00000000000E+00 0. -1.
          2   -1    0    0  502    0 -0.00000000000E+00 -0.00000000000E+00 -0.56515305690E+03  0.56515305690E+03  0.00000000000E+00 0. -1.
         24    2    1    2    0    0  0.28183031931E+02 -0.24743638309E+02 -0.23532406551E+03  0.25164650022E+03  0.80882719641E+02 0.  0.
         23    2    1    2    0    0 -0.35157877217E+02 -0.44156228921E+02 -0.21918644942E+03  0.24254489500E+03  0.87174982624E+02 0.  0.
        -13    1    3    3    0    0 -0.85196584914E+00  0.23777718407E+02 -0.27970693581E+02  0.36721457458E+02  0.00000000000E+00 0.  1.
         14    1    3    3    0    0  0.29034997780E+02 -0.48521356715E+02 -0.20735337193E+03  0.21492504276E+03  0.00000000000E+00 0. -1.
        -11    1    4    4    0    0 -0.55591205827E+00  0.22367730858E+02 -0.93936832020E+02  0.96564759782E+02  0.00000000000E+00 0.  1.
         11    1    4    4    0    0 -0.34601965159E+02 -0.66523959779E+02 -0.12524961740E+03  0.14598013521E+03  0.00000000000E+00 0. -1.
         21    1    1    2  503  501  0.29844817712E+02  0.12069273787E+02  0.61618212033E+02  0.69521108796E+02  0.00000000000E+00 0. -1.
          1    1    1    2  501    0 -0.22869972426E+02  0.56830593443E+02 -0.76048339811E+02  0.97652967071E+02  0.00000000000E+00 0. -1.
<scales pt_clust_5="13000.00000" pt_clust_6="13000.00000" pt_clust_7="13000.00000" pt_clust_8="13000.00000" pt_clust_9="32.19286" pt_clust_10="62.32103"></scales>
<clustering>
<clus scale="   32.193">  1  9  2 -1</clus>
<clus scale="   62.321">  1 10  2 -1</clus>
<clus scale="   80.883">  5  6 -1 -1</clus>
<clus scale="   86.713">  2  5  1 -1</clus>
<clus scale="   87.175">  7  8 -1 -1</clus>
<clus scale="   32.193">  1  5  2 -1</clus>
</clustering>
</event>
<event>
10    4  0.3403565E-005  0.1036539E+03  0.7546771E-02  0.1280897E+00
         21   -1    0    0  501  502  0.00000000000E+00  0.00000000000E+00  0.14434019704E+03  0.14434019704E+03  0.00000000000E+00 0.  1.
          2   -1    0    0  503    0 -0.00000000000E+00 -0.00000000000E+00 -0.25538799458E+03  0.25538799458E+03  0.00000000000E+00 0. -1.
         24    2    1    2    0    0 -0.88356847319E+01 -0.45469836156E+02 -0.12573302094E+03  0.15388201346E+03  0.75665753067E+02 0.  0.
         23    2    1    2    0    0  0.83667702331E+01  0.46489137371E+02  0.85136383302E+02  0.13441870291E+03  0.92676540676E+02 0.  0.
        -13    1    3    3    0    0 -0.35041474897E+02  0.56703757842E+00 -0.59703506430E+02  0.69229583088E+02  0.00000000000E+00 0.  1.
         14    1    3    3    0    0  0.26205790165E+02 -0.46036873734E+02 -0.66029514508E+02  0.84652430370E+02  0.00000000000E+00 0. -1.
        -13    1    4    4    0    0 -0.18197896849E+02 -0.12245836162E+02  0.62269935825E+02  0.66020215545E+02  0.00000000000E+00 0.  1.
         13    1    4    4    0    0  0.26564667082E+02  0.58734973533E+02  0.22866447477E+02  0.68398487361E+02  0.00000000000E+00 0. -1.
         21    1    1    2  503  502 -0.31741666732E+02  0.10006999480E+02 -0.11178572370E+00  0.33281916134E+02  0.00000000000E+00 0. -1.
          1    1    1    2  501    0  0.32210581231E+02 -0.11026300696E+02 -0.70339374180E+02  0.78145559121E+02  0.00000000000E+00 0. -1.
<scales pt_clust_5="13000.00000" pt_clust_6="13000.00000" pt_clust_7="13000.00000" pt_clust_8="13000.00000" pt_clust_9="33.28173" pt_clust_10="33.02910"></scales>
<clustering>
<clus scale="   33.282">  1  9  2 -1</clus>
<clus scale="   33.029">  1 10  2 -1</clus>
<clus scale="   75.666">  5  6 -1 -1</clus>
<clus scale="   88.772">  2  5  1 -1</clus>
<clus scale="   92.677">  7  8 -1 -1</clus>
<clus scale="   33.282">  1  5  2 -1</clus>
</clustering>
</event>
<event>
10    4  0.3403565E-005  0.1015984E+03  0.7546771E-02  0.1281254E+00
          2   -1    0    0  503    0 -0.00000000000E+00  0.00000000000E+00  0.28571792396E+03  0.28571792396E+03  0.00000000000E+00 0. -1.
         21   -1    0    0  501  502  0.00000000000E+00 -0.00000000000E+00 -0.16878712948E+03  0.16878712948E+03  0.00000000000E+00 0.  1.
         24    2    1    2    0    0 -0.40581425667E+02  0.31055036037E+02  0.20432176508E+03  0.22554010419E+03  0.80682634695E+02 0.  0.
         23    2    1    2    0    0  0.31455514711E+02  0.22601820293E+01 -0.35974283592E+02  0.10175222680E+03  0.89804280248E+02 0.  0.
        -13    1    3    3    0    0 -0.39520908299E+02 -0.19461563183E+02  0.11090686113E+03  0.11933560441E+03  0.00000000000E+00 0.  1.
         14    1    3    3    0    0 -0.10605173679E+01  0.50516599220E+02  0.93414903943E+02  0.10620449978E+03  0.00000000000E+00 0. -1.
        -11    1    4    4    0    0  0.51627817532E+02 -0.25940649240E+02 -0.10493982017E+02  0.58723696109E+02  0.00000000000E+00 0.  1.
         11    1    4    4    0    0 -0.20172302821E+02  0.28200831269E+02 -0.25480301575E+02  0.43028530694E+02  0.00000000000E+00 0. -1.
         21    1    1    2  503  502 -0.23176654769E+02  0.47476207734E+01 -0.70041698112E+02  0.73929268248E+02  0.00000000000E+00 0.  1.
          1    1    1    2  501    0  0.32302565725E+02 -0.38062838839E+02  0.18625011106E+02  0.53283454202E+02  0.00000000000E+00 0. -1.
<scales pt_clust_5="13000.00000" pt_clust_6="13000.00000" pt_clust_7="13000.00000" pt_clust_8="13000.00000" pt_clust_9="23.65792" pt_clust_10="46.66287"></scales>
<clustering>
<clus scale="   23.658">  2  9  1 -1</clus>
<clus scale="   46.663">  2 10  1 -1</clus>
<clus scale="   80.683">  5  6 -1 -1</clus>
<clus scale="   89.804">  7  8 -1 -1</clus>
<clus scale="   93.633">  1  5  2 -1</clus>
<clus scale="   23.658">  2  5  1 -1</clus>
</clustering>
</event>
<event>
10    4  0.3403565E-005  0.1860401E+03  0.7546771E-02  0.1190728E+00
         21   -1    0    0  503  502  0.00000000000E+00  0.00000000000E+00  0.26472879602E+03  0.26472879602E+03  0.00000000000E+00 0.  1.
         -3   -1    0    0    0  501 -0.00000000000E+00 -0.00000000000E+00 -0.57969769365E+03  0.57969769365E+03  0.00000000000E+00 0.  1.
         24    2    1    2    0    0 -0.87384552248E+02 -0.89157729434E+01 -0.63837450730E+02  0.12026629723E+03  0.51703105849E+02 0.  0.
         23    2    1    2    0    0  0.21405617244E+03 -0.63022690326E+02 -0.36542722197E+03  0.43756149758E+03  0.90172640814E+02 0.  0.
        -11    1    3    3    0    0 -0.58624994969E+02 -0.28561528566E+02 -0.52242173089E+02  0.83557738111E+02  0.00000000000E+00 0.  1.
         12    1    3    3    0    0 -0.28759557279E+02  0.19645755623E+02 -0.11595277641E+02  0.36708559117E+02  0.00000000000E+00 0. -1.
        -11    1    4    4    0    0  0.13306445036E+03 -0.48644624462E+02 -0.14700736759E+03  0.20416565226E+03  0.00000000000E+00 0.  1.
         11    1    4    4    0    0  0.80991722085E+02 -0.14378065864E+02 -0.21841985438E+03  0.23339584532E+03  0.00000000000E+00 0. -1.
         21    1    1    2  503  501  0.24985992315E+02  0.24260091095E+02  0.12255647803E+03  0.12740856383E+03  0.00000000000E+00 0.  1.
         -4    1    1    2    0  502 -0.15165761251E+03  0.47678372174E+02 -0.82607029598E+01  0.15919013103E+03  0.00000000000E+00 0.  1.
<scales pt_clust_5="13000.00000" pt_clust_6="13000.00000" pt_clust_7="13000.00000" pt_clust_8="13000.00000" pt_clust_9="34.82602" pt_clust_10="162.72615"></scales>
<clustering>
<clus scale="   34.826">  1  9  2 -1</clus>
<clus scale="   51.703">  5  6 -1 -1</clus>
<clus scale="   90.173">  7  8 -1 -1</clus>
<clus scale="   97.310">  2  5  1 -1</clus>
<clus scale="  162.726">  1 10  2 -1</clus>
<clus scale="   34.826">  1  5  2 -1</clus>
</clustering>
</event>
<event>
10    4  0.3403565E-005  0.9168312E+02  0.7546771E-02  0.1305318E+00
          4   -1    0    0  503    0 -0.00000000000E+00  0.00000000000E+00  0.26226163316E+03  0.26226163316E+03  0.00000000000E+00 0. -1.
         21   -1    0    0  501  502  0.00000000000E+00 -0.00000000000E+00 -0.25788254167E+03  0.25788254167E+03  0.00000000000E+00 0.  1.
         24    2    1    2    0    0 -0.20600662657E+02  0.86383101801E+00  0.18299326755E+03  0.20131748651E+03  0.81345318853E+02 0.  0.
         23    2    1    2    0    0  0.61365214354E+02  0.10869129956E+02 -0.17804697310E+03  0.20972763875E+03  0.91657680019E+02 0.  0.
        -13    1    3    3    0    0  0.27541074839E+02 -0.15297284731E+02  0.51662376244E+02  0.60510485394E+02  0.00000000000E+00 0.  1.
         14    1    3    3    0    0 -0.48141737496E+02  0.16161115749E+02  0.13133089131E+03  0.14080700112E+03  0.00000000000E+00 0. -1.
        -11    1    4    4    0    0  0.31105363842E+02  0.46380860820E+02 -0.13561131307E+03  0.14666000185E+03  0.00000000000E+00 0.  1.
         11    1    4    4    0    0  0.30259850512E+02 -0.35511730864E+02 -0.42435660035E+02  0.63067636903E+02  0.00000000000E+00 0. -1.
         21    1    1    2  503  502  0.33143513617E+02 -0.26175622052E+01  0.78380043487E+01  0.34158138692E+02  0.00000000000E+00 0. -1.
          3    1    1    2  501    0 -0.73908065313E+02 -0.91153987692E+01 -0.84052073068E+01  0.74940910876E+02  0.00000000000E+00 0. -1.
<scales pt_clust_5="13000.00000" pt_clust_6="13000.00000" pt_clust_7="13000.00000" pt_clust_8="13000.00000" pt_clust_9="33.24672" pt_clust_10="69.98247"></scales>
<clustering>
<clus scale="   33.247">  1  9  2 -1</clus>
<clus scale="   69.982">  2 10  1 -1</clus>
<clus scale="   81.345">  5  6 -1 -1</clus>
<clus scale="   81.374">  1  5  2 -1</clus>
<clus scale="   91.658">  7  8 -1 -1</clus>
<clus scale="   69.982">  2  5  1 -1</clus>
</clustering>
</event>
<event>
10    4  0.3403565E-005  0.1741331E+03  0.7546771E-02  0.1175815E+00
          2   -1    0    0  503    0 -0.00000000000E+00  0.00000000000E+00  0.16426103515E+03  0.16426103515E+03  0.00000000000E+00 0. -1.
         21   -1    0    0  501  502  0.00000000000E+00 -0.00000000000E+00 -0.76490637287E+03  0.76490637287E+03  0.00000000000E+00 0.  1.
         24    2    1    2    0    0  0.13845790229E+03  0.48468836565E+02 -0.70175654835E+02  0.18376221683E+03  0.85581019964E+02 0.  0.
         23    2    1    2    0    0 -0.11254784202E+03 -0.53988245382E+02 -0.44103736659E+03  0.46937505398E+03  0.10108034026E+03 0.  0.
        -11    1    3    3    0    0  0.42972143238E+02 -0.17170682152E+02  0.35715569654E+01  0.46413289467E+02  0.00000000000E+00 0.  1.
         12    1    3    3    0    0  0.95485759054E+02  0.65639518718E+02 -0.73747211800E+02  0.13734892736E+03  0.00000000000E+00 0. -1.
        -11    1    4    4    0    0 -0.64511605467E+02 -0.11675342558E+02 -0.83548070645E+02  0.10619953377E+03  0.00000000000E+00 0. -1.
         11    1    4    4    0    0 -0.48036236557E+02 -0.42312902824E+02 -0.35748929594E+03  0.36317552021E+03  0.00000000000E+00 0.  1.
         21    1    1    2  503  502  0.30182156234E+02  0.51900282092E+01 -0.17283051886E+03  0.17552289651E+03  0.00000000000E+00 0.  1.
          1    1    1    2  501    0 -0.56092216500E+02  0.32938060700E+00  0.83398202558E+02  0.10050724070E+03  0.00000000000E+00 0. -1.
<scales pt_clust_5="13000.00000" pt_clust_6="13000.00000" pt_clust_7="13000.00000" pt_clust_8="13000.00000" pt_clust_9="30.62514" pt_clust_10="55.65664"></scales>
<clustering>
<clus scale="   30.625">  2  9  1 -1</clus>
<clus scale="   55.657">  2 10  1 -1</clus>
<clus scale="   85.581">  5  6 -1 -1</clus>
<clus scale="  101.080">  7  8 -1 -1</clus>
<clus scale="  165.618">  1  5  2 -1</clus>
<clus scale="   30.625">  2  5  1 -1</clus>
</clustering>
</event>
<event>
10    4  0.3403565E-005  0.1098789E+03  0.7546771E-02  0.1264063E+00
         -1   -1    0    0    0  501 -0.00000000000E+00  0.00000000000E+00  0.42708762692E+03  0.42708762692E+03  0.00000000000E+00 0.  1.
         21   -1    0    0  503  502  0.00000000000E+00 -0.00000000000E+00 -0.12725744050E+03  0.12725744050E+03  0.00000000000E+00 0. -1.
         24    2    1    2    0    0 -0.60895772433E+02  0.24841936153E+02  0.12515019314E+03  0.16325739829E+03  0.81639392209E+02 0.  0.
         23    2    1    2    0    0  0.43011471843E+02 -0.38368930138E+02  0.28175812294E+01  0.10698306430E+03  0.90084825431E+02 0.  0.
        -11    1    3    3    0    0 -0.54752519798E+02 -0.94292738848E+01  0.32697881523E+02  0.64466278676E+02  0.00000000000E+00 0.  1.
         12    1    3    3    0    0 -0.61432526343E+01  0.34271210038E+02  0.92452311619E+02  0.98791119611E+02  0.00000000000E+00 0. -1.
        -13    1    4    4    0    0  0.60536408291E+02 -0.14451005939E+02 -0.24288968765E+02  0.66808998684E+02  0.00000000000E+00 0. -1.
         13    1    4    4    0    0 -0.17524936448E+02 -0.23917924199E+02  0.27106549994E+02  0.40174065616E+02  0.00000000000E+00 0.  1.
         21    1    1    2  503  501 -0.60582903834E+02  0.23163977085E+02 -0.26884524117E+02  0.70211364524E+02  0.00000000000E+00 0. -1.
         -2    1    1    2    0  502  0.78467204424E+02 -0.96369831002E+01  0.19874693617E+03  0.21389324031E+03  0.00000000000E+00 0.  1.
<scales pt_clust_5="13000.00000" pt_clust_6="13000.00000" pt_clust_7="13000.00000" pt_clust_8="13000.00000" pt_clust_9="64.86030" pt_clust_10="73.01496"></scales>
<clustering>
<clus scale="   64.860">  2  9  1 -1</clus>
<clus scale="   73.015">  2 10  1 -1</clus>
<clus scale="   81.639">  5  6 -1 -1</clus>
<clus scale="   90.085">  7  8 -1 -1</clus>
<clus scale="  103.068">  1  5  2 -1</clus>
<clus scale="   64.860">  2  5  1 -1</clus>
</clustering>
</event>
<event>
10    4  0.3403565E-005  0.2613286E+03  0.7546771E-02  0.1106348E+00
         21   -1    0    0  501  502  0.00000000000E+00  0.00000000000E+00  0.27281527307E+03  0.27281527307E+03  0.00000000000E+00 0.  1.
          2   -1    0    0  503    0 -0.00000000000E+00 -0.00000000000E+00 -0.51737362779E+03  0.51737362779E+03  0.00000000000E+00 0. -1.
         24    2    1    2    0    0 -0.69760762869E+02 -0.46685047158E+02 -0.86414086123E+02  0.14445047076E+03  0.79702487781E+02 0.  0.
         23    2    1    2    0    0 -0.11058438833E+03 -0.23948882896E+02 -0.21705390939E+03  0.25625646224E+03  0.75845361924E+02 0.  0.
        -11    1    3    3    0    0 -0.57411205106E+02  0.16822802762E+01 -0.18858846242E+02  0.60452730462E+02  0.00000000000E+00 0.  1.
         12    1    3    3    0    0 -0.12349557763E+02 -0.48367327435E+02 -0.67555239881E+02  0.83997740300E+02  0.00000000000E+00 0. -1.
        -13    1    4    4    0    0 -0.47181624973E+02 -0.47952957581E+02 -0.12472512798E+03  0.14171079502E+03  0.00000000000E+00 0. -1.
         13    1    4    4    0    0 -0.63402763355E+02  0.24004074685E+02 -0.92328781416E+02  0.11454566723E+03  0.00000000000E+00 0.  1.
         21    1    1    2  503  502 -0.64885984115E+01  0.20901971249E+02  0.16669628379E+03  0.16812687275E+03  0.00000000000E+00 0.  1.
          1    1    1    2  501    0  0.18683374961E+03  0.49731958806E+02 -0.10778664299E+03  0.22135509510E+03  0.00000000000E+00 0. -1.
<scales pt_clust_5="13000.00000" pt_clust_6="13000.00000" pt_clust_7="13000.00000" pt_clust_8="13000.00000" pt_clust_9="21.88594" pt_clust_10="193.21739"></scales>
<clustering>
<clus scale="   21.886">  1  9  2 -1</clus>
<clus scale="   75.845">  7  8 -1 -1</clus>
<clus scale="   79.702">  5  6 -1 -1</clus>
<clus scale="  102.769">  5  7 -1 -1</clus>
<clus scale="  193.217">  1 10  2 -1</clus>
<clus scale="   21.886">  1  5  2 -1</clus>
</clustering>
</event>
<event>
10    4  0.3403565E-005  0.1302727E+03  0.7546771E-02  0.1241257E+00
         21   -1    0    0  501  502  0.00000000000E+00  0.00000000000E+00  0.58047674308E+02  0.58047674308E+02  0.00000000000E+00 0. -1.
          2   -1    0    0  503    0 -0.00000000000E+00 -0.00000000000E+00 -0.75362375898E+03  0.75362375898E+03  0.00000000000E+00 0. -1.
         23    2    1    2    0    0  0.16669946710E+02 -0.28648039544E+02 -0.67272564540E+02  0.11751548471E+03  0.90474824745E+02 0.  0.
         24    2    1    2    0    0  0.57860672335E+02  0.41081177585E+02 -0.33575662142E+03  0.35238996958E+03  0.80066605252E+02 0.  0.
        -13    1    4    4    0    0  0.33413170260E+02 -0.21537321964E+02 -0.12220991859E+03  0.12851288023E+03  0.00000000000E+00 0.  1.
         14    1    4    4    0    0  0.24447502075E+02  0.62618499549E+02 -0.21354670284E+03  0.22387708935E+03  0.00000000000E+00 0. -1.
        -11    1    3    3    0    0  0.18115974653E+02 -0.61018132099E+02 -0.48907893523E+02  0.80270686003E+02  0.00000000000E+00 0. -1.
         11    1    3    3    0    0 -0.14460279435E+01  0.32370092555E+02 -0.18364671016E+02  0.37244798702E+02  0.00000000000E+00 0.  1.
         21    1    1    2  503  502  0.49215513270E+02  0.11077168170E+02 -0.92652778868E+02  0.10549600861E+03  0.00000000000E+00 0. -1.
          1    1    1    2  501    0 -0.12374613232E+03 -0.23510306211E+02 -0.19989411984E+03  0.23626997039E+03  0.00000000000E+00 0. -1.
<scales pt_clust_5="13000.00000" pt_clust_6="13000.00000" pt_clust_7="13000.00000" pt_clust_8="13000.00000" pt_clust_9="50.44671" pt_clust_10="102.76340"></scales>
<clustering>
<clus scale="   50.447">  2  9  1 -1</clus>
<clus scale="   80.067">  5  6 -1 -1</clus>
<clus scale="   90.475">  7  8 -1 -1</clus>
<clus scale="   97.350">  2  7  1 -1</clus>
<clus scale="  102.763">  1 10  2 -1</clus>
<clus scale="  102.763">  1  5  2 -1</clus>
</clustering>
</event>
<event>
10    4  0.3403565E-005  0.2127483E+03  0.7546771E-02  0.1140400E+00
         21   -1    0    0  501  502  0.00000000000E+00  0.00000000000E+00  0.42171176972E+03  0.42171176972E+03  0.00000000000E+00 0. -1.
          2   -1    0    0  503    0 -0.00000000000E+00 -0.00000000000E+00 -0.49407126768E+03  0.49407126768E+03  0.00000000000E+00 0. -1.
         23    2    1    2    0    0 -0.30104585422E+02  0.20201713917E+03 -0.35451055944E+03  0.41926557341E+03  0.91589703111E+02 0.  0.
         24    2    1    2    0    0  0.79612918191E+02 -0.13389715093E+03  0.58967039260E+02  0.18443452996E+03  0.79197981983E+02 0.  0.
        -13    1    4    4    0    0  0.15185969485E+02 -0.33378099972E+02  0.53569786331E+02  0.64918666303E+02  0.00000000000E+00 0.  1.
         14    1    4    4    0    0  0.64426948707E+02 -0.10051905096E+03  0.53972529289E+01  0.11951586365E+03  0.00000000000E+00 0. -1.
        -13    1    3    3    0    0  0.24698196590E+02  0.37205798568E+02 -0.11534179606E+03  0.12368509320E+03  0.00000000000E+00 0.  1.
         13    1    3    3    0    0 -0.54802782013E+02  0.16481134060E+03 -0.23916876338E+03  0.29558048021E+03  0.00000000000E+00 0. -1.
         21    1    1    2  503  502  0.57683225021E+02 -0.38399809238E+02  0.17979167968E+03  0.19268354336E+03  0.00000000000E+00 0. -1.
          1    1    1    2  501    0 -0.10719155779E+03 -0.29720178996E+02  0.43392342537E+02  0.11939939067E+03  0.00000000000E+00 0. -1.
<scales pt_clust_5="13000.00000" pt_clust_6="13000.00000" pt_clust_7="13000.00000" pt_clust_8="13000.00000" pt_clust_9="69.29574" pt_clust_10="97.26988"></scales>
<clustering>
<clus scale="   69.296">  1  9  2 -1</clus>
<clus scale="   79.198">  5  6 -1 -1</clus>
<clus scale="   91.590">  7  8 -1 -1</clus>
<clus scale="   97.270">  1 10  2 -1</clus>
<clus scale="  207.715">  1  5  2 -1</clus>
<clus scale="   69.296">  1  5  2 -1</clus>
</clustering>
</event>
<event>
10    4  0.3403565E-005  0.1206975E+03  0.7546771E-02  0.1250512E+00
         21   -1    0    0  501  502  0.00000000000E+00  0.00000000000E+00  0.55357478434E+03  0.55357478434E+03  0.00000000000E+00 0.  1.
          2   -1    0    0  503    0 -0.00000000000E+00 -0.00000000000E+00 -0.34188552260E+03  0.34188552260E+03  0.00000000000E+00 0. -1.
         23    2    1    2    0    0  0.39260660889E+02 -0.28459001037E+02  0.59138325714E+02  0.11879753863E+03  0.90907642053E+02 0.  0.
         24    2    1    2    0    0  0.10862823095E+03  0.53304916164E+02  0.27214245518E+03  0.30824209642E+03  0.79436562412E+02 0.  0.
        -11    1    4    4    0    0  0.42007024214E+02  0.36718985008E+01  0.17690801703E+03  0.18186401352E+03  0.00000000000E+00 0.  1.
         12    1    4    4    0    0  0.66621206732E+02  0.49633017663E+02  0.95234438143E+02  0.12637808290E+03  0.00000000000E+00 0. -1.
        -11    1    3    3    0    0 -0.28033035514E+02 -0.26276347254E+01  0.48759422136E+01  0.28574995308E+02  0.00000000000E+00 0. -1.
         11    1    3    3    0    0  0.67293696403E+02 -0.25831366311E+02  0.54262383500E+02  0.90222543326E+02  0.00000000000E+00 0.  1.
         21    1    1    2  503  502 -0.36106348825E+02 -0.20560283327E+02  0.16104071329E+03  0.16631447626E+03  0.00000000000E+00 0.  1.
          1    1    1    2  501    0 -0.11178254301E+03 -0.42856317995E+01 -0.28063223244E+03  0.30210619564E+03  0.00000000000E+00 0. -1.
<scales pt_clust_5="13000.00000" pt_clust_6="13000.00000" pt_clust_7="13000.00000" pt_clust_8="13000.00000" pt_clust_9="41.54989" pt_clust_10="90.87205"></scales>
<clustering>
<clus scale="   41.550">  1  9  2 -1</clus>
<clus scale="   79.437">  5  6 -1 -1</clus>
<clus scale="   90.908">  7  8 -1 -1</clus>
<clus scale="  101.615">  2  7  1 -1</clus>
<clus scale="   90.872">  1 10  2 -1</clus>
<clus scale="   41.550">  1  5  2 -1</clus>
</clustering>
</event>
<event>
10    4  0.3403565E-005  0.2356619E+03  0.7546771E-02  0.1123385E+00
         21   -1    0    0  501  502  0.00000000000E+00  0.00000000000E+00  0.11710559675E+04  0.11710559675E+04  0.00000000000E+00 0. -1.
          2   -1    0    0  503    0 -0.00000000000E+00 -0.00000000000E+00 -0.50478079699E+03  0.50478079699E+03  0.00000000000E+00 0. -1.
         24    2    1    2    0    0 -0.10094833471E+03  0.63173700204E+01 -0.38804619337E+03  0.40895740695E+03  0.80223668983E+02 0.  0.
         23    2    1    2    0    0  0.27507287312E+03 -0.17579242042E+03  0.55494183298E+03  0.65021467520E+03  0.90832952514E+02 0.  0.
        -13    1    3    3    0    0 -0.16358716326E+02 -0.32166799834E+02 -0.11502738539E+03  0.12055542295E+03  0.00000000000E+00 0.  1.
         14    1    3    3    0    0 -0.84589618380E+02  0.38484169855E+02 -0.27301880798E+03  0.28840198400E+03  0.00000000000E+00 0. -1.
        -11    1    4    4    0    0  0.21037848869E+03 -0.14754302948E+03  0.49451581061E+03  0.55729161217E+03  0.00000000000E+00 0. -1.
         11    1    4    4    0    0  0.64694384426E+02 -0.28249390940E+02  0.60426022368E+02  0.92923063036E+02  0.00000000000E+00 0.  1.
         21    1    1    2  503  502 -0.10327329991E+03  0.63435297686E+02  0.22811830557E+02  0.12332798174E+03  0.00000000000E+00 0. -1.
          1    1    1    2  501    0 -0.70851238502E+02  0.10603975271E+03  0.47656770036E+03  0.49333670062E+03  0.00000000000E+00 0. -1.
<scales pt_clust_5="13000.00000" pt_clust_6="13000.00000" pt_clust_7="13000.00000" pt_clust_8="13000.00000" pt_clust_9="121.19988" pt_clust_10="129.56639"></scales>
<clustering>
<clus scale="   80.224">  5  6 -1 -1</clus>
<clus scale="   90.833">  7  8 -1 -1</clus>
<clus scale="  121.200">  2  9  1 -1</clus>
<clus scale="  129.566">  1 10  2 -1</clus>
<clus scale="  231.780">  2  5  1 -1</clus>
<clus scale="  129.566">  1  5  2 -1</clus>
</clustering>
</event>
<event>
10    4  0.3403565E-005  0.3831246E+03  0.7546771E-02  0.1049785E+00
         21   -1    0    0  501  502  0.00000000000E+00  0.00000000000E+00  0.12552765642E+03  0.12552765642E+03  0.00000000000E+00 0.  1.
          2   -1    0    0  503    0 -0.00000000000E+00 -0.00000000000E+00 -0.97812890260E+03  0.97812890260E+03  0.00000000000E+00 0. -1.
         24    2    1    2    0    0  0.20990746270E+03  0.28210555992E+01 -0.24366260426E+03  0.33146915796E+03  0.80194991839E+02 0.  0.
         23    2    1    2    0    0  0.70252944272E+02  0.49858984363E+02 -0.23399249036E+03  0.27529859038E+03  0.11668519109E+03 0.  0.
        -13    1    3    3    0    0  0.21559505023E+03 -0.32473244779E+01 -0.23917237081E+03  0.32201738114E+03  0.00000000000E+00 0.  1.
         14    1    3    3    0    0 -0.56875875291E+01  0.60683800771E+01 -0.44902334479E+01  0.94517768212E+01  0.00000000000E+00 0. -1.
        -11    1    4    4    0    0  0.65392597300E+02 -0.20123041220E+02 -0.15631652896E+03  0.17063406986E+03  0.00000000000E+00 0. -1.
         11    1    4    4    0    0  0.48603469719E+01  0.69982025582E+02 -0.77675961396E+02  0.10466452052E+03  0.00000000000E+00 0.  1.
         21    1    1    2  503  502  0.20552203040E+02  0.88642728633E+00 -0.25603649154E+02  0.32843959157E+02  0.00000000000E+00 0. -1.
          1    1    1    2  501    0 -0.30071261001E+03 -0.53566467248E+02 -0.34934250241E+03  0.46404485152E+03  0.00000000000E+00 0. -1.
<scales pt_clust_5="13000.00000" pt_clust_6="13000.00000" pt_clust_7="13000.00000" pt_clust_8="13000.00000" pt_clust_9="20.57131" pt_clust_10="296.70997"></scales>
<clustering>
<clus scale="   20.571">  2  9  1 -1</clus>
<clus scale="   80.195">  5  6 -1 -1</clus>
<clus scale="  116.685">  7  8 -1 -1</clus>
<clus scale="  134.108">  5  7 -1 -1</clus>
<clus scale="  296.710">  1 10  2 -1</clus>
<clus scale="  296.710">  1  5  2 -1</clus>
</clustering>
</event>
<event>
10    4  0.3403565E-005  0.1092535E+03  0.7546771E-02  0.1266809E+00
         21   -1    0    0  503  502  0.00000000000E+00  0.00000000000E+00  0.11311894588E+03  0.11311894588E+03  0.00000000000E+00 0.  1.
          2   -1    0    0  502    0 -0.00000000000E+00 -0.00000000000E+00 -0.37013811364E+03  0.37013811364E+03  0.00000000000E+00 0. -1.
         24    2    1    2    0    0  0.67262352089E+02 -0.24381788329E+01 -0.15384303635E+03  0.18519211166E+03  0.78091418627E+02 0.  0.
         23    2    1    2    0    0 -0.39309260997E+02  0.52285650050E+02 -0.44603406588E+02  0.12010594517E+03  0.90315928746E+02 0.  0.
        -13    1    3    3    0    0  0.81248625309E+02 -0.60817122595E+01 -0.97681417537E+02  0.12720057260E+03  0.00000000000E+00 0.  1.
         14    1    3    3    0    0 -0.13986273220E+02  0.36435334266E+01 -0.56161618815E+02  0.57991539058E+02  0.00000000000E+00 0. -1.
        -11    1    4    4    0    0  0.37907540714E+01  0.22417027436E+02  0.24457720888E+02  0.33392709482E+02  0.00000000000E+00 0.  1.
         11    1    4    4    0    0 -0.43100015069E+02  0.29868622613E+02 -0.69061127475E+02  0.86713235690E+02  0.00000000000E+00 0. -1.
         21    1    1    2  503  501  0.23118071977E+02  0.13689733117E+02  0.41158016423E+02  0.49151158283E+02  0.00000000000E+00 0.  1.
          1    1    1    2  501    0 -0.51071163069E+02 -0.63537204334E+02 -0.99730741239E+02  0.12880784440E+03  0.00000000000E+00 0. -1.
<scales pt_clust_5="13000.00000" pt_clust_6="13000.00000" pt_clust_7="13000.00000" pt_clust_8="13000.00000" pt_clust_9="26.86734" pt_clust_10="76.16446"></scales>
<clustering>
<clus scale="   26.867">  1  9  2 -1</clus>
<clus scale="   76.164">  1 10  2 -1</clus>
<clus scale="   78.091">  5  6 -1 -1</clus>
<clus scale="   90.316">  7  8 -1 -1</clus>
<clus scale="   99.386">  2  5  1 -1</clus>
<clus scale="   26.867">  1  5  2 -1</clus>
</clustering>
</event>
<event>
10    4  0.3403565E-005  0.1082212E+03  0.7546771E-02  0.1267778E+00
         -1   -1    0    0    0  501 -0.00000000000E+00  0.00000000000E+00  0.38628978148E+03  0.38628978148E+03  0.00000000000E+00 0.  1.
         21   -1    0    0  503  502  0.00000000000E+00 -0.00000000000E+00 -0.17036859161E+03  0.17036859161E+03  0.00000000000E+00 0. -1.
         23    2    1    2    0    0  0.13795761551E+02  0.51584945514E+02  0.13899580695E+03  0.17367275931E+03  0.89392747669E+02 0.  0.
         24    2    1    2    0    0  0.34287866887E+02 -0.10017472904E+03 -0.14469361231E+02  0.13330240043E+03  0.79683959447E+02 0.  0.
        -13    1    4    4    0    0  0.47869033431E+02 -0.90461230651E+02  0.10907023387E+02  0.10292541849E+03  0.00000000000E+00 0.  1.
         14    1    4    4    0    0 -0.13581166544E+02 -0.97134983898E+01 -0.25376384618E+02  0.30376981943E+02  0.00000000000E+00 0. -1.
        -13    1    3    3    0    0 -0.22256908227E+02  0.39516572890E+01  0.99553656571E+02  0.10208778622E+03  0.00000000000E+00 0.  1.
         13    1    3    3    0    0  0.36052669778E+02  0.47633288225E+02  0.39442150378E+02  0.71584973086E+02  0.00000000000E+00 0. -1.
         21    1    1    2  503  501 -0.16604439034E+02  0.73153094720E+02 -0.58141503961E+02  0.94907940371E+02  0.00000000000E+00 0. -1.
         -2    1    1    2    0  502 -0.31479189405E+02 -0.24563311193E+02  0.14953624812E+03  0.15477527297E+03  0.00000000000E+00 0.  1.
<scales pt_clust_5="13000.00000" pt_clust_6="13000.00000" pt_clust_7="13000.00000" pt_clust_8="13000.00000" pt_clust_9="69.25555" pt_clust_10="39.92865"></scales>
<clustering>
<clus scale="   39.929">  2 10  1 -1</clus>
<clus scale="   69.256">  2  9  1 -1</clus>
<clus scale="   79.684">  5  6 -1 -1</clus>
<clus scale="   89.393">  7  8 -1 -1</clus>
<clus scale="  100.351">  2  5  1 -1</clus>
<clus scale="   39.929">  2  5  1 -1</clus>
</clustering>
</event>
<event>
10    4  0.3403565E-005  0.1035974E+03  0.7546771E-02  0.1287928E+00
         -1   -1    0    0    0  501 -0.00000000000E+00  0.00000000000E+00  0.17042853919E+03  0.17042853919E+03  0.00000000000E+00 0.  1.
         21   -1    0    0  503  502  0.00000000000E+00 -0.00000000000E+00 -0.13392080824E+03  0.13392080824E+03  0.00000000000E+00 0. -1.
         24    2    1    2    0    0  0.17514262908E+01 -0.12333716260E+02  0.15624245533E+02  0.79768482872E+02  0.77225033250E+02 0.  0.
         23    2    1    2    0    0  0.20783579052E+02 -0.42934487725E+00 -0.30647026397E+02  0.10957250014E+03  0.10312492941E+03 0.  0.
        -11    1    3    3    0    0 -0.10327972971E+02 -0.43120255704E+02  0.32536774740E+01  0.44459081128E+02  0.00000000000E+00 0.  1.
         12    1    3    3    0    0  0.12079399262E+02  0.30786539444E+02  0.12370568059E+02  0.35309401744E+02  0.00000000000E+00 0. -1.
        -13    1    4    4    0    0 -0.38490030006E+02  0.16378604187E+02 -0.22288594536E+02  0.47397494990E+02  0.00000000000E+00 0.  1.
         13    1    4    4    0    0  0.59273609058E+02 -0.16807949064E+02 -0.83584318609E+01  0.62175005152E+02  0.00000000000E+00 0. -1.
         21    1    1    2  503  501  0.31028074681E+02  0.12817853417E+02 -0.84239840772E+01  0.34612169715E+02  0.00000000000E+00 0. -1.
         -2    1    1    2    0  502 -0.53563080025E+02 -0.54792279870E-01  0.59954495889E+02  0.80396194694E+02  0.00000000000E+00 0.  1.
<scales pt_clust_5="13000.00000" pt_clust_6="13000.00000" pt_clust_7="13000.00000" pt_clust_8="13000.00000" pt_clust_9="33.57140" pt_clust_10="50.75386"></scales>
<clustering>
<clus scale="   33.571">  2  9  1 -1</clus>
<clus scale="   50.754">  2 10  1 -1</clus>
<clus scale="   77.225">  5  6 -1 -1</clus>
<clus scale="   77.855">  1  5  2 -1</clus>
<clus scale="  103.125">  7  8 -1 -1</clus>
<clus scale="   33.571">  2  5  1 -1</clus>
</clustering>
</event>
<event>
10    4  0.3403565E-005  0.1435929E+03  0.7546771E-02  0.1219484E+00
          2   -1    0    0  503    0 -0.00000000000E+00  0.00000000000E+00  0.73305092266E+03  0.73305092266E+03  0.00000000000E+00 0. -1.
         21   -1    0    0  501  502  0.00000000000E+00 -0.00000000000E+00 -0.46935090728E+02  0.46935090728E+02  0.00000000000E+00 0. -1.
         24    2    1    2    0    0 -0.12738933768E+02 -0.76151713026E+02  0.23753676621E+03  0.26275769747E+03  0.81587550820E+02 0.  0.
         23    2    1    2    0    0  0.71770818781E+02  0.61152395353E+02  0.33774730509E+03  0.37048427518E+03  0.11956040387E+03 0.  0.
        -11    1    3    3    0    0 -0.22333367994E+02 -0.19927556368E+02  0.15885804440E+02  0.33885772995E+02  0.00000000000E+00 0.  1.
         12    1    3    3    0    0  0.95944342266E+01 -0.56224156658E+02  0.22165096177E+03  0.22887192448E+03  0.00000000000E+00 0. -1.
        -13    1    4    4    0    0  0.37032310589E+02  0.95172271059E+02  0.25207636476E+03  0.27197729110E+03  0.00000000000E+00 0. -1.
         13    1    4    4    0    0  0.34738508192E+02 -0.34019875706E+02  0.85670940336E+02  0.98506984079E+02  0.00000000000E+00 0.  1.
         21    1    1    2  503  502 -0.15182163767E+02 -0.17697250487E+02  0.18755281642E+00  0.23317931887E+02  0.00000000000E+00 0.  1.
          1    1    1    2  501    0 -0.43849721246E+02  0.32696568160E+02  0.11064420781E+03  0.12342610885E+03  0.00000000000E+00 0. -1.
<scales pt_clust_5="13000.00000" pt_clust_6="13000.00000" pt_clust_7="13000.00000" pt_clust_8="13000.00000" pt_clust_9="23.31718" pt_clust_10="55.14606"></scales>
<clustering>
<clus scale="   23.317">  2  9  1 -1</clus>
<clus scale="   55.146">  2 10  1 -1</clus>
<clus scale="   81.588">  5  6 -1 -1</clus>
<clus scale="  113.933">  1  5  2 -1</clus>
<clus scale="  119.560">  7  8 -1 -1</clus>
<clus scale="   23.317">  2  5  1 -1</clus>
</clustering>
</event>
<event>
10    4  0.3403565E-005  0.1903266E+03  0.7546771E-02  0.1158663E+00
          2   -1    0    0  503    0 -0.00000000000E+00  0.00000000000E+00  0.14099909159E+04  0.14099909159E+04  0.00000000000E+00 0. -1.
         21   -1    0    0  501  502  0.00000000000E+00 -0.00000000000E+00 -0.87810512555E+02  0.87810512555E+02  0.00000000000E+00 0.  1.
         24    2    1    2    0    0  0.81479470117E+02  0.14923149784E+03  0.91437012100E+03  0.93390793757E+03  0.84866799635E+02 0.  0.
         23    2    1    2    0    0 -0.93300282450E+02 -0.13518532737E+03  0.42677487208E+03  0.46599176071E+03  0.89618715549E+02 0.  0.
        -13    1    3    3    0    0  0.55598527730E+02  0.12441718509E+03  0.50805809827E+03  0.52601698019E+03  0.00000000000E+00 0.  1.
         14    1    3    3    0    0  0.25880942387E+02  0.24814312746E+02  0.40631202273E+03  0.40789095738E+03  0.00000000000E+00 0. -1.
        -11    1    4    4    0    0 -0.85336607995E+02 -0.75027112103E+02  0.35087674111E+03  0.36881688095E+03  0.00000000000E+00 0. -1.
         11    1    4    4    0    0 -0.79636744554E+01 -0.60158215265E+02  0.75898130961E+02  0.97174879768E+02  0.00000000000E+00 0.  1.
         21    1    1    2  503  502  0.49043398744E+02  0.49799467952E+01 -0.25646240476E+02  0.55567836749E+02  0.00000000000E+00 0.  1.
          1    1    1    2  501    0 -0.37222586411E+02 -0.19026117265E+02  0.66816507683E+01  0.42333893446E+02  0.00000000000E+00 0. -1.
<scales pt_clust_5="13000.00000" pt_clust_6="13000.00000" pt_clust_7="13000.00000" pt_clust_8="13000.00000" pt_clust_9="28.10671" pt_clust_10="41.80328"></scales>
<clustering>
<clus scale="   41.803">  2 10  1 -1</clus>
<clus scale="   28.107">  2  9  1 -1</clus>
<clus scale="   84.867">  5  6 -1 -1</clus>
<clus scale="   89.619">  7  8 -1 -1</clus>
<clus scale="  188.136">  1  5  2 -1</clus>
<clus scale="   41.803">  2  5  1 -1</clus>
</clustering>
</event>
<event>
10    4  0.3403565E-005  0.2407545E+03  0.7546771E-02  0.1148529E+00
         -3   -1    0    0    0  501 -0.00000000000E+00  0.00000000000E+00  0.10672969775E+04  0.10672969775E+04  0.00000000000E+00 0.  1.
         21   -1    0    0  503  502  0.00000000000E+00 -0.00000000000E+00 -0.19927104565E+03  0.19927104565E+03  0.00000000000E+00 0.  1.
         23    2    1    2    0    0 -0.60704503211E+02  0.50197845381E+02  0.10287933192E+03  0.15818410840E+03  0.90736954011E+02 0.  0.
         24    2    1    2    0    0 -0.11368644013E+03  0.11998647003E+03  0.79783790315E+03  0.81860830103E+03  0.79075098157E+02 0.  0.
        -13    1    4    4    0    0 -0.48701994149E+02  0.90804430366E+02  0.34029396552E+03  0.35555212245E+03  0.00000000000E+00 0.  1.
         14    1    4    4    0    0 -0.64984445977E+02  0.29182039664E+02  0.45754393763E+03  0.46305617858E+03  0.00000000000E+00 0. -1.
        -11    1    3    3    0    0 -0.22095261009E+02 -0.22039411491E+02  0.55195644604E+02  0.63407376552E+02  0.00000000000E+00 0.  1.
         11    1    3    3    0    0 -0.38609242202E+02  0.72237256872E+02  0.47683687312E+02  0.94776731846E+02  0.00000000000E+00 0. -1.
         21    1    1    2  503  501  0.59958275422E+01 -0.19314253784E+02 -0.58798184010E+02  0.62178909527E+02  0.00000000000E+00 0.  1.
         -4    1    1    2    0  502  0.16839511579E+03 -0.15087006163E+03  0.26106880748E+02  0.22759670415E+03  0.00000000000E+00 0.  1.
<scales pt_clust_5="13000.00000" pt_clust_6="13000.00000" pt_clust_7="13000.00000" pt_clust_8="13000.00000" pt_clust_9="20.22351" pt_clust_10="227.39801"></scales>
<clustering>
<clus scale="   20.224">  2  9  1 -1</clus>
<clus scale="   79.075">  5  6 -1 -1</clus>
<clus scale="   90.737">  7  8 -1 -1</clus>
<clus scale="  117.995">  1  7  2 -1</clus>
<clus scale="  227.398">  2 10  1 -1</clus>
<clus scale="   20.224">  2  5  1 -1</clus>
</clustering>
</event>
<event>
10    4  0.3403565E-005  0.2591620E+03  0.7546771E-02  0.1138064E+00
         -1   -1    0    0    0  501 -0.00000000000E+00  0.00000000000E+00  0.39369507049E+03  0.39369507049E+03  0.00000000000E+00 0.  1.
         21   -1    0    0  503  502  0.00000000000E+00 -0.00000000000E+00 -0.67553023216E+03  0.67553023216E+03  0.00000000000E+00 0.  1.
         23    2    1    2    0    0 -0.57537147645E+02 -0.40749126291E+02 -0.11299833676E+03  0.16200572509E+03  0.92229150491E+02 0.  0.
         24    2    1    2    0    0 -0.18760966617E+03  0.88917607898E+02  0.28216201601E+03  0.35946526569E+03  0.80598673238E+02 0.  0.
        -11    1    4    4    0    0 -0.18873124731E+03  0.88415309790E+02  0.28687768323E+03  0.35459209784E+03  0.00000000000E+00 0.  1.
         12    1    4    4    0    0  0.11215811422E+01  0.50229810797E+00 -0.47156672164E+01  0.48731678551E+01  0.00000000000E+00 0. -1.
        -13    1    3    3    0    0 -0.17753616328E+02 -0.58670370456E+02 -0.30018947203E+02  0.68253501400E+02  0.00000000000E+00 0. -1.
         13    1    3    3    0    0 -0.39783531317E+02  0.17921244165E+02 -0.82979389555E+02  0.93752223693E+02  0.00000000000E+00 0.  1.
         21    1    1    2  503  501 -0.15795899193E+02 -0.37374593153E+02 -0.11657727912E+03  0.12343675568E+03  0.00000000000E+00 0. -1.
         -2    1    1    2    0  502  0.26094271300E+03 -0.10793888454E+02 -0.33442156179E+03  0.42431755619E+03  0.00000000000E+00 0.  1.
<scales pt_clust_5="13000.00000" pt_clust_6="13000.00000" pt_clust_7="13000.00000" pt_clust_8="13000.00000" pt_clust_9="40.57549" pt_clust_10="246.31037"></scales>
<clustering>
<clus scale="   40.575">  2  9  1 -1</clus>
<clus scale="   80.599">  5  6 -1 -1</clus>
<clus scale="   92.229">  7  8 -1 -1</clus>
<clus scale="  121.581">  1  7  2 -1</clus>
<clus scale="  246.310">  2 10  1 -1</clus>
<clus scale="   40.575">  2  5  1 -1</clus>
</clustering>
</event>
<event>
10    4  0.3403565E-005  0.1055437E+03  0.7546771E-02  0.1270325E+00
          2   -1    0    0  503    0 -0.00000000000E+00  0.00000000000E+00  0.25503592823E+03  0.25503592823E+03  0.00000000000E+00 0. -1.
         21   -1    0    0  501  502  0.00000000000E+00 -0.00000000000E+00 -0.14590137418E+03  0.14590137418E+03  0.00000000000E+00 0.  1.
         24    2    1    2    0    0 -0.22826795416E+02  0.58282569229E+02  0.15535745141E+03  0.18604825963E+03  0.80994424120E+02 0.  0.
         23    2    1    2    0    0  0.39747345924E+02 -0.55245243166E+02  0.20510594739E+02  0.11021911777E+03  0.84235865429E+02 0.  0.
        -13    1    3    3    0    0 -0.17886897420E+02 -0.18310810550E+02  0.40111392494E+02  0.47583092482E+02  0.00000000000E+00 0.  1.
         14    1    3    3    0    0 -0.49398979957E+01  0.76593379780E+02  0.11524605892E+03  0.13846516715E+03  0.00000000000E+00 0. -1.
        -13    1    4    4    0    0  0.20391420616E+02 -0.37051499721E+02  0.53286510347E+02  0.68029962894E+02  0.00000000000E+00 0. -1.
         13    1    4    4    0    0  0.19355925308E+02 -0.18193743444E+02 -0.32775915608E+02  0.42189154874E+02  0.00000000000E+00 0.  1.
         21    1    1    2  503  502 -0.25483226357E+02 -0.36900259527E+02 -0.45010455125E+02  0.63537115526E+02  0.00000000000E+00 0.  1.
          1    1    1    2  501    0  0.85626758487E+01  0.33862933463E+02 -0.21723036978E+02  0.41132809483E+02  0.00000000000E+00 0. -1.
<scales pt_clust_5="13000.00000" pt_clust_6="13000.00000" pt_clust_7="13000.00000" pt_clust_8="13000.00000" pt_clust_9="29.89135" pt_clust_10="34.92875"></scales>
<clustering>
<clus scale="   34.929">  2 10  1 -1</clus>
<clus scale="   29.891">  2  9  1 -1</clus>
<clus scale="   80.994">  5  6 -1 -1</clus>
<clus scale="   84.236">  7  8 -1 -1</clus>
<clus scale="  102.975">  1  5  2 -1</clus>
<clus scale="   34.929">  2  5  1 -1</clus>
</clustering>
</event>
<event>
10    4  0.3403565E-005  0.1568107E+03  0.7546771E-02  0.1194426E+00
          2   -1    0    0  503    0 -0.00000000000E+00  0.00000000000E+00  0.10502241791E+04  0.10502241791E+04  0.00000000000E+00 0. -1.
         21   -1    0    0  501  502  0.00000000000E+00 -0.00000000000E+00 -0.57078391765E+02  0.57078391765E+02  0.00000000000E+00 0. -1.
         23    2    1    2    0    0 -0.66029324366E+02 -0.66902212914E+02  0.20480568584E+03  0.23878400512E+03  0.78972491303E+02 0.  0.
         24    2    1    2    0    0  0.13109464640E+03  0.13210479718E+03  0.28548098351E+03  0.35287633040E+03  0.91568711126E+02 0.  0.
        -11    1    4    4    0    0  0.37488356977E+02 -0.81951745436E+01  0.44891365491E+02  0.59057366097E+02  0.00000000000E+00 0.  1.
         12    1    4    4    0    0  0.93606289424E+02  0.14029997172E+03  0.24058961802E+03  0.29381896430E+03  0.00000000000E+00 0. -1.
        -11    1    3    3    0    0 -0.56267167887E+02 -0.13853764300E+02  0.56331498186E+02  0.80815584234E+02  0.00000000000E+00 0. -1.
         11    1    3    3    0    0 -0.97621564794E+01 -0.53048448614E+02  0.14847418765E+03  0.15796842089E+03  0.00000000000E+00 0.  1.
         21    1    1    2  503  502  0.69647165471E+01 -0.23873033434E+02  0.58129795225E+02  0.63225802445E+02  0.00000000000E+00 0. -1.
          1    1    1    2  501    0 -0.72030038582E+02 -0.41329550832E+02  0.44472932279E+03  0.45241643292E+03  0.00000000000E+00 0. -1.
<scales pt_clust_5="13000.00000" pt_clust_6="13000.00000" pt_clust_7="13000.00000" pt_clust_8="13000.00000" pt_clust_9="24.86823" pt_clust_10="86.39012"></scales>
<clustering>
<clus scale="   24.868">  1  9  2 -1</clus>
<clus scale="   78.972">  7  8 -1 -1</clus>
<clus scale="   86.390">  2 10  1 -1</clus>
<clus scale="   91.569">  5  6 -1 -1</clus>
<clus scale="  149.805">  1  7  2 -1</clus>
<clus scale="   86.390">  2  5  1 -1</clus>
</clustering>
</event>
<event>
10    4  0.3403565E-005  0.1715290E+03  0.7546771E-02  0.1178059E+00
          2   -1    0    0  503    0 -0.00000000000E+00  0.00000000000E+00  0.10875848607E+04  0.10875848607E+04  0.00000000000E+00 0. -1.
         21   -1    0    0  501  502  0.00000000000E+00 -0.00000000000E+00 -0.56988276958E+02  0.56988276958E+02  0.00000000000E+00 0.  1.
         23    2    1    2    0    0 -0.12923417217E+03 -0.10634487838E+03  0.61247869545E+03  0.64163430766E+03  0.92486366465E+02 0.  0.
         24    2    1    2    0    0  0.74552591323E+02  0.96897831283E+02  0.33112205390E+03  0.36173132184E+03  0.79123043661E+02 0.  0.
        -13    1    4    4    0    0  0.20231343908E+02  0.73773552411E+02  0.11835047461E+03  0.14092082583E+03  0.00000000000E+00 0.  1.
         14    1    4    4    0    0  0.54321247415E+02  0.23124278873E+02  0.21277157929E+03  0.22081049601E+03  0.00000000000E+00 0. -1.
        -13    1    3    3    0    0 -0.63842987379E+02 -0.10287400026E+03  0.32574004382E+03  0.34751339990E+03  0.00000000000E+00 0.  1.
         13    1    3    3    0    0 -0.65391184791E+02 -0.34708781194E+01  0.28673865163E+03  0.29412090776E+03  0.00000000000E+00 0. -1.
         21    1    1    2  503  502  0.38810728670E+02 -0.74653667668E+01 -0.10579459576E+02  0.40913681401E+02  0.00000000000E+00 0. -1.
          1    1    1    2  501    0  0.15870852177E+02  0.16912413863E+02  0.97575293948E+02  0.10029382673E+03  0.00000000000E+00 0. -1.
<scales pt_clust_5="13000.00000" pt_clust_6="13000.00000" pt_clust_7="13000.00000" pt_clust_8="13000.00000" pt_clust_9="46.15760" pt_clust_10="23.19298"></scales>
<clustering>
<clus scale="   23.193">  2 10  1 -1</clus>
<clus scale="   46.158">  2  9  1 -1</clus>
<clus scale="   79.123">  5  6 -1 -1</clus>
<clus scale="   92.486">  7  8 -1 -1</clus>
<clus scale="  164.709">  2  5  1 -1</clus>
<clus scale="   23.193">  2  5  1 -1</clus>
</clustering>
</event>
<event>
10    4  0.3403565E-005  0.9158339E+02  0.7546771E-02  0.1305776E+00
         -1   -1    0    0    0  501 -0.00000000000E+00  0.00000000000E+00  0.69041194298E+03  0.69041194298E+03  0.00000000000E+00 0.  1.
         21   -1    0    0  503  502  0.00000000000E+00 -0.00000000000E+00 -0.40106421965E+02  0.40106421965E+02  0.00000000000E+00 0.  1.
         24    2    1    2    0    0  0.35711309247E+01 -0.29825643147E+01  0.22956004524E+03  0.24306247367E+03  0.79749000454E+02 0.  0.
         23    2    1    2    0    0 -0.37443698486E+02 -0.13070094813E+02  0.14121577460E+03  0.17235981298E+03  0.90516032839E+02 0.  0.
        -11    1    3    3    0    0  0.37683789706E+02  0.15705629155E+02  0.10979737785E+03  0.11714179005E+03  0.00000000000E+00 0.  1.
         12    1    3    3    0    0 -0.34112658781E+02 -0.18688193470E+02  0.11976266739E+03  0.12592068362E+03  0.00000000000E+00 0. -1.
        -13    1    4    4    0    0 -0.38378192794E+02  0.10755262517E+02  0.12966506611E+02  0.41912905503E+02  0.00000000000E+00 0.  1.
         13    1    4    4    0    0  0.93449430800E+00 -0.23825357330E+02  0.12824926799E+03  0.13044690748E+03  0.00000000000E+00 0. -1.
         21    1    1    2  503  501  0.73562559098E+02 -0.18401731957E+02  0.86466742647E+02  0.11500683208E+03  0.00000000000E+00 0.  1.
         -2    1    1    2    0  502 -0.39689991536E+02  0.34454391085E+02  0.19306295854E+03  0.20008924622E+03  0.00000000000E+00 0.  1.
<scales pt_clust_5="13000.00000" pt_clust_6="13000.00000" pt_clust_7="13000.00000" pt_clust_8="13000.00000" pt_clust_9="58.29679" pt_clust_10="52.55857"></scales>
<clustering>
<clus scale="   52.559">  2 10  1 -1</clus>
<clus scale="   58.297">  2  9  1 -1</clus>
<clus scale="   79.749">  5  6 -1 -1</clus>
<clus scale="   80.958">  1  5  2 -1</clus>
<clus scale="   90.516">  7  8 -1 -1</clus>
<clus scale="   52.559">  2  5  1 -1</clus>
</clustering>
</event>
<event>
10    4  0.3403565E-005  0.1939690E+03  0.7546771E-02  0.1188200E+00
         21   -1    0    0  501  502  0.00000000000E+00  0.00000000000E+00  0.24079345195E+03  0.24079345195E+03  0.00000000000E+00 0. -1.
          2   -1    0    0  503    0 -0.00000000000E+00 -0.00000000000E+00 -0.45608909158E+03  0.45608909158E+03  0.00000000000E+00 0. -1.
         23    2    1    2    0    0  0.16916145976E+02  0.95551559216E+01 -0.89363490947E+02  0.12717661322E+03  0.88377601445E+02 0.  0.
         24    2    1    2    0    0 -0.16965626910E+03 -0.96366667747E+02 -0.23340637037E+03  0.31448944072E+03  0.79720074642E+02 0.  0.
        -13    1    4    4    0    0 -0.96221681188E+02 -0.12051153900E+02 -0.87072839145E+02  0.13032851399E+03  0.00000000000E+00 0.  1.
         14    1    4    4    0    0 -0.73434587914E+02 -0.84315513847E+02 -0.14633353122E+03  0.18416092674E+03  0.00000000000E+00 0. -1.
        -11    1    3    3    0    0 -0.60233125666E+01  0.37285991232E+02 -0.85692288212E+01  0.38729279867E+02  0.00000000000E+00 0. -1.
         11    1    3    3    0    0  0.22939458543E+02 -0.27730835310E+02 -0.80794262125E+02  0.88447333355E+02  0.00000000000E+00 0.  1.
         21    1    1    2  503  502  0.20555660352E+02 -0.16407907317E+02  0.81333625368E+02  0.85480484384E+02  0.00000000000E+00 0. -1.
          1    1    1    2  501    0  0.13218446277E+03  0.10321941914E+03  0.26140596312E+02  0.16973600520E+03  0.00000000000E+00 0. -1.
<scales pt_clust_5="13000.00000" pt_clust_6="13000.00000" pt_clust_7="13000.00000" pt_clust_8="13000.00000" pt_clust_9="26.30123" pt_clust_10="176.82949"></scales>
<clustering>
<clus scale="   26.301">  1  9  2 -1</clus>
<clus scale="   79.720">  5  6 -1 -1</clus>
<clus scale="   88.378">  7  8 -1 -1</clus>
<clus scale="   90.796">  2  7  1 -1</clus>
<clus scale="  176.829">  1 10  2 -1</clus>
<clus scale="   26.301">  1  5  2 -1</clus>
</clustering>
</event>
<event>
10    4  0.3403565E-005  0.1686611E+03  0.7546771E-02  0.1211711E+00
         21   -1    0    0  501  502  0.00000000000E+00  0.00000000000E+00  0.20203561941E+03  0.20203561941E+03  0.00000000000E+00 0.  1.
         -1   -1    0    0    0  501 -0.00000000000E+00 -0.00000000000E+00 -0.30889450318E+03  0.30889450318E+03  0.00000000000E+00 0.  1.
         24    2    1    2    0    0  0.23762110247E+01  0.31655997187E+00 -0.10371755316E+03  0.13257001525E+03  0.82533214650E+02 0.  0.
         23    2    1    2    0    0  0.27053527062E+02 -0.13891649476E+03  0.15087270981E+02  0.17043425707E+03  0.93757796440E+02 0.  0.
        -11    1    3    3    0    0  0.23550486167E+02  0.23324595992E+02 -0.11321213516E+02  0.35026162399E+02  0.00000000000E+00 0.  1.
         12    1    3    3    0    0 -0.21174275143E+02 -0.23008036020E+02 -0.92396339642E+02  0.97543852849E+02  0.00000000000E+00 0. -1.
        -11    1    4    4    0    0  0.56954543786E+01 -0.76325305858E+02  0.54028795732E+02  0.93686185124E+02  0.00000000000E+00 0.  1.
         11    1    4    4    0    0  0.21358072683E+02 -0.62591188902E+02 -0.38941524751E+02  0.76748071942E+02  0.00000000000E+00 0. -1.
         21    1    1    2  503  502  0.57623175332E+02  0.22155540247E+02 -0.50030836860E+01  0.61938107377E+02  0.00000000000E+00 0.  1.
         -2    1    1    2    0  503 -0.87052913419E+02  0.11644439454E+03 -0.13225517904E+02  0.14598774291E+03  0.00000000000E+00 0.  1.
<scales pt_clust_5="13000.00000" pt_clust_6="13000.00000" pt_clust_7="13000.00000" pt_clust_8="13000.00000" pt_clust_9="61.73571" pt_clust_10="140.20007"></scales>
<clustering>
<clus scale="   61.736">  1  9  2 -1</clus>
<clus scale="   82.533">  5  6 -1 -1</clus>
<clus scale="   82.872">  2  5  1 -1</clus>
<clus scale="   93.758">  7  8 -1 -1</clus>
<clus scale="  140.200">  1 10  2 -1</clus>
<clus scale="   61.736">  1  5  2 -1</clus>
</clustering>
</event>
<event>
10    4  0.3403565E-005  0.1508691E+03  0.7546771E-02  0.1200420E+00
          2   -1    0    0  503    0 -0.00000000000E+00  0.00000000000E+00  0.65205956159E+03  0.65205956159E+03  0.00000000000E+00 0. -1.
         21   -1    0    0  501  502  0.00000000000E+00 -0.00000000000E+00 -0.17357636266E+03  0.17357636266E+03  0.00000000000E+00 0. -1.
         24    2    1    2    0    0 -0.10845772764E+03 -0.38526459372E+01  0.29591334693E+03  0.32866876818E+03  0.93169355025E+02 0.  0.
         23    2    1    2    0    0  0.10968322552E+03  0.14548197395E+03  0.23913231819E+03  0.31318084052E+03  0.87764221420E+02 0.  0.
        -11    1    3    3    0    0 -0.24401324160E+02  0.37285427540E+02  0.13899967362E+03  0.14596758885E+03  0.00000000000E+00 0.  1.
         12    1    3    3    0    0 -0.84056403481E+02 -0.41138073477E+02  0.15691367331E+03  0.18270117933E+03  0.00000000000E+00 0. -1.
        -13    1    4    4    0    0  0.83766002609E+02  0.15271500004E+03  0.21754888263E+03  0.27868643807E+03  0.00000000000E+00 0. -1.
         13    1    4    4    0    0  0.25917222907E+02 -0.72330260934E+01  0.21583435562E+02  0.34494402449E+02  0.00000000000E+00 0.  1.
         21    1    1    2  503  502 -0.27519889787E+02 -0.92665643749E+02 -0.78007341262E+02  0.12421518086E+03  0.00000000000E+00 0. -1.
          1    1    1    2  501    0  0.26294391911E+02 -0.48963684265E+02  0.21444875064E+02  0.59571134699E+02  0.00000000000E+00 0. -1.
<scales pt_clust_5="13000.00000" pt_clust_6="13000.00000" pt_clust_7="13000.00000" pt_clust_8="13000.00000" pt_clust_9="125.13251" pt_clust_10="55.57731"></scales>
<clustering>
<clus scale="   55.577">  2 10  1 -1</clus>
<clus scale="   87.764">  7  8 -1 -1</clus>
<clus scale="   93.169">  5  6 -1 -1</clus>
<clus scale="  125.133">  2  9  1 -1</clus>
<clus scale="  147.592">  2  7  1 -1</clus>
<clus scale="   55.577">  2  5  1 -1</clus>
</clustering>
</event>
<event>
10    4  0.3403565E-005  0.9055968E+02  0.7546771E-02  0.1309932E+00
          2   -1    0    0  503    0 -0.00000000000E+00  0.00000000000E+00  0.74488973986E+03  0.74488973986E+03  0.00000000000E+00 0. -1.
         21   -1    0    0  501  502  0.00000000000E+00 -0.00000000000E+00 -0.36329248937E+02  0.36329248937E+02  0.00000000000E+00 0.  1.
         24    2    1    2    0    0  0.10065371706E+02  0.74149896312E+01  0.27068713800E+03  0.28165491781E+03  0.76822342265E+02 0.  0.
         23    2    1    2    0    0 -0.11236736126E+02  0.79947260635E+01  0.70347137082E+02  0.11495566633E+03  0.89866042764E+02 0.  0.
        -11    1    3    3    0    0  0.22361673955E+02  0.37787629139E+02  0.17837359894E+03  0.18369836738E+03  0.00000000000E+00 0.  1.
         12    1    3    3    0    0 -0.12296302250E+02 -0.30372639508E+02  0.92313539059E+02  0.97956550436E+02  0.00000000000E+00 0. -1.
        -13    1    4    4    0    0 -0.49040389670E+02 -0.72832030624E+00  0.53732531658E+02  0.72750774757E+02  0.00000000000E+00 0.  1.
         13    1    4    4    0    0  0.37803653544E+02  0.87230463697E+01  0.16614605424E+02  0.42204891572E+02  0.00000000000E+00 0. -1.
         21    1    1    2  503  502  0.23333909830E+02  0.39074936431E+02  0.89256224273E+02  0.10018979777E+03  0.00000000000E+00 0.  1.
          1    1    1    2  501    0 -0.22162545409E+02 -0.54484652126E+02  0.27826999157E+03  0.28441860689E+03  0.00000000000E+00 0. -1.
<scales pt_clust_5="13000.00000" pt_clust_6="13000.00000" pt_clust_7="13000.00000" pt_clust_8="13000.00000" pt_clust_9="45.51178" pt_clust_10="54.34275"></scales>
<clustering>
<clus scale="   45.512">  2  9  1 -1</clus>
<clus scale="   54.343">  2 10  1 -1</clus>
<clus scale="   76.822">  5  6 -1 -1</clus>
<clus scale="   77.633">  1  5  2 -1</clus>
<clus scale="   89.866">  7  8 -1 -1</clus>
<clus scale="   45.512">  2  5  1 -1</clus>
</clustering>
</event>
<event>
10    4  0.3403565E-005  0.1243020E+03  0.7546771E-02  0.1239193E+00
         -1   -1    0    0    0  501 -0.00000000000E+00  0.00000000000E+00  0.37497830063E+03  0.37497830063E+03  0.00000000000E+00 0.  1.
         21   -1    0    0  503  502  0.00000000000E+00 -0.00000000000E+00 -0.19454049988E+03  0.19454049988E+03  0.00000000000E+00 0.  1.
         23    2    1    2    0    0  0.25547667629E+02  0.10464367050E+03  0.14286479756E+03  0.20070674642E+03  0.90938806790E+02 0.  0.
         24    2    1    2    0    0  0.10533641616E+03 -0.45125227524E+02  0.96944202873E+02  0.17030895247E+03  0.80466850889E+02 0.  0.
        -11    1    4    4    0    0  0.70539638095E+02 -0.23839374229E+02  0.11120833509E+02  0.75284986844E+02  0.00000000000E+00 0.  1.
         12    1    4    4    0    0  0.34796778068E+02 -0.21285853296E+02  0.85823369365E+02  0.95023965627E+02  0.00000000000E+00 0. -1.
        -11    1    3    3    0    0 -0.74768307193E+01  0.10618406583E+03  0.12054770420E+03  0.16081886650E+03  0.00000000000E+00 0.  1.
         11    1    3    3    0    0  0.33024498348E+02 -0.15403953279E+01  0.22317093362E+02  0.39887879927E+02  0.00000000000E+00 0. -1.
         21    1    1    2  503  501 -0.35690311388E+02 -0.61540849723E+02 -0.73447847001E+02  0.10225292534E+03  0.00000000000E+00 0.  1.
         -2    1    1    2    0  502 -0.95193772405E+02  0.20224067461E+01  0.14076647317E+02  0.96250176277E+02  0.00000000000E+00 0.  1.
<scales pt_clust_5="13000.00000" pt_clust_6="13000.00000" pt_clust_7="13000.00000" pt_clust_8="13000.00000" pt_clust_9="71.14123" pt_clust_10="111.07404"></scales>
<clustering>
<clus scale="   71.141">  2  9  1 -1</clus>
<clus scale="   80.467">  5  6 -1 -1</clus>
<clus scale="   90.939">  7  8 -1 -1</clus>
<clus scale="  111.074">  2 10  1 -1</clus>
<clus scale="  116.859">  2  5  1 -1</clus>
<clus scale="   71.141">  2  5  1 -1</clus>
</clustering>
</event>
<event>
10    4  0.3403565E-005  0.3546525E+03  0.7546771E-02  0.1060861E+00
          2   -1    0    0  502    0 -0.00000000000E+00  0.00000000000E+00  0.13723595045E+04  0.13723595045E+04  0.00000000000E+00 0. -1.
         21   -1    0    0  503  502  0.00000000000E+00 -0.00000000000E+00 -0.21087716152E+03  0.21087716152E+03  0.00000000000E+00 0. -1.
         23    2    1    2    0    0  0.40726704524E+02  0.35275447311E+03  0.10098285335E+04  0.10742460801E+04  0.90313845871E+02 0.  0.
         24    2    1    2    0    0 -0.81565922933E+02 -0.27556736125E+03 -0.14502585849E+02  0.29996496367E+03  0.84724754714E+02 0.  0.
        -13    1    4    4    0    0 -0.77459871873E+02 -0.12202856635E+03  0.78655648510E+01  0.14475106171E+03  0.00000000000E+00 0.  1.
         14    1    4    4    0    0 -0.41060510600E+01 -0.15353879490E+03 -0.22368150700E+02  0.15521390196E+03  0.00000000000E+00 0. -1.
        -13    1    3    3    0    0  0.65179512186E+02  0.23805150582E+03  0.73860521713E+03  0.77875192135E+03  0.00000000000E+00 0.  1.
         13    1    3    3    0    0 -0.24452807662E+02  0.11470296729E+03  0.27122331639E+03  0.29549415876E+03  0.00000000000E+00 0. -1.
         21    1    1    2  503  501  0.48780187679E+02 -0.16602347935E+01  0.47221912714E+02  0.67912974680E+02  0.00000000000E+00 0. -1.
          1    1    1    2  501    0 -0.79409692701E+01 -0.75526877066E+02  0.11893448261E+03  0.14111264758E+03  0.00000000000E+00 0. -1.
<scales pt_clust_5="13000.00000" pt_clust_6="13000.00000" pt_clust_7="13000.00000" pt_clust_8="13000.00000" pt_clust_9="48.80843" pt_clust_10="75.80030"></scales>
<clustering>
<clus scale="   48.808">  2  9  1 -1</clus>
<clus scale="   75.800">  2 10  1 -1</clus>
<clus scale="   84.725">  5  6 -1 -1</clus>
<clus scale="   90.314">  7  8 -1 -1</clus>
<clus scale="  353.271">  2  5  1 -1</clus>
<clus scale="   48.808">  2  5  1 -1</clus>
</clustering>
</event>
<event>
10    4  0.3403565E-005  0.1000655E+03  0.7546771E-02  0.1285037E+00
         21   -1    0    0  503  502  0.00000000000E+00  0.00000000000E+00  0.10493677395E+03  0.10493677395E+03  0.00000000000E+00 0.  1.
         -1   -1    0    0    0  501 -0.00000000000E+00 -0.00000000000E+00 -0.46377091353E+03  0.46377091353E+03  0.00000000000E+00 0.  1.
         23    2    1    2    0    0 -0.20796977686E+02 -0.21638225917E+02 -0.11465256524E+03  0.14935983120E+03  0.90897862230E+02 0.  0.
         24    2    1    2    0    0 -0.10292410466E+03  0.56740536349E+02 -0.13558757030E+03  0.19689773496E+03  0.81067064987E+02 0.  0.
        -13    1    4    4    0    0 -0.73671381769E+02 -0.47644881000E+01 -0.81164363222E+02  0.10971703011E+03  0.00000000000E+00 0.  1.
         14    1    4    4    0    0 -0.29252722890E+02  0.61505024449E+02 -0.54423207080E+02  0.87180704848E+02  0.00000000000E+00 0. -1.
        -13    1    3    3    0    0 -0.30794097334E+02  0.10016269267E+02 -0.11139327489E+03  0.11600458513E+03  0.00000000000E+00 0. -1.
         13    1    3    3    0    0  0.99971196484E+01 -0.31654495184E+02 -0.32592903482E+01  0.33355246067E+02  0.00000000000E+00 0.  1.
         21    1    1    2  503  501  0.46462592401E+02 -0.59080714227E+02  0.13127505207E+02  0.76299637477E+02  0.00000000000E+00 0. -1.
         -2    1    1    2    0  502  0.77258489944E+02  0.23978403796E+02 -0.12172150925E+03  0.14615048385E+03  0.00000000000E+00 0.  1.
<scales pt_clust_5="13000.00000" pt_clust_6="13000.00000" pt_clust_7="13000.00000" pt_clust_8="13000.00000" pt_clust_9="75.16185" pt_clust_10="87.50817"></scales>
<clustering>
<clus scale="   75.162">  1  9  2 -1</clus>
<clus scale="   81.067">  5  6 -1 -1</clus>
<clus scale="   87.508">  1 10  2 -1</clus>
<clus scale="   90.898">  7  8 -1 -1</clus>
<clus scale="   91.228">  1  5  2 -1</clus>
<clus scale="   75.162">  1  5  2 -1</clus>
</clustering>
</event>
<event>
10    4  0.3403565E-005  0.9812836E+02  0.7546771E-02  0.1286552E+00
          2   -1    0    0  503    0 -0.00000000000E+00  0.00000000000E+00  0.60016196644E+03  0.60016196644E+03  0.00000000000E+00 0. -1.
         21   -1    0    0  501  502  0.00000000000E+00 -0.00000000000E+00 -0.87674144890E+02  0.87674144890E+02  0.00000000000E+00 0. -1.
         23    2    1    2    0    0  0.32618523450E+02 -0.18833808478E+02  0.38737845717E+03  0.39963499875E+03  0.90704921221E+02 0.  0.
         24    2    1    2    0    0 -0.51602896814E+02 -0.26175392026E+02  0.35275398306E+02  0.10967810056E+03  0.86237589888E+02 0.  0.
        -13    1    4    4    0    0 -0.36729968181E+02 -0.23450146769E+02  0.63876929732E+02  0.77325688475E+02  0.00000000000E+00 0.  1.
         14    1    4    4    0    0 -0.14872928632E+02 -0.27252452571E+01 -0.28601531427E+02  0.32352412086E+02  0.00000000000E+00 0. -1.
        -11    1    3    3    0    0  0.41060114778E+01  0.35256378037E+02  0.17831611076E+03  0.18181448479E+03  0.00000000000E+00 0.  1.
         11    1    3    3    0    0  0.28512511972E+02 -0.54090186516E+02  0.20906234640E+03  0.21782051396E+03  0.00000000000E+00 0. -1.
         21    1    1    2  503  502 -0.12591288402E+00  0.29802872638E+02 -0.38047455989E+02  0.48330487053E+02  0.00000000000E+00 0. -1.
          1    1    1    2  501    0  0.19110286248E+02  0.15206327867E+02  0.12788142206E+03  0.13019252496E+03  0.00000000000E+00 0. -1.
<scales pt_clust_5="13000.00000" pt_clust_6="13000.00000" pt_clust_7="13000.00000" pt_clust_8="13000.00000" pt_clust_9="38.56040" pt_clust_10="24.42204"></scales>
<clustering>
<clus scale="   24.422">  2 10  1 -1</clus>
<clus scale="   38.560">  2  9  1 -1</clus>
<clus scale="   86.238">  5  6 -1 -1</clus>
<clus scale="   90.705">  7  8 -1 -1</clus>
<clus scale="   94.014">  2  5  1 -1</clus>
<clus scale="   24.422">  2  5  1 -1</clus>
</clustering>
</event>
<event>
10    4  0.3403565E-005  0.1529649E+03  0.7546771E-02  0.1222410E+00
         21   -1    0    0  503  502  0.00000000000E+00  0.00000000000E+00  0.53545041883E+02  0.53545041883E+02  0.00000000000E+00 0. -1.
          2   -1    0    0  502    0 -0.00000000000E+00 -0.00000000000E+00 -0.11325346322E+04  0.11325346322E+04  0.00000000000E+00 0. -1.
         24    2    1    2    0    0 -0.43059827327E+02 -0.35020624301E+00 -0.37786258834E+03  0.38812020145E+03  0.77478279126E+02 0.  0.
         23    2    1    2    0    0 -0.80128000190E+02  0.37192824852E+02 -0.63620310808E+03  0.64876622179E+03  0.91320387499E+02 0.  0.
        -13    1    3    3    0    0 -0.14313439616E+02 -0.32916158419E+02 -0.88283344995E+02  0.95301086259E+02  0.00000000000E+00 0.  1.
         14    1    3    3    0    0 -0.28746387711E+02  0.32565952176E+02 -0.28957924334E+03  0.29281911519E+03  0.00000000000E+00 0. -1.
        -11    1    4    4    0    0 -0.13871084817E+02  0.56289627919E+02 -0.27611610910E+03  0.28213655366E+03  0.00000000000E+00 0.  1.
         11    1    4    4    0    0 -0.66256915374E+02 -0.19096803066E+02 -0.36008699898E+03  0.36662966813E+03  0.00000000000E+00 0. -1.
         21    1    1    2  503  501  0.33142690015E+02 -0.10603623346E+02 -0.38193291528E+02  0.51668193768E+02  0.00000000000E+00 0. -1.
          1    1    1    2  501    0  0.90045137503E+02 -0.26238995264E+02 -0.26730602420E+02  0.97525057119E+02  0.00000000000E+00 0. -1.
<scales pt_clust_5="13000.00000" pt_clust_6="13000.00000" pt_clust_7="13000.00000" pt_clust_8="13000.00000" pt_clust_9="23.67626" pt_clust_10="128.72351"></scales>
<clustering>
<clus scale="   23.676">  9 10 -1 -1</clus>
<clus scale="   77.478">  5  6 -1 -1</clus>
<clus scale="   88.641">  2  5  1 -1</clus>
<clus scale="   91.320">  7  8 -1 -1</clus>
<clus scale="  128.724">  1  9  2 -1</clus>
<clus scale="  128.724">  1  5  2 -1</clus>
</clustering>
</event>
<event>
10    4  0.3403565E-005  0.4771088E+03  0.7546771E-02  0.1073534E+00
          2   -1    0    0  503    0 -0.00000000000E+00  0.00000000000E+00  0.20041107619E+04  0.20041107619E+04  0.00000000000E+00 0. -1.
         21   -1    0    0  501  502  0.00000000000E+00 -0.00000000000E+00 -0.33269494935E+03  0.33269494935E+03  0.00000000000E+00 0. -1.
         24    2    1    2    0    0 -0.35539321084E+02  0.52879871351E+02  0.36689116626E+03  0.38087832787E+03  0.79999053860E+02 0.  0.
         23    2    1    2    0    0  0.26109810964E+03  0.33531918963E+03  0.75168136071E+03  0.86849274428E+03  0.92970947357E+02 0.  0.
        -11    1    3    3    0    0 -0.77340639080E+01  0.52742179198E+02  0.10739589929E+03  0.11989759128E+03  0.00000000000E+00 0.  1.
         12    1    3    3    0    0 -0.27805257176E+02  0.13769215300E+00  0.25949526698E+03  0.26098073658E+03  0.00000000000E+00 0. -1.
        -13    1    4    4    0    0  0.17531331321E+03  0.15958053081E+03  0.45692931389E+03  0.51476703613E+03  0.00000000000E+00 0.  1.
         13    1    4    4    0    0  0.85784796426E+02  0.17573865882E+03  0.29475204682E+03  0.35372570815E+03  0.00000000000E+00 0. -1.
         21    1    1    2  503  502 -0.19813057697E+03 -0.57407887103E+03  0.12484117673E+03  0.62000612505E+03  0.00000000000E+00 0. -1.
          1    1    1    2  501    0 -0.27428211587E+02  0.18587981005E+03  0.42800210885E+03  0.46742851406E+03  0.00000000000E+00 0. -1.
<scales pt_clust_5="13000.00000" pt_clust_6="13000.00000" pt_clust_7="13000.00000" pt_clust_8="13000.00000" pt_clust_9="467.96278" pt_clust_10="203.82383"></scales>
<clustering>
<clus scale="   79.999">  5  6 -1 -1</clus>
<clus scale="   92.971">  7  8 -1 -1</clus>
<clus scale="  102.270">  1  5  2 -1</clus>
<clus scale="  203.824">  2 10  1 -1</clus>
<clus scale="  467.963">  2  9  1 -1</clus>
<clus scale="  203.824">  2  5  1 -1</clus>
</clustering>
</event>
<event>
10    4  0.3403565E-005  0.3231026E+03  0.7546771E-02  0.1097123E+00
         21   -1    0    0  503  502  0.00000000000E+00  0.00000000000E+00  0.24214986730E+03  0.24214986730E+03  0.00000000000E+00 0. -1.
          2   -1    0    0  502    0 -0.00000000000E+00 -0.00000000000E+00 -0.93285205882E+03  0.93285205882E+03  0.00000000000E+00 0. -1.
         24    2    1    2    0    0  0.39601425123E+01  0.15283230992E+03 -0.26617604167E+03  0.31739674939E+03  0.80731739010E+02 0.  0.
         23    2    1    2    0    0 -0.53637514609E+02 -0.40951257402E+03 -0.27432155420E+03  0.50434387346E+03  0.92373677771E+02 0.  0.
        -13    1    3    3    0    0 -0.14492463600E+02  0.15187329119E+03 -0.22058633739E+03  0.26820488497E+03  0.00000000000E+00 0.  1.
         14    1    3    3    0    0  0.18452606113E+02  0.95901872719E+00 -0.45589704284E+02  0.49191864428E+02  0.00000000000E+00 0. -1.
        -11    1    4    4    0    0 -0.20515866834E+02 -0.10395135525E+03 -0.12112540953E+03  0.16092902126E+03  0.00000000000E+00 0.  1.
         11    1    4    4    0    0 -0.33121647774E+02 -0.30556121877E+03 -0.15319614466E+03  0.34341485220E+03  0.00000000000E+00 0. -1.
         21    1    1    2  503  501  0.29571265672E+01  0.22911548502E+02  0.41402747676E+02  0.47411719726E+02  0.00000000000E+00 0.  1.
          1    1    1    2  501    0  0.46720245529E+02  0.23376871560E+03 -0.19160734333E+03  0.30584958354E+03  0.00000000000E+00 0. -1.
<scales pt_clust_5="13000.00000" pt_clust_6="13000.00000" pt_clust_7="13000.00000" pt_clust_8="13000.00000" pt_clust_9="23.10159" pt_clust_10="309.61648"></scales>
<clustering>
<clus scale="   23.102">  1  9  2 -1</clus>
<clus scale="   80.732">  5  6 -1 -1</clus>
<clus scale="   92.374">  7  8 -1 -1</clus>
<clus scale="  175.528">  2  5  1 -1</clus>
<clus scale="  309.616">  1 10  2 -1</clus>
<clus scale="   23.102">  1  5  2 -1</clus>
</clustering>
</event>
<event>
10    4  0.3403565E-005  0.1015229E+03  0.7546771E-02  0.1282267E+00
         21   -1    0    0  503  502  0.00000000000E+00  0.00000000000E+00  0.30354826552E+03  0.30354826552E+03  0.00000000000E+00 0.  1.
         -1   -1    0    0    0  501 -0.00000000000E+00 -0.00000000000E+00 -0.53674501121E+02  0.53674501121E+02  0.00000000000E+00 0.  1.
         24    2    1    2    0    0  0.10569476582E+02 -0.48026629165E+02  0.90991731260E+02  0.13122747032E+03  0.80764366302E+02 0.  0.
         23    2    1    2    0    0  0.12124254278E+01  0.39029513483E+02  0.11063479948E+03  0.14872914344E+03  0.91408568278E+02 0.  0.
        -13    1    3    3    0    0  0.38352084653E+02 -0.30078093271E+02  0.84457391819E+02  0.97512179367E+02  0.00000000000E+00 0.  1.
         14    1    3    3    0    0 -0.27782608071E+02 -0.17948535894E+02  0.65343394409E+01  0.33715290951E+02  0.00000000000E+00 0. -1.
        -11    1    4    4    0    0  0.37757916390E+02 -0.90714547791E+01  0.47421315260E+02  0.61292191043E+02  0.00000000000E+00 0. -1.
         11    1    4    4    0    0 -0.36545490962E+02  0.48100968262E+02  0.63213484222E+02  0.87436952400E+02  0.00000000000E+00 0.  1.
         21    1    1    2  503  501  0.13856949573E+02 -0.17845068141E+02  0.23817918207E+02  0.32829175075E+02  0.00000000000E+00 0. -1.
         -2    1    1    2    0  502 -0.25638851583E+02  0.26842183823E+02  0.24429315447E+02  0.44436977801E+02  0.00000000000E+00 0.  1.
<scales pt_clust_5="13000.00000" pt_clust_6="13000.00000" pt_clust_7="13000.00000" pt_clust_8="13000.00000" pt_clust_9="22.59340" pt_clust_10="34.30879"></scales>
<clustering>
<clus scale="   22.593">  1  9  2 -1</clus>
<clus scale="   34.309">  1 10  2 -1</clus>
<clus scale="   80.764">  5  6 -1 -1</clus>
<clus scale="   91.409">  7  8 -1 -1</clus>
<clus scale="   92.056">  2  5  1 -1</clus>
<clus scale="   22.593">  1  5  2 -1</clus>
</clustering>
</event>
<event>
10    4  0.3403565E-005  0.1260953E+03  0.7546771E-02  0.1235934E+00
         -1   -1    0    0    0  501 -0.00000000000E+00  0.00000000000E+00  0.20559624594E+03  0.20559624594E+03  0.00000000000E+00 0.  1.
         21   -1    0    0  503  502  0.00000000000E+00 -0.00000000000E+00 -0.21825938087E+03  0.21825938087E+03  0.00000000000E+00 0.  1.
         23    2    1    2    0    0  0.78763637199E+02 -0.20391926123E+02 -0.16439097057E+02  0.12271766229E+03  0.90387164626E+02 0.  0.
         24    2    1    2    0    0 -0.96629404081E+02 -0.23225527923E+02 -0.45680492397E+01  0.12837378460E+03  0.81131341776E+02 0.  0.
        -11    1    4    4    0    0 -0.10109357587E+03 -0.41450261164E+02 -0.95455392217E+00  0.10926548588E+03  0.00000000000E+00 0.  1.
         12    1    4    4    0    0  0.44641717863E+01  0.18224733241E+02 -0.36134953176E+01  0.19108298717E+02  0.00000000000E+00 0. -1.
        -13    1    3    3    0    0  0.71415938378E+02  0.24014896621E+02 -0.17327878543E+01  0.75365469997E+02  0.00000000000E+00 0.  1.
         13    1    3    3    0    0  0.73476988215E+01 -0.44406822745E+02 -0.14706309203E+02  0.47352192290E+02  0.00000000000E+00 0. -1.
         21    1    1    2  503  501 -0.26260936471E+02  0.88190089852E+02 -0.32873027240E+02  0.97712663725E+02  0.00000000000E+00 0.  1.
         -2    1    1    2    0  502  0.44126703353E+02 -0.44572635805E+02  0.41217038607E+02  0.75051516194E+02  0.00000000000E+00 0.  1.
<scales pt_clust_5="13000.00000" pt_clust_6="13000.00000" pt_clust_7="13000.00000" pt_clust_8="13000.00000" pt_clust_9="74.69797" pt_clust_10="62.72073"></scales>
<clustering>
<clus scale="   62.721">  2 10  1 -1</clus>
<clus scale="   74.698">  2  9  1 -1</clus>
<clus scale="   81.131">  5  6 -1 -1</clus>
<clus scale="   90.387">  7  8 -1 -1</clus>
<clus scale="  119.635">  2  5  1 -1</clus>
<clus scale="   62.721">  2  5  1 -1</clus>
</clustering>
</event>
<event>
10    4  0.3403565E-005  0.1700311E+03  0.7546771E-02  0.1195896E+00
          2   -1    0    0  502    0 -0.00000000000E+00  0.00000000000E+00  0.10870325804E+04  0.10870325804E+04  0.00000000000E+00 0. -1.
         21   -1    0    0  503  502  0.00000000000E+00 -0.00000000000E+00 -0.75150721245E+02  0.75150721245E+02  0.00000000000E+00 0. -1.
         24    2    1    2    0    0 -0.75241606270E+01 -0.83941052515E+02  0.39270078415E+03  0.41078852414E+03  0.86200884019E+02 0.  0.
         23    2    1    2    0    0 -0.70212375668E+02  0.70621804803E+02  0.12138305881E+03  0.19184925778E+03  0.11025005095E+03 0.  0.
        -13    1    3    3    0    0 -0.32740839575E+02 -0.83349370115E+02  0.34924414992E+03  0.36054203129E+03  0.00000000000E+00 0.  1.
         14    1    3    3    0    0  0.25216678948E+02 -0.59168240052E+00  0.43456634223E+02  0.50246492845E+02  0.00000000000E+00 0. -1.
        -11    1    4    4    0    0 -0.46447715769E+02 -0.56418317070E+01  0.98032240887E+02  0.10862569134E+03  0.00000000000E+00 0. -1.
         11    1    4    4    0    0 -0.23764659899E+02  0.76263636510E+02  0.23350817922E+02  0.83223566443E+02  0.00000000000E+00 0.  1.
         21    1    1    2  503  501 -0.34290105084E+02  0.62917718301E+02  0.33030984869E+02  0.78901815849E+02  0.00000000000E+00 0. -1.
          1    1    1    2  501    0  0.11202664138E+03 -0.49598470588E+02  0.46476703132E+03  0.48064370386E+03  0.00000000000E+00 0. -1.
<scales pt_clust_5="13000.00000" pt_clust_6="13000.00000" pt_clust_7="13000.00000" pt_clust_8="13000.00000" pt_clust_9="71.65508" pt_clust_10="129.44309"></scales>
<clustering>
<clus scale="   71.655">  2  9  1 -1</clus>
<clus scale="   86.201">  5  6 -1 -1</clus>
<clus scale="  110.250">  7  8 -1 -1</clus>
<clus scale="  113.786">  1  5  2 -1</clus>
<clus scale="  129.443">  2 10  1 -1</clus>
<clus scale="   71.655">  2  5  1 -1</clus>
</clustering>
</event>
<event>
10    4  0.3403565E-005  0.1384821E+03  0.7546771E-02  0.1219604E+00
         21   -1    0    0  503  502  0.00000000000E+00  0.00000000000E+00  0.36097671690E+03  0.36097671690E+03  0.00000000000E+00 0. -1.
          2   -1    0    0  502    0 -0.00000000000E+00 -0.00000000000E+00 -0.25505682909E+03  0.25505682909E+03  0.00000000000E+00 0. -1.
         23    2    1    2    0    0  0.13070638462E+02  0.10052531998E+03 -0.18788414163E+03  0.23349544855E+03  0.94570038985E+02 0.  0.
         24    2    1    2    0    0  0.48263968434E+02 -0.10436238044E+03  0.24398530582E+03  0.28030018182E+03  0.76278734707E+02 0.  0.
        -11    1    4    4    0    0 -0.96903190921E+01 -0.54938937304E+02  0.14528923400E+03  0.15563145772E+03  0.00000000000E+00 0.  1.
         12    1    4    4    0    0  0.57954287527E+02 -0.49423443140E+02  0.98696071824E+02  0.12466872410E+03  0.00000000000E+00 0. -1.
        -11    1    3    3    0    0  0.46276728043E+02  0.51274930327E+02 -0.56239018682E+02  0.89070091842E+02  0.00000000000E+00 0. -1.
         11    1    3    3    0    0 -0.33206089581E+02  0.49250389654E+02 -0.13164512294E+03  0.14442535671E+03  0.00000000000E+00 0.  1.
         21    1    1    2  503  501  0.25038059383E+00 -0.20300449141E+02  0.23481551647E+02  0.31041169332E+02  0.00000000000E+00 0.  1.
          1    1    1    2  501    0 -0.61584987490E+02  0.24137509604E+02  0.26337171968E+02  0.71196746283E+02  0.00000000000E+00 0. -1.
<scales pt_clust_5="13000.00000" pt_clust_6="13000.00000" pt_clust_7="13000.00000" pt_clust_8="13000.00000" pt_clust_9="20.30199" pt_clust_10="65.08774"></scales>
<clustering>
<clus scale="   20.302">  1  9  2 -1</clus>
<clus scale="   65.088">  1 10  2 -1</clus>
<clus scale="   76.279">  5  6 -1 -1</clus>
<clus scale="   94.570">  7  8 -1 -1</clus>
<clus scale="  126.697">  1  5  2 -1</clus>
<clus scale="   20.302">  1  5  2 -1</clus>
</clustering>
</event>
<event>
10    4  0.3403565E-005  0.1904669E+03  0.7546771E-02  0.1190982E+00
          2   -1    0    0  502    0 -0.00000000000E+00  0.00000000000E+00  0.60909820849E+03  0.60909820849E+03  0.00000000000E+00 0. -1.
         21   -1    0    0  503  502  0.00000000000E+00 -0.00000000000E+00 -0.17959425319E+03  0.17959425319E+03  0.00000000000E+00 0.  1.
         23    2    1    2    0    0  0.12717837167E+02 -0.30561410293E+02  0.35322414520E+02  0.97891993146E+02  0.85084817525E+02 0.  0.
         24    2    1    2    0    0 -0.10873179097E+03 -0.14435632804E+03  0.10320086106E+03  0.22313597015E+03  0.80485350467E+02 0.  0.
        -11    1    4    4    0    0 -0.95984656114E+02 -0.61682036745E+02  0.62860703304E+02  0.13026586616E+03  0.00000000000E+00 0.  1.
         12    1    4    4    0    0 -0.12747134859E+02 -0.82674291295E+02  0.40340157756E+02  0.92870103995E+02  0.00000000000E+00 0. -1.
        -11    1    3    3    0    0  0.12106885738E+02 -0.55742918129E+02  0.32835007369E+01  0.57136949349E+02  0.00000000000E+00 0.  1.
         11    1    3    3    0    0  0.61095142929E+00  0.25181507836E+02  0.32038913783E+02  0.40755043797E+02  0.00000000000E+00 0. -1.
         21    1    1    2  503  501  0.10478108463E+02  0.18346413872E+02 -0.65612045157E+02  0.68929834822E+02  0.00000000000E+00 0.  1.
          1    1    1    2  501    0  0.85535845342E+02  0.15657132446E+03  0.35659272488E+03  0.39873466355E+03  0.00000000000E+00 0. -1.
<scales pt_clust_5="13000.00000" pt_clust_6="13000.00000" pt_clust_7="13000.00000" pt_clust_8="13000.00000" pt_clust_9="21.12775" pt_clust_10="172.62615"></scales>
<clustering>
<clus scale="   21.128">  2  9  1 -1</clus>
<clus scale="   80.485">  5  6 -1 -1</clus>
<clus scale="   85.085">  7  8 -1 -1</clus>
<clus scale="   90.176">  1  7  2 -1</clus>
<clus scale="  172.626">  2 10  1 -1</clus>
<clus scale="   21.128">  2  5  1 -1</clus>
</clustering>
</event>
<event>
10    4  0.3403565E-005  0.9249008E+02  0.7546771E-02  0.1301788E+00
         21   -1    0    0  503  502  0.00000000000E+00  0.00000000000E+00  0.29435637526E+03  0.29435637526E+03  0.00000000000E+00 0.  1.
          2   -1    0    0  502    0 -0.00000000000E+00 -0.00000000000E+00 -0.36017975921E+03  0.36017975921E+03  0.00000000000E+00 0. -1.
         24    2    1    2    0    0 -0.22672618344E+01  0.36811475182E+02 -0.24298579126E+03  0.25840466185E+03  0.79816347511E+02 0.  0.
         23    2    1    2    0    0 -0.39538728323E+01 -0.64113086049E+01 -0.86257295168E+02  0.12357806251E+03  0.88173003662E+02 0.  0.
        -11    1    3    3    0    0 -0.29145234603E+02 -0.12414653761E+02 -0.80338713262E+02  0.86359001712E+02  0.00000000000E+00 0.  1.
         12    1    3    3    0    0  0.26877972769E+02  0.49226128943E+02 -0.16264707800E+03  0.17204566014E+03  0.00000000000E+00 0. -1.
        -13    1    4    4    0    0 -0.41574546587E+02 -0.17441706119E+02 -0.27080050867E+02  0.52592634381E+02  0.00000000000E+00 0.  1.
         13    1    4    4    0    0  0.37620673754E+02  0.11030397514E+02 -0.59177244301E+02  0.70985428125E+02  0.00000000000E+00 0. -1.
         21    1    1    2  503  501  0.32505277372E+02 -0.71699023600E+01  0.15740059244E+03  0.16088177976E+03  0.00000000000E+00 0.  1.
          1    1    1    2  501    0 -0.26284142705E+02 -0.23230264217E+02  0.10601911004E+03  0.11167163036E+03  0.00000000000E+00 0. -1.
<scales pt_clust_5="13000.00000" pt_clust_6="13000.00000" pt_clust_7="13000.00000" pt_clust_8="13000.00000" pt_clust_9="33.28664" pt_clust_10="29.00212"></scales>
<clustering>
<clus scale="   33.287">  1  9  2 -1</clus>
<clus scale="   29.002">  1 10  2 -1</clus>
<clus scale="   79.816">  5  6 -1 -1</clus>
<clus scale="   84.561">  2  5  1 -1</clus>
<clus scale="   88.173">  7  8 -1 -1</clus>
<clus scale="   33.287">  1  5  2 -1</clus>
</clustering>
</event>
<event>
10    4  0.3403565E-005  0.1781719E+03  0.7546771E-02  0.1195346E+00
          2   -1    0    0  503    0 -0.00000000000E+00  0.00000000000E+00  0.26986892226E+03  0.26986892226E+03  0.00000000000E+00 0. -1.
         21   -1    0    0  501  502  0.00000000000E+00 -0.00000000000E+00 -0.60017417770E+03  0.60017417770E+03  0.00000000000E+00 0. -1.
         23    2    1    2    0    0 -0.69997650241E+01 -0.35126491788E+02 -0.58275163973E+02  0.11603684193E+03  0.93731994609E+02 0.  0.
         24    2    1    2    0    0  0.21482761261E+03  0.49386778697E+01 -0.39328186058E+03  0.45529280468E+03  0.80284633994E+02 0.  0.
        -11    1    4    4    0    0  0.18178087007E+02 -0.24517842525E+02 -0.49976302467E+02  0.58559356704E+02  0.00000000000E+00 0.  1.
         12    1    4    4    0    0  0.19664952560E+03  0.29456520395E+02 -0.34330555811E+03  0.39673344798E+03  0.00000000000E+00 0. -1.
        -13    1    3    3    0    0  0.16297221052E+02  0.24789046927E+02 -0.38847897787E+02  0.48880010475E+02  0.00000000000E+00 0.  1.
         13    1    3    3    0    0 -0.23296986077E+02 -0.59915538714E+02 -0.19427266186E+02  0.67156831456E+02  0.00000000000E+00 0. -1.
         21    1    1    2  503  502 -0.14302910339E+03  0.18653219833E+01 -0.16380366097E+02  0.14397610995E+03  0.00000000000E+00 0. -1.
          1    1    1    2  501    0 -0.64798744192E+02  0.28322491935E+02  0.13763213522E+03  0.15473734340E+03  0.00000000000E+00 0. -1.
<scales pt_clust_5="13000.00000" pt_clust_6="13000.00000" pt_clust_7="13000.00000" pt_clust_8="13000.00000" pt_clust_9="159.05850" pt_clust_10="70.71807"></scales>
<clustering>
<clus scale="   70.718">  2 10  1 -1</clus>
<clus scale="   80.285">  5  6 -1 -1</clus>
<clus scale="   93.732">  7  8 -1 -1</clus>
<clus scale="  100.088">  1  7  2 -1</clus>
<clus scale="  159.058">  1  9  2 -1</clus>
<clus scale="   70.718">  2  5  1 -1</clus>
</clustering>
</event>
<event>
10    4  0.3403565E-005  0.1038039E+03  0.7546771E-02  0.1276697E+00
          2   -1    0    0  503    0 -0.00000000000E+00  0.00000000000E+00  0.16664918040E+03  0.16664918040E+03  0.00000000000E+00 0. -1.
         21   -1    0    0  501  502  0.00000000000E+00 -0.00000000000E+00 -0.12300360404E+03  0.12300360404E+03  0.00000000000E+00 0.  1.
         24    2    1    2    0    0  0.81278385755E+01  0.40965496519E+02  0.38793750676E+02  0.98691231757E+02  0.80565318030E+02 0.  0.
         23    2    1    2    0    0  0.88112496292E+01 -0.64785771152E+02  0.49358065667E+02  0.12168572367E+03  0.89979789038E+02 0.  0.
        -13    1    3    3    0    0 -0.11609637023E+02  0.24857250062E+02 -0.20439447882E+02  0.34211658571E+02  0.00000000000E+00 0.  1.
         14    1    3    3    0    0  0.19737475598E+02  0.16108246457E+02  0.59233198558E+02  0.64479573186E+02  0.00000000000E+00 0. -1.
        -11    1    4    4    0    0 -0.33206726298E+02  0.20838456959E+00  0.90190180832E+01  0.34410358654E+02  0.00000000000E+00 0.  1.
         11    1    4    4    0    0  0.42017975927E+02 -0.64994155722E+02  0.40339047584E+02  0.87275365018E+02  0.00000000000E+00 0. -1.
         21    1    1    2  503  502 -0.22853133788E+02 -0.45455669683E+01 -0.13912485270E+02  0.27138259881E+02  0.00000000000E+00 0. -1.
          1    1    1    2  501    0  0.59140455833E+01  0.28365841602E+02 -0.30593754706E+02  0.42137569127E+02  0.00000000000E+00 0. -1.
<scales pt_clust_5="13000.00000" pt_clust_6="13000.00000" pt_clust_7="13000.00000" pt_clust_8="13000.00000" pt_clust_9="23.30081" pt_clust_10="26.84274"></scales>
<clustering>
<clus scale="   23.301">  2  9  1 -1</clus>
<clus scale="   26.843">  2 10  1 -1</clus>
<clus scale="   80.565">  5  6 -1 -1</clus>
<clus scale="   89.980">  7  8 -1 -1</clus>
<clus scale="   95.758">  1  5  2 -1</clus>
<clus scale="   23.301">  2  5  1 -1</clus>
</clustering>
</event>
<event>
10    4  0.3403565E-005  0.9810706E+02  0.7546771E-02  0.1288195E+00
          2   -1    0    0  503    0 -0.00000000000E+00  0.00000000000E+00  0.25962450350E+03  0.25962450350E+03  0.00000000000E+00 0. -1.
         21   -1    0    0  501  502  0.00000000000E+00 -0.00000000000E+00 -0.10397299370E+03  0.10397299370E+03  0.00000000000E+00 0. -1.
         24    2    1    2    0    0  0.16233952878E+02  0.19211035541E+02  0.57489512541E+02  0.10369082798E+03  0.82547796111E+02 0.  0.
         23    2    1    2    0    0 -0.47453626174E+02 -0.51412140590E+02  0.90695570236E+01  0.11444085799E+03  0.90107703748E+02 0.  0.
        -13    1    3    3    0    0  0.27159270368E+02 -0.26247716415E+02  0.36207887388E+02  0.52321885412E+02  0.00000000000E+00 0.  1.
         14    1    3    3    0    0 -0.10925317490E+02  0.45458751956E+02  0.21281625153E+02  0.51368942570E+02  0.00000000000E+00 0. -1.
        -13    1    4    4    0    0 -0.72094558651E+02 -0.23972651377E+02 -0.17862815684E+01  0.75996738107E+02  0.00000000000E+00 0. -1.
         13    1    4    4    0    0  0.24640932477E+02 -0.27439489214E+02  0.10855838592E+02  0.38444119878E+02  0.00000000000E+00 0.  1.
         21    1    1    2  503  502 -0.29179881679E+01  0.39258593540E+02 -0.98344857289E+01  0.40576704292E+02  0.00000000000E+00 0. -1.
          1    1    1    2  501    0  0.34137661464E+02 -0.70574884905E+01  0.98926925969E+02  0.10488910694E+03  0.00000000000E+00 0. -1.
<scales pt_clust_5="13000.00000" pt_clust_6="13000.00000" pt_clust_7="13000.00000" pt_clust_8="13000.00000" pt_clust_9="37.91335" pt_clust_10="34.85957"></scales>
<clustering>
<clus scale="   34.860">  2 10  1 -1</clus>
<clus scale="   37.913">  2  9  1 -1</clus>
<clus scale="   82.548">  5  6 -1 -1</clus>
<clus scale="   90.108">  7  8 -1 -1</clus>
<clus scale="   91.213">  1  5  2 -1</clus>
<clus scale="   34.860">  2  5  1 -1</clus>
</clustering>
</event>
<event>
10    4  0.3403565E-005  0.1250160E+03  0.7546771E-02  0.1249954E+00
         -1   -1    0    0    0  501 -0.00000000000E+00  0.00000000000E+00  0.13312281917E+03  0.13312281917E+03  0.00000000000E+00 0.  1.
         21   -1    0    0  503  502  0.00000000000E+00 -0.00000000000E+00 -0.53485848005E+03  0.53485848005E+03  0.00000000000E+00 0.  1.
         23    2    1    2    0    0 -0.28961773622E+02 -0.62301396594E+01 -0.12787245300E+03  0.15961840574E+03  0.90824403347E+02 0.  0.
         24    2    1    2    0    0  0.43035731388E+00  0.96727095344E+02  0.64241081246E+02  0.14134182138E+03  0.80587081903E+02 0.  0.
        -13    1    4    4    0    0 -0.31227471076E+02  0.86299782409E+02  0.53949564530E+02  0.10645826838E+03  0.00000000000E+00 0.  1.
         14    1    4    4    0    0  0.31657828390E+02  0.10427312935E+02  0.10291516717E+02  0.34883552998E+02  0.00000000000E+00 0. -1.
        -13    1    3    3    0    0  0.20328979745E+02 -0.23101916663E+02 -0.12851372422E+02  0.33348519369E+02  0.00000000000E+00 0. -1.
         13    1    3    3    0    0 -0.49290753367E+02  0.16871777003E+02 -0.11502108058E+03  0.12626988637E+03  0.00000000000E+00 0.  1.
         21    1    1    2  503  501  0.30635482575E+02  0.82091064499E+01 -0.16249725300E+03  0.16556352090E+03  0.00000000000E+00 0.  1.
         -2    1    1    2    0  502 -0.21040662668E+01 -0.98706062134E+02 -0.17560703613E+03  0.20145755120E+03  0.00000000000E+00 0.  1.
<scales pt_clust_5="13000.00000" pt_clust_6="13000.00000" pt_clust_7="13000.00000" pt_clust_8="13000.00000" pt_clust_9="31.71628" pt_clust_10="95.57581"></scales>
<clustering>
<clus scale="   31.716">  2  9  1 -1</clus>
<clus scale="   80.587">  5  6 -1 -1</clus>
<clus scale="   90.824">  7  8 -1 -1</clus>
<clus scale="   92.468">  1  7  2 -1</clus>
<clus scale="   95.576">  2 10  1 -1</clus>
<clus scale="   31.716">  2  5  1 -1</clus>
</clustering>
</event>
<event>
10    4  0.3403565E-005  0.2114848E+03  0.7546771E-02  0.1163908E+00
         21   -1    0    0  503  502  0.00000000000E+00  0.00000000000E+00  0.19971320119E+03  0.19971320119E+03  0.00000000000E+00 0. -1.
          2   -1    0    0  502    0 -0.00000000000E+00 -0.00000000000E+00 -0.11089376280E+04  0.11089376280E+04  0.00000000000E+00 0. -1.
         23    2    1    2    0    0  0.47063420628E+02 -0.64269713539E+02 -0.10043562331E+03  0.15756317544E+03  0.91614836058E+02 0.  0.
         24    2    1    2    0    0  0.19942542216E+03  0.68976793280E+02 -0.28584871600E+03  0.36447103024E+03  0.81248670331E+02 0.  0.
        -13    1    4    4    0    0  0.68873162749E+02 -0.68515215370E+01 -0.53945566250E+02  0.87752948739E+02  0.00000000000E+00 0.  1.
         14    1    4    4    0    0  0.13055225941E+03  0.75828314817E+02 -0.23190314975E+03  0.27671808150E+03  0.00000000000E+00 0. -1.
        -11    1    3    3    0    0  0.36697254501E+01 -0.44848219796E+02  0.15670574439E+01  0.45025385871E+02  0.00000000000E+00 0. -1.
         11    1    3    3    0    0  0.43393695178E+02 -0.19421493743E+02 -0.10200268076E+03  0.11253778957E+03  0.00000000000E+00 0.  1.
         21    1    1    2  503  501 -0.11264355502E+03  0.13450499312E+03  0.49653288892E+02  0.18233379489E+03  0.00000000000E+00 0. -1.
          1    1    1    2  501    0 -0.13384528776E+03 -0.13921207286E+03 -0.57259337640E+03  0.60428282864E+03  0.00000000000E+00 0. -1.
<scales pt_clust_5="13000.00000" pt_clust_6="13000.00000" pt_clust_7="13000.00000" pt_clust_8="13000.00000" pt_clust_9="170.06176" pt_clust_10="195.25498"></scales>
<clustering>
<clus scale="   81.249">  5  6 -1 -1</clus>
<clus scale="   91.615">  7  8 -1 -1</clus>
<clus scale="  121.404">  2  7  1 -1</clus>
<clus scale="  170.062">  1  9  2 -1</clus>
<clus scale="  195.255">  1 10  2 -1</clus>
<clus scale="  170.062">  1  5  2 -1</clus>
</clustering>
</event>
<event>
10    4  0.3403565E-005  0.1964246E+03  0.7546771E-02  0.1177524E+00
         21   -1    0    0  501  502  0.00000000000E+00  0.00000000000E+00  0.20061080196E+03  0.20061080196E+03  0.00000000000E+00 0. -1.
          2   -1    0    0  503    0 -0.00000000000E+00 -0.00000000000E+00 -0.17127704580E+04  0.17127704580E+04  0.00000000000E+00 0. -1.
         24    2    1    2    0    0 -0.32074891855E+02 -0.72260385540E+02 -0.45387037994E+03  0.46767784342E+03  0.80460433990E+02 0.  0.
         23    2    1    2    0    0 -0.10125488877E+03 -0.15719744802E+03 -0.11441237707E+03  0.23825020117E+03  0.93324038525E+02 0.  0.
        -11    1    3    3    0    0  0.54083944592E+01 -0.73939654110E+02 -0.26843719102E+03  0.27848671189E+03  0.00000000000E+00 0.  1.
         12    1    3    3    0    0 -0.37483286314E+02  0.16792685695E+01 -0.18543318892E+03  0.18919113153E+03  0.00000000000E+00 0. -1.
        -13    1    4    4    0    0 -0.70982055432E+02 -0.15635529474E+03 -0.72145410444E+02  0.18625356543E+03  0.00000000000E+00 0.  1.
         13    1    4    4    0    0 -0.30272833343E+02 -0.84215327675E+00 -0.42266966621E+02  0.51996635738E+02  0.00000000000E+00 0. -1.
         21    1    1    2  503  502  0.13829609602E+02  0.27127893315E+02  0.11698249741E+03  0.12088045912E+03  0.00000000000E+00 0. -1.
          1    1    1    2  501    0  0.11950017103E+03  0.20232994024E+03 -0.10608593965E+04  0.10865727563E+04  0.00000000000E+00 0. -1.
<scales pt_clust_5="13000.00000" pt_clust_6="13000.00000" pt_clust_7="13000.00000" pt_clust_8="13000.00000" pt_clust_9="30.44964" pt_clust_10="172.83893"></scales>
<clustering>
<clus scale="   30.450">  1  9  2 -1</clus>
<clus scale="   80.460">  5  6 -1 -1</clus>
<clus scale="   93.324">  7  8 -1 -1</clus>
<clus scale="  111.016">  2  5  1 -1</clus>
<clus scale="  172.839">  1 10  2 -1</clus>
<clus scale="   30.450">  1  5  2 -1</clus>
</clustering>
</event>
<event>
10    4  0.3403565E-005  0.2971857E+03  0.7546771E-02  0.1127383E+00
          2   -1    0    0  503    0 -0.00000000000E+00  0.00000000000E+00  0.10442213328E+04  0.10442213328E+04  0.00000000000E+00 0. -1.
         21   -1    0    0  501  502  0.00000000000E+00 -0.00000000000E+00 -0.24179943326E+03  0.24179943326E+03  0.00000000000E+00 0.  1.
         24    2    1    2    0    0 -0.64077082611E+02  0.13195980724E+02  0.14579501387E+03  0.17949242379E+03  0.81739450116E+02 0.  0.
         23    2    1    2    0    0  0.69843681176E+02  0.25097209229E+03  0.18717691558E+02  0.28037948047E+03  0.10196651501E+03 0.  0.
        -11    1    3    3    0    0 -0.65539552432E+02 -0.21716362683E+02  0.10634361331E+03  0.12679115676E+03  0.00000000000E+00 0.  1.
         12    1    3    3    0    0  0.14624698205E+01  0.34912343407E+02  0.39451400555E+02  0.52701267024E+02  0.00000000000E+00 0. -1.
        -11    1    4    4    0    0  0.82281491102E+01  0.19863594771E+03  0.98214977182E+01  0.19904874774E+03  0.00000000000E+00 0.  1.
         11    1    4    4    0    0  0.61615532066E+02  0.52336144580E+02  0.88961938394E+01  0.81330732728E+02  0.00000000000E+00 0. -1.
         21    1    1    2  503  502  0.58186141907E+01  0.24553240192E+02 -0.63080374693E+02  0.67940058482E+02  0.00000000000E+00 0.  1.
          1    1    1    2  501    0 -0.11585212756E+02 -0.28872131321E+03  0.70098956885E+03  0.75820880336E+03  0.00000000000E+00 0. -1.
<scales pt_clust_5="13000.00000" pt_clust_6="13000.00000" pt_clust_7="13000.00000" pt_clust_8="13000.00000" pt_clust_9="25.23327" pt_clust_10="279.14555"></scales>
<clustering>
<clus scale="   25.233">  2  9  1 -1</clus>
<clus scale="   81.739">  5  6 -1 -1</clus>
<clus scale="  101.967">  7  8 -1 -1</clus>
<clus scale="  104.680">  1  5  2 -1</clus>
<clus scale="  279.146">  2 10  1 -1</clus>
<clus scale="   25.233">  2  5  1 -1</clus>
</clustering>
</event>
<event>
10    4  0.3403565E-005  0.3005974E+03  0.7546771E-02  0.1121007E+00
         21   -1    0    0  503  502  0.00000000000E+00  0.00000000000E+00  0.10271621136E+03  0.10271621136E+03  0.00000000000E+00 0. -1.
          2   -1    0    0  502    0 -0.00000000000E+00 -0.00000000000E+00 -0.18867617095E+04  0.18867617095E+04  0.00000000000E+00 0. -1.
         24    2    1    2    0    0 -0.76538465580E+02 -0.39499181099E+02 -0.65672936957E+03  0.66726321529E+03  0.80798586702E+02 0.  0.
         23    2    1    2    0    0 -0.12074107400E+03 -0.22049387240E+03 -0.63894986791E+03  0.69277266073E+03  0.92092730655E+02 0.  0.
        -11    1    3    3    0    0 -0.15373374358E+01  0.20834464282E+02 -0.88003659558E+02  0.90449336116E+02  0.00000000000E+00 0.  1.
         12    1    3    3    0    0 -0.75001128144E+02 -0.60333645380E+02 -0.56872571001E+03  0.57681387918E+03  0.00000000000E+00 0. -1.
        -11    1    4    4    0    0 -0.33764886562E+02 -0.15555765073E+03 -0.37834835070E+03  0.41047012650E+03  0.00000000000E+00 0. -1.
         11    1    4    4    0    0 -0.86976187436E+02 -0.64936221664E+02 -0.26060151720E+03  0.28230253423E+03  0.00000000000E+00 0.  1.
         21    1    1    2  503  501 -0.25586352426E+02  0.33054206648E+02  0.53467588822E+01  0.42140596082E+02  0.00000000000E+00 0. -1.
          1    1    1    2  501    0  0.22286589200E+03  0.22693884685E+03 -0.49371301953E+03  0.58730144873E+03  0.00000000000E+00 0. -1.
<scales pt_clust_5="13000.00000" pt_clust_6="13000.00000" pt_clust_7="13000.00000" pt_clust_8="13000.00000" pt_clust_9="41.80002" pt_clust_10="286.14283"></scales>
<clustering>
<clus scale="   41.800">  1  9  2 -1</clus>
<clus scale="   80.799">  5  6 -1 -1</clus>
<clus scale="   92.093">  7  8 -1 -1</clus>
<clus scale="  118.497">  2  5  1 -1</clus>
<clus scale="  286.143">  1 10  2 -1</clus>
<clus scale="   41.800">  1  5  2 -1</clus>
</clustering>
</event>
<event>
10    4  0.3403565E-005  0.1496746E+03  0.7546771E-02  0.1203436E+00
         -3   -1    0    0    0  501 -0.00000000000E+00  0.00000000000E+00  0.94737557555E+03  0.94737557555E+03  0.00000000000E+00 0.  1.
         21   -1    0    0  503  502  0.00000000000E+00 -0.00000000000E+00 -0.48735599140E+02  0.48735599140E+02  0.00000000000E+00 0. -1.
         23    2    1    2    0    0 -0.12137821596E+03 -0.28590835943E+02  0.65422714820E+03  0.67294626643E+03  0.96402328045E+02 0.  0.
         24    2    1    2    0    0  0.76811007857E+02  0.56258411661E+02  0.15093511759E+03  0.19694754668E+03  0.83318585029E+02 0.  0.
        -13    1    4    4    0    0  0.45104914149E+02  0.63126627893E+02  0.14429923951E+03  0.16383435218E+03  0.00000000000E+00 0.  1.
         14    1    4    4    0    0  0.31706093708E+02 -0.68682162318E+01  0.66358780788E+01  0.33113194505E+02  0.00000000000E+00 0. -1.
        -11    1    3    3    0    0 -0.10589185768E+03 -0.73417955892E+01  0.62365046850E+03  0.63261907523E+03  0.00000000000E+00 0.  1.
         11    1    3    3    0    0 -0.15486358276E+02 -0.21249040354E+02  0.30576679699E+02  0.40327191199E+02  0.00000000000E+00 0. -1.
         21    1    1    2  503  501  0.23864299480E+02 -0.22607911016E+02  0.27135569575E+01  0.32984630080E+02  0.00000000000E+00 0. -1.
         -4    1    1    2    0  502  0.20702908624E+02 -0.50596647030E+01  0.90764153660E+02  0.93232731495E+02  0.00000000000E+00 0.  1.
<scales pt_clust_5="13000.00000" pt_clust_6="13000.00000" pt_clust_7="13000.00000" pt_clust_8="13000.00000" pt_clust_9="38.91635" pt_clust_10="21.31223"></scales>
<clustering>
<clus scale="   21.312">  2 10  1 -1</clus>
<clus scale="   38.916">  2  9  1 -1</clus>
<clus scale="   83.319">  5  6 -1 -1</clus>
<clus scale="   96.402">  7  8 -1 -1</clus>
<clus scale="  141.602">  2  5  1 -1</clus>
<clus scale="   21.312">  2  5  1 -1</clus>
</clustering>
</event>
<event>
10    4  0.3403565E-005  0.2558579E+03  0.7546771E-02  0.1155268E+00
         21   -1    0    0  501  502  0.00000000000E+00  0.00000000000E+00  0.20644911449E+04  0.20644911449E+04  0.00000000000E+00 0. -1.
          2   -1    0    0  503    0 -0.00000000000E+00 -0.00000000000E+00 -0.75068316258E+02  0.75068316258E+02  0.00000000000E+00 0. -1.
         24    2    1    2    0    0 -0.18843024275E+02 -0.14497749216E+02  0.12268120621E+03  0.14901890722E+03  0.81183200571E+02 0.  0.
         23    2    1    2    0    0 -0.96426940551E+02  0.24205015798E+03  0.56411592774E+03  0.62774759480E+03  0.89184241886E+02 0.  0.
        -11    1    3    3    0    0 -0.48428651328E+02 -0.18587165302E+02  0.95286187026E+02  0.10849089557E+03  0.00000000000E+00 0.  1.
         12    1    3    3    0    0  0.29585627054E+02  0.40894160851E+01  0.27395019186E+02  0.40528011649E+02  0.00000000000E+00 0. -1.
        -11    1    4    4    0    0 -0.73442996729E+02  0.12431146960E+03  0.39372068428E+03  0.41936045649E+03  0.00000000000E+00 0.  1.
         11    1    4    4    0    0 -0.22983943821E+02  0.11773868838E+03  0.17039524346E+03  0.20838713830E+03  0.00000000000E+00 0. -1.
         21    1    1    2  503  502  0.36687917868E+02 -0.20461667031E+03  0.12460806404E+04  0.12633016059E+04  0.00000000000E+00 0. -1.
          1    1    1    2  501    0  0.78582046958E+02 -0.22935738455E+02  0.56545054250E+02  0.99491353206E+02  0.00000000000E+00 0. -1.
<scales pt_clust_5="13000.00000" pt_clust_6="13000.00000" pt_clust_7="13000.00000" pt_clust_8="13000.00000" pt_clust_9="239.81123" pt_clust_10="81.86081"></scales>
<clustering>
<clus scale="   81.183">  5  6 -1 -1</clus>
<clus scale="   81.861">  1 10  2 -1</clus>
<clus scale="   83.847">  2  5  1 -1</clus>
<clus scale="   89.184">  7  8 -1 -1</clus>
<clus scale="  239.811">  1  9  2 -1</clus>
<clus scale="   81.861">  1  5  2 -1</clus>
</clustering>
</event>
<event>
10    4  0.3403565E-005  0.2229918E+03  0.7546771E-02  0.1132562E+00
         21   -1    0    0  503  502  0.00000000000E+00  0.00000000000E+00  0.10708442395E+03  0.10708442395E+03  0.00000000000E+00 0. -1.
          2   -1    0    0  502    0 -0.00000000000E+00 -0.00000000000E+00 -0.15328249306E+04  0.15328249306E+04  0.00000000000E+00 0. -1.
         24    2    1    2    0    0  0.22171473398E+03 -0.13165570720E+03 -0.99318846558E+03  0.10291892138E+04  0.79476167193E+02 0.  0.
         23    2    1    2    0    0 -0.79685629904E+02  0.12570456517E+03 -0.33358298102E+03  0.37664840972E+03  0.91842158105E+02 0.  0.
        -11    1    3    3    0    0  0.22963312539E+02  0.79252954273E+01 -0.14062165958E+03  0.14270450299E+03  0.00000000000E+00 0.  1.
         12    1    3    3    0    0  0.19875142144E+03 -0.13958100263E+03 -0.85256680600E+03  0.88648471082E+03  0.00000000000E+00 0. -1.
        -13    1    4    4    0    0 -0.50194189681E+02  0.11596000076E+03 -0.17979533879E+03  0.21975564225E+03  0.00000000000E+00 0.  1.
         13    1    4    4    0    0 -0.29491440223E+02  0.97445644185E+01 -0.15378764223E+03  0.15689276747E+03  0.00000000000E+00 0. -1.
         21    1    1    2  503  501 -0.54895020686E+02 -0.34013707665E+01  0.41229099953E+02  0.68737699278E+02  0.00000000000E+00 0. -1.
          1    1    1    2  501    0 -0.87134083394E+02  0.93525127910E+01 -0.14019816006E+03  0.16533403179E+03  0.00000000000E+00 0. -1.
<scales pt_clust_5="13000.00000" pt_clust_6="13000.00000" pt_clust_7="13000.00000" pt_clust_8="13000.00000" pt_clust_9="55.00030" pt_clust_10="100.73796"></scales>
<clustering>
<clus scale="   55.000">  1  9  2 -1</clus>
<clus scale="   79.476">  5  6 -1 -1</clus>
<clus scale="   91.842">  7  8 -1 -1</clus>
<clus scale="  100.738">  1 10  2 -1</clus>
<clus scale="  218.190">  2  5  1 -1</clus>
<clus scale="   55.000">  1  5  2 -1</clus>
</clustering>
</event>
<event>
10    4  0.3403565E-005  0.2072104E+03  0.7546771E-02  0.1178653E+00
         21   -1    0    0  501  502  0.00000000000E+00  0.00000000000E+00  0.98983639401E+02  0.98983639401E+02  0.00000000000E+00 0. -1.
          2   -1    0    0  503    0 -0.00000000000E+00 -0.00000000000E+00 -0.10795860400E+04  0.10795860400E+04  0.00000000000E+00 0. -1.
         23    2    1    2    0    0 -0.76507182177E+01 -0.30726914005E+00 -0.13058045372E+03  0.15995501736E+03  0.92063699573E+02 0.  0.
         24    2    1    2    0    0 -0.43424875943E+01  0.17977757484E+03 -0.81510010925E+02  0.21711453589E+03  0.90310609574E+02 0.  0.
        -11    1    4    4    0    0 -0.29949765065E+02  0.15491402420E+02 -0.23145512599E+02  0.40898493002E+02  0.00000000000E+00 0.  1.
         12    1    4    4    0    0  0.25607277470E+02  0.16428617242E+03 -0.58364498327E+02  0.17621604289E+03  0.00000000000E+00 0. -1.
        -11    1    3    3    0    0 -0.22210512088E+02 -0.33889100515E+02 -0.11159196648E+03  0.11872044880E+03  0.00000000000E+00 0.  1.
         11    1    3    3    0    0  0.14559793870E+02  0.33581831375E+02 -0.18988487245E+02  0.41234568555E+02  0.00000000000E+00 0. -1.
         21    1    1    2  503  502  0.18956793935E+02  0.87820957845E+01 -0.17594922377E+02  0.27314218571E+02  0.00000000000E+00 0. -1.
          1    1    1    2  501    0 -0.69635881235E+01 -0.18825240148E+03 -0.75091701356E+03  0.77418590757E+03  0.00000000000E+00 0. -1.
<scales pt_clust_5="13000.00000" pt_clust_6="13000.00000" pt_clust_7="13000.00000" pt_clust_8="13000.00000" pt_clust_9="20.89223" pt_clust_10="186.49443"></scales>
<clustering>
<clus scale="   20.892">  1  9  2 -1</clus>
<clus scale="   90.311">  5  6 -1 -1</clus>
<clus scale="   92.064">  7  8 -1 -1</clus>
<clus scale="   92.189">  2  7  1 -1</clus>
<clus scale="  186.494">  1 10  2 -1</clus>
<clus scale="   20.892">  1  5  2 -1</clus>
</clustering>
</event>
<event>
10    4  0.3403565E-005  0.1611166E+03  0.7546771E-02  0.1193907E+00
          2   -1    0    0  502    0 -0.00000000000E+00  0.00000000000E+00  0.38994224257E+03  0.38994224257E+03  0.00000000000E+00 0. -1.
         21   -1    0    0  503  502  0.00000000000E+00 -0.00000000000E+00 -0.38423036190E+03  0.38423036190E+03  0.00000000000E+00 0. -1.
         24    2    1    2    0    0  0.78581872192E+02  0.87245083933E+02  0.26119731157E+03  0.29739441524E+03  0.80203412257E+02 0.  0.
         23    2    1    2    0    0  0.77548530693E+02 -0.66570559026E+02 -0.69087508043E+02  0.15415171702E+03  0.92435134826E+02 0.  0.
        -13    1    3    3    0    0 -0.10402383724E+02  0.39114532531E+02  0.86929915956E+02  0.95890388102E+02  0.00000000000E+00 0.  1.
         14    1    3    3    0    0  0.88984255917E+02  0.48130551401E+02  0.17426739562E+03  0.20150402714E+03  0.00000000000E+00 0. -1.
        -11    1    4    4    0    0  0.86566415423E+02 -0.30509041634E+02 -0.72300169411E+02  0.11684117595E+03  0.00000000000E+00 0. -1.
         11    1    4    4    0    0 -0.90178847307E+01 -0.36061517393E+02  0.32126613684E+01  0.37310541067E+02  0.00000000000E+00 0.  1.
         21    1    1    2  503  501  0.71238967066E+01 -0.63200301585E+02 -0.13003948184E+03  0.14475943790E+03  0.00000000000E+00 0. -1.
          1    1    1    2  501    0 -0.16325429959E+03  0.42525776679E+02 -0.56358441026E+02  0.17786703430E+03  0.00000000000E+00 0. -1.
<scales pt_clust_5="13000.00000" pt_clust_6="13000.00000" pt_clust_7="13000.00000" pt_clust_8="13000.00000" pt_clust_9="63.60053" pt_clust_10="131.96329"></scales>
<clustering>
<clus scale="   63.601">  2  9  1 -1</clus>
<clus scale="   80.203">  5  6 -1 -1</clus>
<clus scale="   92.435">  7  8 -1 -1</clus>
<clus scale="  139.695">  1  5  2 -1</clus>
<clus scale="  131.963">  2 10  1 -1</clus>
<clus scale="   63.601">  2  5  1 -1</clus>
</clustering>
</event>
<event>
10    4  0.3403565E-005  0.1421251E+03  0.7546771E-02  0.1231418E+00
          2   -1    0    0  503    0 -0.00000000000E+00  0.00000000000E+00  0.47921489888E+03  0.47921489888E+03  0.00000000000E+00 0. -1.
         21   -1    0    0  501  502  0.00000000000E+00 -0.00000000000E+00 -0.23592236770E+03  0.23592236770E+03  0.00000000000E+00 0.  1.
         23    2    1    2    0    0  0.11114271129E+02 -0.32908217474E+02  0.32341551700E+03  0.33620979089E+03  0.85046746254E+02 0.  0.
         24    2    1    2    0    0 -0.44582406841E+02 -0.71551774353E+02 -0.82861852807E+02  0.14529669187E+03  0.84485469794E+02 0.  0.
        -13    1    4    4    0    0 -0.69958454600E+02 -0.52749540219E+02 -0.57609125753E+02  0.10485948089E+03  0.00000000000E+00 0.  1.
         14    1    4    4    0    0  0.25376047758E+02 -0.18802234133E+02 -0.25252727054E+02  0.40437210981E+02  0.00000000000E+00 0. -1.
        -11    1    3    3    0    0 -0.70719350276E+01  0.27397369263E+02  0.11853391927E+03  0.12186434312E+03  0.00000000000E+00 0. -1.
         11    1    3    3    0    0  0.18186206156E+02 -0.60305586737E+02  0.20488159774E+03  0.21434544776E+03  0.00000000000E+00 0.  1.
         21    1    1    2  503  502  0.95722018986E+02  0.10421716563E+03 -0.51975862819E+02  0.15074950363E+03  0.00000000000E+00 0.  1.
          1    1    1    2  501    0 -0.62253883273E+02  0.24282619984E+00  0.54714729799E+02  0.82881280180E+02  0.00000000000E+00 0. -1.
<scales pt_clust_5="13000.00000" pt_clust_6="13000.00000" pt_clust_7="13000.00000" pt_clust_8="13000.00000" pt_clust_9="114.28799" pt_clust_10="62.25439"></scales>
<clustering>
<clus scale="   62.254">  2 10  1 -1</clus>
<clus scale="   84.485">  5  6 -1 -1</clus>
<clus scale="   85.047">  7  8 -1 -1</clus>
<clus scale="   91.664">  1  7  2 -1</clus>
<clus scale="  114.288">  1  9  2 -1</clus>
<clus scale="   62.254">  2  5  1 -1</clus>
</clustering>
</event>
<event>
10    4  0.3403565E-005  0.2120484E+03  0.7546771E-02  0.1140588E+00
          2   -1    0    0  503    0 -0.00000000000E+00  0.00000000000E+00  0.60219944507E+03  0.60219944507E+03  0.00000000000E+00 0. -1.
         21   -1    0    0  501  502  0.00000000000E+00 -0.00000000000E+00 -0.42518044827E+03  0.42518044827E+03  0.00000000000E+00 0. -1.
         23    2    1    2    0    0  0.15598313082E+03 -0.29104652704E+02  0.22863519819E+03  0.29251412467E+03  0.90070202461E+02 0.  0.
         24    2    1    2    0    0 -0.24393193544E+03  0.21628848877E+02  0.28194548713E+03  0.38238983206E+03  0.82207844639E+02 0.  0.
        -13    1    4    4    0    0 -0.11649079686E+03  0.44772573077E+02  0.17192226026E+03  0.21244282202E+03  0.00000000000E+00 0.  1.
         14    1    4    4    0    0 -0.12744113858E+03 -0.23143724200E+02  0.11002322686E+03  0.16994701004E+03  0.00000000000E+00 0. -1.
        -11    1    3    3    0    0  0.78500256879E+02  0.18951780783E+01  0.44275515214E+02  0.90145456222E+02  0.00000000000E+00 0.  1.
         11    1    3    3    0    0  0.77482873940E+02 -0.30999830783E+02  0.18435968298E+03  0.20236866845E+03  0.00000000000E+00 0. -1.
         21    1    1    2  503  502  0.31349912931E+02  0.13433972063E+02 -0.24392785233E+03  0.24630080346E+03  0.00000000000E+00 0. -1.
          1    1    1    2  501    0  0.56598891688E+02 -0.59581682358E+01 -0.89633836193E+02  0.10617513315E+03  0.00000000000E+00 0. -1.
<scales pt_clust_5="13000.00000" pt_clust_6="13000.00000" pt_clust_7="13000.00000" pt_clust_8="13000.00000" pt_clust_9="34.10702" pt_clust_10="73.65658"></scales>
<clustering>
<clus scale="   34.107">  2  9  1 -1</clus>
<clus scale="   73.657">  2 10  1 -1</clus>
<clus scale="   82.208">  5  6 -1 -1</clus>
<clus scale="   90.070">  7  8 -1 -1</clus>
<clus scale="  208.830">  2  5  1 -1</clus>
<clus scale="   34.107">  2  5  1 -1</clus>
</clustering>
</event>
<event>
10    4  0.3403565E-005  0.1262228E+03  0.7546771E-02  0.1235567E+00
         21   -1    0    0  503  502  0.00000000000E+00  0.00000000000E+00  0.55285899165E+02  0.55285899165E+02  0.00000000000E+00 0. -1.
          2   -1    0    0  502    0 -0.00000000000E+00 -0.00000000000E+00 -0.12875275836E+04  0.12875275836E+04  0.00000000000E+00 0. -1.
         24    2    1    2    0    0  0.69622382099E+02 -0.65271155726E+02 -0.11310162185E+04  0.11379425127E+04  0.81288842163E+02 0.  0.
         23    2    1    2    0    0 -0.43867984736E+02  0.83001065683E+01 -0.74843736713E+02  0.12527415818E+03  0.89992988213E+02 0.  0.
        -13    1    3    3    0    0  0.24651191586E+02 -0.12399794001E+02 -0.79780468145E+02  0.84417766112E+02  0.00000000000E+00 0.  1.
         14    1    3    3    0    0  0.44971190513E+02 -0.52871361725E+02 -0.10512357504E+04  0.10535247466E+04  0.00000000000E+00 0. -1.
        -11    1    4    4    0    0 -0.58802141260E+02 -0.23061831150E+02 -0.61217653361E+02  0.87961019524E+02  0.00000000000E+00 0.  1.
         11    1    4    4    0    0  0.14934156523E+02  0.31361937718E+02 -0.13626083351E+02  0.37313138651E+02  0.00000000000E+00 0. -1.
         21    1    1    2  503  501  0.10065972349E+02  0.25185962344E+02 -0.77249784611E+01  0.28201627448E+02  0.00000000000E+00 0.  1.
          1    1    1    2  501    0 -0.35820369712E+02  0.31785086814E+02 -0.18656750702E+02  0.51395184374E+02  0.00000000000E+00 0. -1.
<scales pt_clust_5="13000.00000" pt_clust_6="13000.00000" pt_clust_7="13000.00000" pt_clust_8="13000.00000" pt_clust_9="27.12299" pt_clust_10="52.06033"></scales>
<clustering>
<clus scale="   27.123">  1  9  2 -1</clus>
<clus scale="   52.060">  1 10  2 -1</clus>
<clus scale="   81.289">  5  6 -1 -1</clus>
<clus scale="   89.993">  7  8 -1 -1</clus>
<clus scale="  120.172">  2  5  1 -1</clus>
<clus scale="   27.123">  1  5  2 -1</clus>
</clustering>
</event>
<event>
10    4  0.3403565E-005  0.1746373E+03  0.7546771E-02  0.1174345E+00
          2   -1    0    0  503    0 -0.00000000000E+00  0.00000000000E+00  0.99064718449E+03  0.99064718449E+03  0.00000000000E+00 0. -1.
         21   -1    0    0  501  502  0.00000000000E+00 -0.00000000000E+00 -0.44740461474E+03  0.44740461474E+03  0.00000000000E+00 0. -1.
         24    2    1    2    0    0 -0.14183393879E+03  0.73519803581E+02  0.62047311599E+03  0.64567778299E+03  0.79943005104E+02 0.  0.
         23    2    1    2    0    0  0.10497350000E+03 -0.76415530032E+02  0.20949193279E+03  0.26233277449E+03  0.89849016353E+02 0.  0.
        -13    1    3    3    0    0 -0.90051458812E+02  0.66105440193E+02  0.52558706161E+03  0.53732760379E+03  0.00000000000E+00 0.  1.
         14    1    3    3    0    0 -0.51782479981E+02  0.74143633878E+01  0.94886054381E+02  0.10835017920E+03  0.00000000000E+00 0. -1.
        -11    1    4    4    0    0  0.10107258807E+03 -0.47788436663E+02  0.10308095721E+03  0.15206934759E+03  0.00000000000E+00 0. -1.
         11    1    4    4    0    0  0.39009119251E+01 -0.28627093369E+02  0.10641097558E+03  0.11026342690E+03  0.00000000000E+00 0.  1.
         21    1    1    2  503  502  0.66105408766E+02  0.24391856824E+02 -0.40254478735E+03  0.40866513623E+03  0.00000000000E+00 0. -1.
          1    1    1    2  501    0 -0.29244969969E+02 -0.21496130372E+02  0.11582230831E+03  0.12137610553E+03  0.00000000000E+00 0. -1.
<scales pt_clust_5="13000.00000" pt_clust_6="13000.00000" pt_clust_7="13000.00000" pt_clust_8="13000.00000" pt_clust_9="39.71610" pt_clust_10="36.29536"></scales>
<clustering>
<clus scale="   36.295">  2 10  1 -1</clus>
<clus scale="   39.716">  2  9  1 -1</clus>
<clus scale="   79.943">  5  6 -1 -1</clus>
<clus scale="   89.849">  7  8 -1 -1</clus>
<clus scale="  169.753">  1  5  2 -1</clus>
<clus scale="   36.295">  2  5  1 -1</clus>
</clustering>
</event>
<event>
10    4  0.3403565E-005  0.2924822E+03  0.7546771E-02  0.1089060E+00
         21   -1    0    0  503  502  0.00000000000E+00  0.00000000000E+00  0.61725763113E+03  0.61725763113E+03  0.00000000000E+00 0.  1.
         -1   -1    0    0    0  501 -0.00000000000E+00 -0.00000000000E+00 -0.25602364210E+03  0.25602364210E+03  0.00000000000E+00 0.  1.
         24    2    1    2    0    0 -0.11796131533E+03 -0.11530518942E+03 -0.56061328371E+02  0.19208312344E+03  0.80888164460E+02 0.  0.
         23    2    1    2    0    0 -0.42042647964E+02 -0.32246357240E+02 -0.79011243072E+02  0.13175701404E+03  0.91157678860E+02 0.  0.
        -13    1    3    3    0    0 -0.12600372995E+03 -0.90778530728E+02 -0.36063192183E+02  0.15943097389E+03  0.00000000000E+00 0.  1.
         14    1    3    3    0    0  0.80424146217E+01 -0.24526658695E+02 -0.19998136188E+02  0.32652149557E+02  0.00000000000E+00 0. -1.
        -11    1    4    4    0    0 -0.63851631487E+02  0.28344000530E+00 -0.62190984116E+02  0.89133774110E+02  0.00000000000E+00 0. -1.
         11    1    4    4    0    0  0.21808983524E+02 -0.32529797245E+02 -0.16820258956E+02  0.42623239934E+02  0.00000000000E+00 0.  1.
         21    1    1    2  503  501  0.29464539242E+02 -0.98375198577E+01  0.58458526023E+02  0.66199207959E+02  0.00000000000E+00 0. -1.
         -2    1    1    2    0  502  0.13053942405E+03  0.15738906652E+03  0.43784803445E+03  0.48324192778E+03  0.00000000000E+00 0.  1.
<scales pt_clust_5="13000.00000" pt_clust_6="13000.00000" pt_clust_7="13000.00000" pt_clust_8="13000.00000" pt_clust_9="31.06342" pt_clust_10="215.15277"></scales>
<clustering>
<clus scale="   31.063">  1  9  2 -1</clus>
<clus scale="   80.888">  5  6 -1 -1</clus>
<clus scale="   91.158">  7  8 -1 -1</clus>
<clus scale="  104.601">  5  7 -1 -1</clus>
<clus scale="  215.153">  1 10  2 -1</clus>
<clus scale="   31.063">  1  5  2 -1</clus>
</clustering>
</event>
<event>
10    4  0.3403565E-005  0.1083662E+03  0.7546771E-02  0.1266083E+00
         21   -1    0    0  503  502  0.00000000000E+00  0.00000000000E+00  0.86572528857E+03  0.86572528857E+03  0.00000000000E+00 0.  1.
         -1   -1    0    0    0  501 -0.00000000000E+00 -0.00000000000E+00 -0.91334684814E+02  0.91334684814E+02  0.00000000000E+00 0.  1.
         24    2    1    2    0    0  0.22487569355E+02  0.27255403484E+01  0.20951645864E+02  0.95476407210E+02  0.90352938656E+02 0.  0.
         23    2    1    2    0    0 -0.74989225279E+02 -0.66536416871E+02  0.45964371439E+02  0.14628763799E+03  0.96108641174E+02 0.  0.
        -11    1    3    3    0    0  0.35350325937E+02 -0.21700504028E+02 -0.20031216933E+02  0.46063077088E+02  0.00000000000E+00 0.  1.
         12    1    3    3    0    0 -0.12862756582E+02  0.24426044377E+02  0.40982862797E+02  0.49413330123E+02  0.00000000000E+00 0. -1.
        -11    1    4    4    0    0 -0.20919830110E+02 -0.45476510614E+02  0.67810598866E+02  0.84285405783E+02  0.00000000000E+00 0.  1.
         11    1    4    4    0    0 -0.54069395169E+02 -0.21059906256E+02 -0.21846227427E+02  0.62002232204E+02  0.00000000000E+00 0. -1.
         21    1    1    2  503  501  0.16330243463E+02 -0.12683053929E+02  0.12234519569E+03  0.12408014997E+03  0.00000000000E+00 0.  1.
         -2    1    1    2    0  502  0.36171412461E+02  0.76493930451E+02  0.58512939077E+03  0.59121577822E+03  0.00000000000E+00 0.  1.
<scales pt_clust_5="13000.00000" pt_clust_6="13000.00000" pt_clust_7="13000.00000" pt_clust_8="13000.00000" pt_clust_9="20.67696" pt_clust_10="82.62415"></scales>
<clustering>
<clus scale="   20.677">  1  9  2 -1</clus>
<clus scale="   82.624">  1 10  2 -1</clus>
<clus scale="   90.353">  5  6 -1 -1</clus>
<clus scale="   96.109">  7  8 -1 -1</clus>
<clus scale="  103.296">  2  5  1 -1</clus>
<clus scale="   20.677">  1  5  2 -1</clus>
</clustering>
</event>
<event>
10    4  0.3403565E-005  0.2905489E+03  0.7546771E-02  0.1090063E+00
         21   -1    0    0  503  502  0.00000000000E+00  0.00000000000E+00  0.43897283504E+03  0.43897283504E+03  0.00000000000E+00 0. -1.
          2   -1    0    0  502    0 -0.00000000000E+00 -0.00000000000E+00 -0.10935154840E+04  0.10935154840E+04  0.00000000000E+00 0. -1.
         24    2    1    2    0    0  0.80198759796E+01  0.83245531198E+02 -0.21537747006E+03  0.24458127267E+03  0.80239687549E+02 0.  0.
         23    2    1    2    0    0  0.58033515677E+02  0.10911961870E+03 -0.56667396099E+03  0.58616656541E+03  0.84834451796E+02 0.  0.
        -13    1    3    3    0    0  0.21557341711E+02  0.58694881618E+01 -0.11485281164E+03  0.11700571873E+03  0.00000000000E+00 0.  1.
         14    1    3    3    0    0 -0.13537465732E+02  0.77376043036E+02 -0.10052465842E+03  0.12757555394E+03  0.00000000000E+00 0. -1.
        -11    1    4    4    0    0 -0.16143209030E+02  0.15607935400E+02 -0.37588780506E+02  0.43785011878E+02  0.00000000000E+00 0.  1.
         11    1    4    4    0    0  0.74176724708E+02  0.93511683299E+02 -0.52908518049E+03  0.54238155353E+03  0.00000000000E+00 0. -1.
         21    1    1    2  503  501 -0.38134980232E+02  0.60156044455E+02  0.35417416385E+03  0.36126495089E+03  0.00000000000E+00 0. -1.
          1    1    1    2  501    0 -0.27918411424E+02 -0.25252119435E+03 -0.22666538176E+03  0.34047553008E+03  0.00000000000E+00 0. -1.
<scales pt_clust_5="13000.00000" pt_clust_6="13000.00000" pt_clust_7="13000.00000" pt_clust_8="13000.00000" pt_clust_9="71.22518" pt_clust_10="217.36728"></scales>
<clustering>
<clus scale="   71.225">  1  9  2 -1</clus>
<clus scale="   80.240">  5  6 -1 -1</clus>
<clus scale="   84.834">  7  8 -1 -1</clus>
<clus scale="  114.946">  5  7 -1 -1</clus>
<clus scale="  217.367">  1 10  2 -1</clus>
<clus scale="   71.225">  1  5  2 -1</clus>
</clustering>
</event>
<event>
10    4  0.3403565E-005  0.1395732E+03  0.7546771E-02  0.1217123E+00
         21   -1    0    0  501  502  0.00000000000E+00  0.00000000000E+00  0.97249416345E+02  0.97249416345E+02  0.00000000000E+00 0.  1.
         -1   -1    0    0    0  501 -0.00000000000E+00 -0.00000000000E+00 -0.58712119565E+03  0.58712119565E+03  0.00000000000E+00 0.  1.
         23    2    1    2    0    0  0.95351569476E+01 -0.68804580168E+02 -0.92399293681E+02  0.14849334543E+03  0.93207589244E+02 0.  0.
         24    2    1    2    0    0  0.15624594225E+02  0.15985375240E+03 -0.13410495559E+03  0.22358142091E+03  0.78785547924E+02 0.  0.
        -13    1    4    4    0    0  0.21623926151E+02  0.57164883655E+02 -0.96165309040E+02  0.11394377898E+03  0.00000000000E+00 0.  1.
         14    1    4    4    0    0 -0.59993319264E+01  0.10268886875E+03 -0.37939646550E+02  0.10963764193E+03  0.00000000000E+00 0. -1.
        -13    1    3    3    0    0 -0.27929621271E+02 -0.65098397793E+02 -0.32948433543E+02  0.78124672239E+02  0.00000000000E+00 0.  1.
         13    1    3    3    0    0  0.37464778219E+02 -0.37061823755E+01 -0.59450860138E+02  0.70368673186E+02  0.00000000000E+00 0. -1.
         21    1    1    2  503  502 -0.20805616891E+02  0.13513675835E+02  0.40426870417E+01  0.25136357081E+02  0.00000000000E+00 0.  1.
         -2    1    1    2    0  503 -0.43541342812E+01 -0.10456284807E+03 -0.26741021708E+03  0.28715948858E+03  0.00000000000E+00 0.  1.
<scales pt_clust_5="13000.00000" pt_clust_6="13000.00000" pt_clust_7="13000.00000" pt_clust_8="13000.00000" pt_clust_9="24.80913" pt_clust_10="103.17549"></scales>
<clustering>
<clus scale="   24.809">  1  9  2 -1</clus>
<clus scale="   78.786">  5  6 -1 -1</clus>
<clus scale="   93.208">  7  8 -1 -1</clus>
<clus scale="  103.175">  1 10  2 -1</clus>
<clus scale="  130.385">  1  5  2 -1</clus>
<clus scale="   24.809">  1  5  2 -1</clus>
</clustering>
</event>
<event>
10    4  0.3403565E-005  0.9929267E+02  0.7546771E-02  0.1287030E+00
         21   -1    0    0  501  502  0.00000000000E+00  0.00000000000E+00  0.77781082305E+02  0.77781082305E+02  0.00000000000E+00 0. -1.
          2   -1    0    0  503    0 -0.00000000000E+00 -0.00000000000E+00 -0.23840075212E+03  0.23840075212E+03  0.00000000000E+00 0. -1.
         23    2    1    2    0    0  0.72072980146E+01  0.39924439262E+02 -0.14302148421E+03  0.17371070812E+03  0.89857438064E+02 0.  0.
         24    2    1    2    0    0  0.19067135371E+02 -0.48921836995E+02 -0.70500451889E+01  0.95445236949E+02  0.79392621401E+02 0.  0.
        -11    1    4    4    0    0 -0.27438760235E+02  0.29597113547E+00 -0.31215683086E+01  0.27617337867E+02  0.00000000000E+00 0.  1.
         12    1    4    4    0    0  0.46505895606E+02 -0.49217808130E+02 -0.39284768803E+01  0.67827899082E+02  0.00000000000E+00 0. -1.
        -11    1    3    3    0    0  0.28012187803E+02  0.59261833875E+02 -0.12157348878E+03  0.13811864753E+03  0.00000000000E+00 0. -1.
         11    1    3    3    0    0 -0.20804889788E+02 -0.19337394613E+02 -0.21447995426E+02  0.35592060594E+02  0.00000000000E+00 0.  1.
         21    1    1    2  503  502 -0.11268264722E+02  0.22679248081E+02 -0.80092992855E+01  0.26560703274E+02  0.00000000000E+00 0. -1.
          1    1    1    2  501    0 -0.15006168664E+02 -0.13681850348E+02 -0.25388411272E+01  0.20465186077E+02  0.00000000000E+00 0. -1.
<scales pt_clust_5="13000.00000" pt_clust_6="13000.00000" pt_clust_7="13000.00000" pt_clust_8="13000.00000" pt_clust_9="24.71336" pt_clust_10="20.30710"></scales>
<clustering>
<clus scale="   20.307">  1 10  2 -1</clus>
<clus scale="   24.713">  1  9  2 -1</clus>
<clus scale="   79.393">  5  6 -1 -1</clus>
<clus scale="   89.857">  7  8 -1 -1</clus>
<clus scale="   89.933">  1  5  2 -1</clus>
<clus scale="   20.307">  1  5  2 -1</clus>
</clustering>
</event>
<event>
10    4  0.5117007E-005  0.1627467E+03  0.7546771E-02  0.1187015E+00
         -1   -1    0    0    0  501 -0.00000000000E+00  0.00000000000E+00  0.77479182370E+03  0.77479182370E+03  0.00000000000E+00 0.  1.
         21   -1    0    0  503  502  0.00000000000E+00 -0.00000000000E+00 -0.55821535111E+03  0.55821535111E+03  0.00000000000E+00 0. -1.
         23    2    1    2    0    0  0.13403494825E+03  0.35025455505E+02  0.53969196064E+03  0.56437144936E+03  0.89752830525E+02 0.  0.
         24    2    1    2    0    0 -0.16651782616E+03 -0.13137330742E+03 -0.50017742681E+03  0.54921647819E+03  0.80462098511E+02 0.  0.
        -11    1    4    4    0    0 -0.27610967073E+02 -0.14541904181E+02 -0.23241564938E+02  0.38910189162E+02  0.00000000000E+00 0.  1.
         12    1    4    4    0    0 -0.13890685909E+03 -0.11683140324E+03 -0.47693586187E+03  0.51030628903E+03  0.00000000000E+00 0. -1.
        -13    1    3    3    0    0  0.10021482518E+03  0.59875777804E+02  0.31820246533E+03  0.33894089293E+03  0.00000000000E+00 0.  1.
         13    1    3    3    0    0  0.33820123071E+02 -0.24850322299E+02  0.22148949530E+03  0.22543055643E+03  0.00000000000E+00 0. -1.
         21    1    1    2  503  501 -0.14300642905E+02  0.20090304740E+02  0.45324497269E+01  0.25073329108E+02  0.00000000000E+00 0.  1.
         -2    1    1    2    0  502  0.46783520819E+02  0.76257547172E+02  0.17252948903E+03  0.19434591816E+03  0.00000000000E+00 0.  1.
<scales pt_clust_5="13000.00000" pt_clust_6="13000.00000" pt_clust_7="13000.00000" pt_clust_8="13000.00000" pt_clust_9="24.66027" pt_clust_10="91.95626"></scales>
<clustering>
<clus scale="   24.660">  1  9  2 -1</clus>
<clus scale="   80.462">  5  6 -1 -1</clus>
<clus scale="   89.753">  7  8 -1 -1</clus>
<clus scale="   91.956">  2 10  1 -1</clus>
<clus scale="  157.813">  2  5  1 -1</clus>
<clus scale="   91.956">  2  5  1 -1</clus>
</clustering>
</event>
<event>
10    4  0.3403565E-005  0.1980235E+03  0.7546771E-02  0.1185902E+00
          2   -1    0    0  502    0 -0.00000000000E+00  0.00000000000E+00  0.90378477280E+03  0.90378477280E+03  0.00000000000E+00 0. -1.
         21   -1    0    0  503  502  0.00000000000E+00 -0.00000000000E+00 -0.71252216409E+03  0.71252216409E+03  0.00000000000E+00 0. -1.
         24    2    1    2    0    0 -0.37584267118E+01 -0.39229034587E+02  0.66940360827E+02  0.11200461778E+03  0.80690641152E+02 0.  0.
         23    2    1    2    0    0  0.11499898833E+03 -0.96263048681E+02  0.73752405083E+03  0.75844464482E+03  0.93836090314E+02 0.  0.
        -11    1    3    3    0    0 -0.14820300522E+02 -0.62155918306E+02  0.52762803584E+02  0.82866838543E+02  0.00000000000E+00 0.  1.
         12    1    3    3    0    0  0.11061873811E+02  0.22926883719E+02  0.14177557243E+02  0.29137779234E+02  0.00000000000E+00 0. -1.
        -11    1    4    4    0    0  0.57427201455E+02 -0.77632346359E+01  0.13765445517E+03  0.14935494738E+03  0.00000000000E+00 0.  1.
         11    1    4    4    0    0  0.57571786878E+02 -0.88499814045E+02  0.59986959566E+03  0.60908969744E+03  0.00000000000E+00 0. -1.
         21    1    1    2  503  501 -0.12508847962E+03 -0.11722805295E+03 -0.25425639099E+03  0.30665266425E+03  0.00000000000E+00 0. -1.
          1    1    1    2  501    0  0.13847918003E+02  0.25272013622E+03 -0.35894541195E+03  0.43920501004E+03  0.00000000000E+00 0. -1.
<scales pt_clust_5="13000.00000" pt_clust_6="13000.00000" pt_clust_7="13000.00000" pt_clust_8="13000.00000" pt_clust_9="172.38708" pt_clust_10="174.37917"></scales>
<clustering>
<clus scale="   80.691">  5  6 -1 -1</clus>
<clus scale="   89.800">  1  5  2 -1</clus>
<clus scale="   93.836">  7  8 -1 -1</clus>
<clus scale="  172.387">  2  9  1 -1</clus>
<clus scale="  174.379">  2 10  1 -1</clus>
<clus scale="  172.387">  2  5  1 -1</clus>
</clustering>
</event>
<event>
10    4  0.3403565E-005  0.1035983E+03  0.7546771E-02  0.1281580E+00
         21   -1    0    0  503  502  0.00000000000E+00  0.00000000000E+00  0.24075622985E+03  0.24075622985E+03  0.00000000000E+00 0.  1.
          4   -1    0    0  502    0 -0.00000000000E+00 -0.00000000000E+00 -0.22934225777E+03  0.22934225777E+03  0.00000000000E+00 0. -1.
         24    2    1    2    0    0 -0.41851885076E+02 -0.58565489855E+01 -0.13176781598E+03  0.16004984840E+03  0.80419631891E+02 0.  0.
         23    2    1    2    0    0  0.12821747438E+02 -0.27412602982E+02 -0.88935245444E+01  0.10242663229E+03  0.97448818429E+02 0.  0.
        -11    1    3    3    0    0  0.10618008532E+02 -0.26147484367E+02 -0.74977003192E+02  0.80112321472E+02  0.00000000000E+00 0.  1.
         12    1    3    3    0    0 -0.52469893608E+02  0.20290935382E+02 -0.56790812790E+02  0.79937526927E+02  0.00000000000E+00 0. -1.
        -11    1    4    4    0    0  0.41006169678E+02 -0.28619208686E+02  0.26956172328E+02  0.56808452576E+02  0.00000000000E+00 0.  1.
         11    1    4    4    0    0 -0.28184422240E+02  0.12066057037E+01 -0.35849696872E+02  0.45618179711E+02  0.00000000000E+00 0. -1.
         21    1    1    2  503  501  0.16287440368E+01 -0.20467785405E+02  0.14550357462E+03  0.14694513696E+03  0.00000000000E+00 0.  1.
          3    1    1    2  501    0  0.27401393601E+02  0.53736937373E+02  0.65717379825E+01  0.60676869972E+02  0.00000000000E+00 0. -1.
<scales pt_clust_5="13000.00000" pt_clust_6="13000.00000" pt_clust_7="13000.00000" pt_clust_8="13000.00000" pt_clust_9="20.53249" pt_clust_10="54.23233"></scales>
<clustering>
<clus scale="   20.532">  1  9  2 -1</clus>
<clus scale="   54.232">  1 10  2 -1</clus>
<clus scale="   80.420">  5  6 -1 -1</clus>
<clus scale="   87.770">  2  5  1 -1</clus>
<clus scale="   97.449">  7  8 -1 -1</clus>
<clus scale="   20.532">  1  5  2 -1</clus>
</clustering>
</event>
<event>
10    4  0.3403565E-005  0.9884059E+02  0.7546771E-02  0.1288371E+00
          2   -1    0    0  503    0 -0.00000000000E+00  0.00000000000E+00  0.37558309260E+03  0.37558309260E+03  0.00000000000E+00 0. -1.
         21   -1    0    0  501  502  0.00000000000E+00 -0.00000000000E+00 -0.19472960062E+03  0.19472960062E+03  0.00000000000E+00 0. -1.
         23    2    1    2    0    0  0.31057704009E+02 -0.10123967879E+01  0.16922398464E+03  0.19472052982E+03  0.91179613006E+02 0.  0.
         24    2    1    2    0    0 -0.10998490839E+03 -0.23907190538E+02 -0.92507364817E+02  0.16635469671E+03  0.80299680810E+02 0.  0.
        -11    1    4    4    0    0 -0.29569789036E+02  0.57528752220E+01  0.10907486022E+02  0.32038121797E+02  0.00000000000E+00 0.  1.
         12    1    4    4    0    0 -0.80415119356E+02 -0.29660065760E+02 -0.10341485084E+03  0.13431657491E+03  0.00000000000E+00 0. -1.
        -13    1    3    3    0    0  0.15789163015E+02  0.30154123400E+02  0.15991830240E+02  0.37607279364E+02  0.00000000000E+00 0.  1.
         13    1    3    3    0    0  0.15268540993E+02 -0.31166520188E+02  0.15323215440E+03  0.15711325045E+03  0.00000000000E+00 0. -1.
         21    1    1    2  503  502  0.71076783966E+02 -0.93559109601E+01 -0.24593499462E+02  0.75791045016E+02  0.00000000000E+00 0.  1.
          1    1    1    2  501    0  0.78504204174E+01  0.34275498286E+02  0.12873037162E+03  0.13344642168E+03  0.00000000000E+00 0. -1.
<scales pt_clust_5="13000.00000" pt_clust_6="13000.00000" pt_clust_7="13000.00000" pt_clust_8="13000.00000" pt_clust_9="73.12623" pt_clust_10="35.16305"></scales>
<clustering>
<clus scale="   35.163">  2 10  1 -1</clus>
<clus scale="   73.126">  2  9  1 -1</clus>
<clus scale="   80.300">  5  6 -1 -1</clus>
<clus scale="   88.903">  2  5  1 -1</clus>
<clus scale="   91.180">  7  8 -1 -1</clus>
<clus scale="   35.163">  2  5  1 -1</clus>
</clustering>
</event>
<event>
10    4  0.3403565E-005  0.1007434E+03  0.7546771E-02  0.1283263E+00
         21   -1    0    0  501  502  0.00000000000E+00  0.00000000000E+00  0.10344099754E+03  0.10344099754E+03  0.00000000000E+00 0. -1.
          2   -1    0    0  503    0 -0.00000000000E+00 -0.00000000000E+00 -0.90774836671E+03  0.90774836671E+03  0.00000000000E+00 0. -1.
         23    2    1    2    0    0  0.42117062138E+02 -0.12435382221E+02 -0.35219928703E+03  0.36783312075E+03  0.96583545589E+02 0.  0.
         24    2    1    2    0    0  0.74794572099E+02 -0.24763373577E+02 -0.83522730152E+01  0.11833450649E+03  0.87896770560E+02 0.  0.
        -11    1    4    4    0    0  0.17096610173E+02  0.18990352398E+02 -0.33095676227E+02  0.41812095721E+02  0.00000000000E+00 0.  1.
         12    1    4    4    0    0  0.57697961926E+02 -0.43753725975E+02  0.24743403212E+02  0.76522410768E+02  0.00000000000E+00 0. -1.
        -13    1    3    3    0    0  0.39841857724E+02  0.38117495857E+02 -0.16857725895E+03  0.17736575023E+03  0.00000000000E+00 0.  1.
         13    1    3    3    0    0  0.22752044140E+01 -0.50552878078E+02 -0.18362202808E+03  0.19046737052E+03  0.00000000000E+00 0. -1.
         21    1    1    2  503  502 -0.22645291884E+02  0.24742259063E+02  0.28053491008E+02  0.43726273404E+02  0.00000000000E+00 0. -1.
          1    1    1    2  501    0 -0.94266342352E+02  0.12456496735E+02 -0.47180930013E+03  0.48129546362E+03  0.00000000000E+00 0. -1.
<scales pt_clust_5="13000.00000" pt_clust_6="13000.00000" pt_clust_7="13000.00000" pt_clust_8="13000.00000" pt_clust_9="33.54085" pt_clust_10="96.90158"></scales>
<clustering>
<clus scale="   33.541">  1  9  2 -1</clus>
<clus scale="   87.897">  5  6 -1 -1</clus>
<clus scale="   96.584">  7  8 -1 -1</clus>
<clus scale="   96.902">  1 10  2 -1</clus>
<clus scale="   92.448">  1  5  2 -1</clus>
<clus scale="   33.541">  1  5  2 -1</clus>
</clustering>
</event>
<event>
10    4  0.3403565E-005  0.2156182E+03  0.7546771E-02  0.1138000E+00
         21   -1    0    0  501  502  0.00000000000E+00  0.00000000000E+00  0.92371312897E+02  0.92371312897E+02  0.00000000000E+00 0.  1.
          2   -1    0    0  503    0 -0.00000000000E+00 -0.00000000000E+00 -0.13386730303E+04  0.13386730303E+04  0.00000000000E+00 0. -1.
         24    2    1    2    0    0 -0.11595822972E+03  0.15157811413E+03 -0.55917496551E+03  0.59632353599E+03  0.80640447703E+02 0.  0.
         23    2    1    2    0    0  0.22083399874E+03 -0.80108963034E+02 -0.24782776749E+03  0.35339786096E+03  0.91029362478E+02 0.  0.
        -11    1    3    3    0    0 -0.55555719204E+02  0.73959783167E+02 -0.15633360353E+03  0.18164989142E+03  0.00000000000E+00 0.  1.
         12    1    3    3    0    0 -0.60402510512E+02  0.77618330962E+02 -0.40284136198E+03  0.41467364457E+03  0.00000000000E+00 0. -1.
        -11    1    4    4    0    0  0.16004223031E+03 -0.30368838336E+02 -0.11612946246E+03  0.20005457724E+03  0.00000000000E+00 0.  1.
         11    1    4    4    0    0  0.60791768438E+02 -0.49740124699E+02 -0.13169830503E+03  0.15334328372E+03  0.00000000000E+00 0. -1.
         21    1    1    2  503  502 -0.65082937877E+02  0.62347278362E+01 -0.49872217030E+02  0.82230764714E+02  0.00000000000E+00 0.  1.
          1    1    1    2  501    0 -0.39792831150E+02 -0.77703878931E+02 -0.38942676741E+03  0.39909218156E+03  0.00000000000E+00 0. -1.
<scales pt_clust_5="13000.00000" pt_clust_6="13000.00000" pt_clust_7="13000.00000" pt_clust_8="13000.00000" pt_clust_9="65.38089" pt_clust_10="88.91370"></scales>
<clustering>
<clus scale="   65.381">  1  9  2 -1</clus>
<clus scale="   80.640">  5  6 -1 -1</clus>
<clus scale="   88.914">  1 10  2 -1</clus>
<clus scale="   91.029">  7  8 -1 -1</clus>
<clus scale="  211.442">  2  5  1 -1</clus>
<clus scale="   65.381">  1  5  2 -1</clus>
</clustering>
</event>
<event>
10    4  0.7747269E-005  0.5215380E+03  0.7546771E-02  0.1027085E+00
          2   -1    0    0  502    0 -0.00000000000E+00  0.00000000000E+00  0.11617792896E+04  0.11617792896E+04  0.00000000000E+00 0. -1.
         21   -1    0    0  503  502  0.00000000000E+00 -0.00000000000E+00 -0.64826555593E+03  0.64826555593E+03  0.00000000000E+00 0.  1.
         23    2    1    2    0    0 -0.10167735813E+03 -0.23612287692E+03 -0.28128543193E+03  0.39249254230E+03  0.94003209428E+02 0.  0.
         24    2    1    2    0    0  0.48737020519E+03 -0.13908378185E+03  0.23768182522E+03  0.56514267502E+03  0.77585938173E+02 0.  0.
        -11    1    4    4    0    0  0.48952659567E+03 -0.14070948206E+03  0.23387601670E+03  0.56047608102E+03  0.00000000000E+00 0.  1.
         12    1    4    4    0    0 -0.21563904780E+01  0.16257002031E+01  0.38058085182E+01  0.46665939958E+01  0.00000000000E+00 0. -1.
        -13    1    3    3    0    0 -0.61806122842E+02 -0.21539442659E+03 -0.25850560648E+03  0.34211095336E+03  0.00000000000E+00 0.  1.
         13    1    3    3    0    0 -0.39871235288E+02 -0.20728450324E+02 -0.22779825453E+02  0.50381588938E+02  0.00000000000E+00 0. -1.
         21    1    1    2  503  501  0.45062969411E+01 -0.45796216428E+02 -0.82123081148E+01  0.46744434490E+02  0.00000000000E+00 0. -1.
          1    1    1    2  501    0 -0.39019914400E+03  0.42100287520E+03  0.56532964848E+03  0.80566519371E+03  0.00000000000E+00 0. -1.
<scales pt_clust_5="13000.00000" pt_clust_6="13000.00000" pt_clust_7="13000.00000" pt_clust_8="13000.00000" pt_clust_9="46.01739" pt_clust_10="515.73494"></scales>
<clustering>
<clus scale="   46.017">  2  9  1 -1</clus>
<clus scale="   77.586">  5  6 -1 -1</clus>
<clus scale="   94.003">  7  8 -1 -1</clus>
<clus scale="  294.605">  1  7  2 -1</clus>
<clus scale="  515.735">  2 10  1 -1</clus>
<clus scale="   46.017">  2  5  1 -1</clus>
</clustering>
</event>
<event>
10    4  0.3403565E-005  0.2334604E+03  0.7546771E-02  0.1124228E+00
          4   -1    0    0  502    0 -0.00000000000E+00  0.00000000000E+00  0.41502252238E+02  0.41502252238E+02  0.00000000000E+00 0. -1.
         21   -1    0    0  503  502  0.00000000000E+00 -0.00000000000E+00 -0.12448912861E+04  0.12448912861E+04  0.00000000000E+00 0. -1.
         24    2    1    2    0    0 -0.57422725822E+02  0.44855612527E+02 -0.18486005747E+03  0.21539389976E+03  0.83137812020E+02 0.  0.
         23    2    1    2    0    0 -0.83783694273E+02 -0.13688886434E+02 -0.23134825298E+03  0.26296633164E+03  0.91772459810E+02 0.  0.
        -11    1    3    3    0    0 -0.29801180584E+01 -0.21188611406E+02 -0.18410335061E+02  0.28227270396E+02  0.00000000000E+00 0.  1.
         12    1    3    3    0    0 -0.54442607764E+02  0.66044223934E+02 -0.16644972241E+03  0.18716662936E+03  0.00000000000E+00 0. -1.
        -13    1    4    4    0    0 -0.99059741989E+02  0.45003550975E+01 -0.20342491972E+03  0.22630683516E+03  0.00000000000E+00 0. -1.
         13    1    4    4    0    0  0.15276047716E+02 -0.18189241532E+02 -0.27923333267E+02  0.36659496478E+02  0.00000000000E+00 0.  1.
         21    1    1    2  503  501  0.18569333008E+02  0.34295774065E+02 -0.25644014194E+03  0.25938883293E+03  0.00000000000E+00 0. -1.
          3    1    1    2  501    0  0.12263708709E+03 -0.65462500159E+02 -0.53074058146E+03  0.54864447401E+03  0.00000000000E+00 0. -1.
<scales pt_clust_5="13000.00000" pt_clust_6="13000.00000" pt_clust_7="13000.00000" pt_clust_8="13000.00000" pt_clust_9="39.00026" pt_clust_10="140.76649"></scales>
<clustering>
<clus scale="   39.000">  2  9  1 -1</clus>
<clus scale="   83.138">  5  6 -1 -1</clus>
<clus scale="   91.772">  7  8 -1 -1</clus>
<clus scale="  110.618">  5  7 -1 -1</clus>
<clus scale="  140.766">  2 10  1 -1</clus>
<clus scale="   39.000">  2  5  1 -1</clus>
</clustering>
</event>
<event>
10    4  0.3403565E-005  0.1219786E+03  0.7546771E-02  0.1243007E+00
         21   -1    0    0  503  502  0.00000000000E+00  0.00000000000E+00  0.67017947354E+02  0.67017947354E+02  0.00000000000E+00 0. -1.
          2   -1    0    0  502    0 -0.00000000000E+00 -0.00000000000E+00 -0.68625493263E+03  0.68625493263E+03  0.00000000000E+00 0. -1.
         24    2    1    2    0    0 -0.84019552041E+01 -0.36992180601E+02 -0.12682763664E+03  0.15573225414E+03  0.82026040304E+02 0.  0.
         23    2    1    2    0    0  0.12584033979E+03  0.95291933247E+02 -0.33599430375E+03  0.38251013403E+03  0.92225196246E+02 0.  0.
        -13    1    3    3    0    0  0.59745403357E+01 -0.44437607208E+02 -0.22519126039E+02  0.50174765611E+02  0.00000000000E+00 0.  1.
         14    1    3    3    0    0 -0.14376495540E+02  0.74454266068E+01 -0.10430851060E+03  0.10555748853E+03  0.00000000000E+00 0. -1.
        -13    1    4    4    0    0  0.98630799293E+02  0.41979841661E+02 -0.28280121899E+03  0.30243490396E+03  0.00000000000E+00 0.  1.
         13    1    4    4    0    0  0.27209540498E+02  0.53312091586E+02 -0.53193084759E+02  0.80075230063E+02  0.00000000000E+00 0. -1.
         21    1    1    2  503  501 -0.62789851195E+02 -0.15594727928E+02 -0.31056883664E+02  0.71765527764E+02  0.00000000000E+00 0.  1.
          1    1    1    2  501    0 -0.54648533392E+02 -0.42705024718E+02 -0.12535816122E+03  0.14326496404E+03  0.00000000000E+00 0. -1.
<scales pt_clust_5="13000.00000" pt_clust_6="13000.00000" pt_clust_7="13000.00000" pt_clust_8="13000.00000" pt_clust_9="64.69746" pt_clust_10="80.84930"></scales>
<clustering>
<clus scale="   64.697">  1  9  2 -1</clus>
<clus scale="   80.849">  1 10  2 -1</clus>
<clus scale="   82.026">  5  6 -1 -1</clus>
<clus scale="   92.225">  7  8 -1 -1</clus>
<clus scale="  114.462">  2  5  1 -1</clus>
<clus scale="   64.697">  1  5  2 -1</clus>
</clustering>
</event>
<event>
10    4  0.3403565E-005  0.1245712E+03  0.7546771E-02  0.1258510E+00
         21   -1    0    0  501  502  0.00000000000E+00  0.00000000000E+00  0.93885133351E+02  0.93885133351E+02  0.00000000000E+00 0. -1.
          2   -1    0    0  503    0 -0.00000000000E+00 -0.00000000000E+00 -0.38988354239E+03  0.38988354239E+03  0.00000000000E+00 0. -1.
         24    2    1    2    0    0 -0.98563986379E+01  0.63287159136E+01 -0.20031294262E+03  0.21511603027E+03  0.77539862380E+02 0.  0.
         23    2    1    2    0    0  0.41717062546E+02 -0.91370820557E+02 -0.55654360799E+02  0.14664378643E+03  0.91203355566E+02 0.  0.
        -11    1    3    3    0    0 -0.40760405510E+02  0.18780615830E+02 -0.12288500395E+03  0.13082372256E+03  0.00000000000E+00 0.  1.
         12    1    3    3    0    0  0.30904006872E+02 -0.12451899917E+02 -0.77427938673E+02  0.84292307712E+02  0.00000000000E+00 0. -1.
        -13    1    4    4    0    0  0.36616762762E+02 -0.11235053729E+02  0.13561457953E+02  0.40631599640E+02  0.00000000000E+00 0.  1.
         13    1    4    4    0    0  0.51002997833E+01 -0.80135766828E+02 -0.69215818752E+02  0.10601218679E+03  0.00000000000E+00 0. -1.
         21    1    1    2  503  502 -0.27272008324E+02  0.74758095097E+01  0.95367654458E+01  0.29842923131E+02  0.00000000000E+00 0. -1.
          1    1    1    2  501    0 -0.45886555837E+01  0.77566295133E+02 -0.49567871071E+02  0.92165935916E+02  0.00000000000E+00 0. -1.
<scales pt_clust_5="13000.00000" pt_clust_6="13000.00000" pt_clust_7="13000.00000" pt_clust_8="13000.00000" pt_clust_9="28.27809" pt_clust_10="84.85240"></scales>
<clustering>
<clus scale="   28.278">  1  9  2 -1</clus>
<clus scale="   77.540">  5  6 -1 -1</clus>
<clus scale="   78.871">  2  5  1 -1</clus>
<clus scale="   84.852">  1 10  2 -1</clus>
<clus scale="   91.203">  7  8 -1 -1</clus>
<clus scale="   28.278">  1  5  2 -1</clus>
</clustering>
</event>
<event>
10    4  0.3403565E-005  0.2232648E+03  0.7546771E-02  0.1145097E+00
         21   -1    0    0  503  502  0.00000000000E+00  0.00000000000E+00  0.35414241745E+03  0.35414241745E+03  0.00000000000E+00 0.  1.
          2   -1    0    0  502    0 -0.00000000000E+00 -0.00000000000E+00 -0.51761692763E+03  0.51761692763E+03  0.00000000000E+00 0. -1.
         23    2    1    2    0    0 -0.94344619124E+02 -0.55855803974E+02 -0.33768672912E+03  0.37391578330E+03  0.11730263418E+03 0.  0.
         24    2    1    2    0    0 -0.17059598858E+03  0.24496889806E+02  0.75844055696E+02  0.20482231405E+03  0.80602547225E+02 0.  0.
        -11    1    4    4    0    0 -0.17527657366E+03  0.12323684260E+02  0.63404414856E+02  0.18679901041E+03  0.00000000000E+00 0.  1.
         12    1    4    4    0    0  0.46805850769E+01  0.12173205546E+02  0.12439640840E+02  0.18023303642E+02  0.00000000000E+00 0. -1.
        -11    1    3    3    0    0 -0.91170832127E+02  0.73780011896E+01 -0.14843792407E+03  0.17435702692E+03  0.00000000000E+00 0. -1.
         11    1    3    3    0    0 -0.31737869978E+01 -0.63233805164E+02 -0.18924880505E+03  0.19955875639E+03  0.00000000000E+00 0.  1.
         21    1    1    2  503  501  0.39172596668E+02 -0.81144114078E+01  0.39872514528E+02  0.56481443121E+02  0.00000000000E+00 0.  1.
          1    1    1    2  501    0  0.22576801104E+03  0.39473325577E+02  0.58495648717E+02  0.23653980460E+03  0.00000000000E+00 0. -1.
<scales pt_clust_5="13000.00000" pt_clust_6="13000.00000" pt_clust_7="13000.00000" pt_clust_8="13000.00000" pt_clust_9="29.56618" pt_clust_10="219.90611"></scales>
<clustering>
<clus scale="   29.566">  9 10 -1 -1</clus>
<clus scale="   80.603">  5  6 -1 -1</clus>
<clus scale="  117.303">  7  8 -1 -1</clus>
<clus scale="  160.564">  2  7  1 -1</clus>
<clus scale="  219.906">  1  9  2 -1</clus>
<clus scale="  219.906">  1  5  2 -1</clus>
</clustering>
</event>
<event>
10    4  0.3403565E-005  0.1705140E+03  0.7546771E-02  0.1186688E+00
         21   -1    0    0  501  502  0.00000000000E+00  0.00000000000E+00  0.30401453661E+02  0.30401453661E+02  0.00000000000E+00 0. -1.
          2   -1    0    0  503    0 -0.00000000000E+00 -0.00000000000E+00 -0.22974757796E+04  0.22974757796E+04  0.00000000000E+00 0. -1.
         23    2    1    2    0    0 -0.44699741182E+02 -0.85467420300E+02 -0.67700929766E+03  0.69009492014E+03  0.92664248190E+02 0.  0.
         24    2    1    2    0    0 -0.12317134554E+03  0.89555032781E+02 -0.86759063143E+03  0.88459392080E+03  0.81250333641E+02 0.  0.
        -13    1    4    4    0    0 -0.71111184921E+02  0.67038667059E+01 -0.28322834375E+03  0.29209593827E+03  0.00000000000E+00 0.  1.
         14    1    4    4    0    0 -0.52060160615E+02  0.82851166075E+02 -0.58436228767E+03  0.59249798253E+03  0.00000000000E+00 0. -1.
        -11    1    3    3    0    0  0.24361013243E+02 -0.46010068144E+02 -0.20975129962E+03  0.21611569362E+03  0.00000000000E+00 0. -1.
         11    1    3    3    0    0 -0.69060754426E+02 -0.39457352156E+02 -0.46725799803E+03  0.47397922651E+03  0.00000000000E+00 0.  1.
         21    1    1    2  503  502  0.12320484068E+01 -0.26776989559E+02 -0.28492768104E+02  0.39119853622E+02  0.00000000000E+00 0.  1.
          1    1    1    2  501    0  0.16663903831E+03  0.22689377079E+02 -0.69398162879E+03  0.71406853874E+03  0.00000000000E+00 0. -1.
<scales pt_clust_5="13000.00000" pt_clust_6="13000.00000" pt_clust_7="13000.00000" pt_clust_8="13000.00000" pt_clust_9="26.80532" pt_clust_10="149.91136"></scales>
<clustering>
<clus scale="   26.805">  1  9  2 -1</clus>
<clus scale="   81.250">  5  6 -1 -1</clus>
<clus scale="   92.664">  7  8 -1 -1</clus>
<clus scale="  138.214">  2  7  1 -1</clus>
<clus scale="  149.911">  1 10  2 -1</clus>
<clus scale="   26.805">  1  5  2 -1</clus>
</clustering>
</event>
<event>
10    4  0.3403565E-005  0.1181273E+03  0.7546771E-02  0.1254408E+00
         21   -1    0    0  503  502  0.00000000000E+00  0.00000000000E+00  0.12799547574E+03  0.12799547574E+03  0.00000000000E+00 0.  1.
         -3   -1    0    0    0  501 -0.00000000000E+00 -0.00000000000E+00 -0.54521844205E+03  0.54521844205E+03  0.00000000000E+00 0.  1.
         24    2    1    2    0    0  0.18926336790E+02  0.25458634173E+02  0.28539793884E+02  0.91361206093E+02  0.80783673261E+02 0.  0.
         23    2    1    2    0    0  0.65465449445E+01  0.52427966369E+02 -0.18589202147E+03  0.21351179975E+03  0.90773873320E+02 0.  0.
        -13    1    3    3    0    0 -0.89815910876E+01  0.30741913101E+02  0.47443717694E+02  0.57241947453E+02  0.00000000000E+00 0.  1.
         14    1    3    3    0    0  0.27907927878E+02 -0.52832789277E+01 -0.18903923811E+02  0.34119258639E+02  0.00000000000E+00 0. -1.
        -11    1    4    4    0    0  0.27440836945E+02  0.60101504262E+02 -0.73053236194E+02  0.98498556666E+02  0.00000000000E+00 0.  1.
         11    1    4    4    0    0 -0.20894292000E+02 -0.76735378926E+01 -0.11283878528E+03  0.11501324308E+03  0.00000000000E+00 0. -1.
         21    1    1    2  503  501  0.44713290912E+02  0.73894009327E+01  0.32523952521E+02  0.55782516239E+02  0.00000000000E+00 0.  1.
         -4    1    1    2    0  502 -0.70186172646E+02 -0.85276001475E+02 -0.29239469125E+03  0.31255839571E+03  0.00000000000E+00 0.  1.
<scales pt_clust_5="13000.00000" pt_clust_6="13000.00000" pt_clust_7="13000.00000" pt_clust_8="13000.00000" pt_clust_9="45.31977" pt_clust_10="75.59206"></scales>
<clustering>
<clus scale="   45.320">  1  9  2 -1</clus>
<clus scale="   80.784">  5  6 -1 -1</clus>
<clus scale="   90.774">  7  8 -1 -1</clus>
<clus scale="  100.308">  2  5  1 -1</clus>
<clus scale="   75.592">  1 10  2 -1</clus>
<clus scale="   45.320">  1  5  2 -1</clus>
</clustering>
</event>
<event>
10    4  0.3403565E-005  0.1920127E+03  0.7546771E-02  0.1172455E+00
         21   -1    0    0  503  502  0.00000000000E+00  0.00000000000E+00  0.29096827332E+03  0.29096827332E+03  0.00000000000E+00 0. -1.
         -3   -1    0    0    0  501 -0.00000000000E+00 -0.00000000000E+00 -0.34715770004E+03  0.34715770004E+03  0.00000000000E+00 0.  1.
         24    2    1    2    0    0 -0.38749968768E+01  0.13209107264E+03 -0.78193483514E+02  0.17356905078E+03  0.80925443788E+02 0.  0.
         23    2    1    2    0    0  0.17709626127E+03 -0.39724159980E+02  0.10308163263E+03  0.22847823928E+03  0.92926789453E+02 0.  0.
        -11    1    3    3    0    0 -0.25344071369E+02  0.12733822183E+03 -0.78225297363E+02  0.15158014989E+03  0.00000000000E+00 0.  1.
         12    1    3    3    0    0  0.21469074492E+02  0.47528508122E+01  0.31813848584E-01  0.21988900893E+02  0.00000000000E+00 0. -1.
        -13    1    4    4    0    0  0.48053100127E+02 -0.47220620791E+02  0.76460223218E+01  0.67803754447E+02  0.00000000000E+00 0.  1.
         13    1    4    4    0    0  0.12904316114E+03  0.74964608116E+01  0.95435610305E+02  0.16067448483E+03  0.00000000000E+00 0. -1.
         21    1    1    2  503  501 -0.23841475203E+02 -0.65028133145E+02 -0.17438665238E+02  0.71422553059E+02  0.00000000000E+00 0. -1.
         -4    1    1    2    0  502 -0.14937978919E+03 -0.27338779519E+02 -0.63638910591E+02  0.16465613024E+03  0.00000000000E+00 0.  1.
<scales pt_clust_5="13000.00000" pt_clust_6="13000.00000" pt_clust_7="13000.00000" pt_clust_8="13000.00000" pt_clust_9="69.26091" pt_clust_10="168.02838"></scales>
<clustering>
<clus scale="   69.261">  2  9  1 -1</clus>
<clus scale="   80.925">  5  6 -1 -1</clus>
<clus scale="   92.927">  7  8 -1 -1</clus>
<clus scale="  133.322">  2  5  1 -1</clus>
<clus scale="  168.028">  1 10  2 -1</clus>
<clus scale="  168.028">  1  5  2 -1</clus>
</clustering>
</event>
<event>
10    4  0.3403565E-005  0.9975683E+02  0.7546771E-02  0.1286678E+00
          2   -1    0    0  503    0 -0.00000000000E+00  0.00000000000E+00  0.55168076222E+03  0.55168076222E+03  0.00000000000E+00 0. -1.
         21   -1    0    0  501  502  0.00000000000E+00 -0.00000000000E+00 -0.11993103375E+03  0.11993103375E+03  0.00000000000E+00 0. -1.
         24    2    1    2    0    0 -0.26890593338E+02 -0.43406479970E+02  0.45524610947E+03  0.46479983309E+03  0.78629753531E+02 0.  0.
         23    2    1    2    0    0 -0.27483299992E+02 -0.15455049790E+01  0.40530701505E+02  0.10278528403E+03  0.90356828654E+02 0.  0.
        -11    1    3    3    0    0  0.27481852425E+02 -0.89786684851E+01  0.12010812028E+03  0.12353877633E+03  0.00000000000E+00 0.  1.
         12    1    3    3    0    0 -0.54372445762E+02 -0.34427811485E+02  0.33513798919E+03  0.34126105676E+03  0.00000000000E+00 0. -1.
        -13    1    4    4    0    0 -0.45952899816E+02  0.30914802129E+02  0.14465505756E+02  0.57241985019E+02  0.00000000000E+00 0.  1.
         13    1    4    4    0    0  0.18469599824E+02 -0.32460307108E+02  0.26065195750E+02  0.45543299010E+02  0.00000000000E+00 0. -1.
         21    1    1    2  503  502  0.19055992171E+02  0.12550451070E+02 -0.48576497140E+02  0.53668619640E+02  0.00000000000E+00 0. -1.
          1    1    1    2  501    0  0.35317901159E+02  0.32401533879E+02 -0.15450585362E+02  0.50358059216E+02  0.00000000000E+00 0. -1.
<scales pt_clust_5="13000.00000" pt_clust_6="13000.00000" pt_clust_7="13000.00000" pt_clust_8="13000.00000" pt_clust_9="22.81764" pt_clust_10="58.72712"></scales>
<clustering>
<clus scale="   22.818">  2  9  1 -1</clus>
<clus scale="   58.727">  2 10  1 -1</clus>
<clus scale="   78.630">  5  6 -1 -1</clus>
<clus scale="   89.273">  1  5  2 -1</clus>
<clus scale="   90.357">  7  8 -1 -1</clus>
<clus scale="   22.818">  2  5  1 -1</clus>
</clustering>
</event>
<event>
10    4  0.3403565E-005  0.1926278E+03  0.7546771E-02  0.1158268E+00
          4   -1    0    0  502    0 -0.00000000000E+00  0.00000000000E+00  0.31963164067E+03  0.31963164067E+03  0.00000000000E+00 0. -1.
         21   -1    0    0  503  502  0.00000000000E+00 -0.00000000000E+00 -0.38704745712E+03  0.38704745712E+03  0.00000000000E+00 0. -1.
         24    2    1    2    0    0  0.15274636206E+03 -0.46090467422E+02  0.89477008410E+02  0.19997664504E+03  0.80800626341E+02 0.  0.
         23    2    1    2    0    0 -0.11042439592E+03  0.16211629288E+03  0.64965376996E+02  0.22974853436E+03  0.10044226800E+03 0.  0.
        -13    1    3    3    0    0  0.28232524807E+02  0.16411998216E+02 -0.29436527682E+01  0.32788629646E+02  0.00000000000E+00 0.  1.
         14    1    3    3    0    0  0.12451383725E+03 -0.62502465638E+02  0.92420661179E+02  0.16718801539E+03  0.00000000000E+00 0. -1.
        -11    1    4    4    0    0  0.12782499738E+01  0.24988950270E+02 -0.21398180581E+02  0.32923603854E+02  0.00000000000E+00 0.  1.
         11    1    4    4    0    0 -0.11170264589E+03  0.13712734261E+03  0.86363557577E+02  0.19682493051E+03  0.00000000000E+00 0. -1.
         21    1    1    2  503  501  0.22283382993E+02  0.29783481047E+01 -0.69856077120E+02  0.73384543507E+02  0.00000000000E+00 0.  1.
          3    1    1    2  501    0 -0.64605349133E+02 -0.11900417357E+03 -0.15200212474E+03  0.20356937488E+03  0.00000000000E+00 0. -1.
<scales pt_clust_5="13000.00000" pt_clust_6="13000.00000" pt_clust_7="13000.00000" pt_clust_8="13000.00000" pt_clust_9="22.48154" pt_clust_10="128.35115"></scales>
<clustering>
<clus scale="   22.482">  2  9  1 -1</clus>
<clus scale="   80.801">  5  6 -1 -1</clus>
<clus scale="  100.442">  7  8 -1 -1</clus>
<clus scale="  128.351">  2 10  1 -1</clus>
<clus scale="  183.155">  1  5  2 -1</clus>
<clus scale="   22.482">  2  5  1 -1</clus>
</clustering>
</event>
<event>
10    4  0.3403565E-005  0.2398120E+03  0.7546771E-02  0.1120652E+00
          2   -1    0    0  503    0 -0.00000000000E+00  0.00000000000E+00  0.24714042745E+04  0.24714042745E+04  0.00000000000E+00 0. -1.
         21   -1    0    0  501  502  0.00000000000E+00 -0.00000000000E+00 -0.23186431257E+03  0.23186431257E+03  0.00000000000E+00 0. -1.
         24    2    1    2    0    0  0.21655622890E+03 -0.59039809971E+02  0.21655199382E+04  0.21786201398E+04  0.80788685497E+02 0.  0.
         23    2    1    2    0    0 -0.15206317108E+03  0.15609924867E+03  0.16907394921E+03  0.29098814599E+03  0.92724955497E+02 0.  0.
        -13    1    3    3    0    0  0.88082798635E+01 -0.20876490988E+02  0.11223818659E+03  0.11450250739E+03  0.00000000000E+00 0.  1.
         14    1    3    3    0    0  0.20774794903E+03 -0.38163318983E+02  0.20532817516E+04  0.20641176324E+04  0.00000000000E+00 0. -1.
        -13    1    4    4    0    0  0.88398091612E+01  0.25514099124E+02  0.34866588053E+02  0.44099778259E+02  0.00000000000E+00 0. -1.
         13    1    4    4    0    0 -0.16090298024E+03  0.13058514955E+03  0.13420736116E+03  0.24688836773E+03  0.00000000000E+00 0.  1.
         21    1    1    2  503  502  0.51726562153E+01 -0.37625863535E+02 -0.13016035347E+03  0.13558827233E+03  0.00000000000E+00 0. -1.
          1    1    1    2  501    0 -0.69665714032E+02 -0.59433575162E+02  0.35106428058E+02  0.98072028933E+02  0.00000000000E+00 0. -1.
<scales pt_clust_5="13000.00000" pt_clust_6="13000.00000" pt_clust_7="13000.00000" pt_clust_8="13000.00000" pt_clust_9="37.97976" pt_clust_10="98.61429"></scales>
<clustering>
<clus scale="   37.980">  2  9  1 -1</clus>
<clus scale="   80.789">  5  6 -1 -1</clus>
<clus scale="   92.725">  7  8 -1 -1</clus>
<clus scale="   98.614">  2 10  1 -1</clus>
<clus scale="  235.454">  1  5  2 -1</clus>
<clus scale="   37.980">  2  5  1 -1</clus>
</clustering>
</event>
<event>
10    4  0.3403565E-005  0.1008581E+03  0.7546771E-02  0.1281981E+00
          2   -1    0    0  503    0 -0.00000000000E+00  0.00000000000E+00  0.17070841403E+03  0.17070841403E+03  0.00000000000E+00 0. -1.
         21   -1    0    0  501  502  0.00000000000E+00 -0.00000000000E+00 -0.22006530305E+03  0.22006530305E+03  0.00000000000E+00 0. -1.
         24    2    1    2    0    0  0.25075362054E+02 -0.10626157016E+02  0.51372685989E+02  0.99673735268E+02  0.80956850492E+02 0.  0.
         23    2    1    2    0    0 -0.94965245868E+02  0.37589336837E+02 -0.12408395020E+02  0.13564816115E+03  0.88403049670E+02 0.  0.
        -11    1    3    3    0    0  0.34895387308E+02  0.13089865647E+02  0.61637029434E+02  0.72028855575E+02  0.00000000000E+00 0.  1.
         12    1    3    3    0    0 -0.98200252540E+01 -0.23716022662E+02 -0.10264343445E+02  0.27644879693E+02  0.00000000000E+00 0. -1.
        -13    1    4    4    0    0 -0.41713884017E+02  0.35508739964E+02 -0.46944798043E+02  0.72143834088E+02  0.00000000000E+00 0. -1.
         13    1    4    4    0    0 -0.53251361851E+02  0.20805968726E+01  0.34536403023E+02  0.63504327066E+02  0.00000000000E+00 0.  1.
         21    1    1    2  503  502 -0.14184504683E+02 -0.25303401189E+02  0.54314700515E+01  0.29512084842E+02  0.00000000000E+00 0.  1.
          1    1    1    2  501    0  0.84074388497E+02 -0.16597786328E+01 -0.93752650043E+02  0.12593973581E+03  0.00000000000E+00 0. -1.
<scales pt_clust_5="13000.00000" pt_clust_6="13000.00000" pt_clust_7="13000.00000" pt_clust_8="13000.00000" pt_clust_9="29.00797" pt_clust_10="82.69744"></scales>
<clustering>
<clus scale="   29.008">  1  9  2 -1</clus>
<clus scale="   80.957">  5  6 -1 -1</clus>
<clus scale="   82.697">  2 10  1 -1</clus>
<clus scale="   88.403">  7  8 -1 -1</clus>
<clus scale="   94.399">  1  5  2 -1</clus>
<clus scale="   82.697">  2  5  1 -1</clus>
</clustering>
</event>
<event>
10    4  0.3403565E-005  0.2352887E+03  0.7546771E-02  0.1156065E+00
         21   -1    0    0  501  502  0.00000000000E+00  0.00000000000E+00  0.83756910293E+02  0.83756910293E+02  0.00000000000E+00 0.  1.
          2   -1    0    0  503    0 -0.00000000000E+00 -0.00000000000E+00 -0.24078644298E+04  0.24078644298E+04  0.00000000000E+00 0. -1.
         24    2    1    2    0    0  0.69923138524E+02 -0.21837139716E+01 -0.40804158412E+03  0.42166554584E+03  0.80061752871E+02 0.  0.
         23    2    1    2    0    0  0.68133395670E+02 -0.18682908970E+03 -0.15153544636E+03  0.26591473882E+03  0.90555996239E+02 0.  0.
        -13    1    3    3    0    0  0.79504029810E+01 -0.33613918322E+02 -0.17952186889E+03  0.18281467617E+03  0.00000000000E+00 0.  1.
         14    1    3    3    0    0  0.61972735543E+02  0.31430204350E+02 -0.22851971523E+03  0.23885086968E+03  0.00000000000E+00 0. -1.
        -13    1    4    4    0    0  0.89069429235E+02 -0.13804823487E+03 -0.10244933011E+03  0.19361441996E+03  0.00000000000E+00 0.  1.
         13    1    4    4    0    0 -0.20936033565E+02 -0.48780854829E+02 -0.49086116250E+02  0.72300318864E+02  0.00000000000E+00 0. -1.
         21    1    1    2  503  502 -0.92876595460E+01 -0.23370637154E+02 -0.32768897863E+01  0.25361098310E+02  0.00000000000E+00 0. -1.
          1    1    1    2  501    0 -0.12876887465E+03  0.21238344083E+03 -0.17612535993E+04  0.17786799571E+04  0.00000000000E+00 0. -1.
<scales pt_clust_5="13000.00000" pt_clust_6="13000.00000" pt_clust_7="13000.00000" pt_clust_8="13000.00000" pt_clust_9="25.14850" pt_clust_10="217.16455"></scales>
<clustering>
<clus scale="   25.149">  1  9  2 -1</clus>
<clus scale="   80.062">  5  6 -1 -1</clus>
<clus scale="   90.556">  7  8 -1 -1</clus>
<clus scale="  105.817">  2  5  1 -1</clus>
<clus scale="  217.165">  1 10  2 -1</clus>
<clus scale="   25.149">  1  5  2 -1</clus>
</clustering>
</event>
<event>
10    4  0.3403565E-005  0.1558602E+03  0.7546771E-02  0.1195041E+00
          2   -1    0    0  502    0 -0.00000000000E+00  0.00000000000E+00  0.31040879099E+03  0.31040879099E+03  0.00000000000E+00 0. -1.
         21   -1    0    0  503  502  0.00000000000E+00 -0.00000000000E+00 -0.16604472337E+03  0.16604472337E+03  0.00000000000E+00 0.  1.
         24    2    1    2    0    0  0.71665680954E+02 -0.72375780866E+02  0.52263448856E+02  0.13996305138E+03  0.80523066157E+02 0.  0.
         23    2    1    2    0    0 -0.14676446488E+03  0.90444742023E+02  0.53550103336E+02  0.20176094384E+03  0.90109962716E+02 0.  0.
        -13    1    3    3    0    0  0.58858228881E+02 -0.70087931361E+02  0.57943607358E+01  0.91707054505E+02  0.00000000000E+00 0.  1.
         14    1    3    3    0    0  0.12807452073E+02 -0.22878495050E+01  0.46469088120E+02  0.48255996877E+02  0.00000000000E+00 0. -1.
        -11    1    4    4    0    0 -0.13040760858E+03  0.35324660599E+02  0.50322309175E+02  0.14417458453E+03  0.00000000000E+00 0.  1.
         11    1    4    4    0    0 -0.16356856303E+02  0.55120081424E+02  0.32277941612E+01  0.57586359318E+02  0.00000000000E+00 0. -1.
         21    1    1    2  503  501  0.24959409382E+02 -0.20319593442E+02 -0.33801708329E+02  0.46673477268E+02  0.00000000000E+00 0.  1.
          1    1    1    2  501    0  0.50139374548E+02  0.22506322859E+01  0.72352223761E+02  0.88056041865E+02  0.00000000000E+00 0. -1.
<scales pt_clust_5="13000.00000" pt_clust_6="13000.00000" pt_clust_7="13000.00000" pt_clust_8="13000.00000" pt_clust_9="32.18475" pt_clust_10="51.70651"></scales>
<clustering>
<clus scale="   32.185">  2  9  1 -1</clus>
<clus scale="   51.707">  2 10  1 -1</clus>
<clus scale="   80.523">  5  6 -1 -1</clus>
<clus scale="   90.110">  7  8 -1 -1</clus>
<clus scale="  150.521">  1  5  2 -1</clus>
<clus scale="   32.185">  2  5  1 -1</clus>
</clustering>
</event>
<event>
10    4  0.3403565E-005  0.2928087E+03  0.7546771E-02  0.1118031E+00
          2   -1    0    0  502    0 -0.00000000000E+00  0.00000000000E+00  0.95759983033E+03  0.95759983033E+03  0.00000000000E+00 0. -1.
         21   -1    0    0  503  502  0.00000000000E+00 -0.00000000000E+00 -0.25886652105E+03  0.25886652105E+03  0.00000000000E+00 0.  1.
         24    2    1    2    0    0  0.65628481330E+02 -0.90240486548E+02  0.43150974856E+03  0.45270549639E+03  0.79316835452E+02 0.  0.
         23    2    1    2    0    0 -0.27077608784E+03  0.17425974336E+03 -0.56034996715E+02  0.34195258251E+03  0.10052611567E+03 0.  0.
        -11    1    3    3    0    0  0.45138833065E+02 -0.98718133286E+02  0.39789578050E+03  0.41243646327E+03  0.00000000000E+00 0.  1.
         12    1    3    3    0    0  0.20489648265E+02  0.84776467378E+01  0.33613968059E+02  0.40269033126E+02  0.00000000000E+00 0. -1.
        -13    1    4    4    0    0 -0.14291019229E+03  0.13388764653E+03 -0.68076573297E+02  0.20732497386E+03  0.00000000000E+00 0. -1.
         13    1    4    4    0    0 -0.12786589554E+03  0.40372096828E+02  0.12041576582E+02  0.13462760865E+03  0.00000000000E+00 0.  1.
         21    1    1    2  503  501  0.23053693967E+01 -0.40189472086E+02  0.32309023962E+01  0.40384986380E+02  0.00000000000E+00 0. -1.
          1    1    1    2  501    0  0.20284223711E+03 -0.43829784722E+02  0.32002765504E+03  0.38142328609E+03  0.00000000000E+00 0. -1.
<scales pt_clust_5="13000.00000" pt_clust_6="13000.00000" pt_clust_7="13000.00000" pt_clust_8="13000.00000" pt_clust_9="40.25554" pt_clust_10="275.01183"></scales>
<clustering>
<clus scale="   40.256">  2  9  1 -1</clus>
<clus scale="   79.317">  5  6 -1 -1</clus>
<clus scale="  100.526">  7  8 -1 -1</clus>
<clus scale="  138.123">  1  5  2 -1</clus>
<clus scale="  275.012">  2 10  1 -1</clus>
<clus scale="   40.256">  2  5  1 -1</clus>
</clustering>
</event>
<event>
10    4  0.3403565E-005  0.2264737E+03  0.7546771E-02  0.1172499E+00
          2   -1    0    0  503    0 -0.00000000000E+00  0.00000000000E+00  0.13876021231E+04  0.13876021231E+04  0.00000000000E+00 0. -1.
         21   -1    0    0  501  502  0.00000000000E+00 -0.00000000000E+00 -0.10632759254E+03  0.10632759254E+03  0.00000000000E+00 0. -1.
         23    2    1    2    0    0  0.62688525362E+01  0.42564503876E+02  0.15241299369E+03  0.17448214355E+03  0.73234297099E+02 0.  0.
         24    2    1    2    0    0 -0.18690888169E+03 -0.13950580187E+03  0.90812550803E+03  0.94116743782E+03  0.81898772156E+02 0.  0.
        -13    1    4    4    0    0  0.36178776172E+01 -0.21199025380E+02  0.11252747312E+03  0.11456404288E+03  0.00000000000E+00 0.  1.
         14    1    4    4    0    0 -0.19052675931E+03 -0.11830677649E+03  0.79559803491E+03  0.82660339494E+03  0.00000000000E+00 0. -1.
        -11    1    3    3    0    0 -0.25459781146E+02  0.30744348459E+02  0.37809460046E+02  0.54981548606E+02  0.00000000000E+00 0. -1.
         11    1    3    3    0    0  0.31728633682E+02  0.11820155417E+02  0.11460353364E+03  0.11950059494E+03  0.00000000000E+00 0.  1.
         21    1    1    2  503  502  0.43720969914E+02 -0.65481946721E+02  0.10552552919E+02  0.79440323071E+02  0.00000000000E+00 0. -1.
          1    1    1    2  501    0  0.13691905924E+03  0.16242324472E+03  0.21018347595E+03  0.29883981122E+03  0.00000000000E+00 0. -1.
<scales pt_clust_5="13000.00000" pt_clust_6="13000.00000" pt_clust_7="13000.00000" pt_clust_8="13000.00000" pt_clust_9="78.73632" pt_clust_10="211.14665"></scales>
<clustering>
<clus scale="   73.234">  7  8 -1 -1</clus>
<clus scale="   78.736">  2  9  1 -1</clus>
<clus scale="   81.172">  1  7  2 -1</clus>
<clus scale="   81.899">  5  6 -1 -1</clus>
<clus scale="  211.147">  2 10  1 -1</clus>
<clus scale="   78.736">  2  5  1 -1</clus>
</clustering>
</event>
<event>
10    4  0.3403565E-005  0.1343515E+03  0.7546771E-02  0.1225344E+00
         21   -1    0    0  501  502  0.00000000000E+00  0.00000000000E+00  0.28936560727E+03  0.28936560727E+03  0.00000000000E+00 0. -1.
         -1   -1    0    0    0  501 -0.00000000000E+00 -0.00000000000E+00 -0.11818202011E+03  0.11818202011E+03  0.00000000000E+00 0.  1.
         23    2    1    2    0    0  0.87988502567E+02  0.48491683390E+02 -0.58593110505E+01  0.13636365150E+03  0.92017900342E+02 0.  0.
         24    2    1    2    0    0 -0.86762307630E+02 -0.34890010867E+02  0.93567831618E+02  0.15185292799E+03  0.74561127551E+02 0.  0.
        -13    1    4    4    0    0 -0.54572783597E+02  0.12854426088E+02  0.69873438419E+02  0.89586396155E+02  0.00000000000E+00 0.  1.
         14    1    4    4    0    0 -0.32189524034E+02 -0.47744436955E+02  0.23694393199E+02  0.62266531835E+02  0.00000000000E+00 0. -1.
        -11    1    3    3    0    0  0.10172662047E+03  0.24500242366E+02 -0.17994014541E+02  0.10617133204E+03  0.00000000000E+00 0.  1.
         11    1    3    3    0    0 -0.13738117900E+02  0.23991441024E+02  0.12134703490E+02  0.30192319464E+02  0.00000000000E+00 0. -1.
         21    1    1    2  503  502  0.28466251260E+02  0.21190065899E+02  0.54991111824E+02  0.65447450166E+02  0.00000000000E+00 0. -1.
         -2    1    1    2    0  503 -0.29692446196E+02 -0.34791738422E+02  0.28483954774E+02  0.53883597719E+02  0.00000000000E+00 0.  1.
<scales pt_clust_5="13000.00000" pt_clust_6="13000.00000" pt_clust_7="13000.00000" pt_clust_8="13000.00000" pt_clust_9="35.48727" pt_clust_10="39.54693"></scales>
<clustering>
<clus scale="   35.487">  1  9  2 -1</clus>
<clus scale="   39.547">  1 10  2 -1</clus>
<clus scale="   74.561">  5  6 -1 -1</clus>
<clus scale="   92.018">  7  8 -1 -1</clus>
<clus scale="  123.054">  1  5  2 -1</clus>
<clus scale="   35.487">  1  5  2 -1</clus>
</clustering>
</event>
<event>
10    4  0.3403565E-005  0.1324204E+03  0.7546771E-02  0.1230612E+00
         21   -1    0    0  501  502  0.00000000000E+00  0.00000000000E+00  0.10066259937E+03  0.10066259937E+03  0.00000000000E+00 0.  1.
         -1   -1    0    0    0  501 -0.00000000000E+00 -0.00000000000E+00 -0.68585028330E+03  0.68585028330E+03  0.00000000000E+00 0.  1.
         24    2    1    2    0    0  0.53861479585E+02 -0.68746960718E+02 -0.37065919180E+03  0.38910600049E+03  0.79925212295E+02 0.  0.
         23    2    1    2    0    0  0.88482943600E+01 -0.91382292514E+02 -0.87888748861E+02  0.15630619729E+03  0.90984501087E+02 0.  0.
        -13    1    3    3    0    0  0.17693158875E+02 -0.74491305378E+02 -0.29879749909E+03  0.30845088411E+03  0.00000000000E+00 0.  1.
         14    1    3    3    0    0  0.36168320710E+02  0.57443446606E+01 -0.71861692708E+02  0.80655116374E+02  0.00000000000E+00 0. -1.
        -13    1    4    4    0    0  0.34587865482E+02 -0.86997793805E+02 -0.40095862726E+02  0.10184603465E+03  0.00000000000E+00 0.  1.
         13    1    4    4    0    0 -0.25739571122E+02 -0.43844987093E+01 -0.47792886135E+02  0.54460162648E+02  0.00000000000E+00 0. -1.
         21    1    1    2  503  502  0.48406610157E+00  0.42699030079E+02  0.16214313023E+02  0.45676530478E+02  0.00000000000E+00 0. -1.
         -2    1    1    2    0  503 -0.63193840046E+02  0.11743022315E+03 -0.14285405629E+03  0.19542415441E+03  0.00000000000E+00 0.  1.
<scales pt_clust_5="13000.00000" pt_clust_6="13000.00000" pt_clust_7="13000.00000" pt_clust_8="13000.00000" pt_clust_9="42.70177" pt_clust_10="96.21326"></scales>
<clustering>
<clus scale="   42.702">  1  9  2 -1</clus>
<clus scale="   79.925">  5  6 -1 -1</clus>
<clus scale="   90.985">  7  8 -1 -1</clus>
<clus scale="  115.227">  2  5  1 -1</clus>
<clus scale="   96.213">  1 10  2 -1</clus>
<clus scale="   42.702">  1  5  2 -1</clus>
</clustering>
</event>
<event>
10    4  0.3403565E-005  0.2584880E+03  0.7546771E-02  0.1138925E+00
          2   -1    0    0  503    0 -0.00000000000E+00  0.00000000000E+00  0.16535356992E+04  0.16535356992E+04  0.00000000000E+00 0. -1.
         21   -1    0    0  501  502  0.00000000000E+00 -0.00000000000E+00 -0.16315503744E+03  0.16315503744E+03  0.00000000000E+00 0. -1.
         23    2    1    2    0    0 -0.72781580490E+02  0.31770499744E+02  0.41932110297E+03  0.43668730072E+03  0.92515339853E+02 0.  0.
         24    2    1    2    0    0 -0.21268517512E+03 -0.95821138885E+02  0.36177136552E+03  0.43839314110E+03  0.83026206005E+02 0.  0.
        -11    1    4    4    0    0 -0.65049329128E+02  0.10129803022E+02  0.92131919609E+02  0.11323567786E+03  0.00000000000E+00 0.  1.
         12    1    4    4    0    0 -0.14763584599E+03 -0.10595094191E+03  0.26963944591E+03  0.32515746324E+03  0.00000000000E+00 0. -1.
        -11    1    3    3    0    0 -0.87342781445E+02  0.45579313729E+02  0.30204070417E+03  0.31770241152E+03  0.00000000000E+00 0.  1.
         11    1    3    3    0    0  0.14561200955E+02 -0.13808813984E+02  0.11728039880E+03  0.11898488921E+03  0.00000000000E+00 0. -1.
         21    1    1    2  503  502  0.18370521394E+02 -0.18675667976E+02 -0.90572260682E+02  0.94284627780E+02  0.00000000000E+00 0. -1.
          1    1    1    2  501    0  0.26709623421E+03  0.82726307116E+02  0.79986045391E+03  0.84732566700E+03  0.00000000000E+00 0. -1.
<scales pt_clust_5="13000.00000" pt_clust_6="13000.00000" pt_clust_7="13000.00000" pt_clust_8="13000.00000" pt_clust_9="26.19650" pt_clust_10="244.79127"></scales>
<clustering>
<clus scale="   26.197">  2  9  1 -1</clus>
<clus scale="   83.026">  5  6 -1 -1</clus>
<clus scale="   92.515">  7  8 -1 -1</clus>
<clus scale="  120.008">  1  7  2 -1</clus>
<clus scale="  244.791">  2 10  1 -1</clus>
<clus scale="   26.197">  2  5  1 -1</clus>
</clustering>
</event>
<event>
10    4  0.3403565E-005  0.2843568E+03  0.7546771E-02  0.1126565E+00
          2   -1    0    0  502    0 -0.00000000000E+00  0.00000000000E+00  0.97544054272E+03  0.97544054272E+03  0.00000000000E+00 0. -1.
         21   -1    0    0  503  502  0.00000000000E+00 -0.00000000000E+00 -0.18584278274E+03  0.18584278274E+03  0.00000000000E+00 0.  1.
         24    2    1    2    0    0  0.39479531122E+02  0.86560924801E+02  0.29290001150E+03  0.31843015038E+03  0.80968616477E+02 0.  0.
         23    2    1    2    0    0  0.11740778176E+02 -0.26710490496E+03  0.93945805869E+02  0.29725022544E+03  0.89716252465E+02 0.  0.
        -13    1    3    3    0    0 -0.24153740444E+02  0.27762083311E+02  0.11120635236E+03  0.11713662643E+03  0.00000000000E+00 0.  1.
         14    1    3    3    0    0  0.63633271566E+02  0.58798841489E+02  0.18169365914E+03  0.20129352395E+03  0.00000000000E+00 0. -1.
        -13    1    4    4    0    0  0.36853526919E+02 -0.19478705893E+03  0.36584485575E+02  0.20159019163E+03  0.00000000000E+00 0.  1.
         13    1    4    4    0    0 -0.25112748742E+02 -0.72317846025E+02  0.57361320293E+02  0.95660033812E+02  0.00000000000E+00 0. -1.
         21    1    1    2  503  501 -0.80923957662E+01 -0.45247910105E+02 -0.30486326390E+02  0.55156833982E+02  0.00000000000E+00 0.  1.
          1    1    1    2  501    0 -0.43127913533E+02  0.22579189026E+03  0.43323826900E+03  0.49044611565E+03  0.00000000000E+00 0. -1.
<scales pt_clust_5="13000.00000" pt_clust_6="13000.00000" pt_clust_7="13000.00000" pt_clust_8="13000.00000" pt_clust_9="45.96586" pt_clust_10="269.83302"></scales>
<clustering>
<clus scale="   45.966">  2  9  1 -1</clus>
<clus scale="   80.969">  5  6 -1 -1</clus>
<clus scale="   89.716">  7  8 -1 -1</clus>
<clus scale="  121.934">  1  5  2 -1</clus>
<clus scale="  269.833">  2 10  1 -1</clus>
<clus scale="   45.966">  2  5  1 -1</clus>
</clustering>
</event>
<event>
10    4  0.3403565E-005  0.1232501E+03  0.7546771E-02  0.1241696E+00
         -1   -1    0    0    0  501 -0.00000000000E+00  0.00000000000E+00  0.69126241768E+02  0.69126241768E+02  0.00000000000E+00 0.  1.
         21   -1    0    0  503  502  0.00000000000E+00 -0.00000000000E+00 -0.77494277627E+03  0.77494277627E+03  0.00000000000E+00 0.  1.
         23    2    1    2    0    0 -0.56388645742E+02  0.19952268860E+02 -0.23878196582E+03  0.26290758449E+03  0.92335249935E+02 0.  0.
         24    2    1    2    0    0  0.73558781802E+02 -0.87225416324E+02 -0.28628653621E+03  0.31827064502E+03  0.79479903322E+02 0.  0.
        -11    1    4    4    0    0  0.13878148078E+02 -0.47105585983E+02 -0.20002826688E+03  0.20596807222E+03  0.00000000000E+00 0.  1.
         12    1    4    4    0    0  0.59680633724E+02 -0.40119830341E+02 -0.86258269330E+02  0.11230257279E+03  0.00000000000E+00 0. -1.
        -13    1    3    3    0    0 -0.56890237243E+02 -0.99422023667E+01 -0.22033048636E+03  0.22777372478E+03  0.00000000000E+00 0.  1.
         13    1    3    3    0    0  0.50159150057E+00  0.29894471227E+02 -0.18451479467E+02  0.35133859715E+02  0.00000000000E+00 0. -1.
         21    1    1    2  503  501 -0.28143743280E+02  0.47800887715E+02 -0.21497261548E+03  0.22201400982E+03  0.00000000000E+00 0.  1.
         -2    1    1    2    0  502  0.10973607220E+02  0.19472259749E+02  0.34224583008E+02  0.40876778704E+02  0.00000000000E+00 0.  1.
<scales pt_clust_5="13000.00000" pt_clust_6="13000.00000" pt_clust_7="13000.00000" pt_clust_8="13000.00000" pt_clust_9="58.90060" pt_clust_10="22.35150"></scales>
<clustering>
<clus scale="   22.351">  2 10  1 -1</clus>
<clus scale="   58.901">  2  9  1 -1</clus>
<clus scale="   79.480">  5  6 -1 -1</clus>
<clus scale="   92.335">  7  8 -1 -1</clus>
<clus scale="  113.938">  2  5  1 -1</clus>
<clus scale="   22.351">  2  5  1 -1</clus>
</clustering>
</event>
<event>
10    4  0.3403565E-005  0.2831822E+03  0.7546771E-02  0.1108494E+00
         -1   -1    0    0    0  501 -0.00000000000E+00  0.00000000000E+00  0.98371784360E+03  0.98371784360E+03  0.00000000000E+00 0.  1.
         21   -1    0    0  501  502  0.00000000000E+00 -0.00000000000E+00 -0.28651657199E+03  0.28651657199E+03  0.00000000000E+00 0.  1.
         24    2    1    2    0    0  0.14170849049E+03 -0.10454567293E+03  0.41125354472E+03  0.45446117160E+03  0.79964895071E+02 0.  0.
         23    2    1    2    0    0  0.23434945378E+03  0.12168932383E+03  0.10372227697E+03  0.30065846500E+03  0.99545184789E+02 0.  0.
        -13    1    3    3    0    0  0.14792467539E+03 -0.82297016151E+02  0.34489466554E+03  0.38419635445E+03  0.00000000000E+00 0.  1.
         14    1    3    3    0    0 -0.62161848976E+01 -0.22248656777E+02  0.66358879180E+02  0.70264817150E+02  0.00000000000E+00 0. -1.
        -13    1    4    4    0    0  0.17210834512E+03  0.38380295400E+02  0.81780047830E+02  0.19437671094E+03  0.00000000000E+00 0. -1.
         13    1    4    4    0    0  0.62241108664E+02  0.83309028432E+02  0.21942229142E+02  0.10628175406E+03  0.00000000000E+00 0.  1.
         21    1    1    2  503  502 -0.41519807587E+02 -0.70681454388E+02 -0.57460282253E+02  0.10010717483E+03  0.00000000000E+00 0. -1.
         -2    1    1    2    0  503 -0.33453813669E+03  0.53537803485E+02  0.23968573217E+03  0.41500760416E+03  0.00000000000E+00 0.  1.
<scales pt_clust_5="13000.00000" pt_clust_6="13000.00000" pt_clust_7="13000.00000" pt_clust_8="13000.00000" pt_clust_9="81.97416" pt_clust_10="265.10935"></scales>
<clustering>
<clus scale="   79.965">  5  6 -1 -1</clus>
<clus scale="   81.974">  2  9  1 -1</clus>
<clus scale="   99.545">  7  8 -1 -1</clus>
<clus scale="  194.400">  1  5  2 -1</clus>
<clus scale="  265.109">  2 10  1 -1</clus>
<clus scale="   81.974">  2  5  1 -1</clus>
</clustering>
</event>
<event>
10    4  0.3403565E-005  0.1299944E+03  0.7546771E-02  0.1230340E+00
         21   -1    0    0  503  502  0.00000000000E+00  0.00000000000E+00  0.98032052776E+03  0.98032052776E+03  0.00000000000E+00 0. -1.
         -1   -1    0    0    0  501 -0.00000000000E+00 -0.00000000000E+00 -0.37995948084E+02  0.37995948084E+02  0.00000000000E+00 0.  1.
         23    2    1    2    0    0  0.13753449328E+02  0.76213604762E+02  0.21079333158E+03  0.24232356844E+03  0.91045111160E+02 0.  0.
         24    2    1    2    0    0 -0.96121900000E+02 -0.10084888234E+03  0.48362672831E+03  0.50960621129E+03  0.79960999984E+02 0.  0.
        -11    1    4    4    0    0 -0.51285615962E+02 -0.11201597687E+02  0.24887154266E+03  0.25434766549E+03  0.00000000000E+00 0.  1.
         12    1    4    4    0    0 -0.44836284038E+02 -0.89647284655E+02  0.23475518565E+03  0.25525854579E+03  0.00000000000E+00 0. -1.
        -11    1    3    3    0    0  0.33640324110E+02  0.60948868128E+02  0.20513100217E+03  0.21662216873E+03  0.00000000000E+00 0.  1.
         11    1    3    3    0    0 -0.19886874782E+02  0.15264736634E+02  0.56623294076E+01  0.25701399717E+02  0.00000000000E+00 0. -1.
         21    1    1    2  503  501  0.73651030255E+01  0.21091257790E+02  0.61104127500E+02  0.65059974602E+02  0.00000000000E+00 0. -1.
         -2    1    1    2    0  502  0.75003347647E+02  0.35440197904E+01  0.18680039228E+03  0.20132672150E+03  0.00000000000E+00 0.  1.
<scales pt_clust_5="13000.00000" pt_clust_6="13000.00000" pt_clust_7="13000.00000" pt_clust_8="13000.00000" pt_clust_9="22.34023" pt_clust_10="76.97914"></scales>
<clustering>
<clus scale="   22.340">  1  9  2 -1</clus>
<clus scale="   76.979">  1 10  2 -1</clus>
<clus scale="   79.961">  5  6 -1 -1</clus>
<clus scale="   91.045">  7  8 -1 -1</clus>
<clus scale="  122.487">  1  5  2 -1</clus>
<clus scale="   22.340">  1  5  2 -1</clus>
</clustering>
</event>
<event>
10    4  0.3403565E-005  0.1979379E+03  0.7546771E-02  0.1172426E+00
          2   -1    0    0  503    0 -0.00000000000E+00  0.00000000000E+00  0.12414628849E+04  0.12414628849E+04  0.00000000000E+00 0. -1.
         21   -1    0    0  501  502  0.00000000000E+00 -0.00000000000E+00 -0.90530959316E+02  0.90530959316E+02  0.00000000000E+00 0. -1.
         24    2    1    2    0    0  0.91231918717E+02 -0.31487627819E+02  0.37395497008E+03  0.39489264062E+03  0.82359846244E+02 0.  0.
         23    2    1    2    0    0 -0.14260928586E+03  0.11523813808E+03  0.21594212390E+03  0.29733106609E+03  0.90319018522E+02 0.  0.
        -11    1    3    3    0    0  0.48919326589E+02  0.22705778547E+02  0.11587449954E+03  0.12781061199E+03  0.00000000000E+00 0.  1.
         12    1    3    3    0    0  0.42312592128E+02 -0.54193406365E+02  0.25808047053E+03  0.26708202863E+03  0.00000000000E+00 0. -1.
        -11    1    4    4    0    0 -0.31215835030E+01  0.48717717796E+02  0.65186447427E+02  0.81439752203E+02  0.00000000000E+00 0.  1.
         11    1    4    4    0    0 -0.13948770235E+03  0.66520420288E+02  0.15075567648E+03  0.21589131389E+03  0.00000000000E+00 0. -1.
         21    1    1    2  503  502 -0.37150121303E+02  0.80918629739E+01 -0.21331780544E+02  0.43596497799E+02  0.00000000000E+00 0. -1.
          1    1    1    2  501    0  0.88527488443E+02 -0.91842373238E+02  0.58236661216E+03  0.59617363972E+03  0.00000000000E+00 0. -1.
<scales pt_clust_5="13000.00000" pt_clust_6="13000.00000" pt_clust_7="13000.00000" pt_clust_8="13000.00000" pt_clust_9="38.02118" pt_clust_10="176.13043"></scales>
<clustering>
<clus scale="   38.021">  2  9  1 -1</clus>
<clus scale="   82.360">  5  6 -1 -1</clus>
<clus scale="   90.319">  7  8 -1 -1</clus>
<clus scale="  121.782">  1  5  2 -1</clus>
<clus scale="  176.130">  2 10  1 -1</clus>
<clus scale="   38.021">  2  5  1 -1</clus>
</clustering>
</event>
<event>
10    4  0.3403565E-005  0.1388983E+03  0.7546771E-02  0.1216991E+00
         -1   -1    0    0    0  501 -0.00000000000E+00  0.00000000000E+00  0.43901052388E+03  0.43901052388E+03  0.00000000000E+00 0.  1.
         21   -1    0    0  503  502  0.00000000000E+00 -0.00000000000E+00 -0.11369962548E+03  0.11369962548E+03  0.00000000000E+00 0. -1.
         24    2    1    2    0    0 -0.80277113183E+02  0.55346039139E+01  0.11658869337E+03  0.16343577388E+03  0.81506331167E+02 0.  0.
         23    2    1    2    0    0  0.13447981011E+03 -0.81255847929E+02  0.15154885365E+03  0.23662315756E+03  0.91302417836E+02 0.  0.
        -13    1    3    3    0    0 -0.68502414780E+02 -0.15978564577E+02  0.11957471296E+03  0.13872997995E+03  0.00000000000E+00 0.  1.
         14    1    3    3    0    0 -0.11774698403E+02  0.21513168491E+02 -0.29860195856E+01  0.24705793935E+02  0.00000000000E+00 0. -1.
        -13    1    4    4    0    0  0.33032974166E+02 -0.39597063514E+01  0.88101921804E+02  0.94174334520E+02  0.00000000000E+00 0.  1.
         13    1    4    4    0    0  0.10144683594E+03 -0.77296141578E+02  0.63446931844E+02  0.14244882304E+03  0.00000000000E+00 0. -1.
         21    1    1    2  503  501 -0.72985421701E+01 -0.18879213539E+02 -0.14617558373E+02  0.24967307313E+02  0.00000000000E+00 0. -1.
         -2    1    1    2    0  502 -0.46904154756E+02  0.94600457554E+02  0.71790909757E+02  0.12768391060E+03  0.00000000000E+00 0.  1.
<scales pt_clust_5="13000.00000" pt_clust_6="13000.00000" pt_clust_7="13000.00000" pt_clust_8="13000.00000" pt_clust_9="20.24088" pt_clust_10="101.61830"></scales>
<clustering>
<clus scale="   20.241">  2  9  1 -1</clus>
<clus scale="   81.506">  5  6 -1 -1</clus>
<clus scale="   91.302">  7  8 -1 -1</clus>
<clus scale="  101.618">  2 10  1 -1</clus>
<clus scale="  132.665">  1  5  2 -1</clus>
<clus scale="   20.241">  2  5  1 -1</clus>
</clustering>
</event>
<event>
10    4  0.3403565E-005  0.1910735E+03  0.7546771E-02  0.1178227E+00
          2   -1    0    0  502    0 -0.00000000000E+00  0.00000000000E+00  0.37087330563E+03  0.37087330563E+03  0.00000000000E+00 0. -1.
         21   -1    0    0  503  502  0.00000000000E+00 -0.00000000000E+00 -0.34801571212E+03  0.34801571212E+03  0.00000000000E+00 0. -1.
         24    2    1    2    0    0 -0.93964469204E+02  0.34828849819E+02 -0.23757652803E+02  0.13420808391E+03  0.86052387927E+02 0.  0.
         23    2    1    2    0    0  0.18830623363E+03 -0.10064645901E+02  0.62668917841E+02  0.22178913370E+03  0.98501227620E+02 0.  0.
        -11    1    3    3    0    0 -0.65180311088E+02  0.63196969025E+01  0.25636044530E+02  0.70325090129E+02  0.00000000000E+00 0.  1.
         12    1    3    3    0    0 -0.28784158116E+02  0.28509152917E+02 -0.49393697332E+02  0.63882993783E+02  0.00000000000E+00 0. -1.
        -11    1    4    4    0    0  0.43319598461E+02  0.18928746520E+02  0.56684806931E+02  0.73810923260E+02  0.00000000000E+00 0.  1.
         11    1    4    4    0    0  0.14498663517E+03 -0.28993392421E+02  0.59841109102E+01  0.14797821044E+03  0.00000000000E+00 0. -1.
         21    1    1    2  503  501  0.34551505212E+02 -0.32285387408E+02 -0.16157343365E+03  0.16835120200E+03  0.00000000000E+00 0.  1.
          1    1    1    2  501    0 -0.12889326963E+03  0.75211834891E+01  0.14551976212E+03  0.19454059814E+03  0.00000000000E+00 0. -1.
<scales pt_clust_5="13000.00000" pt_clust_6="13000.00000" pt_clust_7="13000.00000" pt_clust_8="13000.00000" pt_clust_9="47.28798" pt_clust_10="163.72727"></scales>
<clustering>
<clus scale="   47.288">  2  9  1 -1</clus>
<clus scale="   86.052">  5  6 -1 -1</clus>
<clus scale="   98.501">  7  8 -1 -1</clus>
<clus scale="  118.708">  1  5  2 -1</clus>
<clus scale="  163.727">  2 10  1 -1</clus>
<clus scale="   47.288">  2  5  1 -1</clus>
</clustering>
</event>
<event>
10    4  0.3403565E-005  0.1068016E+03  0.7546771E-02  0.1272117E+00
          2   -1    0    0  503    0 -0.00000000000E+00  0.00000000000E+00  0.48441441001E+03  0.48441441001E+03  0.00000000000E+00 0. -1.
         21   -1    0    0  501  502  0.00000000000E+00 -0.00000000000E+00 -0.99257674076E+02  0.99257674076E+02  0.00000000000E+00 0. -1.
         24    2    1    2    0    0  0.70333954532E+02 -0.14448536471E+02  0.11436139739E+03  0.15587010294E+03  0.77854572191E+02 0.  0.
         23    2    1    2    0    0 -0.59537954050E+01  0.62768780059E+02  0.61490144821E+02  0.12652325666E+03  0.90839028706E+02 0.  0.
        -11    1    3    3    0    0  0.25405569064E+02 -0.71723384006E+01  0.10644924231E+03  0.10967372779E+03  0.00000000000E+00 0.  1.
         12    1    3    3    0    0  0.44928385468E+02 -0.72761980704E+01  0.79121550745E+01  0.46196375151E+02  0.00000000000E+00 0. -1.
        -13    1    4    4    0    0  0.29595493577E+01  0.19801220746E+02 -0.23500402348E+02  0.30872579840E+02  0.00000000000E+00 0.  1.
         13    1    4    4    0    0 -0.89133447627E+01  0.42967559312E+02  0.84990547170E+02  0.95650676821E+02  0.00000000000E+00 0. -1.
         21    1    1    2  503  502  0.15682365136E+02 -0.87991634054E+02  0.19481455221E+02  0.91476725659E+02  0.00000000000E+00 0. -1.
          1    1    1    2  501    0 -0.80062524264E+02  0.39671390467E+02  0.18982373851E+03  0.20980199883E+03  0.00000000000E+00 0. -1.
<scales pt_clust_5="13000.00000" pt_clust_6="13000.00000" pt_clust_7="13000.00000" pt_clust_8="13000.00000" pt_clust_9="73.88375" pt_clust_10="89.35231"></scales>
<clustering>
<clus scale="   77.855">  5  6 -1 -1</clus>
<clus scale="   89.352">  2 10  1 -1</clus>
<clus scale="   73.884">  2  9  1 -1</clus>
<clus scale="   90.839">  7  8 -1 -1</clus>
<clus scale="   96.001">  1  5  2 -1</clus>
<clus scale="   89.352">  2  5  1 -1</clus>
</clustering>
</event>
<event>
10    4  0.3403565E-005  0.1222188E+03  0.7546771E-02  0.1241851E+00
          2   -1    0    0  503    0 -0.00000000000E+00  0.00000000000E+00  0.15847026276E+04  0.15847026276E+04  0.00000000000E+00 0. -1.
         21   -1    0    0  501  502  0.00000000000E+00 -0.00000000000E+00 -0.65263922570E+02  0.65263922570E+02  0.00000000000E+00 0. -1.
         24    2    1    2    0    0 -0.53604054647E+02  0.70115608126E+02  0.11202161148E+04  0.11280654612E+04  0.99287198040E+02 0.  0.
         23    2    1    2    0    0  0.46894881132E+02  0.99199403196E+01  0.23656034538E+03  0.25835366482E+03  0.92131883872E+02 0.  0.
        -13    1    3    3    0    0 -0.43771375901E+01  0.20716039657E+02  0.37179780556E+02  0.42786092539E+02  0.00000000000E+00 0.  1.
         14    1    3    3    0    0 -0.49226917057E+02  0.49399568469E+02  0.10830363342E+04  0.10852793686E+04  0.00000000000E+00 0. -1.
        -11    1    4    4    0    0  0.30141530350E+02  0.50800407617E+02  0.14892045216E+03  0.16020766005E+03  0.00000000000E+00 0. -1.
         11    1    4    4    0    0  0.16753350782E+02 -0.40880467297E+02  0.87639893218E+02  0.98146004769E+02  0.00000000000E+00 0.  1.
         21    1    1    2  503  502  0.73596408990E+02  0.28338724694E+02  0.48984385178E+02  0.92838487303E+02  0.00000000000E+00 0. -1.
          1    1    1    2  501    0 -0.66887235476E+02 -0.10837427314E+03  0.11367785971E+03  0.17070893689E+03  0.00000000000E+00 0. -1.
<scales pt_clust_5="13000.00000" pt_clust_6="13000.00000" pt_clust_7="13000.00000" pt_clust_8="13000.00000" pt_clust_9="78.86390" pt_clust_10="91.60692"></scales>
<clustering>
<clus scale="   78.864">  2  9  1 -1</clus>
<clus scale="   91.607">  2 10  1 -1</clus>
<clus scale="   92.132">  7  8 -1 -1</clus>
<clus scale="   99.287">  5  6 -1 -1</clus>
<clus scale="  116.481">  2  7  1 -1</clus>
<clus scale="   78.864">  2  5  1 -1</clus>
</clustering>
</event>
<event>
10    4  0.3403565E-005  0.3025906E+03  0.7546771E-02  0.1121308E+00
          2   -1    0    0  502    0 -0.00000000000E+00  0.00000000000E+00  0.46903566557E+03  0.46903566557E+03  0.00000000000E+00 0. -1.
         21   -1    0    0  503  502  0.00000000000E+00 -0.00000000000E+00 -0.39975722045E+03  0.39975722045E+03  0.00000000000E+00 0. -1.
         24    2    1    2    0    0  0.78699405493E+02 -0.24209568305E+02  0.11043634961E+03  0.15962173698E+03  0.80642494867E+02 0.  0.
         23    2    1    2    0    0 -0.81435188051E+02  0.32066106250E+03 -0.10370356335E+03  0.35793878083E+03  0.88941187941E+02 0.  0.
        -11    1    3    3    0    0  0.21443157395E+02 -0.36255425141E+02  0.98538014794E+01  0.43259244733E+02  0.00000000000E+00 0.  1.
         12    1    3    3    0    0  0.57256248098E+02  0.12045856836E+02  0.10058254813E+03  0.11636249225E+03  0.00000000000E+00 0. -1.
        -11    1    4    4    0    0 -0.56170676385E+02  0.92873604334E+02 -0.61976403397E+02  0.12498690270E+03  0.00000000000E+00 0.  1.
         11    1    4    4    0    0 -0.25264511666E+02  0.22778745817E+03 -0.41727159957E+02  0.23295187813E+03  0.00000000000E+00 0. -1.
         21    1    1    2  503  501 -0.12929895660E+02 -0.42341600811E+02 -0.55175092990E+02  0.70740965837E+02  0.00000000000E+00 0. -1.
          1    1    1    2  501    0  0.15665678218E+02 -0.25410989338E+03  0.11772075186E+03  0.28049140238E+03  0.00000000000E+00 0. -1.
<scales pt_clust_5="13000.00000" pt_clust_6="13000.00000" pt_clust_7="13000.00000" pt_clust_8="13000.00000" pt_clust_9="44.27181" pt_clust_10="289.22417"></scales>
<clustering>
<clus scale="   44.272">  2  9  1 -1</clus>
<clus scale="   80.642">  5  6 -1 -1</clus>
<clus scale="   88.941">  7  8 -1 -1</clus>
<clus scale="  115.302">  1  5  2 -1</clus>
<clus scale="  289.224">  2 10  1 -1</clus>
<clus scale="   44.272">  2  5  1 -1</clus>
</clustering>
</event>
<event>
10    4  0.3403565E-005  0.2681016E+03  0.7546771E-02  0.1120025E+00
          2   -1    0    0  503    0 -0.00000000000E+00  0.00000000000E+00  0.20880238928E+03  0.20880238928E+03  0.00000000000E+00 0. -1.
         21   -1    0    0  501  502  0.00000000000E+00 -0.00000000000E+00 -0.82133450662E+03  0.82133450662E+03  0.00000000000E+00 0.  1.
         23    2    1    2    0    0  0.12602409154E+03  0.72845933572E+02 -0.35432250193E+03  0.39364239074E+03  0.90671355608E+02 0.  0.
         24    2    1    2    0    0  0.13323760240E+03 -0.19880465987E+03 -0.14982278861E+03  0.29252077832E+03  0.76459049738E+02 0.  0.
        -13    1    4    4    0    0  0.12544594308E+03 -0.13054918373E+03 -0.93989276446E+02  0.20399450506E+03  0.00000000000E+00 0.  1.
         14    1    4    4    0    0  0.77916593192E+01 -0.68255476139E+02 -0.55833512160E+02  0.88526273264E+02  0.00000000000E+00 0. -1.
        -11    1    3    3    0    0  0.88403872620E+02  0.39177083843E+01 -0.14258664609E+03  0.16781401842E+03  0.00000000000E+00 0. -1.
         11    1    3    3    0    0  0.37620218916E+02  0.68928225188E+02 -0.21173585584E+03  0.22582837232E+03  0.00000000000E+00 0.  1.
         21    1    1    2  503  502  0.70043779687E+01 -0.20322818800E+02 -0.14744565376E+02  0.26066846430E+02  0.00000000000E+00 0.  1.
          1    1    1    2  501    0 -0.26626607190E+03  0.14628154509E+03 -0.93642261428E+02  0.31790688040E+03  0.00000000000E+00 0. -1.
<scales pt_clust_5="13000.00000" pt_clust_6="13000.00000" pt_clust_7="13000.00000" pt_clust_8="13000.00000" pt_clust_9="21.49601" pt_clust_10="256.96802"></scales>
<clustering>
<clus scale="   21.496">  1  9  2 -1</clus>
<clus scale="   76.459">  5  6 -1 -1</clus>
<clus scale="   90.671">  7  8 -1 -1</clus>
<clus scale="  171.168">  1  7  2 -1</clus>
<clus scale="  256.968">  2 10  1 -1</clus>
<clus scale="  256.968">  2  5  1 -1</clus>
</clustering>
</event>
<event>
10    4  0.3403565E-005  0.1004616E+03  0.7546771E-02  0.1283336E+00
          2   -1    0    0  502    0 -0.00000000000E+00  0.00000000000E+00  0.18268686809E+03  0.18268686809E+03  0.00000000000E+00 0. -1.
         21   -1    0    0  503  502  0.00000000000E+00 -0.00000000000E+00 -0.18118411052E+03  0.18118411052E+03  0.00000000000E+00 0.  1.
         23    2    1    2    0    0 -0.17594696895E+02 -0.46327549512E+02  0.73895036740E+02  0.12582070906E+03  0.88963808210E+02 0.  0.
         24    2    1    2    0    0  0.60819328937E+02  0.73113305934E+01 -0.84968451247E+02  0.13214270456E+03  0.80558117742E+02 0.  0.
        -11    1    4    4    0    0  0.44725624786E+02  0.34711723700E+02 -0.82782126217E+02  0.10029040680E+03  0.00000000000E+00 0.  1.
         12    1    4    4    0    0  0.16093704151E+02 -0.27400393106E+02 -0.21863250299E+01  0.31852297763E+02  0.00000000000E+00 0. -1.
        -13    1    3    3    0    0  0.26173859555E+02 -0.18000273333E+02 -0.40746447226E+01  0.32026293786E+02  0.00000000000E+00 0. -1.
         13    1    3    3    0    0 -0.43768556450E+02 -0.28327276179E+02  0.77969681463E+02  0.93794415275E+02  0.00000000000E+00 0.  1.
         21    1    1    2  503  501  0.16521241521E+02  0.24987467534E+02 -0.20396420019E+02  0.36240018001E+02  0.00000000000E+00 0. -1.
          1    1    1    2  501    0 -0.59745873563E+02  0.14028751385E+02  0.32972592096E+02  0.69667546984E+02  0.00000000000E+00 0. -1.
<scales pt_clust_5="13000.00000" pt_clust_6="13000.00000" pt_clust_7="13000.00000" pt_clust_8="13000.00000" pt_clust_9="29.95538" pt_clust_10="60.22049"></scales>
<clustering>
<clus scale="   29.955">  2  9  1 -1</clus>
<clus scale="   60.220">  2 10  1 -1</clus>
<clus scale="   80.558">  5  6 -1 -1</clus>
<clus scale="   88.964">  7  8 -1 -1</clus>
<clus scale="   93.100">  2  5  1 -1</clus>
<clus scale="   29.955">  2  5  1 -1</clus>
</clustering>
</event>
<event>
10    4  0.3403565E-005  0.1127140E+03  0.7546771E-02  0.1259022E+00
          2   -1    0    0  503    0 -0.00000000000E+00  0.00000000000E+00  0.35666407173E+03  0.35666407173E+03  0.00000000000E+00 0. -1.
         21   -1    0    0  501  502  0.00000000000E+00 -0.00000000000E+00 -0.73799337364E+02  0.73799337364E+02  0.00000000000E+00 0.  1.
         23    2    1    2    0    0 -0.33770420999E+02 -0.47204179724E+02  0.15738174967E+03  0.19001308046E+03  0.89259619643E+02 0.  0.
         24    2    1    2    0    0  0.59036514513E+02  0.78610879615E+02  0.45383782357E+02  0.13452558931E+03  0.79827727257E+02 0.  0.
        -13    1    4    4    0    0  0.64725391936E+02  0.89380054302E+02  0.28983333430E+02  0.11409734478E+03  0.00000000000E+00 0.  1.
         14    1    4    4    0    0 -0.56888774233E+01 -0.10769174687E+02  0.16400448927E+02  0.20428244535E+02  0.00000000000E+00 0. -1.
        -11    1    3    3    0    0 -0.23324600862E+02  0.19824971666E+02  0.87142684605E+02  0.92362947047E+02  0.00000000000E+00 0.  1.
         11    1    3    3    0    0 -0.10445820137E+02 -0.67029151390E+02  0.70239065061E+02  0.97650133410E+02  0.00000000000E+00 0. -1.
         21    1    1    2  503  502 -0.30123204413E+02  0.26458738990E+01  0.18720778407E+02  0.35565090144E+02  0.00000000000E+00 0. -1.
          1    1    1    2  501    0  0.48571108989E+01 -0.34052573790E+02  0.61378423936E+02  0.70359649181E+02  0.00000000000E+00 0. -1.
<scales pt_clust_5="13000.00000" pt_clust_6="13000.00000" pt_clust_7="13000.00000" pt_clust_8="13000.00000" pt_clust_9="30.23918" pt_clust_10="33.98540"></scales>
<clustering>
<clus scale="   30.239">  2  9  1 -1</clus>
<clus scale="   33.985">  2 10  1 -1</clus>
<clus scale="   79.828">  5  6 -1 -1</clus>
<clus scale="   89.260">  7  8 -1 -1</clus>
<clus scale="  105.402">  2  5  1 -1</clus>
<clus scale="   30.239">  2  5  1 -1</clus>
</clustering>
</event>
<event>
10    4  0.3403565E-005  0.1893605E+03  0.7546771E-02  0.1187199E+00
          2   -1    0    0  503    0 -0.00000000000E+00  0.00000000000E+00  0.94494950356E+03  0.94494950356E+03  0.00000000000E+00 0. -1.
         21   -1    0    0  501  502  0.00000000000E+00 -0.00000000000E+00 -0.87791376176E+02  0.87791376176E+02  0.00000000000E+00 0. -1.
         23    2    1    2    0    0 -0.21940907796E+02 -0.24198910555E+02  0.89550693703E+02  0.13144188345E+03  0.90502216956E+02 0.  0.
         24    2    1    2    0    0 -0.14861847692E+03 -0.30307232777E+02  0.38268303578E+03  0.41903184519E+03  0.78328802925E+02 0.  0.
        -13    1    4    4    0    0 -0.54884166087E+02 -0.49239313066E+02  0.19304598992E+03  0.20664833864E+03  0.00000000000E+00 0.  1.
         14    1    4    4    0    0 -0.93734310834E+02  0.18932080290E+02  0.18963704586E+03  0.21238350655E+03  0.00000000000E+00 0. -1.
        -11    1    3    3    0    0 -0.13737267224E+02 -0.57491891478E+02  0.71241514170E+02  0.92570964334E+02  0.00000000000E+00 0. -1.
         11    1    3    3    0    0 -0.82036405724E+01  0.33292980923E+02  0.18309179534E+02  0.38870919112E+02  0.00000000000E+00 0.  1.
         21    1    1    2  503  502 -0.61373077636E+01 -0.30258358299E+02 -0.16901563968E+02  0.35197978040E+02  0.00000000000E+00 0.  1.
          1    1    1    2  501    0  0.17669669248E+03  0.84764501631E+02  0.40182596187E+03  0.44706917306E+03  0.00000000000E+00 0. -1.
<scales pt_clust_5="13000.00000" pt_clust_6="13000.00000" pt_clust_7="13000.00000" pt_clust_8="13000.00000" pt_clust_9="30.87450" pt_clust_10="172.40079"></scales>
<clustering>
<clus scale="   30.875">  2  9  1 -1</clus>
<clus scale="   78.329">  5  6 -1 -1</clus>
<clus scale="   90.502">  7  8 -1 -1</clus>
<clus scale="   99.777">  1  7  2 -1</clus>
<clus scale="  172.401">  2 10  1 -1</clus>
<clus scale="   30.875">  2  5  1 -1</clus>
</clustering>
</event>
<event>
10    4  0.3403565E-005  0.9678698E+02  0.7546771E-02  0.1303698E+00
          2   -1    0    0  502    0 -0.00000000000E+00  0.00000000000E+00  0.64104859819E+03  0.64104859819E+03  0.00000000000E+00 0. -1.
         21   -1    0    0  503  502  0.00000000000E+00 -0.00000000000E+00 -0.41206159551E+02  0.41206159551E+02  0.00000000000E+00 0.  1.
         24    2    1    2    0    0  0.20259505546E+02 -0.43565685876E+01  0.30408249382E+03  0.31275364182E+03  0.70137366395E+02 0.  0.
         23    2    1    2    0    0  0.35655230482E+02 -0.53375193161E+02  0.11476524469E+03  0.16279403655E+03  0.95972028444E+02 0.  0.
        -13    1    3    3    0    0  0.30774173022E+02 -0.31482690194E+02  0.17979051660E+03  0.18510224030E+03  0.00000000000E+00 0.  1.
         14    1    3    3    0    0 -0.10514667475E+02  0.27126121606E+02  0.12429197723E+03  0.12765140151E+03  0.00000000000E+00 0. -1.
        -11    1    4    4    0    0 -0.16413661552E+02  0.15129892174E+02  0.42390143551E+01  0.22722041401E+02  0.00000000000E+00 0.  1.
         11    1    4    4    0    0  0.52068892034E+02 -0.68505085335E+02  0.11052623033E+03  0.14007199515E+03  0.00000000000E+00 0. -1.
         21    1    1    2  503  501 -0.21562558389E+02  0.15673103823E+02  0.12058846593E+02  0.29257578315E+02  0.00000000000E+00 0.  1.
          1    1    1    2  501    0 -0.34352177640E+02  0.42058657925E+02  0.16893585354E+03  0.17744950106E+03  0.00000000000E+00 0. -1.
<scales pt_clust_5="13000.00000" pt_clust_6="13000.00000" pt_clust_7="13000.00000" pt_clust_8="13000.00000" pt_clust_9="26.65690" pt_clust_10="57.67698"></scales>
<clustering>
<clus scale="   26.657">  2  9  1 -1</clus>
<clus scale="   57.677">  2 10  1 -1</clus>
<clus scale="   70.137">  5  6 -1 -1</clus>
<clus scale="   71.248">  1  5  2 -1</clus>
<clus scale="   95.972">  7  8 -1 -1</clus>
<clus scale="   26.657">  2  5  1 -1</clus>
</clustering>
</event>
<event>
10    4  0.3403565E-005  0.1675938E+03  0.7546771E-02  0.1200715E+00
          2   -1    0    0  503    0 -0.00000000000E+00  0.00000000000E+00  0.40626037282E+03  0.40626037282E+03  0.00000000000E+00 0. -1.
         21   -1    0    0  501  502  0.00000000000E+00 -0.00000000000E+00 -0.27244240513E+03  0.27244240513E+03  0.00000000000E+00 0.  1.
         23    2    1    2    0    0  0.43332461734E+02 -0.15664079973E+03 -0.55261884227E+02  0.19337972543E+03  0.89038193925E+02 0.  0.
         24    2    1    2    0    0 -0.69771437070E+02 -0.33399256500E+02 -0.28590322304E+02  0.11487418439E+03  0.79969418811E+02 0.  0.
        -13    1    4    4    0    0 -0.85505913523E+02 -0.38830770368E+02 -0.28801177360E+02  0.98227276212E+02  0.00000000000E+00 0.  1.
         14    1    4    4    0    0  0.15734476453E+02  0.54315138676E+01  0.21085505574E+00  0.16646908181E+02  0.00000000000E+00 0. -1.
        -11    1    3    3    0    0  0.38970069898E+02 -0.10688897112E+03 -0.78570992646E+02  0.13826539473E+03  0.00000000000E+00 0.  1.
         11    1    3    3    0    0  0.43623918363E+01 -0.49751828613E+02  0.23309108419E+02  0.55114330697E+02  0.00000000000E+00 0. -1.
         21    1    1    2  503  502  0.22314907690E+02  0.13337042968E+03 -0.10193331351E+02  0.13560800354E+03  0.00000000000E+00 0.  1.
          1    1    1    2  501    0  0.41240676455E+01  0.56669626550E+02  0.22786350558E+03  0.23484086459E+03  0.00000000000E+00 0. -1.
<scales pt_clust_5="13000.00000" pt_clust_6="13000.00000" pt_clust_7="13000.00000" pt_clust_8="13000.00000" pt_clust_9="141.98546" pt_clust_10="56.81952"></scales>
<clustering>
<clus scale="   56.820">  2 10  1 -1</clus>
<clus scale="   79.969">  5  6 -1 -1</clus>
<clus scale="   89.038">  7  8 -1 -1</clus>
<clus scale="  106.982">  2  5  1 -1</clus>
<clus scale="  141.985">  1  9  2 -1</clus>
<clus scale="   56.820">  2  5  1 -1</clus>
</clustering>
</event>
<event>
10    4  0.3403565E-005  0.1960109E+03  0.7546771E-02  0.1186680E+00
          2   -1    0    0  502    0 -0.00000000000E+00  0.00000000000E+00  0.16257920964E+04  0.16257920964E+04  0.00000000000E+00 0. -1.
         21   -1    0    0  503  502  0.00000000000E+00 -0.00000000000E+00 -0.68784024605E+02  0.68784024605E+02  0.00000000000E+00 0.  1.
         24    2    1    2    0    0  0.85532369462E+01 -0.47177662824E+02  0.13818917839E+03  0.16691160889E+03  0.80401159356E+02 0.  0.
         23    2    1    2    0    0 -0.12790490112E+03 -0.13247983363E+03  0.21409126117E+03  0.29624155251E+03  0.89517703681E+02 0.  0.
        -13    1    3    3    0    0  0.16236883408E+02 -0.62477378324E+02  0.64479101843E+02  0.91239321346E+02  0.00000000000E+00 0.  1.
         14    1    3    3    0    0 -0.76836464623E+01  0.15299715501E+02  0.73710076550E+02  0.75672287545E+02  0.00000000000E+00 0. -1.
        -11    1    4    4    0    0 -0.13482148803E+03 -0.10404149200E+03  0.20292817506E+03  0.26491755307E+03  0.00000000000E+00 0.  1.
         11    1    4    4    0    0  0.69165869087E+01 -0.28438341635E+02  0.11163086118E+02  0.31323999443E+02  0.00000000000E+00 0. -1.
         21    1    1    2  503  501  0.46253096386E+01  0.24832099170E+02  0.23239598130E+02  0.34323542353E+02  0.00000000000E+00 0. -1.
          1    1    1    2  501    0  0.11472635453E+03  0.15482539729E+03  0.11814880341E+04  0.11970994173E+04  0.00000000000E+00 0. -1.
<scales pt_clust_5="13000.00000" pt_clust_6="13000.00000" pt_clust_7="13000.00000" pt_clust_8="13000.00000" pt_clust_9="25.25919" pt_clust_10="174.37571"></scales>
<clustering>
<clus scale="   25.259">  2  9  1 -1</clus>
<clus scale="   80.401">  5  6 -1 -1</clus>
<clus scale="   89.518">  7  8 -1 -1</clus>
<clus scale="   91.006">  1  5  2 -1</clus>
<clus scale="  174.376">  2 10  1 -1</clus>
<clus scale="   25.259">  2  5  1 -1</clus>
</clustering>
</event>
<event>
10    4  0.3403565E-005  0.1591973E+03  0.7546771E-02  0.1191109E+00
         -1   -1    0    0    0  501 -0.00000000000E+00  0.00000000000E+00  0.19218894466E+03  0.19218894466E+03  0.00000000000E+00 0.  1.
         21   -1    0    0  503  502  0.00000000000E+00 -0.00000000000E+00 -0.48752618648E+03  0.48752618648E+03  0.00000000000E+00 0.  1.
         23    2    1    2    0    0 -0.71563226301E+02 -0.11210999841E+03  0.69047067593E+02  0.17446372419E+03  0.89331665236E+02 0.  0.
         24    2    1    2    0    0  0.10848547846E+03  0.79067822350E+02 -0.18235051022E+03  0.24005138306E+03  0.79700303405E+02 0.  0.
        -13    1    4    4    0    0  0.10794083766E+03  0.38851244987E+02 -0.14729032574E+03  0.18669516258E+03  0.00000000000E+00 0.  1.
         14    1    4    4    0    0  0.54464079675E+00  0.40216577364E+02 -0.35060184477E+02  0.53356220481E+02  0.00000000000E+00 0. -1.
        -13    1    3    3    0    0  0.42661471216E+01 -0.63632299811E+02  0.53257672131E+02  0.83088201517E+02  0.00000000000E+00 0.  1.
         13    1    3    3    0    0 -0.75829373422E+02 -0.48477698595E+02  0.15789395462E+02  0.91375522673E+02  0.00000000000E+00 0. -1.
         21    1    1    2  503  501  0.64266054104E+02  0.54608205331E+01 -0.13628491190E+03  0.15077640228E+03  0.00000000000E+00 0.  1.
         -2    1    1    2    0  502 -0.10118830626E+03  0.27581355523E+02 -0.45748887291E+02  0.11442362162E+03  0.00000000000E+00 0.  1.
<scales pt_clust_5="13000.00000" pt_clust_6="13000.00000" pt_clust_7="13000.00000" pt_clust_8="13000.00000" pt_clust_9="64.49765" pt_clust_10="90.92563"></scales>
<clustering>
<clus scale="   64.498">  2  9  1 -1</clus>
<clus scale="   79.700">  5  6 -1 -1</clus>
<clus scale="   89.332">  7  8 -1 -1</clus>
<clus scale="   90.926">  2 10  1 -1</clus>
<clus scale="  153.999">  2  5  1 -1</clus>
<clus scale="   64.498">  2  5  1 -1</clus>
</clustering>
</event>
<event>
10    4  0.3403565E-005  0.1154537E+03  0.7546771E-02  0.1254996E+00
         21   -1    0    0  501  502  0.00000000000E+00  0.00000000000E+00  0.85477418111E+02  0.85477418111E+02  0.00000000000E+00 0.  1.
          4   -1    0    0  503    0 -0.00000000000E+00 -0.00000000000E+00 -0.27441724578E+03  0.27441724578E+03  0.00000000000E+00 0. -1.
         24    2    1    2    0    0 -0.26578723860E+02 -0.71003340512E+02 -0.12007532695E+03  0.16335413893E+03  0.80737770832E+02 0.  0.
         23    2    1    2    0    0  0.12950898744E+01  0.59837527378E+02 -0.47783896637E+02  0.12015213507E+03  0.92579845776E+02 0.  0.
        -11    1    3    3    0    0 -0.18633579437E+02  0.11329845570E+02 -0.51436422644E+02  0.55868428094E+02  0.00000000000E+00 0.  1.
         12    1    3    3    0    0 -0.79451444230E+01 -0.82333186083E+02 -0.68638904303E+02  0.10748571084E+03  0.00000000000E+00 0. -1.
        -13    1    4    4    0    0  0.41000235045E+02  0.55190371930E+02 -0.20469884246E+02  0.71735713481E+02  0.00000000000E+00 0.  1.
         13    1    4    4    0    0 -0.39705145170E+02  0.46471554480E+01 -0.27314012391E+02  0.48416421591E+02  0.00000000000E+00 0. -1.
         21    1    1    2  503  502 -0.30524552376E+01 -0.21706103641E+02  0.88819438940E+01  0.23650821246E+02  0.00000000000E+00 0.  1.
          3    1    1    2  501    0  0.28336089223E+02  0.32871916775E+02 -0.29962547982E+02  0.52737568645E+02  0.00000000000E+00 0. -1.
<scales pt_clust_5="13000.00000" pt_clust_6="13000.00000" pt_clust_7="13000.00000" pt_clust_8="13000.00000" pt_clust_9="21.91968" pt_clust_10="40.41343"></scales>
<clustering>
<clus scale="   21.920">  1  9  2 -1</clus>
<clus scale="   40.413">  1 10  2 -1</clus>
<clus scale="   80.738">  5  6 -1 -1</clus>
<clus scale="   92.580">  7  8 -1 -1</clus>
<clus scale="  106.194">  2  5  1 -1</clus>
<clus scale="   21.920">  1  5  2 -1</clus>
</clustering>
</event>
<event>
10    4  0.5190161E-005  0.3941171E+03  0.7546771E-02  0.1092834E+00
          2   -1    0    0  503    0 -0.00000000000E+00  0.00000000000E+00  0.14800952623E+04  0.14800952623E+04  0.00000000000E+00 0. -1.
         21   -1    0    0  501  502  0.00000000000E+00 -0.00000000000E+00 -0.19645435530E+03  0.19645435530E+03  0.00000000000E+00 0. -1.
         24    2    1    2    0    0  0.42777936452E+02 -0.52421109277E+02  0.56023501951E+03  0.57051779691E+03  0.83960436885E+02 0.  0.
         23    2    1    2    0    0  0.34066049188E+03  0.42448846749E+02  0.39192645971E+03  0.53636410997E+03  0.12739165329E+03 0.  0.
        -11    1    3    3    0    0 -0.10592864424E+02 -0.46014565061E+02  0.16429666423E+03  0.17094719317E+03  0.00000000000E+00 0.  1.
         12    1    3    3    0    0  0.53370800875E+02 -0.64065442155E+01  0.39593835528E+03  0.39957060374E+03  0.00000000000E+00 0. -1.
        -11    1    4    4    0    0  0.22629018483E+02 -0.31289358626E+02  0.55131204191E+02  0.67309331569E+02  0.00000000000E+00 0.  1.
         11    1    4    4    0    0  0.31803147340E+03  0.73738205375E+02  0.33679525552E+03  0.46905477840E+03  0.00000000000E+00 0. -1.
         21    1    1    2  503  502  0.20920296392E+02 -0.85808863099E+01 -0.22529758096E+02  0.31919906185E+02  0.00000000000E+00 0.  1.
          1    1    1    2  501    0 -0.40435872472E+03  0.18553148838E+02  0.35400918585E+03  0.53774780451E+03  0.00000000000E+00 0. -1.
<scales pt_clust_5="13000.00000" pt_clust_6="13000.00000" pt_clust_7="13000.00000" pt_clust_8="13000.00000" pt_clust_9="22.61173" pt_clust_10="372.96069"></scales>
<clustering>
<clus scale="   22.612">  2  9  1 -1</clus>
<clus scale="   83.960">  5  6 -1 -1</clus>
<clus scale="  108.210">  1  5  2 -1</clus>
<clus scale="  127.392">  7  8 -1 -1</clus>
<clus scale="  372.961">  2 10  1 -1</clus>
<clus scale="   22.612">  2  5  1 -1</clus>
</clustering>
</event>
<event>
10    4  0.3403565E-005  0.2113012E+03  0.7546771E-02  0.1167373E+00
          2   -1    0    0  502    0 -0.00000000000E+00  0.00000000000E+00  0.14193042719E+04  0.14193042719E+04  0.00000000000E+00 0. -1.
         21   -1    0    0  503  502  0.00000000000E+00 -0.00000000000E+00 -0.83456953833E+02  0.83456953833E+02  0.00000000000E+00 0. -1.
         23    2    1    2    0    0 -0.14734908000E+02  0.56045285400E+02  0.31424100532E+02  0.11295402334E+03  0.91722111652E+02 0.  0.
         24    2    1    2    0    0  0.18615702169E+03 -0.95037757673E+02  0.70067707769E+03  0.73563112278E+03  0.80735181263E+02 0.  0.
        -13    1    4    4    0    0  0.36411157528E+02 -0.38856047275E+02  0.29116916320E+03  0.29599838919E+03  0.00000000000E+00 0.  1.
         14    1    4    4    0    0  0.14974586416E+03 -0.56181710398E+02  0.40950791449E+03  0.43963273359E+03  0.00000000000E+00 0. -1.
        -11    1    3    3    0    0  0.32456631491E+02 -0.27969658075E+01  0.14457441971E+02  0.35640897489E+02  0.00000000000E+00 0.  1.
         11    1    3    3    0    0 -0.47191539491E+02  0.58842251207E+02  0.16966658561E+02  0.77313125854E+02  0.00000000000E+00 0. -1.
         21    1    1    2  503  501  0.16543388761E+02  0.15447169710E+02  0.13251838862E+01  0.22672778305E+02  0.00000000000E+00 0.  1.
          1    1    1    2  501    0 -0.18796550245E+03  0.23545302563E+02  0.60242095595E+03  0.63150330130E+03  0.00000000000E+00 0. -1.
<scales pt_clust_5="13000.00000" pt_clust_6="13000.00000" pt_clust_7="13000.00000" pt_clust_8="13000.00000" pt_clust_9="22.63402" pt_clust_10="195.26907"></scales>
<clustering>
<clus scale="   22.634">  2  9  1 -1</clus>
<clus scale="   80.735">  5  6 -1 -1</clus>
<clus scale="   91.722">  7  8 -1 -1</clus>
<clus scale="  112.377">  1  7  2 -1</clus>
<clus scale="  195.269">  2 10  1 -1</clus>
<clus scale="   22.634">  2  5  1 -1</clus>
</clustering>
</event>
<event>
10    4  0.3403565E-005  0.9915471E+02  0.7546771E-02  0.1286948E+00
          2   -1    0    0  502    0 -0.00000000000E+00  0.00000000000E+00  0.21781606215E+03  0.21781606215E+03  0.00000000000E+00 0. -1.
         21   -1    0    0  503  502  0.00000000000E+00 -0.00000000000E+00 -0.33248117499E+03  0.33248117499E+03  0.00000000000E+00 0.  1.
         23    2    1    2    0    0  0.33565040369E+02  0.19624020987E+02  0.12034009637E+03  0.15549896719E+03  0.90479146033E+02 0.  0.
         24    2    1    2    0    0 -0.87034236437E+02  0.24962551306E+02 -0.25056298744E+03  0.27841612778E+03  0.80843319159E+02 0.  0.
        -11    1    4    4    0    0 -0.96326170996E+02  0.20009481582E+02 -0.24905056320E+03  0.26777844125E+03  0.00000000000E+00 0.  1.
         12    1    4    4    0    0  0.92919345583E+01  0.49530697249E+01 -0.15124242447E+01  0.10637686526E+02  0.00000000000E+00 0. -1.
        -11    1    3    3    0    0  0.29114231903E+02  0.45329900778E+02  0.11749299158E+03  0.12925572125E+03  0.00000000000E+00 0. -1.
         11    1    3    3    0    0  0.44508084663E+01 -0.25705879792E+02  0.28471047900E+01  0.26243245942E+02  0.00000000000E+00 0.  1.
         21    1    1    2  503  501  0.20496424509E+02  0.26010846092E+02 -0.96411213661E+01  0.34490850283E+02  0.00000000000E+00 0.  1.
          1    1    1    2  501    0  0.32972771559E+02 -0.70597418385E+02  0.25198899586E+02  0.81891291889E+02  0.00000000000E+00 0. -1.
<scales pt_clust_5="13000.00000" pt_clust_6="13000.00000" pt_clust_7="13000.00000" pt_clust_8="13000.00000" pt_clust_9="33.11597" pt_clust_10="76.60553"></scales>
<clustering>
<clus scale="   33.116">  2  9  1 -1</clus>
<clus scale="   76.606">  2 10  1 -1</clus>
<clus scale="   80.843">  5  6 -1 -1</clus>
<clus scale="   90.448">  2  5  1 -1</clus>
<clus scale="   90.479">  7  8 -1 -1</clus>
<clus scale="   33.116">  2  5  1 -1</clus>
</clustering>
</event>
<event>
10    4  0.3403565E-005  0.1767934E+03  0.7546771E-02  0.1172323E+00
          2   -1    0    0  502    0 -0.00000000000E+00  0.00000000000E+00  0.43839993366E+03  0.43839993366E+03  0.00000000000E+00 0. -1.
         21   -1    0    0  503  502  0.00000000000E+00 -0.00000000000E+00 -0.11383841735E+03  0.11383841735E+03  0.00000000000E+00 0.  1.
         23    2    1    2    0    0  0.40367018314E+01 -0.14440419797E+03  0.13846106161E+03  0.21996030989E+03  0.91335672041E+02 0.  0.
         24    2    1    2    0    0 -0.78664885885E+01  0.16021610852E+03  0.98112976221E+02  0.20443157533E+03  0.80218637598E+02 0.  0.
        -11    1    4    4    0    0 -0.24348391088E+02  0.15952909216E+03  0.80643708494E+02  0.18040449860E+03  0.00000000000E+00 0.  1.
         12    1    4    4    0    0  0.16481902499E+02  0.68701635745E+00  0.17469267727E+02  0.24027076734E+02  0.00000000000E+00 0. -1.
        -13    1    3    3    0    0 -0.28848386455E+02 -0.11060211257E+03  0.61758642522E+02  0.12991992393E+03  0.00000000000E+00 0.  1.
         13    1    3    3    0    0  0.32885088286E+02 -0.33802085400E+02  0.76702419092E+02  0.90040385958E+02  0.00000000000E+00 0. -1.
         21    1    1    2  503  501  0.35745246775E+02  0.14779858555E+02  0.13017059800E+02  0.40811894489E+02  0.00000000000E+00 0.  1.
          1    1    1    2  501    0 -0.31915460018E+02 -0.30591769102E+02  0.74970418675E+02  0.87034571299E+02  0.00000000000E+00 0. -1.
<scales pt_clust_5="13000.00000" pt_clust_6="13000.00000" pt_clust_7="13000.00000" pt_clust_8="13000.00000" pt_clust_9="38.68032" pt_clust_10="42.04300"></scales>
<clustering>
<clus scale="   38.680">  2  9  1 -1</clus>
<clus scale="   42.043">  2 10  1 -1</clus>
<clus scale="   80.219">  5  6 -1 -1</clus>
<clus scale="   91.336">  7  8 -1 -1</clus>
<clus scale="  171.315">  2  5  1 -1</clus>
<clus scale="   38.680">  2  5  1 -1</clus>
</clustering>
</event>
<event>
10    4  0.3403565E-005  0.1248698E+03  0.7546771E-02  0.1238526E+00
         21   -1    0    0  501  502  0.00000000000E+00  0.00000000000E+00  0.63359320399E+02  0.63359320399E+02  0.00000000000E+00 0. -1.
          2   -1    0    0  503    0 -0.00000000000E+00 -0.00000000000E+00 -0.76595857844E+03  0.76595857844E+03  0.00000000000E+00 0. -1.
         23    2    1    2    0    0 -0.86581608975E+02  0.61123433509E+02 -0.36942202680E+03  0.39511697532E+03  0.91718815764E+02 0.  0.
         24    2    1    2    0    0 -0.26403359248E+02 -0.95267024759E+02 -0.22461735252E+03  0.25826194509E+03  0.80457031012E+02 0.  0.
        -13    1    4    4    0    0 -0.35859604618E+02 -0.10608535246E+03 -0.20850431586E+03  0.23667290293E+03  0.00000000000E+00 0.  1.
         14    1    4    4    0    0  0.94562453698E+01  0.10818327699E+02 -0.16113036663E+02  0.21589042155E+02  0.00000000000E+00 0. -1.
        -13    1    3    3    0    0  0.54370328293E+00  0.48907439341E+02 -0.93672582552E+02  0.10567301433E+03  0.00000000000E+00 0.  1.
         13    1    3    3    0    0 -0.87125312258E+02  0.12215994168E+02 -0.27574944425E+03  0.28944396099E+03  0.00000000000E+00 0. -1.
         21    1    1    2  503  502 -0.66400249319E+00  0.24339856068E+02 -0.17645900510E+02  0.30070704973E+02  0.00000000000E+00 0. -1.
          1    1    1    2  501    0  0.11364897072E+03  0.98037351812E+01 -0.90913978209E+02  0.14586827346E+03  0.00000000000E+00 0. -1.
<scales pt_clust_5="13000.00000" pt_clust_6="13000.00000" pt_clust_7="13000.00000" pt_clust_8="13000.00000" pt_clust_9="24.34891" pt_clust_10="115.35234"></scales>
<clustering>
<clus scale="   24.349">  1  9  2 -1</clus>
<clus scale="   80.457">  5  6 -1 -1</clus>
<clus scale="   91.719">  7  8 -1 -1</clus>
<clus scale="  115.352">  1 10  2 -1</clus>
<clus scale="  116.848">  1  5  2 -1</clus>
<clus scale="   24.349">  1  5  2 -1</clus>
</clustering>
</event>
<event>
10    4  0.3403565E-005  0.1347263E+03  0.7546771E-02  0.1249543E+00
          2   -1    0    0  503    0 -0.00000000000E+00  0.00000000000E+00  0.36878463963E+03  0.36878463963E+03  0.00000000000E+00 0. -1.
         21   -1    0    0  501  502  0.00000000000E+00 -0.00000000000E+00 -0.11224281718E+03  0.11224281718E+03  0.00000000000E+00 0. -1.
         23    2    1    2    0    0  0.13448283945E+01 -0.90789408021E+01  0.11324622166E+03  0.13581416988E+03  0.74407971964E+02 0.  0.
         24    2    1    2    0    0 -0.10727539077E+03 -0.23147615765E+02  0.34001142636E+02  0.14650148873E+03  0.90899873044E+02 0.  0.
        -13    1    4    4    0    0 -0.10135302628E+03  0.10878849842E+02  0.43273970602E+02  0.11074033521E+03  0.00000000000E+00 0.  1.
         14    1    4    4    0    0 -0.59223644894E+01 -0.34026465607E+02 -0.92728279657E+01  0.35761153524E+02  0.00000000000E+00 0. -1.
        -13    1    3    3    0    0  0.24087070551E+02  0.39481931391E+01  0.10578398385E+03  0.10856346732E+03  0.00000000000E+00 0.  1.
         13    1    3    3    0    0 -0.22742242157E+02 -0.13027133941E+02  0.74622378024E+01  0.27250702561E+02  0.00000000000E+00 0. -1.
         21    1    1    2  503  502  0.11034927314E+02  0.53358684852E+02  0.28655974378E+01  0.54563087510E+02  0.00000000000E+00 0. -1.
          1    1    1    2  501    0  0.94895635063E+02 -0.21132128285E+02  0.10642886072E+03  0.14414871069E+03  0.00000000000E+00 0. -1.
<scales pt_clust_5="13000.00000" pt_clust_6="13000.00000" pt_clust_7="13000.00000" pt_clust_8="13000.00000" pt_clust_9="54.48779" pt_clust_10="99.44047"></scales>
<clustering>
<clus scale="   54.488">  2  9  1 -1</clus>
<clus scale="   74.408">  7  8 -1 -1</clus>
<clus scale="   74.490">  1  7  2 -1</clus>
<clus scale="   90.900">  5  6 -1 -1</clus>
<clus scale="   99.440">  2 10  1 -1</clus>
<clus scale="   54.488">  2  5  1 -1</clus>
</clustering>
</event>
<event>
10    4  0.3403565E-005  0.2751415E+03  0.7546771E-02  0.1115170E+00
         -1   -1    0    0    0  501 -0.00000000000E+00  0.00000000000E+00  0.12640910553E+04  0.12640910553E+04  0.00000000000E+00 0.  1.
         21   -1    0    0  503  502  0.00000000000E+00 -0.00000000000E+00 -0.27544506223E+03  0.27544506223E+03  0.00000000000E+00 0.  1.
         23    2    1    2    0    0 -0.12163106501E+03  0.55346620834E+02 -0.13182617657E+03  0.20890381814E+03  0.91680423169E+02 0.  0.
         24    2    1    2    0    0 -0.17302894253E+03  0.41223473944E+02  0.64456976579E+03  0.67355630972E+03  0.81052634997E+02 0.  0.
        -13    1    4    4    0    0 -0.11448569499E+03  0.47867525789E+02  0.53443320775E+03  0.54865027835E+03  0.00000000000E+00 0.  1.
         14    1    4    4    0    0 -0.58543247540E+02 -0.66440518453E+01  0.11013655803E+03  0.12490603137E+03  0.00000000000E+00 0. -1.
        -11    1    3    3    0    0 -0.21533725242E+02  0.19308423759E+02  0.10883921916E+02  0.30902690937E+02  0.00000000000E+00 0. -1.
         11    1    3    3    0    0 -0.10009733977E+03  0.36038197075E+02 -0.14271009848E+03  0.17800112721E+03  0.00000000000E+00 0.  1.
         21    1    1    2  503  501 -0.22638988024E+02  0.16761913785E+02 -0.35091917718E+02  0.44999202455E+02  0.00000000000E+00 0. -1.
         -2    1    1    2    0  502  0.31729899557E+03 -0.11333200856E+03  0.51099432152E+03  0.61207678716E+03  0.00000000000E+00 0.  1.
<scales pt_clust_5="13000.00000" pt_clust_6="13000.00000" pt_clust_7="13000.00000" pt_clust_8="13000.00000" pt_clust_9="28.16888" pt_clust_10="262.93214"></scales>
<clustering>
<clus scale="   28.169">  2  9  1 -1</clus>
<clus scale="   81.053">  5  6 -1 -1</clus>
<clus scale="   91.680">  7  8 -1 -1</clus>
<clus scale="  178.905">  1  7  2 -1</clus>
<clus scale="  262.932">  2 10  1 -1</clus>
<clus scale="   28.169">  2  5  1 -1</clus>
</clustering>
</event>
<event>
10    4  0.3403565E-005  0.2127098E+03  0.7546771E-02  0.1154928E+00
         21   -1    0    0  501  502  0.00000000000E+00  0.00000000000E+00  0.20175072445E+03  0.20175072445E+03  0.00000000000E+00 0. -1.
          2   -1    0    0  503    0 -0.00000000000E+00 -0.00000000000E+00 -0.58596850522E+03  0.58596850522E+03  0.00000000000E+00 0. -1.
         23    2    1    2    0    0 -0.75413239810E+02  0.76659425382E+02 -0.47473699437E+02  0.14884186924E+03  0.91303481112E+02 0.  0.
         24    2    1    2    0    0  0.24594030082E+03 -0.10547201503E+03 -0.27288826747E+03  0.39044487330E+03  0.79801096745E+02 0.  0.
        -13    1    4    4    0    0  0.69348455072E+02 -0.19404634096E+02 -0.29886921410E+02  0.77967788968E+02  0.00000000000E+00 0.  1.
         14    1    4    4    0    0  0.17659184575E+03 -0.86067380936E+02 -0.24300134606E+03  0.31247708433E+03  0.00000000000E+00 0. -1.
        -11    1    3    3    0    0 -0.53285711709E+02  0.96983576305E+02 -0.32875636588E+02  0.11543824594E+03  0.00000000000E+00 0. -1.
         11    1    3    3    0    0 -0.22127528101E+02 -0.20324150924E+02 -0.14598062849E+02  0.33403623300E+02  0.00000000000E+00 0.  1.
         21    1    1    2  503  502 -0.16256326427E+01  0.31347575362E+02  0.39459558980E+02  0.50421919414E+02  0.00000000000E+00 0. -1.
          1    1    1    2  501    0 -0.16890142837E+03 -0.25349857119E+01 -0.10331537284E+03  0.19801056771E+03  0.00000000000E+00 0. -1.
<scales pt_clust_5="13000.00000" pt_clust_6="13000.00000" pt_clust_7="13000.00000" pt_clust_8="13000.00000" pt_clust_9="31.38970" pt_clust_10="197.17314"></scales>
<clustering>
<clus scale="   31.390">  1  9  2 -1</clus>
<clus scale="   79.801">  5  6 -1 -1</clus>
<clus scale="   91.303">  7  8 -1 -1</clus>
<clus scale="  147.091">  2  7  1 -1</clus>
<clus scale="  197.173">  1 10  2 -1</clus>
<clus scale="   31.390">  1  5  2 -1</clus>
</clustering>
</event>
<event>
10    4  0.3403565E-005  0.1399648E+03  0.7546771E-02  0.1229970E+00
          2   -1    0    0  503    0 -0.00000000000E+00  0.00000000000E+00  0.68914315819E+03  0.68914315819E+03  0.00000000000E+00 0. -1.
         21   -1    0    0  501  502  0.00000000000E+00 -0.00000000000E+00 -0.10227628408E+03  0.10227628408E+03  0.00000000000E+00 0. -1.
         24    2    1    2    0    0 -0.58889191064E+02 -0.15361508651E+02  0.22644601074E+03  0.24816428998E+03  0.81263806626E+02 0.  0.
         23    2    1    2    0    0 -0.40107816868E+02  0.82969798015E+02  0.22528114263E+03  0.25951355332E+03  0.90017036030E+02 0.  0.
        -11    1    3    3    0    0 -0.31269767936E+02 -0.42887140056E+02  0.75676587254E+02  0.92434036087E+02  0.00000000000E+00 0.  1.
         12    1    3    3    0    0 -0.27619423128E+02  0.27525631405E+02  0.15076942349E+03  0.15573025389E+03  0.00000000000E+00 0. -1.
        -13    1    4    4    0    0 -0.68240278469E+02  0.69052990954E+02  0.17820642178E+03  0.20293491550E+03  0.00000000000E+00 0.  1.
         13    1    4    4    0    0  0.28132461601E+02  0.13916807061E+02  0.47074720852E+02  0.56578637822E+02  0.00000000000E+00 0. -1.
         21    1    1    2  503  502  0.65048724364E+02 -0.10236166864E+03 -0.18426697498E+02  0.12267351356E+03  0.00000000000E+00 0. -1.
          1    1    1    2  501    0  0.33948283568E+02  0.34753379280E+02  0.15356641823E+03  0.16106808540E+03  0.00000000000E+00 0. -1.
<scales pt_clust_5="13000.00000" pt_clust_6="13000.00000" pt_clust_7="13000.00000" pt_clust_8="13000.00000" pt_clust_9="107.17777" pt_clust_10="48.58277"></scales>
<clustering>
<clus scale="   48.583">  2 10  1 -1</clus>
<clus scale="   81.264">  5  6 -1 -1</clus>
<clus scale="   90.017">  7  8 -1 -1</clus>
<clus scale="   98.884">  1  5  2 -1</clus>
<clus scale="  107.178">  2  9  1 -1</clus>
<clus scale="   48.583">  2  5  1 -1</clus>
</clustering>
</event>
<event>
10    4  0.3403565E-005  0.1220344E+03  0.7546771E-02  0.1243535E+00
          2   -1    0    0  503    0 -0.00000000000E+00  0.00000000000E+00  0.46624205027E+03  0.46624205027E+03  0.00000000000E+00 0. -1.
         21   -1    0    0  501  502  0.00000000000E+00 -0.00000000000E+00 -0.31008174722E+03  0.31008174722E+03  0.00000000000E+00 0.  1.
         24    2    1    2    0    0  0.42843148589E+02 -0.57492669055E+02  0.26178025978E+03  0.28319154743E+03  0.80793599675E+02 0.  0.
         23    2    1    2    0    0  0.62906663934E+01  0.12413268514E+03  0.12597901807E+03  0.19987250010E+03  0.92896756126E+02 0.  0.
        -13    1    3    3    0    0 -0.13451037074E+02 -0.48698917786E+02  0.13698219476E+03  0.14600218037E+03  0.00000000000E+00 0.  1.
         14    1    3    3    0    0  0.56294185663E+02 -0.87937512688E+01  0.12479806502E+03  0.13718936705E+03  0.00000000000E+00 0. -1.
        -13    1    4    4    0    0  0.29546275965E+02  0.71027216249E+01  0.66170095875E+01  0.31100094755E+02  0.00000000000E+00 0.  1.
         13    1    4    4    0    0 -0.23255609572E+02  0.11702996351E+03  0.11936200848E+03  0.16877240534E+03  0.00000000000E+00 0. -1.
         21    1    1    2  503  502 -0.98511287659E+02 -0.76391895216E+02 -0.19331184558E+03  0.23002101012E+03  0.00000000000E+00 0.  1.
          1    1    1    2  501    0  0.49377472677E+02  0.97518791312E+01 -0.38287129208E+02  0.63238739848E+02  0.00000000000E+00 0. -1.
<scales pt_clust_5="13000.00000" pt_clust_6="13000.00000" pt_clust_7="13000.00000" pt_clust_8="13000.00000" pt_clust_9="89.83899" pt_clust_10="50.33124"></scales>
<clustering>
<clus scale="   50.331">  2 10  1 -1</clus>
<clus scale="   80.794">  5  6 -1 -1</clus>
<clus scale="   89.839">  2  9  1 -1</clus>
<clus scale="   92.897">  7  8 -1 -1</clus>
<clus scale="  113.094">  1  5  2 -1</clus>
<clus scale="   50.331">  2  5  1 -1</clus>
</clustering>
</event>
<event>
10    4  0.3403565E-005  0.1474203E+03  0.7546771E-02  0.1206347E+00
          2   -1    0    0  503    0 -0.00000000000E+00  0.00000000000E+00  0.36026136389E+03  0.36026136389E+03  0.00000000000E+00 0. -1.
         21   -1    0    0  501  502  0.00000000000E+00 -0.00000000000E+00 -0.18532117059E+03  0.18532117059E+03  0.00000000000E+00 0. -1.
         23    2    1    2    0    0  0.55998320305E+02 -0.84759004766E+02  0.89019743863E+02  0.16278253327E+03  0.90850082958E+02 0.  0.
         24    2    1    2    0    0 -0.10530577439E+03  0.82338823517E+02  0.12355333464E+03  0.19755752977E+03  0.76776058054E+02 0.  0.
        -11    1    4    4    0    0 -0.12724818884E+02  0.27312953691E+02 -0.42462313266E+01  0.30429409055E+02  0.00000000000E+00 0.  1.
         12    1    4    4    0    0 -0.92580955507E+02  0.55025869826E+02  0.12779956597E+03  0.16712812072E+03  0.00000000000E+00 0. -1.
        -11    1    3    3    0    0 -0.90279006313E+01 -0.59130876118E+02  0.16470485137E+02  0.62042246743E+02  0.00000000000E+00 0. -1.
         11    1    3    3    0    0  0.65026220936E+02 -0.25628128648E+02  0.72549258726E+02  0.10074028652E+03  0.00000000000E+00 0.  1.
         21    1    1    2  503  502  0.62968204169E+02 -0.76735858814E+02 -0.33667948769E+02  0.10481849807E+03  0.00000000000E+00 0.  1.
          1    1    1    2  501    0 -0.13660750083E+02  0.79156040063E+02 -0.39649364369E+01  0.80423973368E+02  0.00000000000E+00 0. -1.
<scales pt_clust_5="13000.00000" pt_clust_6="13000.00000" pt_clust_7="13000.00000" pt_clust_8="13000.00000" pt_clust_9="68.22080" pt_clust_10="80.32618"></scales>
<clustering>
<clus scale="   76.776">  5  6 -1 -1</clus>
<clus scale="   80.326">  2 10  1 -1</clus>
<clus scale="   68.221">  2  9  1 -1</clus>
<clus scale="   90.850">  7  8 -1 -1</clus>
<clus scale="  139.189">  2  5  1 -1</clus>
<clus scale="   80.326">  2  5  1 -1</clus>
</clustering>
</event>
<event>
10    4  0.3403565E-005  0.9096496E+02  0.7546771E-02  0.1301273E+00
          2   -1    0    0  503    0 -0.00000000000E+00  0.00000000000E+00  0.11901335258E+03  0.11901335258E+03  0.00000000000E+00 0. -1.
         21   -1    0    0  501  502  0.00000000000E+00 -0.00000000000E+00 -0.60720855349E+03  0.60720855349E+03  0.00000000000E+00 0.  1.
         24    2    1    2    0    0  0.18656363113E+02  0.16849449208E+01  0.63145627318E+02  0.10915580655E+03  0.87044361848E+02 0.  0.
         23    2    1    2    0    0 -0.77512802305E+02 -0.50274033867E+02 -0.15535233269E+03  0.20005955600E+03  0.85754100039E+02 0.  0.
        -13    1    3    3    0    0  0.36376738809E+02 -0.28511510586E+02  0.13028061530E+02  0.48019826629E+02  0.00000000000E+00 0.  1.
         14    1    3    3    0    0 -0.17720375696E+02  0.30196455507E+02  0.50117565788E+02  0.61135979917E+02  0.00000000000E+00 0. -1.
        -13    1    4    4    0    0 -0.65052577400E+02 -0.74431024590E+02 -0.12329219656E+03  0.15802778547E+03  0.00000000000E+00 0.  1.
         13    1    4    4    0    0 -0.12460224905E+02  0.24156990723E+02 -0.32060136122E+02  0.42031770528E+02  0.00000000000E+00 0. -1.
         21    1    1    2  503  502  0.44763554877E+02  0.15301353545E+02 -0.36868020947E+03  0.37170284385E+03  0.00000000000E+00 0.  1.
          1    1    1    2  501    0  0.14092884315E+02  0.33287735402E+02 -0.27308286063E+02  0.45303699674E+02  0.00000000000E+00 0. -1.
<scales pt_clust_5="13000.00000" pt_clust_6="13000.00000" pt_clust_7="13000.00000" pt_clust_8="13000.00000" pt_clust_9="65.31461" pt_clust_10="36.14808"></scales>
<clustering>
<clus scale="   36.148">  2 10  1 -1</clus>
<clus scale="   65.315">  2  9  1 -1</clus>
<clus scale="   85.754">  7  8 -1 -1</clus>
<clus scale="   87.044">  5  6 -1 -1</clus>
<clus scale="   89.731">  2  7  1 -1</clus>
<clus scale="   36.148">  2  5  1 -1</clus>
</clustering>
</event>
<event>
10    4  0.3403565E-005  0.9643700E+02  0.7546771E-02  0.1292795E+00
          2   -1    0    0  502    0 -0.00000000000E+00  0.00000000000E+00  0.68275287262E+03  0.68275287262E+03  0.00000000000E+00 0. -1.
         21   -1    0    0  503  502  0.00000000000E+00 -0.00000000000E+00 -0.24766473034E+03  0.24766473034E+03  0.00000000000E+00 0. -1.
         23    2    1    2    0    0  0.30292192841E+01 -0.17063178761E+02  0.42109102216E+03  0.43097089268E+03  0.90099573514E+02 0.  0.
         24    2    1    2    0    0  0.28122671613E+02  0.86908438365E+02  0.22795316095E+03  0.25862781405E+03  0.81127931674E+02 0.  0.
        -13    1    4    4    0    0 -0.27948250818E+01  0.28476376985E+02  0.91262371748E+01  0.30033369748E+02  0.00000000000E+00 0.  1.
         14    1    4    4    0    0  0.30917496695E+02  0.58432061380E+02  0.21882692377E+03  0.22859444430E+03  0.00000000000E+00 0. -1.
        -13    1    3    3    0    0 -0.37165091869E+01 -0.53154228352E+02  0.28904830823E+03  0.29391854130E+03  0.00000000000E+00 0.  1.
         13    1    3    3    0    0  0.67457284710E+01  0.36091049591E+02  0.13204271394E+03  0.13705235137E+03  0.00000000000E+00 0. -1.
         21    1    1    2  503  501  0.21793672980E+02 -0.74618887781E+01 -0.85238590933E+02  0.88296440191E+02  0.00000000000E+00 0. -1.
          1    1    1    2  501    0 -0.52945563877E+02 -0.62383370826E+02 -0.12871744990E+03  0.15252245604E+03  0.00000000000E+00 0. -1.
<scales pt_clust_5="13000.00000" pt_clust_6="13000.00000" pt_clust_7="13000.00000" pt_clust_8="13000.00000" pt_clust_9="23.03571" pt_clust_10="76.79184"></scales>
<clustering>
<clus scale="   23.036">  2  9  1 -1</clus>
<clus scale="   76.792">  2 10  1 -1</clus>
<clus scale="   81.128">  5  6 -1 -1</clus>
<clus scale="   88.113">  2  5  1 -1</clus>
<clus scale="   90.100">  7  8 -1 -1</clus>
<clus scale="   23.036">  2  5  1 -1</clus>
</clustering>
</event>
<event>
10    4  0.3403565E-005  0.1245117E+03  0.7546771E-02  0.1242040E+00
          2   -1    0    0  503    0 -0.00000000000E+00  0.00000000000E+00  0.18573063200E+03  0.18573063200E+03  0.00000000000E+00 0. -1.
         21   -1    0    0  501  502  0.00000000000E+00 -0.00000000000E+00 -0.33960556036E+03  0.33960556036E+03  0.00000000000E+00 0. -1.
         23    2    1    2    0    0 -0.39014866561E+02 -0.26065626647E+02 -0.79961257751E+02  0.14924357738E+03  0.11695411896E+03 0.  0.
         24    2    1    2    0    0 -0.73350509878E+02  0.56828811120E+02 -0.15824505287E+03  0.19843036190E+03  0.75652499578E+02 0.  0.
        -11    1    4    4    0    0 -0.46711701177E+02  0.35305756365E+02 -0.15295190318E+03  0.16377656776E+03  0.00000000000E+00 0.  1.
         12    1    4    4    0    0 -0.26638808701E+02  0.21523054755E+02 -0.52931496934E+01  0.34653794145E+02  0.00000000000E+00 0. -1.
        -13    1    3    3    0    0  0.28486330983E+02 -0.17456133450E+01  0.13373912201E+02  0.31517927381E+02  0.00000000000E+00 0.  1.
         13    1    3    3    0    0 -0.67501197545E+02 -0.24320013302E+02 -0.93335169953E+02  0.11772565000E+03  0.00000000000E+00 0. -1.
         21    1    1    2  503  502  0.12125543679E+02 -0.41128226621E+02 -0.47744852176E+01  0.43143429901E+02  0.00000000000E+00 0.  1.
          1    1    1    2  501    0  0.10023983276E+03  0.10365042147E+02  0.89105867478E+02  0.13451882318E+03  0.00000000000E+00 0. -1.
<scales pt_clust_5="13000.00000" pt_clust_6="13000.00000" pt_clust_7="13000.00000" pt_clust_8="13000.00000" pt_clust_9="42.87843" pt_clust_10="109.74416"></scales>
<clustering>
<clus scale="   42.878">  1  9  2 -1</clus>
<clus scale="   75.652">  5  6 -1 -1</clus>
<clus scale="  109.744">  2 10  1 -1</clus>
<clus scale="  109.744">  2  5  1 -1</clus>
<clus scale="  116.954">  7  8 -1 -1</clus>
<clus scale="  109.744">  2  5  1 -1</clus>
</clustering>
</event>
<event>
10    4  0.3403565E-005  0.8247829E+02  0.7546771E-02  0.1336125E+00
         21   -1    0    0  501  502  0.00000000000E+00  0.00000000000E+00  0.57616016784E+02  0.57616016784E+02  0.00000000000E+00 0. -1.
          2   -1    0    0  503    0 -0.00000000000E+00 -0.00000000000E+00 -0.50431847633E+03  0.50431847633E+03  0.00000000000E+00 0. -1.
         23    2    1    2    0    0  0.21452290469E+02 -0.40569501028E+01 -0.24414832940E+03  0.25319950240E+03  0.63442270299E+02 0.  0.
         24    2    1    2    0    0  0.10777082181E+02  0.41245436754E+01 -0.17494389757E+03  0.19340842203E+03  0.81659617040E+02 0.  0.
        -13    1    4    4    0    0 -0.29971436355E+02 -0.26181747632E+01 -0.29202956245E+02  0.41927967870E+02  0.00000000000E+00 0.  1.
         14    1    4    4    0    0  0.40748518536E+02  0.67427184386E+01 -0.14574094132E+03  0.15148045416E+03  0.00000000000E+00 0. -1.
        -13    1    3    3    0    0 -0.56085359442E+01 -0.29411164009E+02 -0.10334507482E+03  0.10759496611E+03  0.00000000000E+00 0.  1.
         13    1    3    3    0    0  0.27060826413E+02  0.25354213906E+02 -0.14080325458E+03  0.14560453629E+03  0.00000000000E+00 0. -1.
         21    1    1    2  503  502  0.28124376276E+02  0.22849969997E+02  0.13635363860E+02  0.38717241862E+02  0.00000000000E+00 0. -1.
          1    1    1    2  501    0 -0.60353748925E+02 -0.22917563570E+02 -0.41245596441E+02  0.76609326815E+02  0.00000000000E+00 0. -1.
<scales pt_clust_5="13000.00000" pt_clust_6="13000.00000" pt_clust_7="13000.00000" pt_clust_8="13000.00000" pt_clust_9="36.23674" pt_clust_10="45.65996"></scales>
<clustering>
<clus scale="   36.237">  1  9  2 -1</clus>
<clus scale="   45.660">  1 10  2 -1</clus>
<clus scale="   63.442">  7  8 -1 -1</clus>
<clus scale="   64.493">  2  7  1 -1</clus>
<clus scale="   81.660">  5  6 -1 -1</clus>
<clus scale="   36.237">  1  5  2 -1</clus>
</clustering>
</event>
<event>
10    4  0.3403565E-005  0.1802456E+03  0.7546771E-02  0.1194197E+00
         21   -1    0    0  501  502  0.00000000000E+00  0.00000000000E+00  0.16612676896E+03  0.16612676896E+03  0.00000000000E+00 0. -1.
          4   -1    0    0  503    0 -0.00000000000E+00 -0.00000000000E+00 -0.72981641657E+03  0.72981641657E+03  0.00000000000E+00 0. -1.
         24    2    1    2    0    0  0.18202378162E+02 -0.57015377235E+02 -0.20082283354E+03  0.22396010526E+03  0.79033147889E+02 0.  0.
         23    2    1    2    0    0  0.41329920132E+02  0.76269397599E+02 -0.21561190089E+03  0.25031007471E+03  0.92959444846E+02 0.  0.
        -11    1    3    3    0    0 -0.49764617218E+01 -0.42623320441E+02 -0.33534996871E+02  0.54461992544E+02  0.00000000000E+00 0.  1.
         12    1    3    3    0    0  0.23178839884E+02 -0.14392056794E+02 -0.16728783667E+03  0.16949811272E+03  0.00000000000E+00 0. -1.
        -11    1    4    4    0    0  0.63658513863E+02  0.43199629996E+02 -0.18389258871E+03  0.19933664641E+03  0.00000000000E+00 0. -1.
         11    1    4    4    0    0 -0.22328593731E+02  0.33069767604E+02 -0.31719312182E+02  0.50973428300E+02  0.00000000000E+00 0.  1.
         21    1    1    2  503  502 -0.13288559562E+03 -0.14515032890E+03  0.22369344583E+02  0.19805955437E+03  0.00000000000E+00 0. -1.
          3    1    1    2  501    0  0.73353297326E+02  0.12589630853E+03 -0.16962425776E+03  0.22361345118E+03  0.00000000000E+00 0. -1.
<scales pt_clust_5="13000.00000" pt_clust_6="13000.00000" pt_clust_7="13000.00000" pt_clust_8="13000.00000" pt_clust_9="13000.00000" pt_clust_10="180.24562"></scales>
<clustering>
<clus scale="   79.033">  5  6 -1 -1</clus>
<clus scale="   92.959">  7  8 -1 -1</clus>
<clus scale="   99.138">  2  5  1 -1</clus>
<clus scale="  116.852">  2  7  1 -1</clus>
<clus scale="  180.246">  2 10  1 -1</clus>
<clus scale="  180.246">  1  5  2 -1</clus>
</clustering>
</event>
<event>
10    4  0.3403565E-005  0.2134295E+03  0.7546771E-02  0.1139642E+00
          2   -1    0    0  503    0 -0.00000000000E+00  0.00000000000E+00  0.14278193302E+04  0.14278193302E+04  0.00000000000E+00 0. -1.
         21   -1    0    0  501  502  0.00000000000E+00 -0.00000000000E+00 -0.39485373991E+03  0.39485373991E+03  0.00000000000E+00 0. -1.
         24    2    1    2    0    0 -0.21884980765E+03  0.79388129295E+02  0.98517239863E+03  0.10154714549E+04  0.80124324710E+02 0.  0.
         23    2    1    2    0    0  0.13088372983E+03  0.73677690798E+00  0.20996482042E+03  0.26321953217E+03  0.89823174776E+02 0.  0.
        -11    1    3    3    0    0 -0.34169553723E+02 -0.12735900402E+02  0.96789366366E+02  0.10343086098E+03  0.00000000000E+00 0.  1.
         12    1    3    3    0    0 -0.18468025393E+03  0.92124029697E+02  0.88838303226E+03  0.91204059397E+03  0.00000000000E+00 0. -1.
        -13    1    4    4    0    0  0.94928635572E+02  0.41625930321E+02  0.12616926665E+03  0.16328762285E+03  0.00000000000E+00 0. -1.
         13    1    4    4    0    0  0.35955094256E+02 -0.40889153413E+02  0.83795553764E+02  0.99931909320E+02  0.00000000000E+00 0.  1.
         21    1    1    2  503  502 -0.30805086706E+01 -0.41662335535E+02 -0.33891501103E+03  0.34148004983E+03  0.00000000000E+00 0. -1.
          1    1    1    2  501    0  0.91046586496E+02 -0.38462570668E+02  0.17674338222E+03  0.20250203311E+03  0.00000000000E+00 0. -1.
<scales pt_clust_5="13000.00000" pt_clust_6="13000.00000" pt_clust_7="13000.00000" pt_clust_8="13000.00000" pt_clust_9="41.77607" pt_clust_10="102.41476"></scales>
<clustering>
<clus scale="   41.776">  2  9  1 -1</clus>
<clus scale="   80.124">  5  6 -1 -1</clus>
<clus scale="   89.823">  7  8 -1 -1</clus>
<clus scale="  102.415">  2 10  1 -1</clus>
<clus scale="  209.532">  1  5  2 -1</clus>
<clus scale="   41.776">  2  5  1 -1</clus>
</clustering>
</event>
<event>
10    4  0.3403565E-005  0.1674859E+03  0.7546771E-02  0.1208718E+00
          2   -1    0    0  503    0 -0.00000000000E+00  0.00000000000E+00  0.75794827034E+02  0.75794827034E+02  0.00000000000E+00 0. -1.
         21   -1    0    0  501  502  0.00000000000E+00 -0.00000000000E+00 -0.63085698364E+03  0.63085698364E+03  0.00000000000E+00 0. -1.
         24    2    1    2    0    0 -0.36885627056E+02  0.14666792355E+02 -0.18535680439E+03  0.20581776196E+03  0.80175694107E+02 0.  0.
         23    2    1    2    0    0  0.31927060270E+02  0.11861194070E+03 -0.15292419107E+03  0.21658477216E+03  0.91842395792E+02 0.  0.
        -13    1    3    3    0    0  0.66099245632E+01  0.38056812075E+02 -0.63384416061E+02  0.74226654561E+02  0.00000000000E+00 0.  1.
         14    1    3    3    0    0 -0.43495551619E+02 -0.23390019719E+02 -0.12197238833E+03  0.13159110740E+03  0.00000000000E+00 0. -1.
        -13    1    4    4    0    0 -0.26198766748E+02  0.28617213444E+02 -0.14217226251E+02  0.41321299673E+02  0.00000000000E+00 0.  1.
         13    1    4    4    0    0  0.58125827017E+02  0.89994727255E+02 -0.13870696482E+03  0.17526347249E+03  0.00000000000E+00 0. -1.
         21    1    1    2  503  502 -0.13439588353E+01  0.25146047472E+02 -0.26205381470E+02  0.36343526890E+02  0.00000000000E+00 0. -1.
          1    1    1    2  501    0  0.63025256217E+01 -0.15842478053E+03 -0.19057577968E+03  0.24790574966E+03  0.00000000000E+00 0. -1.
<scales pt_clust_5="13000.00000" pt_clust_6="13000.00000" pt_clust_7="13000.00000" pt_clust_8="13000.00000" pt_clust_9="25.18194" pt_clust_10="140.05899"></scales>
<clustering>
<clus scale="   25.182">  1  9  2 -1</clus>
<clus scale="   80.176">  5  6 -1 -1</clus>
<clus scale="   90.212">  1  5  2 -1</clus>
<clus scale="   91.842">  7  8 -1 -1</clus>
<clus scale="  140.059">  2 10  1 -1</clus>
<clus scale="  140.059">  2  5  1 -1</clus>
</clustering>
</event>
<event>
10    4  0.3403565E-005  0.1326245E+03  0.7546771E-02  0.1226664E+00
         21   -1    0    0  501  502  0.00000000000E+00  0.00000000000E+00  0.12512223213E+03  0.12512223213E+03  0.00000000000E+00 0.  1.
          2   -1    0    0  503    0 -0.00000000000E+00 -0.00000000000E+00 -0.47224768911E+03  0.47224768911E+03  0.00000000000E+00 0. -1.
         24    2    1    2    0    0 -0.74692500029E+02 -0.79051148163E+02 -0.15389131432E+03  0.20512844434E+03  0.81037574437E+02 0.  0.
         23    2    1    2    0    0  0.11703847121E+03 -0.27188123537E+02  0.88122890867E+01  0.15225001708E+03  0.93087128317E+02 0.  0.
        -13    1    3    3    0    0 -0.59616653964E+02 -0.23250985312E+02 -0.35012727741E+02  0.72942750509E+02  0.00000000000E+00 0.  1.
         14    1    3    3    0    0 -0.15075846065E+02 -0.55800162850E+02 -0.11887858658E+03  0.13218569384E+03  0.00000000000E+00 0. -1.
        -13    1    4    4    0    0  0.18162382849E+02 -0.46645951758E+02 -0.59214705590E+01  0.50406158153E+02  0.00000000000E+00 0.  1.
         13    1    4    4    0    0  0.98876088358E+02  0.19457828221E+02  0.14733759646E+02  0.10184385893E+03  0.00000000000E+00 0. -1.
         21    1    1    2  503  502  0.97595082699E+01  0.26438695323E+02 -0.20168029437E+02  0.34655476096E+02  0.00000000000E+00 0.  1.
          1    1    1    2  501    0 -0.52105479448E+02  0.79800576377E+02 -0.18187840232E+03  0.20533598371E+03  0.00000000000E+00 0. -1.
<scales pt_clust_5="13000.00000" pt_clust_6="13000.00000" pt_clust_7="13000.00000" pt_clust_8="13000.00000" pt_clust_9="28.18249" pt_clust_10="103.08954"></scales>
<clustering>
<clus scale="   28.182">  2  9  1 -1</clus>
<clus scale="   81.038">  5  6 -1 -1</clus>
<clus scale="   93.087">  7  8 -1 -1</clus>
<clus scale="  103.090">  1 10  2 -1</clus>
<clus scale="  124.463">  2  5  1 -1</clus>
<clus scale="  103.090">  1  5  2 -1</clus>
</clustering>
</event>
<event>
10    4  0.3403565E-005  0.1575059E+03  0.7546771E-02  0.1220730E+00
         21   -1    0    0  501  502  0.00000000000E+00  0.00000000000E+00  0.22139990150E+03  0.22139990150E+03  0.00000000000E+00 0. -1.
         -3   -1    0    0    0  501 -0.00000000000E+00 -0.00000000000E+00 -0.27387341193E+03  0.27387341193E+03  0.00000000000E+00 0.  1.
         24    2    1    2    0    0 -0.15987455042E+02 -0.20463807474E+02 -0.59078502948E+02  0.10310691143E+03  0.80413926276E+02 0.  0.
         23    2    1    2    0    0  0.12189949181E+03  0.70706093013E+02 -0.36577138201E+02  0.17247747433E+03  0.92475696371E+02 0.  0.
        -11    1    3    3    0    0 -0.23298931296E+02  0.61941239556E+01  0.11936692884E+02  0.26901524271E+02  0.00000000000E+00 0.  1.
         12    1    3    3    0    0  0.73114762537E+01 -0.26657931430E+02 -0.71015195832E+02  0.76205387160E+02  0.00000000000E+00 0. -1.
        -11    1    4    4    0    0  0.18136526447E+02  0.61764438666E+02 -0.15674192747E+02  0.66252998374E+02  0.00000000000E+00 0.  1.
         11    1    4    4    0    0  0.10376296536E+03  0.89416543473E+01 -0.20902945454E+02  0.10622447596E+03  0.00000000000E+00 0. -1.
         21    1    1    2  503  502 -0.21525837363E+02  0.33139720134E+02  0.85133266179E+02  0.93857742009E+02  0.00000000000E+00 0. -1.
         -4    1    1    2    0  503 -0.84386199405E+02 -0.83382005673E+02 -0.41951135457E+02  0.12583118567E+03  0.00000000000E+00 0.  1.
<scales pt_clust_5="13000.00000" pt_clust_6="13000.00000" pt_clust_7="13000.00000" pt_clust_8="13000.00000" pt_clust_9="39.51712" pt_clust_10="127.50042"></scales>
<clustering>
<clus scale="   39.517">  1  9  2 -1</clus>
<clus scale="   80.414">  5  6 -1 -1</clus>
<clus scale="   84.100">  2  5  1 -1</clus>
<clus scale="   92.476">  7  8 -1 -1</clus>
<clus scale="  127.500">  1 10  2 -1</clus>
<clus scale="   39.517">  1  5  2 -1</clus>
</clustering>
</event>
<event>
10    4  0.3403565E-005  0.2975981E+03  0.7546771E-02  0.1086447E+00
          2   -1    0    0  503    0 -0.00000000000E+00  0.00000000000E+00  0.13511302739E+04  0.13511302739E+04  0.00000000000E+00 0. -1.
         21   -1    0    0  501  502  0.00000000000E+00 -0.00000000000E+00 -0.59505106556E+02  0.59505106556E+02  0.00000000000E+00 0. -1.
         24    2    1    2    0    0 -0.49167481704E+02  0.15437772947E+03  0.28214956213E+03  0.33343819516E+03  0.72957041944E+02 0.  0.
         23    2    1    2    0    0 -0.21287970913E+02  0.40349193471E+02  0.23976212418E+03  0.26117889713E+03  0.92990886627E+02 0.  0.
        -13    1    3    3    0    0 -0.28520368951E+02  0.56344416112E+02  0.17824630813E+03  0.18910275258E+03  0.00000000000E+00 0.  1.
         14    1    3    3    0    0 -0.20647112753E+02  0.98033313360E+02  0.10390325400E+03  0.14433544258E+03  0.00000000000E+00 0. -1.
        -13    1    4    4    0    0 -0.50705741646E+02  0.28414145620E+02  0.83586816464E+02  0.10180958596E+03  0.00000000000E+00 0.  1.
         13    1    4    4    0    0  0.29417770734E+02  0.11935047851E+02  0.15617530771E+03  0.15936931117E+03  0.00000000000E+00 0. -1.
         21    1    1    2  503  502 -0.92650058011E+01  0.23740551250E+02  0.24464154542E+02  0.35326321116E+02  0.00000000000E+00 0.  1.
          1    1    1    2  501    0  0.79720458418E+02 -0.21846747419E+03  0.74524932644E+03  0.78069196700E+03  0.00000000000E+00 0. -1.
<scales pt_clust_5="13000.00000" pt_clust_6="13000.00000" pt_clust_7="13000.00000" pt_clust_8="13000.00000" pt_clust_9="25.48439" pt_clust_10="224.20877"></scales>
<clustering>
<clus scale="   25.484">  2  9  1 -1</clus>
<clus scale="   72.957">  5  6 -1 -1</clus>
<clus scale="   92.991">  7  8 -1 -1</clus>
<clus scale="   94.762">  5  7 -1 -1</clus>
<clus scale="  224.209">  2 10  1 -1</clus>
<clus scale="   25.484">  2  5  1 -1</clus>
</clustering>
</event>
<event>
10    4  0.3403565E-005  0.1146389E+03  0.7546771E-02  0.1258250E+00
          2   -1    0    0  502    0 -0.00000000000E+00  0.00000000000E+00  0.46735506296E+03  0.46735506296E+03  0.00000000000E+00 0. -1.
         21   -1    0    0  503  502  0.00000000000E+00 -0.00000000000E+00 -0.50939998141E+02  0.50939998141E+02  0.00000000000E+00 0. -1.
         24    2    1    2    0    0 -0.25265444559E+02  0.63426631924E+02  0.16786733981E+03  0.19574885304E+03  0.74006008977E+02 0.  0.
         23    2    1    2    0    0  0.62414900871E+02 -0.49041479636E+02  0.11208785400E+03  0.16473240722E+03  0.90952693186E+02 0.  0.
        -11    1    3    3    0    0 -0.40062462175E+02  0.63263910140E+01  0.54288351657E+02  0.67766136266E+02  0.00000000000E+00 0.  1.
         12    1    3    3    0    0  0.14797017616E+02  0.57100240910E+02  0.11357898816E+03  0.12798271677E+03  0.00000000000E+00 0. -1.
        -11    1    4    4    0    0  0.76441111068E+02 -0.63922742566E+02  0.86312714467E+02  0.13183036508E+03  0.00000000000E+00 0. -1.
         11    1    4    4    0    0 -0.14026210197E+02  0.14881262929E+02  0.25775139535E+02  0.32902042139E+02  0.00000000000E+00 0.  1.
         21    1    1    2  503  501 -0.23935855439E+02  0.83559717851E+01  0.78468698906E+01  0.26539043071E+02  0.00000000000E+00 0. -1.
          1    1    1    2  501    0 -0.13213600873E+02 -0.22741124073E+02  0.12861300111E+03  0.13127475777E+03  0.00000000000E+00 0. -1.
<scales pt_clust_5="13000.00000" pt_clust_6="13000.00000" pt_clust_7="13000.00000" pt_clust_8="13000.00000" pt_clust_9="25.35246" pt_clust_10="26.46689"></scales>
<clustering>
<clus scale="   25.352">  2  9  1 -1</clus>
<clus scale="   26.467">  2 10  1 -1</clus>
<clus scale="   74.006">  5  6 -1 -1</clus>
<clus scale="   90.953">  7  8 -1 -1</clus>
<clus scale="  101.718">  1  5  2 -1</clus>
<clus scale="   25.352">  2  5  1 -1</clus>
</clustering>
</event>
<event>
10    4  0.3403565E-005  0.1401032E+03  0.7546771E-02  0.1213963E+00
          2   -1    0    0  503    0 -0.00000000000E+00  0.00000000000E+00  0.10707214297E+04  0.10707214297E+04  0.00000000000E+00 0. -1.
         21   -1    0    0  501  502  0.00000000000E+00 -0.00000000000E+00 -0.80011967953E+02  0.80011967953E+02  0.00000000000E+00 0. -1.
         24    2    1    2    0    0 -0.69710429653E+02 -0.12747355173E+03  0.68676029476E+03  0.70750735921E+03  0.88418948619E+02 0.  0.
         23    2    1    2    0    0 -0.57975793308E+01  0.55771170224E+02  0.17681114118E+03  0.20702101035E+03  0.91931951622E+02 0.  0.
        -11    1    3    3    0    0  0.39727051749E+01 -0.21609823460E+02  0.24950860873E+02  0.33246237602E+02  0.00000000000E+00 0.  1.
         12    1    3    3    0    0 -0.73683134828E+02 -0.10586372827E+03  0.66180943389E+03  0.67426112161E+03  0.00000000000E+00 0. -1.
        -13    1    4    4    0    0 -0.24085963264E+02  0.18317274533E+01  0.32740236186E+01  0.24376383704E+02  0.00000000000E+00 0. -1.
         13    1    4    4    0    0  0.18288383933E+02  0.53939442771E+02  0.17353711756E+03  0.18264462665E+03  0.00000000000E+00 0.  1.
         21    1    1    2  503  502  0.45674897156E+02 -0.28154679469E+02 -0.18818537105E+02  0.56859647774E+02  0.00000000000E+00 0. -1.
          1    1    1    2  501    0  0.29833111828E+02  0.99857060976E+02  0.14595656295E+03  0.17934538036E+03  0.00000000000E+00 0. -1.
<scales pt_clust_5="13000.00000" pt_clust_6="13000.00000" pt_clust_7="13000.00000" pt_clust_8="13000.00000" pt_clust_9="53.65522" pt_clust_10="100.82423"></scales>
<clustering>
<clus scale="   53.655">  2  9  1 -1</clus>
<clus scale="   88.419">  5  6 -1 -1</clus>
<clus scale="   91.932">  7  8 -1 -1</clus>
<clus scale="  100.824">  2 10  1 -1</clus>
<clus scale="  137.824">  1  5  2 -1</clus>
<clus scale="   53.655">  2  5  1 -1</clus>
</clustering>
</event>
<event>
10    4  0.3403565E-005  0.1679966E+03  0.7546771E-02  0.1211606E+00
          4   -1    0    0  503    0 -0.00000000000E+00  0.00000000000E+00  0.11656892146E+04  0.11656892146E+04  0.00000000000E+00 0. -1.
         21   -1    0    0  501  502  0.00000000000E+00 -0.00000000000E+00 -0.11956644857E+03  0.11956644857E+03  0.00000000000E+00 0. -1.
         24    2    1    2    0    0 -0.12559607312E+02 -0.15647592723E+02  0.15401115133E+03  0.17588734944E+03  0.82548979790E+02 0.  0.
         23    2    1    2    0    0 -0.94337623208E+02 -0.11737390082E+03  0.82533596039E+02  0.20262429658E+03  0.10755738628E+03 0.  0.
        -11    1    3    3    0    0 -0.44678271706E+02 -0.14970512894E+02  0.12087589884E+03  0.12973529643E+03  0.00000000000E+00 0.  1.
         12    1    3    3    0    0  0.32118664394E+02 -0.67707982912E+00  0.33135252496E+02  0.46152053015E+02  0.00000000000E+00 0. -1.
        -13    1    4    4    0    0 -0.47471491461E+02 -0.72249321034E+02 -0.12609568239E+02  0.87364226675E+02  0.00000000000E+00 0. -1.
         13    1    4    4    0    0 -0.46866131747E+02 -0.45124579789E+02  0.95143164278E+02  0.11526006991E+03  0.00000000000E+00 0.  1.
         21    1    1    2  503  502  0.15374846767E+02  0.26205512432E+02 -0.37388233017E+02  0.48176703531E+02  0.00000000000E+00 0. -1.
          3    1    1    2  501    0  0.91522383753E+02  0.10681598111E+03  0.84696625172E+03  0.85856731367E+03  0.00000000000E+00 0. -1.
<scales pt_clust_5="13000.00000" pt_clust_6="13000.00000" pt_clust_7="13000.00000" pt_clust_8="13000.00000" pt_clust_9="30.38280" pt_clust_10="129.05153"></scales>
<clustering>
<clus scale="   30.383">  2  9  1 -1</clus>
<clus scale="   82.549">  5  6 -1 -1</clus>
<clus scale="   84.047">  1  5  2 -1</clus>
<clus scale="  107.557">  7  8 -1 -1</clus>
<clus scale="  129.052">  2 10  1 -1</clus>
<clus scale="   30.383">  2  5  1 -1</clus>
</clustering>
</event>
<event>
10    4  0.3403565E-005  0.1053242E+03  0.7546771E-02  0.1271829E+00
          2   -1    0    0  502    0 -0.00000000000E+00  0.00000000000E+00  0.81919087027E+03  0.81919087027E+03  0.00000000000E+00 0. -1.
         21   -1    0    0  503  502  0.00000000000E+00 -0.00000000000E+00 -0.69378012113E+02  0.69378012113E+02  0.00000000000E+00 0. -1.
         24    2    1    2    0    0  0.30505721903E+02 -0.59836187817E+02  0.45414577916E+03  0.46668841758E+03  0.83897091323E+02 0.  0.
         23    2    1    2    0    0 -0.61017588624E+02 -0.44562066134E+02  0.74166053496E+02  0.13860034248E+03  0.89445668341E+02 0.  0.
        -11    1    3    3    0    0  0.23275598180E+02  0.17916160019E+02  0.12687612991E+03  0.13023169584E+03  0.00000000000E+00 0.  1.
         12    1    3    3    0    0  0.72301237230E+01 -0.77752347837E+02  0.32726964925E+03  0.33645672174E+03  0.00000000000E+00 0. -1.
        -13    1    4    4    0    0 -0.78561881005E+02 -0.11408084665E+02  0.46622534827E+02  0.92063968502E+02  0.00000000000E+00 0.  1.
         13    1    4    4    0    0  0.17544292380E+02 -0.33153981469E+02  0.27543518670E+02  0.46536373978E+02  0.00000000000E+00 0. -1.
         21    1    1    2  503  501  0.71513828856E+02  0.12445872536E+02  0.66460573577E+02  0.98418165503E+02  0.00000000000E+00 0. -1.
          1    1    1    2  501    0 -0.41001962135E+02  0.91952381415E+02  0.15504045193E+03  0.18486195683E+03  0.00000000000E+00 0. -1.
<scales pt_clust_5="13000.00000" pt_clust_6="13000.00000" pt_clust_7="13000.00000" pt_clust_8="13000.00000" pt_clust_9="72.58876" pt_clust_10="97.71810"></scales>
<clustering>
<clus scale="   72.589">  2  9  1 -1</clus>
<clus scale="   83.897">  5  6 -1 -1</clus>
<clus scale="   89.446">  7  8 -1 -1</clus>
<clus scale="   97.718">  2 10  1 -1</clus>
<clus scale="  100.655">  1  5  2 -1</clus>
<clus scale="   72.589">  2  5  1 -1</clus>
</clustering>
</event>
<event>
10    4  0.3403565E-005  0.3252188E+03  0.7546771E-02  0.1092124E+00
         21   -1    0    0  501  502  0.00000000000E+00  0.00000000000E+00  0.73076244980E+03  0.73076244980E+03  0.00000000000E+00 0. -1.
          2   -1    0    0  503    0 -0.00000000000E+00 -0.00000000000E+00 -0.13121482162E+04  0.13121482162E+04  0.00000000000E+00 0. -1.
         24    2    1    2    0    0  0.84462304062E+02  0.11505988122E+03 -0.10167613724E+04  0.10298653683E+04  0.80289048328E+02 0.  0.
         23    2    1    2    0    0 -0.13229757221E+03  0.23618553048E+03 -0.38949161935E+02  0.28882818606E+03  0.92835507337E+02 0.  0.
        -11    1    3    3    0    0  0.61065622525E+02  0.34598221939E+02 -0.29393935922E+03  0.30220257132E+03  0.00000000000E+00 0.  1.
         12    1    3    3    0    0  0.23396681538E+02  0.80461659277E+02 -0.72282201321E+03  0.72766279697E+03  0.00000000000E+00 0. -1.
        -13    1    4    4    0    0 -0.10717771372E+03  0.23711878229E+03 -0.41718107593E+02  0.26353895297E+03  0.00000000000E+00 0. -1.
         13    1    4    4    0    0 -0.25119858495E+02 -0.93325181136E+00  0.27689456579E+01  0.25289233081E+02  0.00000000000E+00 0.  1.
         21    1    1    2  503  502  0.76766959315E+02 -0.17344742633E+02 -0.56191285850E+02  0.96702982090E+02  0.00000000000E+00 0. -1.
          1    1    1    2  501    0 -0.28931691165E+02 -0.33390066906E+03  0.53051605376E+03  0.62751412961E+03  0.00000000000E+00 0. -1.
<scales pt_clust_5="13000.00000" pt_clust_6="13000.00000" pt_clust_7="13000.00000" pt_clust_8="13000.00000" pt_clust_9="78.70201" pt_clust_10="311.68704"></scales>
<clustering>
<clus scale="   78.702">  2  9  1 -1</clus>
<clus scale="   80.289">  5  6 -1 -1</clus>
<clus scale="   92.836">  7  8 -1 -1</clus>
<clus scale="  196.215">  2  5  1 -1</clus>
<clus scale="  311.687">  1 10  2 -1</clus>
<clus scale="  311.687">  1  5  2 -1</clus>
</clustering>
</event>
<event>
10    4  0.3403565E-005  0.1677731E+03  0.7546771E-02  0.1181488E+00
         21   -1    0    0  503  502  0.00000000000E+00  0.00000000000E+00  0.13891372939E+04  0.13891372939E+04  0.00000000000E+00 0.  1.
         -1   -1    0    0    0  501 -0.00000000000E+00 -0.00000000000E+00 -0.51379191532E+02  0.51379191532E+02  0.00000000000E+00 0.  1.
         23    2    1    2    0    0 -0.54307978849E+02  0.14501139739E+03  0.26181137250E+03  0.31725462799E+03  0.90153437378E+02 0.  0.
         24    2    1    2    0    0  0.12524045036E+03 -0.64833040871E+02  0.55174558264E+03  0.57519256908E+03  0.80838171428E+02 0.  0.
        -13    1    4    4    0    0  0.10963196245E+03 -0.54693948837E+02  0.53871706241E+03  0.55247322882E+03  0.00000000000E+00 0.  1.
         14    1    4    4    0    0  0.15608487915E+02 -0.10139092034E+02  0.13028520230E+02  0.22719340256E+02  0.00000000000E+00 0. -1.
        -11    1    3    3    0    0 -0.79299182426E+02  0.10836813568E+03  0.20707193529E+03  0.24680113361E+03  0.00000000000E+00 0.  1.
         11    1    3    3    0    0  0.24991203577E+02  0.36643261703E+02  0.54739437207E+02  0.70453494379E+02  0.00000000000E+00 0. -1.
         21    1    1    2  503  501  0.17447141293E+02 -0.68597511714E+02  0.22447623209E+03  0.23537119647E+03  0.00000000000E+00 0.  1.
         -2    1    1    2    0  502 -0.88379612806E+02 -0.11580844801E+02  0.29972491516E+03  0.31269809192E+03  0.00000000000E+00 0.  1.
<scales pt_clust_5="13000.00000" pt_clust_6="13000.00000" pt_clust_7="13000.00000" pt_clust_8="13000.00000" pt_clust_9="70.78150" pt_clust_10="88.88037"></scales>
<clustering>
<clus scale="   70.782">  1  9  2 -1</clus>
<clus scale="   80.838">  5  6 -1 -1</clus>
<clus scale="   88.880">  1 10  2 -1</clus>
<clus scale="   90.153">  7  8 -1 -1</clus>
<clus scale="  162.957">  1  5  2 -1</clus>
<clus scale="   70.782">  1  5  2 -1</clus>
</clustering>
</event>
<event>
10    4  0.3403565E-005  0.1618741E+03  0.7546771E-02  0.1205919E+00
         21   -1    0    0  501  502  0.00000000000E+00  0.00000000000E+00  0.83289367304E+02  0.83289367304E+02  0.00000000000E+00 0. -1.
          2   -1    0    0  503    0 -0.00000000000E+00 -0.00000000000E+00 -0.14080269389E+04  0.14080269389E+04  0.00000000000E+00 0. -1.
         23    2    1    2    0    0  0.56680979422E+02  0.24649444430E+02 -0.16846705535E+03  0.20197286248E+03  0.92690667815E+02 0.  0.
         24    2    1    2    0    0 -0.10208459344E+03  0.10935438683E+03 -0.10599182763E+04  0.10733922549E+04  0.79778031678E+02 0.  0.
        -11    1    4    4    0    0 -0.11956276312E+02  0.22187820604E+02 -0.52891475029E+02  0.58589760685E+02  0.00000000000E+00 0.  1.
         12    1    4    4    0    0 -0.90128317124E+02  0.87166566230E+02 -0.10070268012E+04  0.10148024942E+04  0.00000000000E+00 0. -1.
        -11    1    3    3    0    0  0.73533250871E+02  0.44044390749E+02 -0.12972754586E+03  0.15548724544E+03  0.00000000000E+00 0.  1.
         11    1    3    3    0    0 -0.16852271449E+02 -0.19394946319E+02 -0.38739509493E+02  0.46485617038E+02  0.00000000000E+00 0. -1.
         21    1    1    2  503  502 -0.32145922608E+02 -0.15227415572E+02  0.11905103681E+02  0.37509545705E+02  0.00000000000E+00 0. -1.
          1    1    1    2  501    0  0.77549536622E+02 -0.11877641569E+03 -0.10825734369E+03  0.17844164317E+03  0.00000000000E+00 0. -1.
<scales pt_clust_5="13000.00000" pt_clust_6="13000.00000" pt_clust_7="13000.00000" pt_clust_8="13000.00000" pt_clust_9="35.57014" pt_clust_10="140.84984"></scales>
<clustering>
<clus scale="   35.570">  1  9  2 -1</clus>
<clus scale="   79.778">  5  6 -1 -1</clus>
<clus scale="   92.691">  7  8 -1 -1</clus>
<clus scale="  106.106">  2  7  1 -1</clus>
<clus scale="  140.850">  1 10  2 -1</clus>
<clus scale="   35.570">  1  5  2 -1</clus>
</clustering>
</event>
<event>
10    4  0.3403565E-005  0.1818231E+03  0.7546771E-02  0.1166930E+00
          2   -1    0    0  502    0 -0.00000000000E+00  0.00000000000E+00  0.17761382628E+04  0.17761382628E+04  0.00000000000E+00 0. -1.
         21   -1    0    0  503  502  0.00000000000E+00 -0.00000000000E+00 -0.47555930125E+02  0.47555930125E+02  0.00000000000E+00 0. -1.
         24    2    1    2    0    0 -0.41386438286E+02 -0.15883252969E+03  0.95691264522E+03  0.97427613186E+03  0.81188427541E+02 0.  0.
         23    2    1    2    0    0  0.15750406559E+03  0.92753881426E+02  0.43605395895E+03  0.48110001097E+03  0.88900800001E+02 0.  0.
        -13    1    3    3    0    0 -0.10203530011E+02 -0.58735823568E+02  0.16472181558E+03  0.17517786824E+03  0.00000000000E+00 0.  1.
         14    1    3    3    0    0 -0.31182908275E+02 -0.10009670612E+03  0.79219082964E+03  0.79909826361E+03  0.00000000000E+00 0. -1.
        -11    1    4    4    0    0  0.38991482137E+02  0.43026033973E+01  0.19015362952E+03  0.19415779895E+03  0.00000000000E+00 0.  1.
         11    1    4    4    0    0  0.11851258346E+03  0.88451278029E+02  0.24590032943E+03  0.28694221202E+03  0.00000000000E+00 0. -1.
         21    1    1    2  503  501 -0.44912547795E+02 -0.85101942043E+01  0.72395048565E+02  0.85618943065E+02  0.00000000000E+00 0. -1.
          1    1    1    2  501    0 -0.71205079513E+02  0.74588842465E+02  0.26322067994E+03  0.28269910703E+03  0.00000000000E+00 0. -1.
<scales pt_clust_5="13000.00000" pt_clust_6="13000.00000" pt_clust_7="13000.00000" pt_clust_8="13000.00000" pt_clust_9="45.71171" pt_clust_10="109.41346"></scales>
<clustering>
<clus scale="   45.712">  2  9  1 -1</clus>
<clus scale="   81.188">  5  6 -1 -1</clus>
<clus scale="   88.901">  7  8 -1 -1</clus>
<clus scale="  109.413">  2 10  1 -1</clus>
<clus scale="  178.179">  1  5  2 -1</clus>
<clus scale="   45.712">  2  5  1 -1</clus>
</clustering>
</event>
<event>
10    4  0.3403565E-005  0.1115969E+03  0.7546771E-02  0.1261690E+00
         21   -1    0    0  503  502  0.00000000000E+00  0.00000000000E+00  0.16574533515E+03  0.16574533515E+03  0.00000000000E+00 0. -1.
         -3   -1    0    0    0  501 -0.00000000000E+00 -0.00000000000E+00 -0.18317460444E+03  0.18317460444E+03  0.00000000000E+00 0.  1.
         24    2    1    2    0    0  0.68919817706E+02 -0.33781243581E+02 -0.94859296568E+02  0.14608452298E+03  0.80319910482E+02 0.  0.
         23    2    1    2    0    0 -0.28137986004E+02  0.19419671242E+02  0.27921001241E+02  0.10115848923E+03  0.91019710757E+02 0.  0.
        -13    1    3    3    0    0  0.63222483894E+02 -0.20941917875E+02 -0.10797726280E+03  0.12686502936E+03  0.00000000000E+00 0.  1.
         14    1    3    3    0    0  0.56973338121E+01 -0.12839325706E+02  0.13117966229E+02  0.19219493623E+02  0.00000000000E+00 0. -1.
        -11    1    4    4    0    0 -0.18730152700E+02  0.39527201565E+02  0.52304298300E+02  0.68183267041E+02  0.00000000000E+00 0. -1.
         11    1    4    4    0    0 -0.94078333041E+01 -0.20107530324E+02 -0.24383297059E+02  0.32975222193E+02  0.00000000000E+00 0.  1.
         21    1    1    2  503  501 -0.52352265025E+00 -0.27521566999E+02  0.29215119599E+02  0.40140178615E+02  0.00000000000E+00 0. -1.
         -4    1    1    2    0  502 -0.40258309052E+02  0.41883139338E+02  0.20293906434E+02  0.61536748752E+02  0.00000000000E+00 0.  1.
<scales pt_clust_5="13000.00000" pt_clust_6="13000.00000" pt_clust_7="13000.00000" pt_clust_8="13000.00000" pt_clust_9="27.52655" pt_clust_10="52.36657"></scales>
<clustering>
<clus scale="   27.527">  1  9  2 -1</clus>
<clus scale="   52.367">  1 10  2 -1</clus>
<clus scale="   80.320">  5  6 -1 -1</clus>
<clus scale="   91.020">  7  8 -1 -1</clus>
<clus scale="  103.056">  2  5  1 -1</clus>
<clus scale="   27.527">  1  5  2 -1</clus>
</clustering>
</event>
<event>
10    4  0.3403565E-005  0.1030136E+03  0.7546771E-02  0.1277656E+00
          2   -1    0    0  502    0 -0.00000000000E+00  0.00000000000E+00  0.87554115648E+03  0.87554115648E+03  0.00000000000E+00 0. -1.
         21   -1    0    0  503  502  0.00000000000E+00 -0.00000000000E+00 -0.12758623192E+03  0.12758623192E+03  0.00000000000E+00 0. -1.
         24    2    1    2    0    0 -0.38605905136E+02 -0.55132869764E+02  0.60238808389E+03  0.61177508281E+03  0.82869168535E+02 0.  0.
         23    2    1    2    0    0 -0.36043107805E+02 -0.21421617563E+02  0.91355200653E+02  0.13538380340E+03  0.90691842066E+02 0.  0.
        -13    1    3    3    0    0 -0.34570968608E+02 -0.15013510144E+02  0.87014765064E+02  0.94826824773E+02  0.00000000000E+00 0.  1.
         14    1    3    3    0    0 -0.40349365277E+01 -0.40119359620E+02  0.51537331883E+03  0.51694825804E+03  0.00000000000E+00 0. -1.
        -13    1    4    4    0    0 -0.44188483841E+02  0.23850248406E+02  0.65772724652E+02  0.82749669252E+02  0.00000000000E+00 0.  1.
         13    1    4    4    0    0  0.81453760351E+01 -0.45271865969E+02  0.25582476000E+02  0.52634134147E+02  0.00000000000E+00 0. -1.
         21    1    1    2  503  501  0.36285481197E+02  0.16732898494E+02 -0.88189395332E+02  0.96819396232E+02  0.00000000000E+00 0. -1.
          1    1    1    2  501    0  0.38363531744E+02  0.59821588834E+02  0.14240103535E+03  0.15914910596E+03  0.00000000000E+00 0. -1.
<scales pt_clust_5="13000.00000" pt_clust_6="13000.00000" pt_clust_7="13000.00000" pt_clust_8="13000.00000" pt_clust_9="39.95780" pt_clust_10="79.27034"></scales>
<clustering>
<clus scale="   39.958">  2  9  1 -1</clus>
<clus scale="   79.270">  2 10  1 -1</clus>
<clus scale="   82.869">  5  6 -1 -1</clus>
<clus scale="   90.692">  7  8 -1 -1</clus>
<clus scale="   96.198">  1  5  2 -1</clus>
<clus scale="   39.958">  2  5  1 -1</clus>
</clustering>
</event>
<event>
10    4  0.3403565E-005  0.1566365E+03  0.7546771E-02  0.1221179E+00
          2   -1    0    0  503    0 -0.00000000000E+00  0.00000000000E+00  0.66987343062E+03  0.66987343062E+03  0.00000000000E+00 0. -1.
         21   -1    0    0  501  502  0.00000000000E+00 -0.00000000000E+00 -0.14728613824E+03  0.14728613824E+03  0.00000000000E+00 0. -1.
         24    2    1    2    0    0 -0.23861287355E+02 -0.25598713113E+02  0.92377027412E+02  0.12605107275E+03  0.78298803317E+02 0.  0.
         23    2    1    2    0    0 -0.12401121918E+03 -0.12820990853E+02  0.16887427850E+03  0.22914511246E+03  0.91901035555E+02 0.  0.
        -11    1    3    3    0    0  0.95716472381E+01  0.20634379761E+02  0.50156746820E+02  0.55073526404E+02  0.00000000000E+00 0.  1.
         12    1    3    3    0    0 -0.33432934593E+02 -0.46233092874E+02  0.42220280592E+02  0.70977546347E+02  0.00000000000E+00 0. -1.
        -11    1    4    4    0    0 -0.90106516555E+02 -0.11856648026E+02  0.17255696695E+03  0.19502736031E+03  0.00000000000E+00 0. -1.
         11    1    4    4    0    0 -0.33904702624E+02 -0.96434282750E+00 -0.36826884511E+01  0.34117752144E+02  0.00000000000E+00 0.  1.
         21    1    1    2  503  502  0.10323274814E+03  0.45006022826E+02 -0.66667597773E+02  0.13087058864E+03  0.00000000000E+00 0. -1.
          1    1    1    2  501    0  0.44639758392E+02 -0.65863188597E+01  0.32800358424E+03  0.33109279500E+03  0.00000000000E+00 0. -1.
<scales pt_clust_5="13000.00000" pt_clust_6="13000.00000" pt_clust_7="13000.00000" pt_clust_8="13000.00000" pt_clust_9="126.84317" pt_clust_10="45.12305"></scales>
<clustering>
<clus scale="   45.123">  2 10  1 -1</clus>
<clus scale="   78.299">  5  6 -1 -1</clus>
<clus scale="   84.708">  1  5  2 -1</clus>
<clus scale="   91.901">  7  8 -1 -1</clus>
<clus scale="  126.843">  2  9  1 -1</clus>
<clus scale="   45.123">  2  5  1 -1</clus>
</clustering>
</event>
<event>
10    4  0.4004727E-005  0.1813294E+03  0.7546771E-02  0.1198823E+00
          2   -1    0    0  502    0 -0.00000000000E+00  0.00000000000E+00  0.12574896114E+04  0.12574896114E+04  0.00000000000E+00 0. -1.
         21   -1    0    0  503  502  0.00000000000E+00 -0.00000000000E+00 -0.37496578443E+03  0.37496578443E+03  0.00000000000E+00 0. -1.
         24    2    1    2    0    0  0.47885911325E+02  0.34366252733E+01  0.70360006836E+03  0.70920047800E+03  0.74882514035E+02 0.  0.
         23    2    1    2    0    0 -0.80756248467E+02  0.14691242591E+03  0.21347459760E+03  0.28578772086E+03  0.89433690648E+02 0.  0.
        -13    1    3    3    0    0  0.44672652360E+02 -0.24492443517E+02  0.27499656090E+03  0.27967594491E+03  0.00000000000E+00 0.  1.
         14    1    3    3    0    0  0.32132589650E+01  0.27929068790E+02  0.42860350746E+03  0.42952453309E+03  0.00000000000E+00 0. -1.
        -13    1    4    4    0    0 -0.59781617740E+02  0.55983207402E+02  0.15599523461E+03  0.17618874695E+03  0.00000000000E+00 0.  1.
         13    1    4    4    0    0 -0.20974630727E+02  0.90929218511E+02  0.57479362982E+02  0.10959897391E+03  0.00000000000E+00 0. -1.
         21    1    1    2  503  501 -0.34578491776E+02 -0.20623324808E+02 -0.31693133941E+03  0.31947843045E+03  0.00000000000E+00 0. -1.
          1    1    1    2  501    0  0.67448828919E+02 -0.12972572638E+03  0.28238050039E+03  0.31798876648E+03  0.00000000000E+00 0. -1.
<scales pt_clust_5="13000.00000" pt_clust_6="13000.00000" pt_clust_7="13000.00000" pt_clust_8="13000.00000" pt_clust_9="40.26157" pt_clust_10="157.74027"></scales>
<clustering>
<clus scale="   40.262">  2  9  1 -1</clus>
<clus scale="   74.883">  5  6 -1 -1</clus>
<clus scale="   88.010">  1  5  2 -1</clus>
<clus scale="   89.434">  7  8 -1 -1</clus>
<clus scale="  157.740">  2 10  1 -1</clus>
<clus scale="   40.262">  2  5  1 -1</clus>
</clustering>
</event>
<event>
10    4  0.3403565E-005  0.1195723E+03  0.7546771E-02  0.1250098E+00
          2   -1    0    0  502    0 -0.00000000000E+00  0.00000000000E+00  0.23954681990E+03  0.23954681990E+03  0.00000000000E+00 0. -1.
         21   -1    0    0  503  502  0.00000000000E+00 -0.00000000000E+00 -0.33074465100E+03  0.33074465100E+03  0.00000000000E+00 0. -1.
         23    2    1    2    0    0 -0.53130864046E+02  0.34806980644E+01  0.66673946007E+02  0.12469849283E+03  0.90935664424E+02 0.  0.
         24    2    1    2    0    0 -0.37752883399E+02  0.80230503173E+02 -0.25375744112E+03  0.27974014133E+03  0.77456399992E+02 0.  0.
        -11    1    4    4    0    0 -0.57225637725E+01  0.84546150325E+02 -0.16963907247E+03  0.18962651234E+03  0.00000000000E+00 0.  1.
         12    1    4    4    0    0 -0.32030319626E+02 -0.43156471512E+01 -0.84118368651E+02  0.90113628992E+02  0.00000000000E+00 0. -1.
        -13    1    3    3    0    0  0.19209001249E+02 -0.12656137669E+02  0.39588641219E+02  0.45786723657E+02  0.00000000000E+00 0.  1.
         13    1    3    3    0    0 -0.72339865294E+02  0.16136835734E+02  0.27085304788E+02  0.78911769171E+02  0.00000000000E+00 0. -1.
         21    1    1    2  503  501  0.24465742464E+01 -0.30304314117E+02  0.11673451955E+02  0.32566956570E+02  0.00000000000E+00 0. -1.
          1    1    1    2  501    0  0.88437173198E+02 -0.53406887121E+02  0.84212212064E+02  0.13328588018E+03  0.00000000000E+00 0. -1.
<scales pt_clust_5="13000.00000" pt_clust_6="13000.00000" pt_clust_7="13000.00000" pt_clust_8="13000.00000" pt_clust_9="29.93808" pt_clust_10="106.50699"></scales>
<clustering>
<clus scale="   29.938">  9 10 -1 -1</clus>
<clus scale="   77.456">  5  6 -1 -1</clus>
<clus scale="   90.936">  7  8 -1 -1</clus>
<clus scale="  105.377">  1  7  2 -1</clus>
<clus scale="  106.507">  2  9  1 -1</clus>
<clus scale="  106.507">  2  5  1 -1</clus>
</clustering>
</event>
<event>
10    4  0.3403565E-005  0.7102279E+03  0.7546771E-02  0.9699899E-01
         21   -1    0    0  503  502  0.00000000000E+00  0.00000000000E+00  0.54429563973E+03  0.54429563973E+03  0.00000000000E+00 0. -1.
          2   -1    0    0  502    0 -0.00000000000E+00 -0.00000000000E+00 -0.10836723282E+04  0.10836723282E+04  0.00000000000E+00 0. -1.
         24    2    1    2    0    0 -0.15389587597E+03 -0.14256279442E+03 -0.26195802106E+02  0.22738851004E+03  0.83733048757E+02 0.  0.
         23    2    1    2    0    0 -0.47579197087E+03 -0.13074871683E+03 -0.16705524911E+03  0.52864079627E+03  0.89891093702E+02 0.  0.
        -13    1    3    3    0    0 -0.27606010432E+02 -0.73449178566E+02 -0.28286622875E+02  0.83408672677E+02  0.00000000000E+00 0.  1.
         14    1    3    3    0    0 -0.12628986554E+03 -0.69113615854E+02  0.20908207686E+01  0.14397983736E+03  0.00000000000E+00 0. -1.
        -11    1    4    4    0    0 -0.95258978188E+02 -0.62895888694E+02 -0.51283168778E+02  0.12514043767E+03  0.00000000000E+00 0.  1.
         11    1    4    4    0    0 -0.38053299268E+03 -0.67852828136E+02 -0.11577208033E+03  0.40350035860E+03  0.00000000000E+00 0. -1.
         21    1    1    2  503  501  0.16904604272E+02  0.53341445057E+02  0.77200466173E+02  0.95346669495E+02  0.00000000000E+00 0.  1.
          1    1    1    2  501    0  0.61278324257E+03  0.21997006619E+03 -0.42332610342E+03  0.77659199212E+03  0.00000000000E+00 0. -1.
<scales pt_clust_5="13000.00000" pt_clust_6="13000.00000" pt_clust_7="13000.00000" pt_clust_8="13000.00000" pt_clust_9="55.95601" pt_clust_10="664.37622"></scales>
<clustering>
<clus scale="   55.956">  1  9  2 -1</clus>
<clus scale="   83.733">  5  6 -1 -1</clus>
<clus scale="   89.891">  7  8 -1 -1</clus>
<clus scale="  141.384">  5  7 -1 -1</clus>
<clus scale="  664.376">  1 10  2 -1</clus>
<clus scale="   55.956">  1  5  2 -1</clus>
</clustering>
</event>
<event>
10    4  0.3403565E-005  0.2813868E+03  0.7546771E-02  0.1095363E+00
          2   -1    0    0  503    0 -0.00000000000E+00  0.00000000000E+00  0.20541377777E+04  0.20541377777E+04  0.00000000000E+00 0. -1.
         21   -1    0    0  501  502  0.00000000000E+00 -0.00000000000E+00 -0.81129268621E+02  0.81129268621E+02  0.00000000000E+00 0. -1.
         23    2    1    2    0    0 -0.22643705353E+03  0.38524385594E+02  0.79650418805E+03  0.83389882616E+03  0.90611606347E+02 0.  0.
         24    2    1    2    0    0  0.31177371172E+03 -0.17142665251E+03  0.79813593028E+03  0.87753185929E+03  0.80319713448E+02 0.  0.
        -11    1    4    4    0    0  0.15639203347E+02 -0.14415457022E+02  0.16048673798E+02  0.26644887186E+02  0.00000000000E+00 0.  1.
         12    1    4    4    0    0  0.29613450837E+03 -0.15701119549E+03  0.78208725648E+03  0.85088697211E+03  0.00000000000E+00 0. -1.
        -13    1    3    3    0    0 -0.12680406346E+03  0.56004888657E+02  0.55533493365E+03  0.57237462085E+03  0.00000000000E+00 0.  1.
         13    1    3    3    0    0 -0.99632990070E+02 -0.17480503063E+02  0.24116925440E+03  0.26152420531E+03  0.00000000000E+00 0. -1.
         21    1    1    2  503  502 -0.35326229731E+01  0.56960639279E+02  0.46234573459E+02  0.73448142489E+02  0.00000000000E+00 0.  1.
          1    1    1    2  501    0 -0.81804035218E+02  0.75941627634E+02  0.33213381731E+03  0.35038821839E+03  0.00000000000E+00 0. -1.
<scales pt_clust_5="13000.00000" pt_clust_6="13000.00000" pt_clust_7="13000.00000" pt_clust_8="13000.00000" pt_clust_9="57.07008" pt_clust_10="117.32907"></scales>
<clustering>
<clus scale="   57.070">  2  9  1 -1</clus>
<clus scale="   80.320">  5  6 -1 -1</clus>
<clus scale="   90.612">  7  8 -1 -1</clus>
<clus scale="  117.329">  2 10  1 -1</clus>
<clus scale="  278.243">  2  5  1 -1</clus>
<clus scale="   57.070">  2  5  1 -1</clus>
</clustering>
</event>
<event>
10    4  0.3403565E-005  0.1471186E+03  0.7546771E-02  0.1206165E+00
          2   -1    0    0  503    0 -0.00000000000E+00  0.00000000000E+00  0.69790526914E+03  0.69790526914E+03  0.00000000000E+00 0. -1.
         21   -1    0    0  501  502  0.00000000000E+00 -0.00000000000E+00 -0.76948369253E+02  0.76948369253E+02  0.00000000000E+00 0.  1.
         24    2    1    2    0    0 -0.12172381690E+03  0.28325503915E+02  0.25378449550E+03  0.29411179019E+03  0.80474549987E+02 0.  0.
         23    2    1    2    0    0  0.50568143736E+02 -0.10277047316E+03  0.10018199842E+03  0.17750468192E+03  0.91392406588E+02 0.  0.
        -13    1    3    3    0    0 -0.10822464641E+02 -0.19590147320E+02  0.16374182121E+02  0.27731091811E+02  0.00000000000E+00 0.  1.
         14    1    3    3    0    0 -0.11090135226E+03  0.47915651235E+02  0.23741031338E+03  0.26638069838E+03  0.00000000000E+00 0. -1.
        -11    1    4    4    0    0  0.46104379866E+00 -0.81670495155E+02  0.91156857230E+02  0.12239221773E+03  0.00000000000E+00 0.  1.
         11    1    4    4    0    0  0.50107099938E+02 -0.21099978002E+02  0.90251411920E+01  0.55112464193E+02  0.00000000000E+00 0. -1.
         21    1    1    2  503  502 -0.25877018521E+02  0.16659008882E+02  0.60677190095E+02  0.68035755763E+02  0.00000000000E+00 0.  1.
          1    1    1    2  501    0  0.97032691687E+02  0.57785960360E+02  0.20631321586E+03  0.23520141052E+03  0.00000000000E+00 0. -1.
<scales pt_clust_5="13000.00000" pt_clust_6="13000.00000" pt_clust_7="13000.00000" pt_clust_8="13000.00000" pt_clust_9="30.77568" pt_clust_10="108.58453"></scales>
<clustering>
<clus scale="   30.776">  1  9  2 -1</clus>
<clus scale="   80.475">  5  6 -1 -1</clus>
<clus scale="   91.392">  7  8 -1 -1</clus>
<clus scale="  108.585">  2 10  1 -1</clus>
<clus scale="  140.597">  1  5  2 -1</clus>
<clus scale="  108.585">  2  5  1 -1</clus>
</clustering>
</event>
<event>
10    4  0.3403565E-005  0.3039016E+03  0.7546771E-02  0.1123943E+00
         21   -1    0    0  503  502  0.00000000000E+00  0.00000000000E+00  0.11034900995E+03  0.11034900995E+03  0.00000000000E+00 0. -1.
          2   -1    0    0  502    0 -0.00000000000E+00 -0.00000000000E+00 -0.14594304694E+04  0.14594304694E+04  0.00000000000E+00 0. -1.
         23    2    1    2    0    0 -0.17793162825E+02 -0.46454795801E+02 -0.22011638574E+03  0.24378150708E+03  0.92214723461E+02 0.  0.
         24    2    1    2    0    0  0.26111021479E+03  0.19895285018E+03 -0.81909753627E+03  0.88613286528E+03  0.80931453337E+02 0.  0.
        -11    1    4    4    0    0  0.10104096669E+02  0.37759651699E+02 -0.11453631372E+03  0.12102252363E+03  0.00000000000E+00 0.  1.
         12    1    4    4    0    0  0.25100611812E+03  0.16119319848E+03 -0.70456122256E+03  0.76511034165E+03  0.00000000000E+00 0. -1.
        -13    1    3    3    0    0 -0.36608862234E+02 -0.16463214819E+02 -0.29269946217E+02  0.49678727719E+02  0.00000000000E+00 0.  1.
         13    1    3    3    0    0  0.18815699409E+02 -0.29991580982E+02 -0.19084643953E+03  0.19410277936E+03  0.00000000000E+00 0. -1.
         21    1    1    2  503  501  0.38523695745E+01 -0.36462849604E+02 -0.56602544824E+02  0.67440553328E+02  0.00000000000E+00 0. -1.
          1    1    1    2  501    0 -0.24716942154E+03 -0.11603520478E+03 -0.25326499262E+03  0.37242455368E+03  0.00000000000E+00 0. -1.
<scales pt_clust_5="13000.00000" pt_clust_6="13000.00000" pt_clust_7="13000.00000" pt_clust_8="13000.00000" pt_clust_9="36.66579" pt_clust_10="292.92712"></scales>
<clustering>
<clus scale="   36.666">  1  9  2 -1</clus>
<clus scale="   80.931">  5  6 -1 -1</clus>
<clus scale="   92.215">  7  8 -1 -1</clus>
<clus scale="  106.592">  2  7  1 -1</clus>
<clus scale="  292.927">  1 10  2 -1</clus>
<clus scale="   36.666">  1  5  2 -1</clus>
</clustering>
</event>
<event>
10    4  0.3403565E-005  0.1511176E+03  0.7546771E-02  0.1212452E+00
          2   -1    0    0  502    0 -0.00000000000E+00  0.00000000000E+00  0.37407278015E+03  0.37407278015E+03  0.00000000000E+00 0. -1.
         21   -1    0    0  503  502  0.00000000000E+00 -0.00000000000E+00 -0.32953066730E+03  0.32953066730E+03  0.00000000000E+00 0. -1.
         23    2    1    2    0    0  0.55962282760E+02  0.28368048535E+00 -0.49895633228E+01  0.10765491787E+03  0.91830430861E+02 0.  0.
         24    2    1    2    0    0 -0.47150433669E+02 -0.12652542840E+03 -0.73838677368E+02  0.17375083287E+03  0.80655776119E+02 0.  0.
        -11    1    4    4    0    0  0.97753290723E+01 -0.68513020249E+02 -0.59396441171E+02  0.91200483693E+02  0.00000000000E+00 0.  1.
         12    1    4    4    0    0 -0.56925762741E+02 -0.58012408152E+02 -0.14442236196E+02  0.82550349179E+02  0.00000000000E+00 0. -1.
        -13    1    3    3    0    0  0.35371900957E+02  0.55066095441E-02 -0.48201306416E+02  0.59787434699E+02  0.00000000000E+00 0. -1.
         13    1    3    3    0    0  0.20590381803E+02  0.27817387581E+00  0.43211743093E+02  0.47867483166E+02  0.00000000000E+00 0.  1.
         21    1    1    2  503  501  0.37054209038E+02 -0.90134931836E+00 -0.12991796681E+03  0.13510183174E+03  0.00000000000E+00 0. -1.
          1    1    1    2  501    0 -0.45866058129E+02  0.12714309723E+03  0.25328832035E+03  0.28709586498E+03  0.00000000000E+00 0. -1.
<scales pt_clust_5="13000.00000" pt_clust_6="13000.00000" pt_clust_7="13000.00000" pt_clust_8="13000.00000" pt_clust_9="37.06517" pt_clust_10="127.79360"></scales>
<clustering>
<clus scale="   37.065">  2  9  1 -1</clus>
<clus scale="   80.656">  5  6 -1 -1</clus>
<clus scale="   91.830">  7  8 -1 -1</clus>
<clus scale="  113.413">  1  7  2 -1</clus>
<clus scale="  127.794">  2 10  1 -1</clus>
<clus scale="   37.065">  2  5  1 -1</clus>
</clustering>
</event>
<event>
10    4  0.3403565E-005  0.2142852E+03  0.7546771E-02  0.1139139E+00
          2   -1    0    0  502    0 -0.00000000000E+00  0.00000000000E+00  0.16015210561E+04  0.16015210561E+04  0.00000000000E+00 0. -1.
         21   -1    0    0  503  502  0.00000000000E+00 -0.00000000000E+00 -0.64357070523E+02  0.64357070523E+02  0.00000000000E+00 0.  1.
         24    2    1    2    0    0 -0.14840580694E+03  0.45195912910E+02  0.58170776254E+03  0.60727838056E+03  0.79599977493E+02 0.  0.
         23    2    1    2    0    0  0.23805657696E+03 -0.90747493158E+02  0.89471718714E+03  0.93475343977E+03  0.91318710251E+02 0.  0.
        -11    1    3    3    0    0 -0.91707699820E+02  0.63830815400E+02  0.42927809490E+03  0.44358128676E+03  0.00000000000E+00 0.  1.
         12    1    3    3    0    0 -0.56698107120E+02 -0.18634902489E+02  0.15242966763E+03  0.16369709380E+03  0.00000000000E+00 0. -1.
        -13    1    4    4    0    0  0.82038838995E+02 -0.53169274811E+02  0.21240709562E+03  0.23382497120E+03  0.00000000000E+00 0. -1.
         13    1    4    4    0    0  0.15601773797E+03 -0.37578218347E+02  0.68231009153E+03  0.70092846857E+03  0.00000000000E+00 0.  1.
         21    1    1    2  503  501 -0.34311594142E+02  0.24767450074E+01  0.60810514856E+01  0.34934208815E+02  0.00000000000E+00 0. -1.
          1    1    1    2  501    0 -0.55339175883E+02  0.43074835240E+02  0.54657984402E+02  0.88912097474E+02  0.00000000000E+00 0. -1.
<scales pt_clust_5="13000.00000" pt_clust_6="13000.00000" pt_clust_7="13000.00000" pt_clust_8="13000.00000" pt_clust_9="27.45381" pt_clust_10="107.92904"></scales>
<clustering>
<clus scale="   27.454">  9 10 -1 -1</clus>
<clus scale="   79.600">  5  6 -1 -1</clus>
<clus scale="   91.319">  7  8 -1 -1</clus>
<clus scale="  107.929">  2  9  1 -1</clus>
<clus scale="  209.560">  1  5  2 -1</clus>
<clus scale="  107.929">  2  5  1 -1</clus>
</clustering>
</event>
<event>
10    4  0.3403565E-005  0.1276830E+03  0.7546771E-02  0.1234017E+00
         21   -1    0    0  501  502  0.00000000000E+00  0.00000000000E+00  0.56196377699E+03  0.56196377699E+03  0.00000000000E+00 0. -1.
          2   -1    0    0  503    0 -0.00000000000E+00 -0.00000000000E+00 -0.15366243705E+04  0.15366243705E+04  0.00000000000E+00 0. -1.
         24    2    1    2    0    0  0.38785674539E+02 -0.83723522733E+02 -0.14627108841E+04  0.14676758592E+04  0.77687454818E+02 0.  0.
         23    2    1    2    0    0 -0.68768521974E+02  0.43241829510E+02 -0.11123761695E+02  0.12123980212E+03  0.89310615884E+02 0.  0.
        -11    1    3    3    0    0  0.93231946635E+01 -0.37109949948E+02 -0.19235737867E+03  0.19612606016E+03  0.00000000000E+00 0.  1.
         12    1    3    3    0    0  0.29462479875E+02 -0.46613572785E+02 -0.12703535054E+04  0.12715497991E+04  0.00000000000E+00 0. -1.
        -11    1    4    4    0    0 -0.81166252976E+02  0.10972328293E+02 -0.22340043651E+02  0.84896585094E+02  0.00000000000E+00 0.  1.
         11    1    4    4    0    0  0.12397731001E+02  0.32269501217E+02  0.11216281957E+02  0.36343217025E+02  0.00000000000E+00 0. -1.
         21    1    1    2  503  502 -0.28969747573E+02 -0.35140719577E+01  0.15543955206E+03  0.15815514320E+03  0.00000000000E+00 0.  1.
          1    1    1    2  501    0  0.58952595009E+02  0.43995765180E+02  0.34373450015E+03  0.35151734297E+03  0.00000000000E+00 0. -1.
<scales pt_clust_5="13000.00000" pt_clust_6="13000.00000" pt_clust_7="13000.00000" pt_clust_8="13000.00000" pt_clust_9="29.18210" pt_clust_10="53.31070"></scales>
<clustering>
<clus scale="   29.182">  1  9  2 -1</clus>
<clus scale="   53.311">  1 10  2 -1</clus>
<clus scale="   77.687">  5  6 -1 -1</clus>
<clus scale="   89.311">  7  8 -1 -1</clus>
<clus scale="  119.841">  2  5  1 -1</clus>
<clus scale="   29.182">  1  5  2 -1</clus>
</clustering>
</event>
<event>
10    4  0.3403565E-005  0.1625459E+03  0.7546771E-02  0.1216402E+00
          2   -1    0    0  502    0 -0.00000000000E+00  0.00000000000E+00  0.63996147225E+03  0.63996147225E+03  0.00000000000E+00 0. -1.
         21   -1    0    0  503  502  0.00000000000E+00 -0.00000000000E+00 -0.94116148245E+02  0.94116148245E+02  0.00000000000E+00 0. -1.
         24    2    1    2    0    0 -0.52720848196E+01 -0.27820186950E+02  0.24961608237E+03  0.26303346868E+03  0.77952930587E+02 0.  0.
         23    2    1    2    0    0 -0.92212728272E+02 -0.68092818571E+02  0.52686331153E+02  0.15469248909E+03  0.89521491809E+02 0.  0.
        -13    1    3    3    0    0 -0.29399070067E+02  0.14542728677E+02  0.12469218203E+03  0.12893384558E+03  0.00000000000E+00 0.  1.
         14    1    3    3    0    0  0.24126985247E+02 -0.42362915627E+02  0.12492390035E+03  0.13409962310E+03  0.00000000000E+00 0. -1.
        -13    1    4    4    0    0 -0.22528616073E+02 -0.70206624430E+02  0.39822683682E+02  0.83799491595E+02  0.00000000000E+00 0. -1.
         13    1    4    4    0    0 -0.69684112199E+02  0.21138058591E+01  0.12863647470E+02  0.70892997499E+02  0.00000000000E+00 0.  1.
         21    1    1    2  503  501  0.48905025644E+00 -0.30940801788E+02  0.83163807726E+01  0.32042699240E+02  0.00000000000E+00 0.  1.
          1    1    1    2  501    0  0.96995762835E+02  0.12685380731E+03  0.23522652970E+03  0.28430896347E+03  0.00000000000E+00 0. -1.
<scales pt_clust_5="13000.00000" pt_clust_6="13000.00000" pt_clust_7="13000.00000" pt_clust_8="13000.00000" pt_clust_9="30.94467" pt_clust_10="135.67279"></scales>
<clustering>
<clus scale="   30.945">  2  9  1 -1</clus>
<clus scale="   77.953">  5  6 -1 -1</clus>
<clus scale="   83.814">  1  5  2 -1</clus>
<clus scale="   89.521">  7  8 -1 -1</clus>
<clus scale="  135.673">  2 10  1 -1</clus>
<clus scale="   30.945">  2  5  1 -1</clus>
</clustering>
</event>
<event>
10    4  0.3403565E-005  0.3602630E+03  0.7546771E-02  0.1077078E+00
          2   -1    0    0  502    0 -0.00000000000E+00  0.00000000000E+00  0.11605522366E+04  0.11605522366E+04  0.00000000000E+00 0. -1.
         21   -1    0    0  503  502  0.00000000000E+00 -0.00000000000E+00 -0.26086326431E+03  0.26086326431E+03  0.00000000000E+00 0.  1.
         23    2    1    2    0    0  0.69803643675E+02 -0.19216736085E+03  0.39024848680E+02  0.22719597004E+03  0.91072645414E+02 0.  0.
         24    2    1    2    0    0  0.75855286060E+02  0.41970351885E+03  0.26025314265E+03  0.50604416319E+03  0.80274084692E+02 0.  0.
        -11    1    4    4    0    0  0.50931423445E+02  0.38863161592E+03  0.25005716076E+03  0.46492701194E+03  0.00000000000E+00 0.  1.
         12    1    4    4    0    0  0.24923862615E+02  0.31071902933E+02  0.10195981890E+02  0.41117151242E+02  0.00000000000E+00 0. -1.
        -11    1    3    3    0    0  0.74923140204E+02 -0.14243658957E+03  0.61620464751E+02  0.17233322565E+03  0.00000000000E+00 0. -1.
         11    1    3    3    0    0 -0.51194965291E+01 -0.49730771279E+02 -0.22595616071E+02  0.54862744393E+02  0.00000000000E+00 0.  1.
         21    1    1    2  503  501 -0.65811132347E+02  0.43495892513E+01  0.41762559366E+02  0.78064943683E+02  0.00000000000E+00 0. -1.
          1    1    1    2  501    0 -0.79847797387E+02 -0.23188574726E+03  0.55864842156E+03  0.61011042397E+03  0.00000000000E+00 0. -1.
<scales pt_clust_5="13000.00000" pt_clust_6="13000.00000" pt_clust_7="13000.00000" pt_clust_8="13000.00000" pt_clust_9="65.95471" pt_clust_10="351.20595"></scales>
<clustering>
<clus scale="   65.955">  2  9  1 -1</clus>
<clus scale="   80.274">  5  6 -1 -1</clus>
<clus scale="   91.073">  7  8 -1 -1</clus>
<clus scale="  215.729">  1  7  2 -1</clus>
<clus scale="  351.206">  2 10  1 -1</clus>
<clus scale="   65.955">  2  5  1 -1</clus>
</clustering>
</event>
<event>
10    4  0.3403565E-005  0.2161344E+03  0.7546771E-02  0.1175615E+00
          2   -1    0    0  502    0 -0.00000000000E+00  0.00000000000E+00  0.19981689874E+04  0.19981689874E+04  0.00000000000E+00 0. -1.
         21   -1    0    0  503  502  0.00000000000E+00 -0.00000000000E+00 -0.61279999404E+02  0.61279999404E+02  0.00000000000E+00 0. -1.
         24    2    1    2    0    0  0.34537445250E+01  0.69204048993E+01  0.64889996237E+03  0.65470849553E+03  0.86673136520E+02 0.  0.
         23    2    1    2    0    0  0.12305450582E+03 -0.16924308285E+03  0.88165673819E+03  0.91086342358E+03  0.92563167212E+02 0.  0.
        -11    1    3    3    0    0 -0.57633543977E+00  0.28497575500E+02  0.72661961042E+02  0.78052575578E+02  0.00000000000E+00 0.  1.
         12    1    3    3    0    0  0.40300799648E+01 -0.21577170601E+02  0.57623800133E+03  0.57665591995E+03  0.00000000000E+00 0. -1.
        -13    1    4    4    0    0  0.56832616483E+02 -0.11854600318E+02  0.22283765934E+03  0.23027613916E+03  0.00000000000E+00 0. -1.
         13    1    4    4    0    0  0.66221889340E+02 -0.15738848253E+03  0.65881907885E+03  0.68058728442E+03  0.00000000000E+00 0.  1.
         21    1    1    2  503  501 -0.33231137061E+02  0.79679040817E+01 -0.13658325880E+02  0.36801437902E+02  0.00000000000E+00 0. -1.
          1    1    1    2  501    0 -0.93277113287E+02  0.15435477387E+03  0.41999061329E+03  0.45707562977E+03  0.00000000000E+00 0. -1.
<scales pt_clust_5="13000.00000" pt_clust_6="13000.00000" pt_clust_7="13000.00000" pt_clust_8="13000.00000" pt_clust_9="34.17303" pt_clust_10="195.31035"></scales>
<clustering>
<clus scale="   34.173">  2  9  1 -1</clus>
<clus scale="   86.673">  5  6 -1 -1</clus>
<clus scale="   87.006">  1  5  2 -1</clus>
<clus scale="   92.563">  7  8 -1 -1</clus>
<clus scale="  195.310">  2 10  1 -1</clus>
<clus scale="   34.173">  2  5  1 -1</clus>
</clustering>
</event>
<event>
10    4  0.3403565E-005  0.2638329E+03  0.7546771E-02  0.1105439E+00
          2   -1    0    0  502    0 -0.00000000000E+00  0.00000000000E+00  0.71368033986E+03  0.71368033986E+03  0.00000000000E+00 0. -1.
         21   -1    0    0  503  502  0.00000000000E+00 -0.00000000000E+00 -0.33373138740E+03  0.33373138740E+03  0.00000000000E+00 0. -1.
         24    2    1    2    0    0 -0.13288383858E+03  0.24444361527E+03  0.50524650360E+03  0.58222564145E+03  0.79384334483E+02 0.  0.
         23    2    1    2    0    0 -0.15841745778E+02 -0.19955235760E+03  0.41957940996E+02  0.22398264173E+03  0.91299784512E+02 0.  0.
        -13    1    3    3    0    0 -0.43805581590E+02  0.14651987599E+03  0.31858355050E+03  0.35338715552E+03  0.00000000000E+00 0.  1.
         14    1    3    3    0    0 -0.89078256987E+02  0.97923739279E+02  0.18666295311E+03  0.22883848593E+03  0.00000000000E+00 0. -1.
        -11    1    4    4    0    0  0.27568837351E+02 -0.18302648256E+02  0.71935787581E+00  0.33099021161E+02  0.00000000000E+00 0.  1.
         11    1    4    4    0    0 -0.43410583129E+02 -0.18124970934E+03  0.41238583120E+02  0.19088362057E+03  0.00000000000E+00 0. -1.
         21    1    1    2  503  501  0.77192021128E+02  0.16877656695E+02 -0.69517252212E+02  0.10524310798E+03  0.00000000000E+00 0. -1.
          1    1    1    2  501    0  0.71533563227E+02 -0.61768914372E+02 -0.97738239924E+02  0.13596033611E+03  0.00000000000E+00 0. -1.
<scales pt_clust_5="13000.00000" pt_clust_6="13000.00000" pt_clust_7="13000.00000" pt_clust_8="13000.00000" pt_clust_9="71.23845" pt_clust_10="173.79500"></scales>
<clustering>
<clus scale="   71.238">  9 10 -1 -1</clus>
<clus scale="   79.384">  5  6 -1 -1</clus>
<clus scale="   91.300">  7  8 -1 -1</clus>
<clus scale="  173.795">  2  9  1 -1</clus>
<clus scale="  259.950">  1  5  2 -1</clus>
<clus scale="  173.795">  2  5  1 -1</clus>
</clustering>
</event>
<event>
10    4  0.3403565E-005  0.1250168E+03  0.7546771E-02  0.1240186E+00
         21   -1    0    0  501  502  0.00000000000E+00  0.00000000000E+00  0.36363600027E+03  0.36363600027E+03  0.00000000000E+00 0. -1.
          2   -1    0    0  503    0 -0.00000000000E+00 -0.00000000000E+00 -0.12677054332E+03  0.12677054332E+03  0.00000000000E+00 0. -1.
         23    2    1    2    0    0  0.54316075379E+02  0.42060374582E+01  0.10745082028E+03  0.15091061854E+03  0.90886793390E+02 0.  0.
         24    2    1    2    0    0 -0.80363160687E+02  0.30239300499E+01  0.15753844330E+03  0.20616263944E+03  0.10591171339E+03 0.  0.
        -13    1    4    4    0    0 -0.71543690742E+01 -0.39257898969E+02  0.88258438285E+02  0.96860309502E+02  0.00000000000E+00 0.  1.
         14    1    4    4    0    0 -0.73208791613E+02  0.42281829019E+02  0.69280005014E+02  0.10930232994E+03  0.00000000000E+00 0. -1.
        -11    1    3    3    0    0  0.21295406607E+02  0.46616209330E+02  0.62624521322E+02  0.80922160041E+02  0.00000000000E+00 0.  1.
         11    1    3    3    0    0  0.33020668772E+02 -0.42410171872E+02  0.44826298957E+02  0.69988458495E+02  0.00000000000E+00 0. -1.
         21    1    1    2  503  502  0.38891946647E+02 -0.27865523535E+02  0.39138781449E+02  0.61813551339E+02  0.00000000000E+00 0. -1.
          1    1    1    2  501    0 -0.12844861339E+02  0.20635556027E+02 -0.67262588078E+02  0.71519734272E+02  0.00000000000E+00 0. -1.
<scales pt_clust_5="13000.00000" pt_clust_6="13000.00000" pt_clust_7="13000.00000" pt_clust_8="13000.00000" pt_clust_9="44.72704" pt_clust_10="24.30673"></scales>
<clustering>
<clus scale="   24.307">  1 10  2 -1</clus>
<clus scale="   44.727">  2  9  1 -1</clus>
<clus scale="   90.887">  7  8 -1 -1</clus>
<clus scale="  105.912">  5  6 -1 -1</clus>
<clus scale="  112.571">  2  7  1 -1</clus>
<clus scale="   24.307">  1  5  2 -1</clus>
</clustering>
</event>
<event>
10    4  0.3403565E-005  0.1127882E+03  0.7546771E-02  0.1260462E+00
         21   -1    0    0  501  502  0.00000000000E+00  0.00000000000E+00  0.56732416396E+03  0.56732416396E+03  0.00000000000E+00 0.  1.
          2   -1    0    0  503    0 -0.00000000000E+00 -0.00000000000E+00 -0.11293352993E+03  0.11293352993E+03  0.00000000000E+00 0. -1.
         23    2    1    2    0    0  0.68171966571E+02 -0.29974323754E+02 -0.26472357626E+02  0.12161582464E+03  0.92432385953E+02 0.  0.
         24    2    1    2    0    0  0.14311860395E+02 -0.70742920183E+01  0.38547747582E+03  0.39386190165E+03  0.79242906616E+02 0.  0.
        -13    1    4    4    0    0  0.26316287754E+02 -0.29309965200E+02  0.10330351647E+03  0.11055875170E+03  0.00000000000E+00 0.  1.
         14    1    4    4    0    0 -0.12004427359E+02  0.22235673181E+02  0.28217395935E+03  0.28330314995E+03  0.00000000000E+00 0. -1.
        -11    1    3    3    0    0 -0.20968933901E+02 -0.19749658727E+02 -0.36684437566E+01  0.29037952552E+02  0.00000000000E+00 0.  1.
         11    1    3    3    0    0  0.89140900472E+02 -0.10224665027E+02 -0.22803913869E+02  0.92577872084E+02  0.00000000000E+00 0. -1.
         21    1    1    2  503  502 -0.17397829409E+02  0.17865586701E+02  0.93639803230E+02  0.96903438563E+02  0.00000000000E+00 0. -1.
          1    1    1    2  501    0 -0.65085997557E+02  0.19183029071E+02  0.17457126065E+01  0.67876529043E+02  0.00000000000E+00 0. -1.
<scales pt_clust_5="13000.00000" pt_clust_6="13000.00000" pt_clust_7="13000.00000" pt_clust_8="13000.00000" pt_clust_9="24.93719" pt_clust_10="69.46307"></scales>
<clustering>
<clus scale="   24.937">  1  9  2 -1</clus>
<clus scale="   69.463">  1 10  2 -1</clus>
<clus scale="   79.243">  5  6 -1 -1</clus>
<clus scale="   92.432">  7  8 -1 -1</clus>
<clus scale="  102.259">  1  5  2 -1</clus>
<clus scale="   24.937">  1  5  2 -1</clus>
</clustering>
</event>
<event>
10    4  0.3403565E-005  0.1178671E+03  0.7546771E-02  0.1251228E+00
          2   -1    0    0  503    0 -0.00000000000E+00  0.00000000000E+00  0.44932020113E+03  0.44932020113E+03  0.00000000000E+00 0. -1.
         21   -1    0    0  501  502  0.00000000000E+00 -0.00000000000E+00 -0.15537943662E+03  0.15537943662E+03  0.00000000000E+00 0.  1.
         24    2    1    2    0    0 -0.65352732277E+02  0.84024334466E+01 -0.21909778795E+02  0.10616736451E+03  0.80311209535E+02 0.  0.
         23    2    1    2    0    0  0.79423298261E+02  0.68736109390E+01 -0.30924948311E+02  0.12682175785E+03  0.93659484313E+02 0.  0.
        -11    1    3    3    0    0 -0.67042867752E+02 -0.28135192407E+00 -0.45465081580E+02  0.81005548689E+02  0.00000000000E+00 0.  1.
         12    1    3    3    0    0  0.16901354759E+01  0.86837853706E+01  0.23555302784E+02  0.25161815824E+02  0.00000000000E+00 0. -1.
        -11    1    4    4    0    0  0.14876649327E+02 -0.30842568350E+02  0.16786362545E+02  0.38136081145E+02  0.00000000000E+00 0. -1.
         11    1    4    4    0    0  0.64546648933E+02  0.37716179289E+02 -0.47711310855E+02  0.88685676703E+02  0.00000000000E+00 0.  1.
         21    1    1    2  503  502  0.10549315542E+02  0.36651621891E+02  0.26797080726E+02  0.46612369400E+02  0.00000000000E+00 0. -1.
          1    1    1    2  501    0 -0.24619881526E+02 -0.51927666277E+02  0.31997841089E+03  0.32509814599E+03  0.00000000000E+00 0. -1.
<scales pt_clust_5="13000.00000" pt_clust_6="13000.00000" pt_clust_7="13000.00000" pt_clust_8="13000.00000" pt_clust_9="38.13960" pt_clust_10="28.45928"></scales>
<clustering>
<clus scale="   38.140">  1  9  2 -1</clus>
<clus scale="   28.459">  2 10  1 -1</clus>
<clus scale="   80.311">  5  6 -1 -1</clus>
<clus scale="   93.659">  7  8 -1 -1</clus>
<clus scale="  107.566">  1  5  2 -1</clus>
<clus scale="   28.459">  2  5  1 -1</clus>
</clustering>
</event>
<event>
10    4  0.3403565E-005  0.4141232E+03  0.7546771E-02  0.1039229E+00
          2   -1    0    0  503    0 -0.00000000000E+00  0.00000000000E+00  0.11415451168E+04  0.11415451168E+04  0.00000000000E+00 0. -1.
         21   -1    0    0  501  502  0.00000000000E+00 -0.00000000000E+00 -0.41454513319E+03  0.41454513319E+03  0.00000000000E+00 0. -1.
         23    2    1    2    0    0  0.47597270254E+02 -0.39983266512E+03  0.44754349646E+03  0.60923682981E+03  0.93502263801E+02 0.  0.
         24    2    1    2    0    0 -0.26290877047E+03  0.34783653478E+03  0.41667316745E+03  0.60840629390E+03  0.80189858907E+02 0.  0.
        -11    1    4    4    0    0 -0.17993066253E+02  0.37738740035E+02  0.13640247439E+02  0.43977486091E+02  0.00000000000E+00 0.  1.
         12    1    4    4    0    0 -0.24491570421E+03  0.31009779475E+03  0.40303292001E+03  0.56442880781E+03  0.00000000000E+00 0. -1.
        -13    1    3    3    0    0  0.65808932240E+02 -0.37863135974E+03  0.40484486168E+03  0.55820415993E+03  0.00000000000E+00 0. -1.
         13    1    3    3    0    0 -0.18211661986E+02 -0.21201305387E+02  0.42698634786E+02  0.51032669879E+02  0.00000000000E+00 0.  1.
         21    1    1    2  503  502  0.32566880211E+01 -0.29408676927E+02 -0.10492868712E+03  0.10902066628E+03  0.00000000000E+00 0. -1.
          1    1    1    2  501    0  0.21205481219E+03  0.81404807267E+02 -0.32287993232E+02  0.22942645995E+03  0.00000000000E+00 0. -1.
<scales pt_clust_5="13000.00000" pt_clust_6="13000.00000" pt_clust_7="13000.00000" pt_clust_8="13000.00000" pt_clust_9="29.58845" pt_clust_10="224.28332"></scales>
<clustering>
<clus scale="   29.588">  2  9  1 -1</clus>
<clus scale="   80.190">  5  6 -1 -1</clus>
<clus scale="   93.502">  7  8 -1 -1</clus>
<clus scale="  224.283">  2 10  1 -1</clus>
<clus scale="  411.322">  2  5  1 -1</clus>
<clus scale="   29.588">  2  5  1 -1</clus>
</clustering>
</event>
<event>
10    4  0.3403565E-005  0.1091918E+03  0.7546771E-02  0.1266687E+00
          2   -1    0    0  502    0 -0.00000000000E+00  0.00000000000E+00  0.78053657704E+03  0.78053657704E+03  0.00000000000E+00 0. -1.
         21   -1    0    0  503  502  0.00000000000E+00 -0.00000000000E+00 -0.98584209997E+02  0.98584209997E+02  0.00000000000E+00 0. -1.
         24    2    1    2    0    0  0.54328064655E+02  0.25268120066E+02  0.37397540214E+03  0.38675520625E+03  0.78306906800E+02 0.  0.
         23    2    1    2    0    0 -0.18635234481E+02 -0.91643460602E+02  0.20714923911E+03  0.24444468784E+03  0.89981122005E+02 0.  0.
        -11    1    3    3    0    0  0.65608736818E+02  0.37737697185E+02  0.23802760383E+03  0.24977145617E+03  0.00000000000E+00 0.  1.
         12    1    3    3    0    0 -0.11280672163E+02 -0.12469577118E+02  0.13594779831E+03  0.13698375007E+03  0.00000000000E+00 0. -1.
        -13    1    4    4    0    0 -0.39511859444E+02 -0.74002244565E+02  0.19894329816E+03  0.21590728362E+03  0.00000000000E+00 0. -1.
         13    1    4    4    0    0  0.20876624963E+02 -0.17641216037E+02  0.82059409493E+01  0.28537404226E+02  0.00000000000E+00 0.  1.
         21    1    1    2  503  501 -0.56452390300E+02 -0.47295528136E+01 -0.52753879050E+02  0.77409384413E+02  0.00000000000E+00 0. -1.
          1    1    1    2  501    0  0.20759560126E+02  0.71104893349E+02  0.15358160484E+03  0.17051150853E+03  0.00000000000E+00 0. -1.
<scales pt_clust_5="13000.00000" pt_clust_6="13000.00000" pt_clust_7="13000.00000" pt_clust_8="13000.00000" pt_clust_9="56.65016" pt_clust_10="70.21105"></scales>
<clustering>
<clus scale="   56.650">  2  9  1 -1</clus>
<clus scale="   70.211">  2 10  1 -1</clus>
<clus scale="   78.307">  5  6 -1 -1</clus>
<clus scale="   89.981">  7  8 -1 -1</clus>
<clus scale="   99.791">  1  5  2 -1</clus>
<clus scale="   56.650">  2  5  1 -1</clus>
</clustering>
</event>
<event>
10    4  0.3403565E-005  0.2144487E+03  0.7546771E-02  0.1139074E+00
          2   -1    0    0  502    0 -0.00000000000E+00  0.00000000000E+00  0.21650940943E+03  0.21650940943E+03  0.00000000000E+00 0. -1.
         21   -1    0    0  503  502  0.00000000000E+00 -0.00000000000E+00 -0.51775993145E+03  0.51775993145E+03  0.00000000000E+00 0. -1.
         24    2    1    2    0    0 -0.10447092279E+03 -0.19403491360E+03  0.35335292904E+01  0.23450993470E+03  0.80116803734E+02 0.  0.
         23    2    1    2    0    0  0.13919522366E+03  0.74871876700E+02 -0.20122695238E+03  0.27207990847E+03  0.92488280428E+02 0.  0.
        -11    1    3    3    0    0 -0.10712249286E+03 -0.19904630246E+03 -0.27349132593E+01  0.22605782170E+03  0.00000000000E+00 0.  1.
         12    1    3    3    0    0  0.26515700751E+01  0.50113888625E+01  0.62684425497E+01  0.84521130017E+01  0.00000000000E+00 0. -1.
        -11    1    4    4    0    0 -0.37912092094E+01  0.23638799628E+02 -0.59167448654E+01  0.24661183770E+02  0.00000000000E+00 0. -1.
         11    1    4    4    0    0  0.14298643287E+03  0.51233077072E+02 -0.19531020752E+03  0.24741872470E+03  0.00000000000E+00 0.  1.
         21    1    1    2  503  501  0.67005639108E+01 -0.38509881684E+02 -0.27458870174E+02  0.47769217026E+02  0.00000000000E+00 0.  1.
          1    1    1    2  501    0 -0.41424864781E+02  0.15767291858E+03 -0.76098228759E+02  0.17991028069E+03  0.00000000000E+00 0. -1.
<scales pt_clust_5="13000.00000" pt_clust_6="13000.00000" pt_clust_7="13000.00000" pt_clust_8="13000.00000" pt_clust_9="39.08847" pt_clust_10="152.64291"></scales>
<clustering>
<clus scale="   39.088">  2  9  1 -1</clus>
<clus scale="   80.117">  5  6 -1 -1</clus>
<clus scale="   92.488">  7  8 -1 -1</clus>
<clus scale="  152.643">  2 10  1 -1</clus>
<clus scale="  209.411">  1  5  2 -1</clus>
<clus scale="   39.088">  2  5  1 -1</clus>
</clustering>
</event>
<event>
10    4  0.3403565E-005  0.1029686E+03  0.7546771E-02  0.1276541E+00
          2   -1    0    0  503    0 -0.00000000000E+00  0.00000000000E+00  0.98409679475E+02  0.98409679475E+02  0.00000000000E+00 0. -1.
         21   -1    0    0  501  502  0.00000000000E+00 -0.00000000000E+00 -0.26525973572E+03  0.26525973572E+03  0.00000000000E+00 0. -1.
         24    2    1    2    0    0 -0.98382661603E+01 -0.50893174248E+02  0.12915032704E+02  0.10125058747E+03  0.86011491833E+02 0.  0.
         23    2    1    2    0    0 -0.38230215833E+02  0.40587894149E+02 -0.47170566810E+02  0.11684064172E+03  0.91201681066E+02 0.  0.
        -13    1    3    3    0    0  0.40961147308E+01  0.23582746315E+02 -0.20325141621E+01  0.24021973138E+02  0.00000000000E+00 0.  1.
         14    1    3    3    0    0 -0.13934380891E+02 -0.74475920563E+02  0.14947546866E+02  0.77228614333E+02  0.00000000000E+00 0. -1.
        -11    1    4    4    0    0 -0.23820063413E+02 -0.24841287538E+02 -0.34354988142E+02  0.48628697266E+02  0.00000000000E+00 0.  1.
         11    1    4    4    0    0 -0.14410152420E+02  0.65429181688E+02 -0.12815578668E+02  0.68211944450E+02  0.00000000000E+00 0. -1.
         21    1    1    2  503  502  0.26413737105E+02  0.14254750214E+02 -0.11005037148E+03  0.11407001216E+03  0.00000000000E+00 0. -1.
          1    1    1    2  501    0  0.21654744889E+02 -0.39494701155E+01 -0.22544150666E+02  0.31508173854E+02  0.00000000000E+00 0. -1.
<scales pt_clust_5="13000.00000" pt_clust_6="13000.00000" pt_clust_7="13000.00000" pt_clust_8="13000.00000" pt_clust_9="38.64224" pt_clust_10="22.01196"></scales>
<clustering>
<clus scale="   22.012">  2 10  1 -1</clus>
<clus scale="   38.642">  2  9  1 -1</clus>
<clus scale="   86.011">  5  6 -1 -1</clus>
<clus scale="   91.202">  7  8 -1 -1</clus>
<clus scale="   98.401">  1  5  2 -1</clus>
<clus scale="   22.012">  2  5  1 -1</clus>
</clustering>
</event>
<event>
10    4  0.3403565E-005  0.1463479E+03  0.7546771E-02  0.1231798E+00
         21   -1    0    0  501  502  0.00000000000E+00  0.00000000000E+00  0.56342405673E+03  0.56342405673E+03  0.00000000000E+00 0. -1.
          2   -1    0    0  503    0 -0.00000000000E+00 -0.00000000000E+00 -0.20606313518E+03  0.20606313518E+03  0.00000000000E+00 0. -1.
         24    2    1    2    0    0 -0.10622551555E+02 -0.22782743069E+02 -0.96807438226E+02  0.12799924166E+03  0.79876365633E+02 0.  0.
         23    2    1    2    0    0 -0.51573028071E+02 -0.10174896922E+03  0.74175234550E+02  0.16321329682E+03  0.90133150817E+02 0.  0.
        -13    1    3    3    0    0 -0.31141325207E+02  0.15826290916E+02 -0.21792817080E+02  0.41172569705E+02  0.00000000000E+00 0.  1.
         14    1    3    3    0    0  0.20518773652E+02 -0.38609033985E+02 -0.75014621146E+02  0.86826671957E+02  0.00000000000E+00 0. -1.
        -11    1    4    4    0    0 -0.73631880875E+01 -0.24608171540E+02 -0.20846674011E+02  0.33081149658E+02  0.00000000000E+00 0.  1.
         11    1    4    4    0    0 -0.44209839984E+02 -0.77140797676E+02  0.95021908561E+02  0.13013214716E+03  0.00000000000E+00 0. -1.
         21    1    1    2  503  502  0.31383039644E+01  0.93892312619E+02  0.39833276769E+03  0.40926105256E+03  0.00000000000E+00 0. -1.
          1    1    1    2  501    0  0.59057275662E+02  0.30639399666E+02 -0.18339642459E+02  0.69013600877E+02  0.00000000000E+00 0. -1.
<scales pt_clust_5="13000.00000" pt_clust_6="13000.00000" pt_clust_7="13000.00000" pt_clust_8="13000.00000" pt_clust_9="115.29838" pt_clust_10="66.53224"></scales>
<clustering>
<clus scale="   66.532">  1 10  2 -1</clus>
<clus scale="   79.876">  5  6 -1 -1</clus>
<clus scale="   83.301">  2  5  1 -1</clus>
<clus scale="   90.133">  7  8 -1 -1</clus>
<clus scale="  115.298">  1  9  2 -1</clus>
<clus scale="   66.532">  1  5  2 -1</clus>
</clustering>
</event>
<event>
10    4  0.3403565E-005  0.3126084E+03  0.7546771E-02  0.1121266E+00
         21   -1    0    0  503  502  0.00000000000E+00  0.00000000000E+00  0.12397219659E+03  0.12397219659E+03  0.00000000000E+00 0. -1.
          2   -1    0    0  502    0 -0.00000000000E+00 -0.00000000000E+00 -0.16689406829E+04  0.16689406829E+04  0.00000000000E+00 0. -1.
         24    2    1    2    0    0 -0.69030726944E+02  0.12216215204E+02 -0.71389107007E+02  0.12441213801E+03  0.73942533834E+02 0.  0.
         23    2    1    2    0    0 -0.66962999746E+02 -0.30343884671E+03 -0.42573875957E+03  0.53462002485E+03  0.89475709209E+02 0.  0.
        -11    1    3    3    0    0 -0.45142436055E+02  0.50364000186E+01  0.34228683945E+01  0.45551299501E+02  0.00000000000E+00 0.  1.
         12    1    3    3    0    0 -0.23888290888E+02  0.71798151851E+01 -0.74811975401E+02  0.78860838514E+02  0.00000000000E+00 0. -1.
        -11    1    4    4    0    0 -0.85146021224E+01 -0.22661871529E+03 -0.29391655111E+03  0.37123507322E+03  0.00000000000E+00 0.  1.
         11    1    4    4    0    0 -0.58448397624E+02 -0.76820131425E+02 -0.13182220846E+03  0.16338495163E+03  0.00000000000E+00 0. -1.
         21    1    1    2  503  501 -0.10257100967E+02  0.25079347273E+02  0.13269473548E+02  0.30170527143E+02  0.00000000000E+00 0.  1.
          1    1    1    2  501    0  0.14625082766E+03  0.26614328424E+03 -0.10611100933E+04  0.11037101895E+04  0.00000000000E+00 0. -1.
<scales pt_clust_5="13000.00000" pt_clust_6="13000.00000" pt_clust_7="13000.00000" pt_clust_8="13000.00000" pt_clust_9="27.09579" pt_clust_10="299.52998"></scales>
<clustering>
<clus scale="   27.096">  1  9  2 -1</clus>
<clus scale="   73.943">  5  6 -1 -1</clus>
<clus scale="   89.476">  7  8 -1 -1</clus>
<clus scale="  104.677">  2  5  1 -1</clus>
<clus scale="  299.530">  1 10  2 -1</clus>
<clus scale="   27.096">  1  5  2 -1</clus>
</clustering>
</event>
<event>
10    4  0.3403565E-005  0.1830942E+03  0.7546771E-02  0.1194899E+00
         21   -1    0    0  501  502  0.00000000000E+00  0.00000000000E+00  0.86814615318E+02  0.86814615318E+02  0.00000000000E+00 0. -1.
          2   -1    0    0  503    0 -0.00000000000E+00 -0.00000000000E+00 -0.15023438264E+04  0.15023438264E+04  0.00000000000E+00 0. -1.
         23    2    1    2    0    0 -0.32432873590E+02 -0.12479318885E+02 -0.21942211477E+03  0.23837117401E+03  0.86412542257E+02 0.  0.
         24    2    1    2    0    0 -0.95007459751E+02  0.14991436448E+03 -0.26563689356E+03  0.32970312505E+03  0.81489001508E+02 0.  0.
        -13    1    4    4    0    0 -0.31088486904E+02  0.80361252261E+01 -0.87307908435E+02  0.93025502965E+02  0.00000000000E+00 0.  1.
         14    1    4    4    0    0 -0.63918972847E+02  0.14187823925E+03 -0.17832898512E+03  0.23667762209E+03  0.00000000000E+00 0. -1.
        -11    1    3    3    0    0  0.11363008368E+02  0.29527208818E+02 -0.90748451283E+02  0.96105439129E+02  0.00000000000E+00 0.  1.
         11    1    3    3    0    0 -0.43795881957E+02 -0.42006527703E+02 -0.12867366349E+03  0.14226573488E+03  0.00000000000E+00 0. -1.
         21    1    1    2  503  502  0.19924966983E+02 -0.15416970363E+03 -0.10297309614E+03  0.18646383123E+03  0.00000000000E+00 0. -1.
          1    1    1    2  501    0  0.10751536636E+03  0.16734658040E+02 -0.82749710657E+03  0.83462031138E+03  0.00000000000E+00 0. -1.
<scales pt_clust_5="13000.00000" pt_clust_6="13000.00000" pt_clust_7="13000.00000" pt_clust_8="13000.00000" pt_clust_9="163.96046" pt_clust_10="86.77581"></scales>
<clustering>
<clus scale="   81.489">  5  6 -1 -1</clus>
<clus scale="   86.413">  7  8 -1 -1</clus>
<clus scale="   93.138">  2  7  1 -1</clus>
<clus scale="   86.776">  1 10  2 -1</clus>
<clus scale="  163.960">  1  9  2 -1</clus>
<clus scale="   86.776">  1  5  2 -1</clus>
</clustering>
</event>
<event>
10    4  0.3403565E-005  0.1992468E+03  0.7546771E-02  0.1167371E+00
         21   -1    0    0  501  502  0.00000000000E+00  0.00000000000E+00  0.15573519661E+03  0.15573519661E+03  0.00000000000E+00 0. -1.
          2   -1    0    0  503    0 -0.00000000000E+00 -0.00000000000E+00 -0.96957419718E+03  0.96957419718E+03  0.00000000000E+00 0. -1.
         24    2    1    2    0    0  0.10594396457E+03  0.21014313416E+02 -0.34985401425E+03  0.37478032686E+03  0.79979604414E+02 0.  0.
         23    2    1    2    0    0 -0.25820226887E+03  0.31722059183E+02 -0.45579429134E+03  0.53294850232E+03  0.92795309264E+02 0.  0.
        -11    1    3    3    0    0  0.73703778126E+02  0.51328912339E+02 -0.22179757160E+03  0.23929284762E+03  0.00000000000E+00 0.  1.
         12    1    3    3    0    0  0.32240186440E+02 -0.30314598923E+02 -0.12805644264E+03  0.13548747924E+03  0.00000000000E+00 0. -1.
        -11    1    4    4    0    0 -0.88124744715E+02  0.24796029136E+02 -0.24786866658E+03  0.26423415670E+03  0.00000000000E+00 0.  1.
         11    1    4    4    0    0 -0.17007752415E+03  0.69260300478E+01 -0.20792562476E+03  0.26871434563E+03  0.00000000000E+00 0. -1.
         21    1    1    2  503  502  0.74343644664E+00 -0.24740930575E+02  0.47649219455E+02  0.53694640870E+02  0.00000000000E+00 0. -1.
          1    1    1    2  501    0  0.15151486785E+03 -0.27995442025E+02 -0.55839914440E+02  0.16388592374E+03  0.00000000000E+00 0. -1.
<scales pt_clust_5="13000.00000" pt_clust_6="13000.00000" pt_clust_7="13000.00000" pt_clust_8="13000.00000" pt_clust_9="24.75210" pt_clust_10="176.31877"></scales>
<clustering>
<clus scale="   24.752">  1  9  2 -1</clus>
<clus scale="   79.980">  5  6 -1 -1</clus>
<clus scale="   92.795">  7  8 -1 -1</clus>
<clus scale="  134.039">  2  5  1 -1</clus>
<clus scale="  176.319">  1 10  2 -1</clus>
<clus scale="   24.752">  1  5  2 -1</clus>
</clustering>
</event>
<event>
10    4  0.3403565E-005  0.2072161E+03  0.7546771E-02  0.1143790E+00
         21   -1    0    0  501  502  0.00000000000E+00  0.00000000000E+00  0.23698238406E+03  0.23698238406E+03  0.00000000000E+00 0. -1.
          2   -1    0    0  503    0 -0.00000000000E+00 -0.00000000000E+00 -0.12047618658E+03  0.12047618658E+03  0.00000000000E+00 0. -1.
         24    2    1    2    0    0  0.51403765732E+02  0.43860806986E+02  0.44837709108E+02  0.11411989855E+03  0.80292051693E+02 0.  0.
         23    2    1    2    0    0  0.24166380237E+02  0.10137165603E+02  0.30505455910E+02  0.10186635824E+03  0.93591645145E+02 0.  0.
        -11    1    3    3    0    0  0.36852479002E+01  0.27484867683E+02 -0.18357599841E+02  0.33256585447E+02  0.00000000000E+00 0.  1.
         12    1    3    3    0    0  0.47718517832E+02  0.16375939303E+02  0.63195308949E+02  0.80863313099E+02  0.00000000000E+00 0. -1.
        -11    1    4    4    0    0 -0.59332682228E+01  0.43585866884E+02  0.35589561596E+02  0.56582226524E+02  0.00000000000E+00 0. -1.
         11    1    4    4    0    0  0.30099648460E+02 -0.33448701281E+02 -0.50841056867E+01  0.45284131718E+02  0.00000000000E+00 0.  1.
         21    1    1    2  503  502  0.23953785543E+02 -0.92555894694E+01  0.29160696294E+01  0.25844791358E+02  0.00000000000E+00 0. -1.
          1    1    1    2  501    0 -0.99523931512E+02 -0.44742383120E+02  0.38246962836E+02  0.11562752249E+03  0.00000000000E+00 0. -1.
<scales pt_clust_5="13000.00000" pt_clust_6="13000.00000" pt_clust_7="13000.00000" pt_clust_8="13000.00000" pt_clust_9="25.67975" pt_clust_10="102.91597"></scales>
<clustering>
<clus scale="   25.680">  2  9  1 -1</clus>
<clus scale="   80.292">  5  6 -1 -1</clus>
<clus scale="   93.592">  7  8 -1 -1</clus>
<clus scale="   94.681">  5  7 -1 -1</clus>
<clus scale="  102.916">  1 10  2 -1</clus>
<clus scale="  102.916">  1  5  2 -1</clus>
</clustering>
</event>
<event>
10    4  0.3403565E-005  0.3325696E+03  0.7546771E-02  0.1070441E+00
          2   -1    0    0  503    0 -0.00000000000E+00  0.00000000000E+00  0.35284649429E+03  0.35284649429E+03  0.00000000000E+00 0. -1.
         21   -1    0    0  501  502  0.00000000000E+00 -0.00000000000E+00 -0.50394603799E+03  0.50394603799E+03  0.00000000000E+00 0. -1.
         23    2    1    2    0    0 -0.81303767504E+02 -0.28461613217E+03  0.61947963132E+01  0.30998771065E+03  0.91855103017E+02 0.  0.
         24    2    1    2    0    0  0.34510318838E+02  0.35427850577E+03 -0.57901650295E+02  0.36862207944E+03  0.76324403610E+02 0.  0.
        -11    1    4    4    0    0  0.45084734231E+02  0.13804250943E+03 -0.28872727202E+01  0.14524704477E+03  0.00000000000E+00 0.  1.
         12    1    4    4    0    0 -0.10574415393E+02  0.21623599633E+03 -0.55014377575E+02  0.22337503466E+03  0.00000000000E+00 0. -1.
        -11    1    3    3    0    0 -0.99322415284E+02 -0.21715425637E+03 -0.71484515644E+01  0.23889749600E+03  0.00000000000E+00 0. -1.
         11    1    3    3    0    0  0.18018647780E+02 -0.67461875800E+02  0.13343247878E+02  0.71090214644E+02  0.00000000000E+00 0.  1.
         21    1    1    2  503  502  0.27348136182E+02 -0.12276183027E+02 -0.11229986820E+03  0.11623203354E+03  0.00000000000E+00 0. -1.
          1    1    1    2  501    0  0.19445312483E+02 -0.57386190570E+02  0.12907178486E+02  0.61950708650E+02  0.00000000000E+00 0. -1.
<scales pt_clust_5="13000.00000" pt_clust_6="13000.00000" pt_clust_7="13000.00000" pt_clust_8="13000.00000" pt_clust_9="29.97708" pt_clust_10="61.89063"></scales>
<clustering>
<clus scale="   29.977">  2  9  1 -1</clus>
<clus scale="   61.891">  2 10  1 -1</clus>
<clus scale="   76.324">  5  6 -1 -1</clus>
<clus scale="   91.855">  7  8 -1 -1</clus>
<clus scale="  328.619">  2  5  1 -1</clus>
<clus scale="   29.977">  2  5  1 -1</clus>
</clustering>
</event>
<event>
10    4  0.3403565E-005  0.1576580E+03  0.7546771E-02  0.1213843E+00
         21   -1    0    0  503  502  0.00000000000E+00  0.00000000000E+00  0.11886259541E+03  0.11886259541E+03  0.00000000000E+00 0. -1.
          2   -1    0    0  502    0 -0.00000000000E+00 -0.00000000000E+00 -0.95101915681E+03  0.95101915681E+03  0.00000000000E+00 0. -1.
         23    2    1    2    0    0 -0.32841403647E+02  0.80868207300E+01 -0.19020952739E+03  0.21350000741E+03  0.90877028938E+02 0.  0.
         24    2    1    2    0    0  0.98430683558E+02 -0.12462544463E+03 -0.68515357574E+03  0.70794616806E+03  0.80822358324E+02 0.  0.
        -13    1    4    4    0    0  0.33709003254E+02 -0.18481063687E+02 -0.65529355260E+02  0.75973304628E+02  0.00000000000E+00 0.  1.
         14    1    4    4    0    0  0.64721680305E+02 -0.10614438094E+03 -0.61962422048E+03  0.63197286343E+03  0.00000000000E+00 0. -1.
        -11    1    3    3    0    0  0.46360322065E+01  0.41811356170E+02 -0.11925469959E+03  0.12645697163E+03  0.00000000000E+00 0. -1.
         11    1    3    3    0    0 -0.37477435853E+02 -0.33724535440E+02 -0.70954827803E+02  0.87043035777E+02  0.00000000000E+00 0.  1.
         21    1    1    2  503  501  0.40230606822E+01  0.29914227223E+02  0.33214083725E+01  0.30365733338E+02  0.00000000000E+00 0. -1.
          1    1    1    2  501    0 -0.69612340594E+02  0.86624396675E+02  0.39885133359E+02  0.11806984342E+03  0.00000000000E+00 0. -1.
<scales pt_clust_5="13000.00000" pt_clust_6="13000.00000" pt_clust_7="13000.00000" pt_clust_8="13000.00000" pt_clust_9="24.90203" pt_clust_10="143.55101"></scales>
<clustering>
<clus scale="   24.902">  9 10 -1 -1</clus>
<clus scale="   80.822">  5  6 -1 -1</clus>
<clus scale="   90.877">  7  8 -1 -1</clus>
<clus scale="   96.967">  2  7  1 -1</clus>
<clus scale="  143.551">  1  9  2 -1</clus>
<clus scale="  143.551">  1  5  2 -1</clus>
</clustering>
</event>
<event>
10    4  0.3403565E-005  0.4288628E+03  0.7546771E-02  0.1069560E+00
          2   -1    0    0  503    0 -0.00000000000E+00  0.00000000000E+00  0.14198927155E+04  0.14198927155E+04  0.00000000000E+00 0. -1.
         21   -1    0    0  501  502  0.00000000000E+00 -0.00000000000E+00 -0.25534268518E+03  0.25534268518E+03  0.00000000000E+00 0.  1.
         23    2    1    2    0    0 -0.30718738453E+02 -0.12204824459E+03 -0.21919393597E+02  0.15883177031E+03  0.94380382212E+02 0.  0.
         24    2    1    2    0    0 -0.19707514412E+03 -0.32253903424E+03  0.43792549778E+03  0.58468757185E+03  0.84916276582E+02 0.  0.
        -11    1    4    4    0    0 -0.18890052121E+03 -0.27435124829E+03  0.34420301303E+03  0.47898614649E+03  0.00000000000E+00 0.  1.
         12    1    4    4    0    0 -0.81746229114E+01 -0.48187785951E+02  0.93722484756E+02  0.10570142536E+03  0.00000000000E+00 0. -1.
        -11    1    3    3    0    0  0.71204478161E+01 -0.10222308597E+03 -0.43081976122E+02  0.11115897062E+03  0.00000000000E+00 0.  1.
         11    1    3    3    0    0 -0.37839186269E+02 -0.19825158616E+02  0.21162582525E+02  0.47672799696E+02  0.00000000000E+00 0. -1.
         21    1    1    2  503  502  0.19882060304E+02 -0.33005182596E+01 -0.13079361025E+02  0.24026223746E+02  0.00000000000E+00 0. -1.
          1    1    1    2  501    0  0.20791182227E+03  0.44788779708E+03  0.76162328718E+03  0.90768983479E+03  0.00000000000E+00 0. -1.
<scales pt_clust_5="13000.00000" pt_clust_6="13000.00000" pt_clust_7="13000.00000" pt_clust_8="13000.00000" pt_clust_9="20.15415" pt_clust_10="420.37208"></scales>
<clustering>
<clus scale="   20.154">  2  9  1 -1</clus>
<clus scale="   84.916">  5  6 -1 -1</clus>
<clus scale="   94.380">  7  8 -1 -1</clus>
<clus scale="  156.995">  1  7  2 -1</clus>
<clus scale="  420.372">  2 10  1 -1</clus>
<clus scale="   20.154">  2  5  1 -1</clus>
</clustering>
</event>
<event>
10    4  0.3403565E-005  0.2231318E+03  0.7546771E-02  0.1150478E+00
          2   -1    0    0  503    0 -0.00000000000E+00  0.00000000000E+00  0.18814545747E+04  0.18814545747E+04  0.00000000000E+00 0. -1.
         21   -1    0    0  501  502  0.00000000000E+00 -0.00000000000E+00 -0.88359256683E+02  0.88359256683E+02  0.00000000000E+00 0. -1.
         23    2    1    2    0    0  0.45186680761E+01  0.10868706984E+03  0.18612503344E+03  0.23382076815E+03  0.90533563040E+02 0.  0.
         24    2    1    2    0    0  0.83682540600E+02  0.97878781858E+02  0.40555390785E+03  0.43380570342E+03  0.84441652071E+02 0.  0.
        -11    1    4    4    0    0  0.68853273267E+02  0.31518112081E+02  0.13448670318E+03  0.15434000765E+03  0.00000000000E+00 0.  1.
         12    1    4    4    0    0  0.14829267333E+02  0.66360669777E+02  0.27106720468E+03  0.27946569577E+03  0.00000000000E+00 0. -1.
        -13    1    3    3    0    0 -0.22163651414E+02  0.66311441627E+02  0.16550110400E+03  0.17966371409E+03  0.00000000000E+00 0.  1.
         13    1    3    3    0    0  0.26682319490E+02  0.42375628212E+02  0.20623929438E+02  0.54157054067E+02  0.00000000000E+00 0. -1.
         21    1    1    2  503  502 -0.74731836710E+02  0.12889520750E+03  0.54361394472E+03  0.56366208213E+03  0.00000000000E+00 0. -1.
          1    1    1    2  501    0 -0.13469371966E+02 -0.33546105919E+03  0.65780243196E+03  0.73852527763E+03  0.00000000000E+00 0. -1.
<scales pt_clust_5="13000.00000" pt_clust_6="13000.00000" pt_clust_7="13000.00000" pt_clust_8="13000.00000" pt_clust_9="223.13181" pt_clust_10="13000.00000"></scales>
<clustering>
<clus scale="   84.442">  5  6 -1 -1</clus>
<clus scale="   90.534">  7  8 -1 -1</clus>
<clus scale="  141.526">  1  7  2 -1</clus>
<clus scale="  173.180">  1  5  2 -1</clus>
<clus scale="  223.132">  2  9  1 -1</clus>
<clus scale="  223.132">  2  5  1 -1</clus>
</clustering>
</event>
<event>
10    4  0.3403565E-005  0.2063040E+03  0.7546771E-02  0.1154357E+00
         21   -1    0    0  501  502  0.00000000000E+00  0.00000000000E+00  0.22835075172E+03  0.22835075172E+03  0.00000000000E+00 0. -1.
          2   -1    0    0  503    0 -0.00000000000E+00 -0.00000000000E+00 -0.16025219041E+04  0.16025219041E+04  0.00000000000E+00 0. -1.
         23    2    1    2    0    0  0.12344802794E+03  0.56584941613E+02 -0.29657001477E+03  0.33860451118E+03  0.90873374048E+02 0.  0.
         24    2    1    2    0    0  0.13074458510E+02 -0.18509799524E+03 -0.60470264922E+03  0.63772756298E+03  0.81233867950E+02 0.  0.
        -11    1    4    4    0    0 -0.26256280487E+02 -0.37852142950E+02 -0.20106053444E+03  0.20627049110E+03  0.00000000000E+00 0.  1.
         12    1    4    4    0    0  0.39330738997E+02 -0.14724585229E+03 -0.40364211478E+03  0.43145707187E+03  0.00000000000E+00 0. -1.
        -13    1    3    3    0    0  0.12380597241E+03  0.21067826217E+02 -0.25246239916E+03  0.28197346524E+03  0.00000000000E+00 0.  1.
         13    1    3    3    0    0 -0.35794446664E+00  0.35517115396E+02 -0.44107615604E+02  0.56631045942E+02  0.00000000000E+00 0. -1.
         21    1    1    2  503  502 -0.19682348428E+02  0.30548336501E+03  0.31152034003E+02  0.30769779064E+03  0.00000000000E+00 0. -1.
          1    1    1    2  501    0 -0.11684013802E+03 -0.17697031138E+03 -0.50405052240E+03  0.54684279102E+03  0.00000000000E+00 0. -1.
<scales pt_clust_5="13000.00000" pt_clust_6="13000.00000" pt_clust_7="13000.00000" pt_clust_8="13000.00000" pt_clust_9="189.63753" pt_clust_10="167.53362"></scales>
<clustering>
<clus scale="   81.234">  5  6 -1 -1</clus>
<clus scale="   90.873">  7  8 -1 -1</clus>
<clus scale="  163.399">  2  7  1 -1</clus>
<clus scale="  167.534">  1 10  2 -1</clus>
<clus scale="  189.638">  1  9  2 -1</clus>
<clus scale="  167.534">  1  5  2 -1</clus>
</clustering>
</event>
<event>
10    4  0.3403565E-005  0.1759309E+03  0.7546771E-02  0.1172393E+00
         21   -1    0    0  503  502  0.00000000000E+00  0.00000000000E+00  0.23007139964E+03  0.23007139964E+03  0.00000000000E+00 0.  1.
         -1   -1    0    0    0  501 -0.00000000000E+00 -0.00000000000E+00 -0.29425111652E+03  0.29425111652E+03  0.00000000000E+00 0.  1.
         24    2    1    2    0    0  0.13456192026E+03  0.75926328271E+02 -0.14756411107E+03  0.23074250625E+03  0.87150557112E+02 0.  0.
         23    2    1    2    0    0 -0.91197137374E+02 -0.11648964628E+03  0.18001452280E+02  0.17501606744E+03  0.91759555483E+02 0.  0.
        -13    1    3    3    0    0  0.13367629095E+03  0.58481389492E+02 -0.91986465865E+02  0.17248458940E+03  0.00000000000E+00 0.  1.
         14    1    3    3    0    0  0.88562930771E+00  0.17444938780E+02 -0.55577645210E+02  0.58257916847E+02  0.00000000000E+00 0. -1.
        -11    1    4    4    0    0 -0.34843993497E+02 -0.14275767293E+01 -0.21470467489E+02  0.40952690172E+02  0.00000000000E+00 0. -1.
         11    1    4    4    0    0 -0.56353143876E+02 -0.11506206955E+03  0.39471919769E+02  0.13406337727E+03  0.00000000000E+00 0.  1.
         21    1    1    2  503  501 -0.15005644350E+02 -0.15222537567E+02  0.49621122088E+02  0.54029165916E+02  0.00000000000E+00 0.  1.
         -2    1    1    2    0  502 -0.28359138534E+02  0.55785855578E+02  0.15761819821E+02  0.64534776555E+02  0.00000000000E+00 0.  1.
<scales pt_clust_5="13000.00000" pt_clust_6="13000.00000" pt_clust_7="13000.00000" pt_clust_8="13000.00000" pt_clust_9="21.37510" pt_clust_10="61.22609"></scales>
<clustering>
<clus scale="   21.375">  1  9  2 -1</clus>
<clus scale="   61.226">  1 10  2 -1</clus>
<clus scale="   87.151">  5  6 -1 -1</clus>
<clus scale="   91.760">  7  8 -1 -1</clus>
<clus scale="  173.572">  2  5  1 -1</clus>
<clus scale="   21.375">  1  5  2 -1</clus>
</clustering>
</event>
<event>
10    4  0.3403565E-005  0.9512395E+02  0.7546771E-02  0.1291564E+00
          2   -1    0    0  503    0 -0.00000000000E+00  0.00000000000E+00  0.47811792017E+03  0.47811792017E+03  0.00000000000E+00 0. -1.
         21   -1    0    0  501  502  0.00000000000E+00 -0.00000000000E+00 -0.87747456761E+02  0.87747456761E+02  0.00000000000E+00 0. -1.
         23    2    1    2    0    0  0.13401694870E+02  0.22309373099E+02  0.26321215381E+03  0.27903426307E+03  0.88894142118E+02 0.  0.
         24    2    1    2    0    0 -0.39849820684E+02 -0.14845103195E+02  0.17436477008E+03  0.20083932496E+03  0.90138649351E+02 0.  0.
        -13    1    4    4    0    0 -0.64277505472E+02 -0.24844533099E+02  0.96179689527E+02  0.11831898078E+03  0.00000000000E+00 0.  1.
         14    1    4    4    0    0  0.24427684788E+02  0.99994299041E+01  0.78185080551E+02  0.82520344179E+02  0.00000000000E+00 0. -1.
        -13    1    3    3    0    0  0.35396484397E+02  0.47438726270E+02  0.17222525663E+03  0.18211228096E+03  0.00000000000E+00 0. -1.
         13    1    3    3    0    0 -0.21994789528E+02 -0.25129353172E+02  0.90986897185E+02  0.96921982112E+02  0.00000000000E+00 0.  1.
         21    1    1    2  503  502  0.19605913205E+02 -0.36450039455E+02 -0.33305938315E+02  0.53125161044E+02  0.00000000000E+00 0. -1.
          1    1    1    2  501    0  0.68422126098E+01  0.28985769551E+02 -0.13900522168E+02  0.32866627853E+02  0.00000000000E+00 0. -1.
<scales pt_clust_5="13000.00000" pt_clust_6="13000.00000" pt_clust_7="13000.00000" pt_clust_8="13000.00000" pt_clust_9="29.56752" pt_clust_10="29.78239"></scales>
<clustering>
<clus scale="   29.782">  2 10  1 -1</clus>
<clus scale="   29.568">  2  9  1 -1</clus>
<clus scale="   88.894">  7  8 -1 -1</clus>
<clus scale="   90.139">  5  6 -1 -1</clus>
<clus scale="   93.946">  1  7  2 -1</clus>
<clus scale="   29.782">  2  5  1 -1</clus>
</clustering>
</event>
<event>
10    4  0.3403565E-005  0.3565472E+03  0.7546771E-02  0.1076146E+00
         21   -1    0    0  503  502  0.00000000000E+00  0.00000000000E+00  0.14910422078E+03  0.14910422078E+03  0.00000000000E+00 0. -1.
          2   -1    0    0  502    0 -0.00000000000E+00 -0.00000000000E+00 -0.30691476557E+04  0.30691476557E+04  0.00000000000E+00 0. -1.
         23    2    1    2    0    0  0.20561472326E+03 -0.73832220184E+02 -0.98991914596E+03  0.10177182697E+04  0.89899665301E+02 0.  0.
         24    2    1    2    0    0 -0.46124225101E+03 -0.13172298290E+03 -0.13734588112E+04  0.14570087440E+04  0.79937573862E+02 0.  0.
        -11    1    4    4    0    0 -0.62739468889E+02 -0.83335905694E+01 -0.11579936367E+03  0.13196659545E+03  0.00000000000E+00 0.  1.
         12    1    4    4    0    0 -0.39850278213E+03 -0.12338939233E+03 -0.12576594475E+04  0.13250421485E+04  0.00000000000E+00 0. -1.
        -13    1    3    3    0    0  0.79513298952E+02 -0.73679337992E+02 -0.39669445043E+03  0.41123897743E+03  0.00000000000E+00 0. -1.
         13    1    3    3    0    0  0.12610142431E+03 -0.15288219185E+00 -0.59322469553E+03  0.60647929229E+03  0.00000000000E+00 0.  1.
         21    1    1    2  503  501 -0.16105529150E+02  0.13888048925E+03 -0.24013566528E+02  0.14185848491E+03  0.00000000000E+00 0.  1.
          1    1    1    2  501    0  0.27173305691E+03  0.66674713831E+02 -0.53265191126E+03  0.60166637786E+03  0.00000000000E+00 0. -1.
<scales pt_clust_5="13000.00000" pt_clust_6="13000.00000" pt_clust_7="13000.00000" pt_clust_8="13000.00000" pt_clust_9="139.81122" pt_clust_10="347.47073"></scales>
<clustering>
<clus scale="   79.938">  5  6 -1 -1</clus>
<clus scale="   89.900">  7  8 -1 -1</clus>
<clus scale="  139.811">  1  9  2 -1</clus>
<clus scale="  228.240">  2  7  1 -1</clus>
<clus scale="  347.471">  1 10  2 -1</clus>
<clus scale="  139.811">  1  5  2 -1</clus>
</clustering>
</event>
<event>
10    4  0.3403565E-005  0.3241016E+03  0.7546771E-02  0.1074113E+00
          2   -1    0    0  502    0 -0.00000000000E+00  0.00000000000E+00  0.27008856072E+04  0.27008856072E+04  0.00000000000E+00 0. -1.
         21   -1    0    0  503  502  0.00000000000E+00 -0.00000000000E+00 -0.10244556747E+03  0.10244556747E+03  0.00000000000E+00 0. -1.
         24    2    1    2    0    0  0.57287968285E+02 -0.26307398885E+03  0.81787457117E+03  0.86496111596E+03  0.82152802983E+02 0.  0.
         23    2    1    2    0    0 -0.31526483278E+03  0.30719713569E+03  0.96123379991E+03  0.10613138698E+04  0.93030732379E+02 0.  0.
        -13    1    3    3    0    0  0.49392076297E+02 -0.60950732750E+02  0.20091371610E+03  0.21568701941E+03  0.00000000000E+00 0.  1.
         14    1    3    3    0    0  0.78958919877E+01 -0.20212325610E+03  0.61696085507E+03  0.64927409655E+03  0.00000000000E+00 0. -1.
        -13    1    4    4    0    0 -0.25206681716E+02 -0.11935700037E+01  0.75369697774E+02  0.79482027875E+02  0.00000000000E+00 0.  1.
         13    1    4    4    0    0 -0.29005815106E+03  0.30839070569E+03  0.88586410213E+03  0.98183184192E+03  0.00000000000E+00 0. -1.
         21    1    1    2  503  501 -0.23236785161E+01 -0.38822303520E+02  0.41809057173E+02  0.57101383470E+02  0.00000000000E+00 0. -1.
          1    1    1    2  501    0  0.26030054301E+03 -0.53008433236E+01  0.77752261149E+03  0.81995480547E+03  0.00000000000E+00 0. -1.
<scales pt_clust_5="13000.00000" pt_clust_6="13000.00000" pt_clust_7="13000.00000" pt_clust_8="13000.00000" pt_clust_9="38.89178" pt_clust_10="260.15702"></scales>
<clustering>
<clus scale="   38.892">  2  9  1 -1</clus>
<clus scale="   82.153">  5  6 -1 -1</clus>
<clus scale="   93.031">  7  8 -1 -1</clus>
<clus scale="  260.157">  2 10  1 -1</clus>
<clus scale="  321.148">  1  5  2 -1</clus>
<clus scale="   38.892">  2  5  1 -1</clus>
</clustering>
</event>
<event>
10    4  0.3403565E-005  0.8898801E+02  0.7546771E-02  0.1309920E+00
          2   -1    0    0  503    0 -0.00000000000E+00  0.00000000000E+00  0.33797027742E+03  0.33797027742E+03  0.00000000000E+00 0. -1.
         21   -1    0    0  501  502  0.00000000000E+00 -0.00000000000E+00 -0.13189028111E+03  0.13189028111E+03  0.00000000000E+00 0.  1.
         24    2    1    2    0    0 -0.10328944598E+02 -0.16980510901E+02  0.13642621688E+03  0.15917660281E+03  0.79561632605E+02 0.  0.
         23    2    1    2    0    0  0.48233052172E+02 -0.23279352624E+02 -0.75590059411E+02  0.12701918948E+03  0.86900298241E+02 0.  0.
        -13    1    3    3    0    0 -0.17065198526E+02  0.17553986375E+02  0.76038550677E+01  0.25635562219E+02  0.00000000000E+00 0.  1.
         14    1    3    3    0    0  0.67362539285E+01 -0.34534497276E+02  0.12882236181E+03  0.13354104059E+03  0.00000000000E+00 0. -1.
        -13    1    4    4    0    0  0.21551451042E+02 -0.28487264053E+01  0.17590250263E+02  0.27964212638E+02  0.00000000000E+00 0. -1.
         13    1    4    4    0    0  0.26681601130E+02 -0.20430626219E+02 -0.93180309674E+02  0.99054976844E+02  0.00000000000E+00 0.  1.
         21    1    1    2  503  502 -0.16667214089E+02 -0.11236373370E+02 -0.72085953110E+01  0.21354530160E+02  0.00000000000E+00 0. -1.
          1    1    1    2  501    0 -0.21236893485E+02  0.51496236895E+02  0.15245243415E+03  0.16231023608E+03  0.00000000000E+00 0. -1.
<scales pt_clust_5="13000.00000" pt_clust_6="13000.00000" pt_clust_7="13000.00000" pt_clust_8="13000.00000" pt_clust_9="20.10105" pt_clust_10="55.54052"></scales>
<clustering>
<clus scale="   20.101">  2  9  1 -1</clus>
<clus scale="   55.541">  2 10  1 -1</clus>
<clus scale="   79.562">  5  6 -1 -1</clus>
<clus scale="   81.837">  1  5  2 -1</clus>
<clus scale="   86.900">  7  8 -1 -1</clus>
<clus scale="   20.101">  2  5  1 -1</clus>
</clustering>
</event>
<event>
10    4  0.3403565E-005  0.1849120E+03  0.7546771E-02  0.1178734E+00
         21   -1    0    0  501  502  0.00000000000E+00  0.00000000000E+00  0.47774379418E+02  0.47774379418E+02  0.00000000000E+00 0.  1.
          2   -1    0    0  503    0 -0.00000000000E+00 -0.00000000000E+00 -0.16878950466E+04  0.16878950466E+04  0.00000000000E+00 0. -1.
         23    2    1    2    0    0  0.20772405950E+02  0.92262431959E+02 -0.20107537192E+03  0.24006923973E+03  0.90874008767E+02 0.  0.
         24    2    1    2    0    0 -0.70357092498E+02 -0.21299660648E+03 -0.83076993890E+03  0.86343294560E+03  0.70852560574E+02 0.  0.
        -11    1    4    4    0    0 -0.46671450335E+02 -0.20445034879E+03 -0.72614585130E+03  0.75582138549E+03  0.00000000000E+00 0.  1.
         12    1    4    4    0    0 -0.23685642163E+02 -0.85462576858E+01 -0.10462408760E+03  0.10761156012E+03  0.00000000000E+00 0. -1.
        -11    1    3    3    0    0  0.36839810985E+02  0.10876343101E+02 -0.26145157694E+02  0.46465425678E+02  0.00000000000E+00 0.  1.
         11    1    3    3    0    0 -0.16067405035E+02  0.81386088858E+02 -0.17493021423E+03  0.19360381405E+03  0.00000000000E+00 0. -1.
         21    1    1    2  503  502  0.24526241731E+02 -0.12670282014E+02 -0.45209762088E+02  0.52971644942E+02  0.00000000000E+00 0.  1.
          1    1    1    2  501    0  0.25058444817E+02  0.13340445653E+03 -0.56306559432E+03  0.57919559580E+03  0.00000000000E+00 0. -1.
<scales pt_clust_5="13000.00000" pt_clust_6="13000.00000" pt_clust_7="13000.00000" pt_clust_8="13000.00000" pt_clust_9="27.60566" pt_clust_10="170.79922"></scales>
<clustering>
<clus scale="   27.606">  1  9  2 -1</clus>
<clus scale="   70.853">  5  6 -1 -1</clus>
<clus scale="   90.874">  7  8 -1 -1</clus>
<clus scale="  129.485">  2  7  1 -1</clus>
<clus scale="  170.799">  1 10  2 -1</clus>
<clus scale="   27.606">  1  5  2 -1</clus>
</clustering>
</event>
<event>
10    4  0.3403565E-005  0.1115703E+03  0.7546771E-02  0.1265489E+00
         -1   -1    0    0    0  501 -0.00000000000E+00  0.00000000000E+00  0.37098650345E+03  0.37098650345E+03  0.00000000000E+00 0.  1.
         21   -1    0    0  503  502  0.00000000000E+00 -0.00000000000E+00 -0.99601095920E+02  0.99601095920E+02  0.00000000000E+00 0. -1.
         24    2    1    2    0    0  0.52193587788E+02 -0.19355115256E+02  0.16105557078E+03  0.18384754524E+03  0.69008926371E+02 0.  0.
         23    2    1    2    0    0 -0.99265599402E+02  0.32354950010E+02  0.76798189927E+02  0.15760869170E+03  0.89677397987E+02 0.  0.
        -11    1    3    3    0    0  0.64497986886E+02 -0.28142906565E+02  0.10985693099E+03  0.13046286364E+03  0.00000000000E+00 0.  1.
         12    1    3    3    0    0 -0.12304399099E+02  0.87877913088E+01  0.51198639797E+02  0.53384681607E+02  0.00000000000E+00 0. -1.
        -13    1    4    4    0    0 -0.67951399060E+02  0.36413549157E+02  0.27873300866E+01  0.77143427494E+02  0.00000000000E+00 0. -1.
         13    1    4    4    0    0 -0.31314200341E+02 -0.40585991468E+01  0.74010859840E+02  0.80465264210E+02  0.00000000000E+00 0.  1.
         21    1    1    2  503  501 -0.30225119592E+02 -0.83287720792E+01 -0.17964669659E+02  0.36133857456E+02  0.00000000000E+00 0. -1.
         -2    1    1    2    0  502  0.77297131206E+02 -0.46710626753E+01  0.51496316476E+02  0.92997504966E+02  0.00000000000E+00 0.  1.
<scales pt_clust_5="13000.00000" pt_clust_6="13000.00000" pt_clust_7="13000.00000" pt_clust_8="13000.00000" pt_clust_9="31.35166" pt_clust_10="69.01379"></scales>
<clustering>
<clus scale="   31.352">  2  9  1 -1</clus>
<clus scale="   69.009">  5  6 -1 -1</clus>
<clus scale="   69.014">  2 10  1 -1</clus>
<clus scale="   89.677">  7  8 -1 -1</clus>
<clus scale="   95.750">  1  5  2 -1</clus>
<clus scale="   31.352">  2  5  1 -1</clus>
</clustering>
</event>
<event>
10    4  0.3403565E-005  0.1289540E+03  0.7546771E-02  0.1239173E+00
          2   -1    0    0  502    0 -0.00000000000E+00  0.00000000000E+00  0.26757187765E+03  0.26757187765E+03  0.00000000000E+00 0. -1.
         21   -1    0    0  503  502  0.00000000000E+00 -0.00000000000E+00 -0.12614412417E+03  0.12614412417E+03  0.00000000000E+00 0. -1.
         23    2    1    2    0    0  0.79822277334E+01 -0.45189994362E+02  0.96888957840E+02  0.14265551851E+03  0.94113098243E+02 0.  0.
         24    2    1    2    0    0  0.34637355110E+02 -0.72009376311E+02  0.23514264075E+02  0.11571139605E+03  0.80318801753E+02 0.  0.
        -11    1    4    4    0    0 -0.93001630087E+00 -0.77316486119E+02  0.15209056217E+02  0.78803675975E+02  0.00000000000E+00 0.  1.
         12    1    4    4    0    0  0.35567371411E+02  0.53071098078E+01  0.83052078585E+01  0.36907720076E+02  0.00000000000E+00 0. -1.
        -13    1    3    3    0    0  0.22168503173E+02 -0.69670834893E+02  0.52476003957E+02  0.89995548550E+02  0.00000000000E+00 0. -1.
         13    1    3    3    0    0 -0.14186275439E+02  0.24480840531E+02  0.44412953883E+02  0.52659969963E+02  0.00000000000E+00 0.  1.
         21    1    1    2  503  501 -0.19352609758E+02  0.13125999501E+02 -0.81908809339E+01  0.24777124487E+02  0.00000000000E+00 0.  1.
          1    1    1    2  501    0 -0.23266973085E+02  0.10407337117E+03  0.29215412505E+02  0.11057196277E+03  0.00000000000E+00 0. -1.
<scales pt_clust_5="13000.00000" pt_clust_6="13000.00000" pt_clust_7="13000.00000" pt_clust_8="13000.00000" pt_clust_9="22.58018" pt_clust_10="111.81798"></scales>
<clustering>
<clus scale="   22.580">  9 10 -1 -1</clus>
<clus scale="   80.319">  5  6 -1 -1</clus>
<clus scale="   94.113">  7  8 -1 -1</clus>
<clus scale="  104.705">  1  7  2 -1</clus>
<clus scale="  111.818">  2  9  1 -1</clus>
<clus scale="  111.818">  2  5  1 -1</clus>
</clustering>
</event>
<event>
10    4  0.3403565E-005  0.2638094E+03  0.7546771E-02  0.1148363E+00
         21   -1    0    0  501  502  0.00000000000E+00  0.00000000000E+00  0.19578642253E+03  0.19578642253E+03  0.00000000000E+00 0. -1.
          2   -1    0    0  503    0 -0.00000000000E+00 -0.00000000000E+00 -0.93714178310E+03  0.93714178310E+03  0.00000000000E+00 0. -1.
         24    2    1    2    0    0 -0.17807085536E+02 -0.35345582202E+02  0.15976207980E+02  0.91446758886E+02  0.80875632998E+02 0.  0.
         23    2    1    2    0    0  0.36032422249E+02 -0.18460649396E+03 -0.26850036758E+03  0.34006954366E+03  0.90426511970E+02 0.  0.
        -11    1    3    3    0    0  0.13414773946E+02  0.16747840068E+02 -0.11993663072E+02  0.24582397377E+02  0.00000000000E+00 0.  1.
         12    1    3    3    0    0 -0.31221859482E+02 -0.52093422270E+02  0.27969871052E+02  0.66864361509E+02  0.00000000000E+00 0. -1.
        -13    1    4    4    0    0  0.35621386687E+02 -0.12667230845E+03 -0.24389119911E+03  0.27712393242E+03  0.00000000000E+00 0. -1.
         13    1    4    4    0    0  0.41103556222E+00 -0.57934185508E+02 -0.24609168467E+02  0.62945611232E+02  0.00000000000E+00 0.  1.
         21    1    1    2  503  502 -0.12839864283E+03 -0.89749945260E+02 -0.25025747986E+03  0.29524577962E+03  0.00000000000E+00 0.  1.
          1    1    1    2  501    0  0.11017330611E+03  0.30970202142E+03 -0.23857372111E+03  0.40616612347E+03  0.00000000000E+00 0. -1.
<scales pt_clust_5="13000.00000" pt_clust_6="13000.00000" pt_clust_7="13000.00000" pt_clust_8="13000.00000" pt_clust_9="167.32030" pt_clust_10="247.82761"></scales>
<clustering>
<clus scale="   80.876">  5  6 -1 -1</clus>
<clus scale="   90.040">  2  5  1 -1</clus>
<clus scale="   90.427">  7  8 -1 -1</clus>
<clus scale="  167.320">  2  9  1 -1</clus>
<clus scale="  247.828">  1 10  2 -1</clus>
<clus scale="  247.828">  1  5  2 -1</clus>
</clustering>
</event>
<event>
10    4  0.3403565E-005  0.1276349E+03  0.7546771E-02  0.1232336E+00
          2   -1    0    0  503    0 -0.00000000000E+00  0.00000000000E+00  0.78614609170E+03  0.78614609170E+03  0.00000000000E+00 0. -1.
         21   -1    0    0  501  502  0.00000000000E+00 -0.00000000000E+00 -0.68932734276E+02  0.68932734276E+02  0.00000000000E+00 0.  1.
         23    2    1    2    0    0 -0.54646114318E+02  0.10144620256E+02  0.66279163296E+02  0.12307445555E+03  0.87551601884E+02 0.  0.
         24    2    1    2    0    0  0.10327931203E+03 -0.93713868375E+02  0.18417629207E+03  0.24529123096E+03  0.82449839329E+02 0.  0.
        -13    1    4    4    0    0  0.11511809569E+03 -0.95655767880E+02  0.16600693157E+03  0.22351846280E+03  0.00000000000E+00 0.  1.
         14    1    4    4    0    0 -0.11838783660E+02  0.19418995056E+01  0.18169360497E+02  0.21772768155E+02  0.00000000000E+00 0. -1.
        -11    1    3    3    0    0 -0.77982269286E+02  0.15053718900E+02  0.55575836115E+02  0.96935660805E+02  0.00000000000E+00 0.  1.
         11    1    3    3    0    0  0.23336154968E+02 -0.49090986442E+01  0.10703327180E+02  0.26138794749E+02  0.00000000000E+00 0. -1.
         21    1    1    2  503  502 -0.58131428889E+01 -0.21088341883E+02  0.44638679116E+02  0.49710385905E+02  0.00000000000E+00 0.  1.
          1    1    1    2  501    0 -0.42820054823E+02  0.10465759000E+03  0.42211922295E+03  0.43700275356E+03  0.00000000000E+00 0. -1.
<scales pt_clust_5="13000.00000" pt_clust_6="13000.00000" pt_clust_7="13000.00000" pt_clust_8="13000.00000" pt_clust_9="21.87489" pt_clust_10="103.30517"></scales>
<clustering>
<clus scale="   21.875">  1  9  2 -1</clus>
<clus scale="   82.450">  5  6 -1 -1</clus>
<clus scale="   87.552">  7  8 -1 -1</clus>
<clus scale="  103.305">  2 10  1 -1</clus>
<clus scale="  124.191">  2  5  1 -1</clus>
<clus scale="  103.305">  2  5  1 -1</clus>
</clustering>
</event>
<event>
10    4  0.3403565E-005  0.1217106E+03  0.7546771E-02  0.1244288E+00
         21   -1    0    0  503  502  0.00000000000E+00  0.00000000000E+00  0.17783612056E+03  0.17783612056E+03  0.00000000000E+00 0. -1.
          4   -1    0    0  502    0 -0.00000000000E+00 -0.00000000000E+00 -0.26004325369E+03  0.26004325369E+03  0.00000000000E+00 0. -1.
         23    2    1    2    0    0 -0.29533099295E+02 -0.59108943213E+02 -0.27581104185E+02  0.11613971447E+03  0.91442029986E+02 0.  0.
         24    2    1    2    0    0 -0.14520684517E+02  0.11368730177E+03  0.12409302834E+02  0.13944329606E+03  0.78452464303E+02 0.  0.
        -13    1    4    4    0    0  0.27671792212E+02  0.47527763987E+02 -0.13821490191E+02  0.56706701764E+02  0.00000000000E+00 0.  1.
         14    1    4    4    0    0 -0.42192476729E+02  0.66159537784E+02  0.26230793025E+02  0.82736594292E+02  0.00000000000E+00 0. -1.
        -13    1    3    3    0    0 -0.60832275193E+01 -0.77032892873E+02 -0.23480276585E+01  0.77308379076E+02  0.00000000000E+00 0. -1.
         13    1    3    3    0    0 -0.23449871776E+02  0.17923949660E+02 -0.25233076526E+02  0.38831335397E+02  0.00000000000E+00 0.  1.
         21    1    1    2  503  501  0.71604902738E+01  0.28874475863E+02  0.34654188334E+02  0.45671881354E+02  0.00000000000E+00 0. -1.
          3    1    1    2  501    0  0.36893293538E+02 -0.83452834422E+02 -0.10168952011E+03  0.13662448236E+03  0.00000000000E+00 0. -1.
<scales pt_clust_5="13000.00000" pt_clust_6="13000.00000" pt_clust_7="13000.00000" pt_clust_8="13000.00000" pt_clust_9="29.74908" pt_clust_10="88.29112"></scales>
<clustering>
<clus scale="   29.749">  1  9  2 -1</clus>
<clus scale="   78.452">  5  6 -1 -1</clus>
<clus scale="   88.291">  1 10  2 -1</clus>
<clus scale="   91.442">  7  8 -1 -1</clus>
<clus scale="  112.279">  1  5  2 -1</clus>
<clus scale="   29.749">  1  5  2 -1</clus>
</clustering>
</event>
<event>
10    4  0.3403565E-005  0.1074058E+03  0.7546771E-02  0.1274556E+00
         21   -1    0    0  501  502  0.00000000000E+00  0.00000000000E+00  0.32331249567E+03  0.32331249567E+03  0.00000000000E+00 0. -1.
          2   -1    0    0  503    0 -0.00000000000E+00 -0.00000000000E+00 -0.62631128230E+03  0.62631128230E+03  0.00000000000E+00 0. -1.
         24    2    1    2    0    0  0.97549434335E+01  0.43258029509E+02 -0.23233116073E+03  0.24976261546E+03  0.80232037237E+02 0.  0.
         23    2    1    2    0    0 -0.48704736510E+02 -0.14982076105E+02 -0.27502857265E+03  0.29681446207E+03  0.99305061104E+02 0.  0.
        -13    1    3    3    0    0 -0.10510832952E+02  0.54215101269E+02 -0.90099579684E+02  0.10567728741E+03  0.00000000000E+00 0.  1.
         14    1    3    3    0    0  0.20265776386E+02 -0.10957071760E+02 -0.14223158104E+03  0.14408532805E+03  0.00000000000E+00 0. -1.
        -13    1    4    4    0    0 -0.49437604135E+02  0.11206385437E+02 -0.26325621996E+03  0.26809232948E+03  0.00000000000E+00 0.  1.
         13    1    4    4    0    0  0.73286762516E+00 -0.26188461543E+02 -0.11772352683E+02  0.28722132592E+02  0.00000000000E+00 0. -1.
         21    1    1    2  503  502  0.50439084246E+02  0.19020905069E+02  0.29515079374E+03  0.30003314333E+03  0.00000000000E+00 0. -1.
          1    1    1    2  501    0 -0.11489291170E+02 -0.47296858472E+02 -0.90789846987E+02  0.10301355711E+03  0.00000000000E+00 0. -1.
<scales pt_clust_5="13000.00000" pt_clust_6="13000.00000" pt_clust_7="13000.00000" pt_clust_8="13000.00000" pt_clust_9="47.07070" pt_clust_10="48.67236"></scales>
<clustering>
<clus scale="   48.672">  1 10  2 -1</clus>
<clus scale="   47.071">  1  9  2 -1</clus>
<clus scale="   80.232">  5  6 -1 -1</clus>
<clus scale="   90.065">  2  5  1 -1</clus>
<clus scale="   99.305">  7  8 -1 -1</clus>
<clus scale="   48.672">  1  5  2 -1</clus>
</clustering>
</event>
<event>
10    4  0.3403565E-005  0.1600344E+03  0.7546771E-02  0.1209752E+00
         21   -1    0    0  503  502  0.00000000000E+00  0.00000000000E+00  0.10591287312E+03  0.10591287312E+03  0.00000000000E+00 0. -1.
          2   -1    0    0  502    0 -0.00000000000E+00 -0.00000000000E+00 -0.81840182148E+03  0.81840182148E+03  0.00000000000E+00 0. -1.
         23    2    1    2    0    0 -0.90320281953E+01  0.18952627019E+02 -0.48487669073E+03  0.49534608038E+03  0.99103756378E+02 0.  0.
         24    2    1    2    0    0  0.10580818542E+03  0.77206764244E+02 -0.20674842926E+03  0.25784247373E+03  0.81126886474E+02 0.  0.
        -13    1    4    4    0    0  0.11451687428E+02  0.54746492812E+02 -0.60897474921E+02  0.82685077686E+02  0.00000000000E+00 0.  1.
         14    1    4    4    0    0  0.94356497992E+02  0.22460271432E+02 -0.14585095434E+03  0.17515739604E+03  0.00000000000E+00 0. -1.
        -13    1    3    3    0    0 -0.21435290160E+02 -0.37543563691E+02 -0.19105951201E+03  0.19588958107E+03  0.00000000000E+00 0.  1.
         13    1    3    3    0    0  0.12403261964E+02  0.56496190710E+02 -0.29381717872E+03  0.29945649931E+03  0.00000000000E+00 0. -1.
         21    1    1    2  503  501  0.20254748011E+02 -0.67121782307E+01 -0.95967765062E+01  0.23396715002E+02  0.00000000000E+00 0.  1.
          1    1    1    2  501    0 -0.11703090523E+03 -0.89447213033E+02 -0.11267051866E+02  0.14772942550E+03  0.00000000000E+00 0. -1.
<scales pt_clust_5="13000.00000" pt_clust_6="13000.00000" pt_clust_7="13000.00000" pt_clust_8="13000.00000" pt_clust_9="21.33795" pt_clust_10="137.94722"></scales>
<clustering>
<clus scale="   21.338">  1  9  2 -1</clus>
<clus scale="   81.127">  5  6 -1 -1</clus>
<clus scale="   99.104">  7  8 -1 -1</clus>
<clus scale="  101.147">  2  7  1 -1</clus>
<clus scale="  137.947">  1 10  2 -1</clus>
<clus scale="   21.338">  1  5  2 -1</clus>
</clustering>
</event>
<event>
10    4  0.3403565E-005  0.9803296E+02  0.7546771E-02  0.1291912E+00
          2   -1    0    0  503    0 -0.00000000000E+00  0.00000000000E+00  0.13567508602E+04  0.13567508602E+04  0.00000000000E+00 0. -1.
         21   -1    0    0  501  502  0.00000000000E+00 -0.00000000000E+00 -0.51207156586E+02  0.51207156586E+02  0.00000000000E+00 0. -1.
         24    2    1    2    0    0  0.20369015917E+02 -0.28210232505E+02  0.10940152305E+04  0.10973216820E+04  0.77684202331E+02 0.  0.
         23    2    1    2    0    0 -0.37608965886E+02  0.18291856988E+02  0.22145372712E+03  0.24323825644E+03  0.91509943688E+02 0.  0.
        -11    1    3    3    0    0  0.20111340326E+02 -0.10347575518E+02  0.79643794724E+02  0.82792948775E+02  0.00000000000E+00 0.  1.
         12    1    3    3    0    0  0.25767559115E+00 -0.17862656987E+02  0.10143714358E+04  0.10145287333E+04  0.00000000000E+00 0. -1.
        -13    1    4    4    0    0 -0.43904132922E+02  0.50634496407E+02  0.16092504607E+03  0.17432238975E+03  0.00000000000E+00 0.  1.
         13    1    4    4    0    0  0.62951670363E+01 -0.32342639419E+02  0.60528681048E+02  0.68915866693E+02  0.00000000000E+00 0. -1.
         21    1    1    2  503  502 -0.68333723692E+01 -0.22824253475E+02  0.45526197181E+01  0.24256295491E+02  0.00000000000E+00 0. -1.
          1    1    1    2  501    0  0.24073322338E+02  0.32742628992E+02 -0.14477873680E+02  0.43141782855E+02  0.00000000000E+00 0. -1.
<scales pt_clust_5="13000.00000" pt_clust_6="13000.00000" pt_clust_7="13000.00000" pt_clust_8="13000.00000" pt_clust_9="23.82523" pt_clust_10="25.62522"></scales>
<clustering>
<clus scale="   23.825">  2  9  1 -1</clus>
<clus scale="   25.625">  2 10  1 -1</clus>
<clus scale="   77.684">  5  6 -1 -1</clus>
<clus scale="   85.271">  1  5  2 -1</clus>
<clus scale="   91.510">  7  8 -1 -1</clus>
<clus scale="   23.825">  2  5  1 -1</clus>
</clustering>
</event>
<event>
10    4  0.3403565E-005  0.1704658E+03  0.7546771E-02  0.1209799E+00
         -3   -1    0    0    0  501 -0.00000000000E+00  0.00000000000E+00  0.33927500792E+03  0.33927500792E+03  0.00000000000E+00 0.  1.
         21   -1    0    0  503  502  0.00000000000E+00 -0.00000000000E+00 -0.10162516752E+04  0.10162516752E+04  0.00000000000E+00 0.  1.
         24    2    1    2    0    0  0.32968844764E+02  0.38540133974E+01 -0.23377376172E+03  0.24934518519E+03  0.80131464272E+02 0.  0.
         23    2    1    2    0    0 -0.67477515647E+02 -0.14536239154E+03  0.29342323000E+03  0.34671998581E+03  0.91837446974E+02 0.  0.
        -13    1    3    3    0    0  0.10390742600E+02  0.40878430923E+02 -0.13589122108E+03  0.14228646321E+03  0.00000000000E+00 0.  1.
         14    1    3    3    0    0  0.22578102164E+02 -0.37024417526E+02 -0.97882540640E+02  0.10705872198E+03  0.00000000000E+00 0. -1.
        -13    1    4    4    0    0 -0.13171326706E+02 -0.42039549677E+02  0.17492469260E+03  0.18038696091E+03  0.00000000000E+00 0.  1.
         13    1    4    4    0    0 -0.54306188940E+02 -0.10332284187E+03  0.11849853740E+03  0.16633302490E+03  0.00000000000E+00 0. -1.
         21    1    1    2  503  501 -0.37878504054E+02  0.19439803618E+02 -0.19016316909E+03  0.19487102892E+03  0.00000000000E+00 0.  1.
         -4    1    1    2    0  502  0.72387174936E+02  0.12206857453E+03 -0.54646296647E+03  0.56459048319E+03  0.00000000000E+00 0.  1.
<scales pt_clust_5="13000.00000" pt_clust_6="13000.00000" pt_clust_7="13000.00000" pt_clust_8="13000.00000" pt_clust_9="42.57566" pt_clust_10="143.61225"></scales>
<clustering>
<clus scale="   42.576">  2  9  1 -1</clus>
<clus scale="   80.131">  5  6 -1 -1</clus>
<clus scale="   83.608">  1  5  2 -1</clus>
<clus scale="   91.837">  7  8 -1 -1</clus>
<clus scale="  143.612">  2 10  1 -1</clus>
<clus scale="   42.576">  2  5  1 -1</clus>
</clustering>
</event>
<event>
10    4  0.3403565E-005  0.2185039E+03  0.7546771E-02  0.1135901E+00
          2   -1    0    0  503    0 -0.00000000000E+00  0.00000000000E+00  0.22867522417E+04  0.22867522417E+04  0.00000000000E+00 0. -1.
         21   -1    0    0  501  502  0.00000000000E+00 -0.00000000000E+00 -0.90715502594E+02  0.90715502594E+02  0.00000000000E+00 0. -1.
         24    2    1    2    0    0 -0.87023134166E+02 -0.15507266342E+03  0.86576773307E+03  0.88743582436E+03  0.79799861580E+02 0.  0.
         23    2    1    2    0    0  0.16176941807E+03  0.15896010472E+03  0.11616849010E+04  0.11871632120E+04  0.91689821110E+02 0.  0.
        -11    1    3    3    0    0 -0.30962470329E+02 -0.14342245408E+02  0.76545985939E+02  0.83807294047E+02  0.00000000000E+00 0.  1.
         12    1    3    3    0    0 -0.56060663837E+02 -0.14073041802E+03  0.78922174713E+03  0.80362853031E+03  0.00000000000E+00 0. -1.
        -11    1    4    4    0    0  0.14581359730E+02  0.72042347897E+02  0.37129978396E+03  0.37850527805E+03  0.00000000000E+00 0.  1.
         11    1    4    4    0    0  0.14718805834E+03  0.86917756823E+02  0.79038511701E+03  0.80865793396E+03  0.00000000000E+00 0. -1.
         21    1    1    2  503  502 -0.44742574454E+02 -0.45947525509E+02 -0.48064249828E+02  0.80145150700E+02  0.00000000000E+00 0. -1.
          1    1    1    2  501    0 -0.30003709450E+02  0.42060084214E+02  0.21664835493E+03  0.22272355726E+03  0.00000000000E+00 0. -1.
<scales pt_clust_5="13000.00000" pt_clust_6="13000.00000" pt_clust_7="13000.00000" pt_clust_8="13000.00000" pt_clust_9="68.38903" pt_clust_10="51.66504"></scales>
<clustering>
<clus scale="   51.665">  2 10  1 -1</clus>
<clus scale="   68.389">  2  9  1 -1</clus>
<clus scale="   79.800">  5  6 -1 -1</clus>
<clus scale="   91.690">  7  8 -1 -1</clus>
<clus scale="  213.787">  1  5  2 -1</clus>
<clus scale="   51.665">  2  5  1 -1</clus>
</clustering>
</event>
<event>
10    4  0.3403565E-005  0.1910636E+03  0.7546771E-02  0.1159045E+00
         21   -1    0    0  503  502  0.00000000000E+00  0.00000000000E+00  0.33878464339E+03  0.33878464339E+03  0.00000000000E+00 0.  1.
          2   -1    0    0  502    0 -0.00000000000E+00 -0.00000000000E+00 -0.44771058706E+03  0.44771058706E+03  0.00000000000E+00 0. -1.
         23    2    1    2    0    0  0.67316667309E+02 -0.14707895578E+03 -0.26334954291E+03  0.32233740169E+03  0.91567821024E+02 0.  0.
         24    2    1    2    0    0 -0.30137355554E+01  0.23202933482E+03  0.17235495961E+03  0.29900789626E+03  0.76503562707E+02 0.  0.
        -13    1    4    4    0    0 -0.24390975889E+02  0.18495094711E+03  0.10492084862E+03  0.21403307459E+03  0.00000000000E+00 0.  1.
         14    1    4    4    0    0  0.21377240333E+02  0.47078387703E+02  0.67434110993E+02  0.84974821673E+02  0.00000000000E+00 0. -1.
        -11    1    3    3    0    0  0.61825732434E+02 -0.31120195247E+02 -0.11074468189E+03  0.13059583573E+03  0.00000000000E+00 0.  1.
         11    1    3    3    0    0  0.54909348757E+01 -0.11595876053E+03 -0.15260486102E+03  0.19174156596E+03  0.00000000000E+00 0. -1.
         21    1    1    2  503  501 -0.32166416965E+01 -0.28038277078E+02  0.50066777311E+02  0.57473245564E+02  0.00000000000E+00 0. -1.
          1    1    1    2  501    0 -0.61086290057E+02 -0.56912101958E+02 -0.67998137676E+02  0.10767668694E+03  0.00000000000E+00 0. -1.
<scales pt_clust_5="13000.00000" pt_clust_6="13000.00000" pt_clust_7="13000.00000" pt_clust_8="13000.00000" pt_clust_9="28.22219" pt_clust_10="84.99349"></scales>
<clustering>
<clus scale="   28.222">  1  9  2 -1</clus>
<clus scale="   76.504">  5  6 -1 -1</clus>
<clus scale="   84.993">  1 10  2 -1</clus>
<clus scale="   91.568">  7  8 -1 -1</clus>
<clus scale="  184.319">  1  5  2 -1</clus>
<clus scale="   28.222">  1  5  2 -1</clus>
</clustering>
</event>
<event>
10    4  0.3403565E-005  0.3358767E+03  0.7546771E-02  0.1068881E+00
          2   -1    0    0  503    0 -0.00000000000E+00  0.00000000000E+00  0.14835049877E+04  0.14835049877E+04  0.00000000000E+00 0. -1.
         21   -1    0    0  501  502  0.00000000000E+00 -0.00000000000E+00 -0.24470475356E+03  0.24470475356E+03  0.00000000000E+00 0.  1.
         23    2    1    2    0    0 -0.74792785311E+02 -0.26338063569E+03  0.29250918567E+03  0.41081381210E+03  0.90791213922E+02 0.  0.
         24    2    1    2    0    0 -0.17423307782E+03  0.45083890611E+03  0.35101224005E+03  0.60259867847E+03  0.79389482635E+02 0.  0.
        -13    1    4    4    0    0 -0.78303875255E+02  0.24873731760E+03  0.14445004147E+03  0.29810663281E+03  0.00000000000E+00 0.  1.
         14    1    4    4    0    0 -0.95929202564E+02  0.20210158852E+03  0.20656219858E+03  0.30449204566E+03  0.00000000000E+00 0. -1.
        -13    1    3    3    0    0 -0.87129032712E+02 -0.15054078057E+03  0.19354597403E+03  0.26021921340E+03  0.00000000000E+00 0.  1.
         13    1    3    3    0    0  0.12336247401E+02 -0.11283985512E+03  0.98963211632E+02  0.15059459871E+03  0.00000000000E+00 0. -1.
         21    1    1    2  503  502  0.15154598874E+03 -0.31804465176E+02  0.94506962021E+02  0.18140914139E+03  0.00000000000E+00 0. -1.
          1    1    1    2  501    0  0.97479874385E+02 -0.15565380525E+03  0.50077184639E+03  0.53338810930E+03  0.00000000000E+00 0. -1.
<scales pt_clust_5="13000.00000" pt_clust_6="13000.00000" pt_clust_7="13000.00000" pt_clust_8="13000.00000" pt_clust_9="154.84738" pt_clust_10="192.57300"></scales>
<clustering>
<clus scale="   79.389">  5  6 -1 -1</clus>
<clus scale="   90.791">  7  8 -1 -1</clus>
<clus scale="  154.847">  2  9  1 -1</clus>
<clus scale="  192.573">  2 10  1 -1</clus>
<clus scale="  332.976">  2  5  1 -1</clus>
<clus scale="  154.847">  2  5  1 -1</clus>
</clustering>
</event>
<event>
10    4  0.3403565E-005  0.9432241E+02  0.7546771E-02  0.1300432E+00
         21   -1    0    0  501  502  0.00000000000E+00  0.00000000000E+00  0.44184563381E+03  0.44184563381E+03  0.00000000000E+00 0. -1.
          2   -1    0    0  503    0 -0.00000000000E+00 -0.00000000000E+00 -0.18650090448E+03  0.18650090448E+03  0.00000000000E+00 0. -1.
         23    2    1    2    0    0 -0.15621156136E+02  0.74838284678E+01 -0.15787968245E+03  0.18396246515E+03  0.92823306579E+02 0.  0.
         24    2    1    2    0    0  0.12238082107E+02  0.13360294531E+02  0.24524086788E+03  0.25859771589E+03  0.80008919889E+02 0.  0.
        -11    1    4    4    0    0  0.32332646892E+02 -0.18158655720E+02  0.17647534307E+03  0.18032937516E+03  0.00000000000E+00 0.  1.
         12    1    4    4    0    0 -0.20094564785E+02  0.31518950252E+02  0.68765524806E+02  0.78268340730E+02  0.00000000000E+00 0. -1.
        -11    1    3    3    0    0  0.13130994754E+02 -0.29587239950E+02 -0.19369220386E+02  0.37722599187E+02  0.00000000000E+00 0.  1.
         11    1    3    3    0    0 -0.28752150889E+02  0.37071068417E+02 -0.13851046207E+03  0.14623986596E+03  0.00000000000E+00 0. -1.
         21    1    1    2  503  502 -0.17364676100E+02  0.23992299099E+02  0.71450924786E+02  0.77345956874E+02  0.00000000000E+00 0. -1.
          1    1    1    2  501    0  0.20747750129E+02 -0.44836422098E+02  0.96532619120E+02  0.10844040039E+03  0.00000000000E+00 0. -1.
<scales pt_clust_5="13000.00000" pt_clust_6="13000.00000" pt_clust_7="13000.00000" pt_clust_8="13000.00000" pt_clust_9="29.61693" pt_clust_10="41.32752"></scales>
<clustering>
<clus scale="   29.617">  1  9  2 -1</clus>
<clus scale="   41.328">  1 10  2 -1</clus>
<clus scale="   80.009">  5  6 -1 -1</clus>
<clus scale="   81.743">  1  5  2 -1</clus>
<clus scale="   92.823">  7  8 -1 -1</clus>
<clus scale="   29.617">  1  5  2 -1</clus>
</clustering>
</event>
<event>
10    4  0.3403565E-005  0.1256343E+03  0.7546771E-02  0.1255073E+00
         21   -1    0    0  503  502  0.00000000000E+00  0.00000000000E+00  0.37469978007E+03  0.37469978007E+03  0.00000000000E+00 0. -1.
          4   -1    0    0  502    0 -0.00000000000E+00 -0.00000000000E+00 -0.29595956659E+03  0.29595956659E+03  0.00000000000E+00 0. -1.
         24    2    1    2    0    0 -0.74726311242E+01  0.19758288576E+02 -0.15538789819E+03  0.17629786806E+03  0.80556248657E+02 0.  0.
         23    2    1    2    0    0  0.69984415895E+02  0.72722059741E+02 -0.22752923059E+02  0.13765073815E+03  0.90794899446E+02 0.  0.
        -13    1    3    3    0    0 -0.11209512808E+02 -0.30277899873E+02 -0.73205805148E+02  0.80009338864E+02  0.00000000000E+00 0.  1.
         14    1    3    3    0    0  0.37368816835E+01  0.50036188449E+02 -0.82182093039E+02  0.96288529200E+02  0.00000000000E+00 0. -1.
        -13    1    4    4    0    0  0.58372710754E+02  0.17076434412E+01 -0.29411248677E+02  0.65385862047E+02  0.00000000000E+00 0.  1.
         13    1    4    4    0    0  0.11611705141E+02  0.71014416300E+02  0.66583256177E+01  0.72264876107E+02  0.00000000000E+00 0. -1.
         21    1    1    2  503  501  0.15275096748E+01 -0.44846231764E+02  0.27183132939E+03  0.27551005322E+03  0.00000000000E+00 0. -1.
          3    1    1    2  501    0 -0.64039294446E+02 -0.47634116554E+02 -0.14950294663E+02  0.81200687211E+02  0.00000000000E+00 0. -1.
<scales pt_clust_5="13000.00000" pt_clust_6="13000.00000" pt_clust_7="13000.00000" pt_clust_8="13000.00000" pt_clust_9="44.87224" pt_clust_10="86.83470"></scales>
<clustering>
<clus scale="   44.872">  1  9  2 -1</clus>
<clus scale="   80.556">  5  6 -1 -1</clus>
<clus scale="   82.288">  2  5  1 -1</clus>
<clus scale="   86.835">  1 10  2 -1</clus>
<clus scale="   90.795">  7  8 -1 -1</clus>
<clus scale="   44.872">  1  5  2 -1</clus>
</clustering>
</event>
<event>
10    4  0.3403565E-005  0.1053467E+03  0.7546771E-02  0.1273654E+00
          2   -1    0    0  503    0 -0.00000000000E+00  0.00000000000E+00  0.21333303788E+03  0.21333303788E+03  0.00000000000E+00 0. -1.
         21   -1    0    0  501  502  0.00000000000E+00 -0.00000000000E+00 -0.25348640285E+03  0.25348640285E+03  0.00000000000E+00 0. -1.
         23    2    1    2    0    0  0.19315858267E+02  0.37580472457E+02  0.99689023641E+02  0.14014063900E+03  0.88972484370E+02 0.  0.
         24    2    1    2    0    0 -0.46994322046E+02 -0.83599888653E+02  0.12102893737E+02  0.12487619463E+03  0.79058056275E+02 0.  0.
        -13    1    4    4    0    0 -0.68158261035E+02 -0.75138510116E+02  0.11241649176E+02  0.10206722748E+03  0.00000000000E+00 0.  1.
         14    1    4    4    0    0  0.21163938989E+02 -0.84613785369E+01  0.86124456155E+00  0.22808967151E+02  0.00000000000E+00 0. -1.
        -13    1    3    3    0    0  0.20946714670E+02 -0.70991792194E+01  0.92190983178E+02  0.94806859353E+02  0.00000000000E+00 0. -1.
         13    1    3    3    0    0 -0.16308564030E+01  0.44679651677E+02  0.74980404628E+01  0.45333779650E+02  0.00000000000E+00 0.  1.
         21    1    1    2  503  502  0.96135088699E+01 -0.40655702054E+02 -0.31523501790E+02  0.52335808271E+02  0.00000000000E+00 0.  1.
          1    1    1    2  501    0  0.18064954909E+02  0.86675118250E+02 -0.12042178055E+03  0.14946679882E+03  0.00000000000E+00 0. -1.
<scales pt_clust_5="13000.00000" pt_clust_6="13000.00000" pt_clust_7="13000.00000" pt_clust_8="13000.00000" pt_clust_9="41.77686" pt_clust_10="65.38447"></scales>
<clustering>
<clus scale="   41.777">  2  9  1 -1</clus>
<clus scale="   65.384">  2 10  1 -1</clus>
<clus scale="   79.058">  5  6 -1 -1</clus>
<clus scale="   88.972">  7  8 -1 -1</clus>
<clus scale="   97.118">  2  5  1 -1</clus>
<clus scale="   41.777">  2  5  1 -1</clus>
</clustering>
</event>
<event>
10    4  0.3403565E-005  0.1184470E+03  0.7546771E-02  0.1249491E+00
         -3   -1    0    0    0  501 -0.00000000000E+00  0.00000000000E+00  0.41909064191E+03  0.41909064191E+03  0.00000000000E+00 0.  1.
         21   -1    0    0  503  502  0.00000000000E+00 -0.00000000000E+00 -0.54539948666E+02  0.54539948666E+02  0.00000000000E+00 0.  1.
         23    2    1    2    0    0 -0.75385443343E+02 -0.54260810570E+02  0.21461430335E+03  0.25095641905E+03  0.91063848075E+02 0.  0.
         24    2    1    2    0    0  0.47762178763E+02  0.19249825887E+02  0.56513668818E+02  0.11022617418E+03  0.79399201472E+02 0.  0.
        -13    1    4    4    0    0  0.29118027830E+02  0.12551305825E+01 -0.15981655210E+02  0.33239256922E+02  0.00000000000E+00 0.  1.
         14    1    4    4    0    0  0.18644150933E+02  0.17994695304E+02  0.72495324028E+02  0.76986917259E+02  0.00000000000E+00 0. -1.
        -11    1    3    3    0    0 -0.58009951926E+02  0.11629640353E+01  0.16383491952E+03  0.17380560365E+03  0.00000000000E+00 0. -1.
         11    1    3    3    0    0 -0.17375491417E+02 -0.55423774605E+02  0.50779383834E+02  0.77150815394E+02  0.00000000000E+00 0.  1.
         21    1    1    2  503  501  0.17909525851E+02  0.15747749170E+02  0.92910117684E+01  0.25594249740E+02  0.00000000000E+00 0.  1.
         -4    1    1    2    0  502  0.97137387294E+01  0.19263235513E+02  0.84131709308E+02  0.86853747609E+02  0.00000000000E+00 0.  1.
<scales pt_clust_5="13000.00000" pt_clust_6="13000.00000" pt_clust_7="13000.00000" pt_clust_8="13000.00000" pt_clust_9="26.94462" pt_clust_10="21.57381"></scales>
<clustering>
<clus scale="   21.574">  2 10  1 -1</clus>
<clus scale="   26.945">  2  9  1 -1</clus>
<clus scale="   79.399">  5  6 -1 -1</clus>
<clus scale="   91.064">  7  8 -1 -1</clus>
<clus scale="  109.733">  2  5  1 -1</clus>
<clus scale="   21.574">  2  5  1 -1</clus>
</clustering>
</event>
<event>
10    4  0.3403565E-005  0.2068421E+03  0.7546771E-02  0.1175462E+00
         21   -1    0    0  501  502  0.00000000000E+00  0.00000000000E+00  0.26551625713E+03  0.26551625713E+03  0.00000000000E+00 0.  1.
          2   -1    0    0  503    0 -0.00000000000E+00 -0.00000000000E+00 -0.93250869854E+03  0.93250869854E+03  0.00000000000E+00 0. -1.
         24    2    1    2    0    0  0.53295109563E+02 -0.57931150208E+01 -0.71909413391E+02  0.12340741087E+03  0.84761408897E+02 0.  0.
         23    2    1    2    0    0 -0.13165475866E+03 -0.13796548560E+03  0.17678611745E+03  0.27638326655E+03  0.93631874976E+02 0.  0.
        -13    1    3    3    0    0 -0.19959131582E+02  0.14019007704E+02 -0.18412393193E+02  0.30560034909E+02  0.00000000000E+00 0.  1.
         14    1    3    3    0    0  0.73254241145E+02 -0.19812122725E+02 -0.53497020199E+02  0.92847375960E+02  0.00000000000E+00 0. -1.
        -11    1    4    4    0    0 -0.20953439308E+02 -0.24947872673E+02  0.90488579648E+02  0.96174976041E+02  0.00000000000E+00 0. -1.
         11    1    4    4    0    0 -0.11070131935E+03 -0.11301761293E+03  0.86297537805E+02  0.18020829051E+03  0.00000000000E+00 0.  1.
         21    1    1    2  503  502 -0.87488166806E+01  0.76788399919E+02 -0.17456696420E+03  0.19090999226E+03  0.00000000000E+00 0. -1.
          1    1    1    2  501    0  0.87108465777E+02  0.66970200702E+02 -0.59730218128E+03  0.60732428599E+03  0.00000000000E+00 0. -1.
<scales pt_clust_5="13000.00000" pt_clust_6="13000.00000" pt_clust_7="13000.00000" pt_clust_8="13000.00000" pt_clust_9="77.28519" pt_clust_10="184.43631"></scales>
<clustering>
<clus scale="   77.285">  2  9  1 -1</clus>
<clus scale="   84.761">  5  6 -1 -1</clus>
<clus scale="   93.632">  7  8 -1 -1</clus>
<clus scale="   99.611">  2  5  1 -1</clus>
<clus scale="  184.436">  1 10  2 -1</clus>
<clus scale="  184.436">  1  5  2 -1</clus>
</clustering>
</event>
<event>
10    4  0.3403565E-005  0.2073174E+03  0.7546771E-02  0.1166350E+00
         21   -1    0    0  503  502  0.00000000000E+00  0.00000000000E+00  0.28701977124E+03  0.28701977124E+03  0.00000000000E+00 0. -1.
          4   -1    0    0  502    0 -0.00000000000E+00 -0.00000000000E+00 -0.30712926483E+03  0.30712926483E+03  0.00000000000E+00 0. -1.
         24    2    1    2    0    0 -0.77611142396E+02 -0.36737342095E+02  0.39024524880E+02  0.12403707994E+03  0.80555334590E+02 0.  0.
         23    2    1    2    0    0  0.15769870328E+03 -0.13952099033E+03 -0.73891323215E+02  0.24036551831E+03  0.89334578889E+02 0.  0.
        -13    1    3    3    0    0 -0.71600016581E+02 -0.55629319604E+02  0.47635768610E+02  0.10242240978E+03  0.00000000000E+00 0.  1.
         14    1    3    3    0    0 -0.60111258147E+01  0.18891977509E+02 -0.86112437307E+01  0.21614670165E+02  0.00000000000E+00 0. -1.
        -13    1    4    4    0    0  0.66777033033E+02 -0.63857316302E+02 -0.79579846294E+02  0.12194212120E+03  0.00000000000E+00 0.  1.
         13    1    4    4    0    0  0.90921670252E+02 -0.75663674026E+02  0.56885230785E+01  0.11842339711E+03  0.00000000000E+00 0. -1.
         21    1    1    2  503  501 -0.20856460110E+02  0.69294526163E+01  0.42862651198E+02  0.48168621629E+02  0.00000000000E+00 0. -1.
          3    1    1    2  501    0 -0.59231100778E+02  0.16932887981E+03 -0.28105346453E+02  0.18157781620E+03  0.00000000000E+00 0. -1.
<scales pt_clust_5="13000.00000" pt_clust_6="13000.00000" pt_clust_7="13000.00000" pt_clust_8="13000.00000" pt_clust_9="21.97747" pt_clust_10="187.08240"></scales>
<clustering>
<clus scale="   21.977">  1  9  2 -1</clus>
<clus scale="   80.555">  5  6 -1 -1</clus>
<clus scale="   89.335">  7  8 -1 -1</clus>
<clus scale="  121.813">  2  5  1 -1</clus>
<clus scale="  187.082">  1 10  2 -1</clus>
<clus scale="   21.977">  1  5  2 -1</clus>
</clustering>
</event>
<event>
10    4  0.3403565E-005  0.9707230E+02  0.7546771E-02  0.1291444E+00
         -1   -1    0    0    0  501 -0.00000000000E+00  0.00000000000E+00  0.44250471511E+03  0.44250471511E+03  0.00000000000E+00 0.  1.
         21   -1    0    0  503  502  0.00000000000E+00 -0.00000000000E+00 -0.13296082914E+03  0.13296082914E+03  0.00000000000E+00 0. -1.
         24    2    1    2    0    0 -0.18893773519E+02  0.37314307382E+02  0.30193482938E+03  0.31501818924E+03  0.79514062570E+02 0.  0.
         23    2    1    2    0    0 -0.75034248161E+02 -0.38705001369E+02 -0.23180892071E+02  0.12474365666E+03  0.88856122977E+02 0.  0.
        -13    1    3    3    0    0 -0.40664254054E+02  0.75117973593E+01  0.23474180370E+03  0.23835629436E+03  0.00000000000E+00 0.  1.
         14    1    3    3    0    0  0.21770480535E+02  0.29802510023E+02  0.67193025677E+02  0.76661894876E+02  0.00000000000E+00 0. -1.
        -11    1    4    4    0    0 -0.48051763972E+02 -0.66911970789E+02 -0.23651623339E+02  0.85706377489E+02  0.00000000000E+00 0. -1.
         11    1    4    4    0    0 -0.26982484189E+02  0.28206969420E+02  0.47073126780E+00  0.39037279167E+02  0.00000000000E+00 0.  1.
         21    1    1    2  503  501  0.65028311330E+02  0.35040253577E+02 -0.11095163072E+02  0.74696742156E+02  0.00000000000E+00 0. -1.
         -2    1    1    2    0  502  0.28899710350E+02 -0.33649559590E+02  0.41885111741E+02  0.61006956197E+02  0.00000000000E+00 0.  1.
<scales pt_clust_5="13000.00000" pt_clust_6="13000.00000" pt_clust_7="13000.00000" pt_clust_8="13000.00000" pt_clust_9="78.61970" pt_clust_10="44.35638"></scales>
<clustering>
<clus scale="   44.356">  2 10  1 -1</clus>
<clus scale="   78.620">  2  9  1 -1</clus>
<clus scale="   79.514">  5  6 -1 -1</clus>
<clus scale="   88.601">  1  5  2 -1</clus>
<clus scale="   88.856">  7  8 -1 -1</clus>
<clus scale="   44.356">  2  5  1 -1</clus>
</clustering>
</event>
<event>
10    4  0.3403565E-005  0.9499299E+02  0.7546771E-02  0.1296964E+00
         21   -1    0    0  501  502  0.00000000000E+00  0.00000000000E+00  0.10869068738E+03  0.10869068738E+03  0.00000000000E+00 0.  1.
          2   -1    0    0  503    0 -0.00000000000E+00 -0.00000000000E+00 -0.20765069670E+03  0.20765069670E+03  0.00000000000E+00 0. -1.
         24    2    1    2    0    0  0.18451866772E+01  0.39892896869E+01 -0.11546422258E+03  0.14357373879E+03  0.85218029946E+02 0.  0.
         23    2    1    2    0    0 -0.60341141205E+01  0.28668357462E+02  0.24469219861E+01  0.99352402921E+02  0.94903252242E+02 0.  0.
        -11    1    3    3    0    0  0.46293917132E+01 -0.38596623499E+02 -0.34161033349E+02  0.51750428139E+02  0.00000000000E+00 0.  1.
         12    1    3    3    0    0 -0.27842050360E+01  0.42585913185E+02 -0.81303189235E+02  0.91823310653E+02  0.00000000000E+00 0. -1.
        -11    1    4    4    0    0  0.20431137851E+02  0.17664148768E+02  0.42345867057E+02  0.50225750392E+02  0.00000000000E+00 0.  1.
         11    1    4    4    0    0 -0.26465251971E+02  0.11004208694E+02 -0.39898945071E+02  0.49126652529E+02  0.00000000000E+00 0. -1.
         21    1    1    2  503  502 -0.25970517802E+02 -0.44019583017E+00  0.13516806631E+02  0.29280806491E+02  0.00000000000E+00 0. -1.
          1    1    1    2  501    0  0.30159445245E+02 -0.32217451318E+02  0.54048464477E+00  0.44134435882E+02  0.00000000000E+00 0. -1.
<scales pt_clust_5="13000.00000" pt_clust_6="13000.00000" pt_clust_7="13000.00000" pt_clust_8="13000.00000" pt_clust_9="25.97425" pt_clust_10="39.97664"></scales>
<clustering>
<clus scale="   25.974">  1  9  2 -1</clus>
<clus scale="   39.977">  1 10  2 -1</clus>
<clus scale="   85.218">  5  6 -1 -1</clus>
<clus scale="   85.318">  2  5  1 -1</clus>
<clus scale="   94.903">  7  8 -1 -1</clus>
<clus scale="   25.974">  1  5  2 -1</clus>
</clustering>
</event>
<event>
10    4  0.3403565E-005  0.1281260E+03  0.7546771E-02  0.1250787E+00
          2   -1    0    0  503    0 -0.00000000000E+00  0.00000000000E+00  0.13099510716E+04  0.13099510716E+04  0.00000000000E+00 0. -1.
         21   -1    0    0  501  502  0.00000000000E+00 -0.00000000000E+00 -0.37725616012E+02  0.37725616012E+02  0.00000000000E+00 0. -1.
         24    2    1    2    0    0  0.39787937587E+01 -0.29184252472E+02  0.78114528520E+03  0.78574605097E+03  0.79632585237E+02 0.  0.
         23    2    1    2    0    0 -0.54005209793E+02 -0.45528018426E+02  0.17788704098E+03  0.21391069357E+03  0.95522889030E+02 0.  0.
        -13    1    3    3    0    0 -0.10549842195E+02  0.22735616033E+02  0.13149253211E+03  0.13385997687E+03  0.00000000000E+00 0.  1.
         14    1    3    3    0    0  0.14528635954E+02 -0.51919868504E+02  0.64965275309E+03  0.65188607410E+03  0.00000000000E+00 0. -1.
        -11    1    4    4    0    0  0.12114665456E+02 -0.23652981524E+02  0.43610542542E+01  0.26930418643E+02  0.00000000000E+00 0.  1.
         11    1    4    4    0    0 -0.66119875249E+02 -0.21875036902E+02  0.17352598673E+03  0.18698027493E+03  0.00000000000E+00 0. -1.
         21    1    1    2  503  502 -0.25256600279E+02  0.12684362413E+02  0.10754308104E+02  0.30239775963E+02  0.00000000000E+00 0. -1.
          1    1    1    2  501    0  0.75283016313E+02  0.62027908485E+02  0.30243882129E+03  0.31778016710E+03  0.00000000000E+00 0. -1.
<scales pt_clust_5="13000.00000" pt_clust_6="13000.00000" pt_clust_7="13000.00000" pt_clust_8="13000.00000" pt_clust_9="28.26285" pt_clust_10="85.39113"></scales>
<clustering>
<clus scale="   28.263">  2  9  1 -1</clus>
<clus scale="   79.633">  5  6 -1 -1</clus>
<clus scale="   84.480">  1  5  2 -1</clus>
<clus scale="   85.391">  2 10  1 -1</clus>
<clus scale="   95.523">  7  8 -1 -1</clus>
<clus scale="   28.263">  2  5  1 -1</clus>
</clustering>
</event>
<event>
10    4  0.3403565E-005  0.1748480E+03  0.7546771E-02  0.1194321E+00
         21   -1    0    0  501  502  0.00000000000E+00  0.00000000000E+00  0.14706711888E+03  0.14706711888E+03  0.00000000000E+00 0. -1.
          2   -1    0    0  503    0 -0.00000000000E+00 -0.00000000000E+00 -0.10529077481E+04  0.10529077481E+04  0.00000000000E+00 0. -1.
         24    2    1    2    0    0  0.30515490867E+02 -0.62009929972E+02 -0.37842443546E+03  0.39287275603E+03  0.79796757314E+02 0.  0.
         23    2    1    2    0    0 -0.11923895038E+03  0.17819645547E+03 -0.46098428506E+03  0.51656323833E+03  0.91428464332E+02 0.  0.
        -13    1    3    3    0    0  0.15092376573E+02 -0.57666593270E+02 -0.12036734145E+03  0.13431869825E+03  0.00000000000E+00 0.  1.
         14    1    3    3    0    0  0.15423114294E+02 -0.43433367016E+01 -0.25805709401E+03  0.25855405779E+03  0.00000000000E+00 0. -1.
        -13    1    4    4    0    0 -0.87477407374E+02  0.73742349598E+02 -0.16248632227E+03  0.19872603214E+03  0.00000000000E+00 0. -1.
         13    1    4    4    0    0 -0.31761543001E+02  0.10445410588E+03 -0.29849796279E+03  0.31783720619E+03  0.00000000000E+00 0.  1.
         21    1    1    2  503  502  0.29946013894E+02 -0.18920895082E+02  0.90266316674E+02  0.96967891308E+02  0.00000000000E+00 0. -1.
          1    1    1    2  501    0  0.58777445615E+02 -0.97265630420E+02 -0.15669822536E+03  0.19357098131E+03  0.00000000000E+00 0. -1.
<scales pt_clust_5="13000.00000" pt_clust_6="13000.00000" pt_clust_7="13000.00000" pt_clust_8="13000.00000" pt_clust_9="35.42265" pt_clust_10="149.03914"></scales>
<clustering>
<clus scale="   35.423">  1  9  2 -1</clus>
<clus scale="   79.797">  5  6 -1 -1</clus>
<clus scale="   91.428">  7  8 -1 -1</clus>
<clus scale="  108.310">  2  5  1 -1</clus>
<clus scale="  149.039">  1 10  2 -1</clus>
<clus scale="   35.423">  1  5  2 -1</clus>
</clustering>
</event>
<event>
10    4  0.4233028E-005  0.3014740E+03  0.7546771E-02  0.1128080E+00
          2   -1    0    0  503    0 -0.00000000000E+00  0.00000000000E+00  0.27812116842E+03  0.27812116842E+03  0.00000000000E+00 0. -1.
         21   -1    0    0  501  502  0.00000000000E+00 -0.00000000000E+00 -0.64177836005E+03  0.64177836005E+03  0.00000000000E+00 0. -1.
         24    2    1    2    0    0 -0.39285952291E+02  0.35489783420E+02  0.60663315478E+02  0.11210196394E+03  0.77999369875E+02 0.  0.
         23    2    1    2    0    0 -0.10279060445E+03 -0.27090373884E+03 -0.37845969466E+03  0.48504249923E+03  0.89887382321E+02 0.  0.
        -13    1    3    3    0    0 -0.26015315315E+02  0.55785817874E+02  0.19935222793E+02  0.64701369496E+02  0.00000000000E+00 0.  1.
         14    1    3    3    0    0 -0.13270636976E+02 -0.20296034454E+02  0.40728092685E+02  0.47400594449E+02  0.00000000000E+00 0. -1.
        -11    1    4    4    0    0  0.12112640264E+02 -0.71875388212E+02 -0.77798084315E+02  0.10660829896E+03  0.00000000000E+00 0.  1.
         11    1    4    4    0    0 -0.11490324471E+03 -0.19902835063E+03 -0.30066161034E+03  0.37843420027E+03  0.00000000000E+00 0. -1.
         21    1    1    2  503  502 -0.28667483428E+02  0.72237942969E+00 -0.97403972177E+01  0.30285669484E+02  0.00000000000E+00 0. -1.
          1    1    1    2  501    0  0.17074404017E+03  0.23469157599E+03 -0.36120415236E+02  0.29246939582E+03  0.00000000000E+00 0. -1.
<scales pt_clust_5="13000.00000" pt_clust_6="13000.00000" pt_clust_7="13000.00000" pt_clust_8="13000.00000" pt_clust_9="28.67658" pt_clust_10="287.76187"></scales>
<clustering>
<clus scale="   28.677">  1  9  2 -1</clus>
<clus scale="   77.999">  5  6 -1 -1</clus>
<clus scale="   89.887">  7  8 -1 -1</clus>
<clus scale="   98.566">  1  5  2 -1</clus>
<clus scale="  287.762">  2 10  1 -1</clus>
<clus scale="  287.762">  2  5  1 -1</clus>
</clustering>
</event>
<event>
10    4  0.3403565E-005  0.1289272E+03  0.7546771E-02  0.1232162E+00
         21   -1    0    0  503  502  0.00000000000E+00  0.00000000000E+00  0.56190434026E+03  0.56190434026E+03  0.00000000000E+00 0.  1.
         -1   -1    0    0    0  501 -0.00000000000E+00 -0.00000000000E+00 -0.20219427846E+03  0.20219427846E+03  0.00000000000E+00 0.  1.
         24    2    1    2    0    0 -0.32179304805E+02 -0.84869780732E+02 -0.11874670758E+03  0.16927165713E+03  0.79458958010E+02 0.  0.
         23    2    1    2    0    0 -0.45266180535E+02  0.10901831401E+03  0.54770376228E+02  0.15889071344E+03  0.91172610002E+02 0.  0.
        -11    1    3    3    0    0  0.20230484620E+02 -0.58067251838E+02 -0.54941255953E+02  0.82459807480E+02  0.00000000000E+00 0.  1.
         12    1    3    3    0    0 -0.52409789425E+02 -0.26802528894E+02 -0.63805451626E+02  0.86811849651E+02  0.00000000000E+00 0. -1.
        -11    1    4    4    0    0 -0.14610739281E+02  0.11632679058E+03  0.47824069490E+02  0.12661965697E+03  0.00000000000E+00 0. -1.
         11    1    4    4    0    0 -0.30655441254E+02 -0.73084765679E+01  0.69463067379E+01  0.32271056467E+02  0.00000000000E+00 0.  1.
         21    1    1    2  503  501  0.12204652075E+02 -0.34270842482E+02  0.16432455143E+03  0.16830330472E+03  0.00000000000E+00 0.  1.
         -2    1    1    2    0  502  0.65240833265E+02  0.10122309203E+02  0.25936184172E+03  0.26763294343E+03  0.00000000000E+00 0.  1.
<scales pt_clust_5="13000.00000" pt_clust_6="13000.00000" pt_clust_7="13000.00000" pt_clust_8="13000.00000" pt_clust_9="36.37917" pt_clust_10="74.46208"></scales>
<clustering>
<clus scale="   36.379">  1  9  2 -1</clus>
<clus scale="   74.462">  1 10  2 -1</clus>
<clus scale="   79.459">  5  6 -1 -1</clus>
<clus scale="   91.173">  7  8 -1 -1</clus>
<clus scale="  120.928">  2  5  1 -1</clus>
<clus scale="   36.379">  1  5  2 -1</clus>
</clustering>
</event>
<event>
10    4  0.3403565E-005  0.9204636E+02  0.7546771E-02  0.1303043E+00
         21   -1    0    0  503  502  0.00000000000E+00  0.00000000000E+00  0.92124623377E+02  0.92124623377E+02  0.00000000000E+00 0.  1.
          2   -1    0    0  502    0 -0.00000000000E+00 -0.00000000000E+00 -0.18559717577E+03  0.18559717577E+03  0.00000000000E+00 0. -1.
         24    2    1    2    0    0 -0.29354683625E+02  0.15555411076E+02 -0.80415828565E+02  0.11879122920E+03  0.80876340092E+02 0.  0.
         23    2    1    2    0    0 -0.16159572916E+02 -0.18076120631E+02 -0.11532845219E+02  0.93306965542E+02  0.89360535842E+02 0.  0.
        -13    1    3    3    0    0  0.13783650397E+02 -0.22118521111E+02 -0.43315268770E+02  0.50551266088E+02  0.00000000000E+00 0.  1.
         14    1    3    3    0    0 -0.43138334021E+02  0.37673932187E+02 -0.37100559795E+02  0.68239963113E+02  0.00000000000E+00 0. -1.
        -11    1    4    4    0    0  0.30651028109E+02 -0.29068405080E+02  0.48233590882E+01  0.42517319894E+02  0.00000000000E+00 0.  1.
         11    1    4    4    0    0 -0.46810601025E+02  0.10992284449E+02 -0.16356204307E+02  0.50789645648E+02  0.00000000000E+00 0. -1.
         21    1    1    2  503  501  0.64513660556E+01 -0.19287730030E+02  0.33811465436E+01  0.20617196843E+02  0.00000000000E+00 0.  1.
          1    1    1    2  501    0  0.39062890485E+02  0.21808439585E+02 -0.49050251547E+01  0.45006407566E+02  0.00000000000E+00 0. -1.
<scales pt_clust_5="13000.00000" pt_clust_6="13000.00000" pt_clust_7="13000.00000" pt_clust_8="13000.00000" pt_clust_9="20.33806" pt_clust_10="44.07976"></scales>
<clustering>
<clus scale="   20.338">  1  9  2 -1</clus>
<clus scale="   44.080">  1 10  2 -1</clus>
<clus scale="   80.876">  5  6 -1 -1</clus>
<clus scale="   83.834">  2  5  1 -1</clus>
<clus scale="   89.361">  7  8 -1 -1</clus>
<clus scale="   20.338">  1  5  2 -1</clus>
</clustering>
</event>
<event>
10    4  0.3403565E-005  0.3673290E+03  0.7546771E-02  0.1099739E+00
         21   -1    0    0  501  502  0.00000000000E+00  0.00000000000E+00  0.16065681291E+03  0.16065681291E+03  0.00000000000E+00 0.  1.
          2   -1    0    0  503    0 -0.00000000000E+00 -0.00000000000E+00 -0.19031035625E+04  0.19031035625E+04  0.00000000000E+00 0. -1.
         24    2    1    2    0    0  0.13496922526E+02  0.68036858564E+02 -0.15884550237E+03  0.19034749397E+03  0.78670793789E+02 0.  0.
         23    2    1    2    0    0  0.34513793209E+03 -0.79563379423E+02 -0.12299832692E+04  0.12833929312E+04  0.93744599277E+02 0.  0.
        -13    1    3    3    0    0  0.24257388913E+02  0.35264389642E+01 -0.77558383409E+01  0.25710109238E+02  0.00000000000E+00 0.  1.
         14    1    3    3    0    0 -0.10760466388E+02  0.64510419600E+02 -0.15108966403E+03  0.16463738473E+03  0.00000000000E+00 0. -1.
        -11    1    4    4    0    0  0.98750481297E+02 -0.65966969233E+02 -0.35931859424E+03  0.37843513414E+03  0.00000000000E+00 0. -1.
         11    1    4    4    0    0  0.24638745080E+03 -0.13596410190E+02 -0.87066467499E+03  0.90495779711E+03  0.00000000000E+00 0.  1.
         21    1    1    2  503  502  0.29383598017E+00  0.74477303959E+02  0.10097469262E+02  0.75159257781E+02  0.00000000000E+00 0.  1.
          1    1    1    2  501    0 -0.35892869060E+03 -0.62950783100E+02 -0.36371544727E+03  0.51486069243E+03  0.00000000000E+00 0. -1.
<scales pt_clust_5="13000.00000" pt_clust_6="13000.00000" pt_clust_7="13000.00000" pt_clust_8="13000.00000" pt_clust_9="74.47788" pt_clust_10="355.16556"></scales>
<clustering>
<clus scale="   74.478">  1  9  2 -1</clus>
<clus scale="   78.671">  5  6 -1 -1</clus>
<clus scale="   93.745">  7  8 -1 -1</clus>
<clus scale="  111.591">  2  5  1 -1</clus>
<clus scale="  355.166">  1 10  2 -1</clus>
<clus scale="   74.478">  1  5  2 -1</clus>
</clustering>
</event>
<event>
10    4  0.3403565E-005  0.1994855E+03  0.7546771E-02  0.1152343E+00
          2   -1    0    0  503    0 -0.00000000000E+00  0.00000000000E+00  0.41273346197E+03  0.41273346197E+03  0.00000000000E+00 0. -1.
         21   -1    0    0  501  502  0.00000000000E+00 -0.00000000000E+00 -0.37326110510E+03  0.37326110510E+03  0.00000000000E+00 0.  1.
         24    2    1    2    0    0  0.19333892412E+03  0.35196799857E+02  0.41287422966E+02  0.21622108659E+03  0.80175761226E+02 0.  0.
         23    2    1    2    0    0 -0.11209569198E+03  0.55894890441E+02 -0.20879556826E+03  0.26380452828E+03  0.10152613890E+03 0.  0.
        -13    1    3    3    0    0  0.10767234884E+03 -0.20581239959E+02  0.27957476995E+02  0.11313064423E+03  0.00000000000E+00 0.  1.
         14    1    3    3    0    0  0.85666575283E+02  0.55778039817E+02  0.13329945971E+02  0.10309044236E+03  0.00000000000E+00 0. -1.
        -13    1    4    4    0    0 -0.23398855587E+02  0.59729287315E+02 -0.47968144925E+02  0.80100169372E+02  0.00000000000E+00 0. -1.
         13    1    4    4    0    0 -0.88696836391E+02 -0.38343968743E+01 -0.16082742334E+03  0.18370435891E+03  0.00000000000E+00 0.  1.
         21    1    1    2  503  502  0.18188552800E+02 -0.19892112927E+02 -0.29363492985E+02  0.39858930366E+02  0.00000000000E+00 0. -1.
          1    1    1    2  501    0 -0.99431784945E+02 -0.71199577371E+02  0.23634399516E+03  0.26611002184E+03  0.00000000000E+00 0. -1.
<scales pt_clust_5="13000.00000" pt_clust_6="13000.00000" pt_clust_7="13000.00000" pt_clust_8="13000.00000" pt_clust_9="26.95403" pt_clust_10="122.15975"></scales>
<clustering>
<clus scale="   26.954">  2  9  1 -1</clus>
<clus scale="   80.176">  5  6 -1 -1</clus>
<clus scale="  101.526">  7  8 -1 -1</clus>
<clus scale="  122.160">  2 10  1 -1</clus>
<clus scale="  189.513">  1  5  2 -1</clus>
<clus scale="   26.954">  2  5  1 -1</clus>
</clustering>
</event>
<event>
10    4  0.3403565E-005  0.6116799E+03  0.7546771E-02  0.1040804E+00
         -3   -1    0    0    0  501 -0.00000000000E+00  0.00000000000E+00  0.10512183716E+04  0.10512183716E+04  0.00000000000E+00 0.  1.
         21   -1    0    0  503  502  0.00000000000E+00 -0.00000000000E+00 -0.54834121050E+03  0.54834121050E+03  0.00000000000E+00 0.  1.
         24    2    1    2    0    0  0.32714182664E+02 -0.86114287726E+02  0.13346044034E+03  0.18065320012E+03  0.79611564990E+02 0.  0.
         23    2    1    2    0    0  0.23595513709E+03 -0.51983579750E+03  0.14424161928E+02  0.57833982197E+03  0.91459336057E+02 0.  0.
        -11    1    3    3    0    0  0.67787062870E+01 -0.21210864558E+02  0.10129465112E+03  0.10371334523E+03  0.00000000000E+00 0.  1.
         12    1    3    3    0    0  0.25935476377E+02 -0.64903423168E+02  0.32165789220E+02  0.76939854886E+02  0.00000000000E+00 0. -1.
        -13    1    4    4    0    0  0.22650168742E+03 -0.44945503549E+03 -0.95404646296E+01  0.50339235572E+03  0.00000000000E+00 0.  1.
         13    1    4    4    0    0  0.94534496658E+01 -0.70380762007E+02  0.23964626557E+02  0.74947466250E+02  0.00000000000E+00 0. -1.
         21    1    1    2  503  501 -0.72608836175E+02 -0.31095259790E+02 -0.11659647455E+02  0.79843006274E+02  0.00000000000E+00 0. -1.
         -4    1    1    2    0  502 -0.19606048358E+03  0.63704534501E+03  0.36665220629E+03  0.76072355373E+03  0.00000000000E+00 0.  1.
<scales pt_clust_5="13000.00000" pt_clust_6="13000.00000" pt_clust_7="13000.00000" pt_clust_8="13000.00000" pt_clust_9="78.98708" pt_clust_10="604.80399"></scales>
<clustering>
<clus scale="   78.987">  2  9  1 -1</clus>
<clus scale="   79.612">  5  6 -1 -1</clus>
<clus scale="   91.459">  7  8 -1 -1</clus>
<clus scale="  121.926">  1  5  2 -1</clus>
<clus scale="  604.804">  2 10  1 -1</clus>
<clus scale="   78.987">  2  5  1 -1</clus>
</clustering>
</event>
<event>
10    4  0.3403565E-005  0.1401158E+03  0.7546771E-02  0.1215591E+00
          2   -1    0    0  503    0 -0.00000000000E+00  0.00000000000E+00  0.79375267528E+02  0.79375267528E+02  0.00000000000E+00 0. -1.
         21   -1    0    0  501  502  0.00000000000E+00 -0.00000000000E+00 -0.85701233019E+03  0.85701233019E+03  0.00000000000E+00 0. -1.
         24    2    1    2    0    0 -0.84526176713E+02 -0.15248959792E+02 -0.14340501085E+03  0.18539496357E+03  0.80181606726E+02 0.  0.
         23    2    1    2    0    0  0.14856310233E+03  0.54792245147E+02 -0.38880328870E+03  0.42963105548E+03  0.91332694170E+02 0.  0.
        -13    1    3    3    0    0 -0.52063085577E+02 -0.42920472710E+02 -0.54313229979E+02  0.86617889654E+02  0.00000000000E+00 0.  1.
         14    1    3    3    0    0 -0.32463091136E+02  0.27671512919E+02 -0.89091780869E+02  0.98777073917E+02  0.00000000000E+00 0. -1.
        -13    1    4    4    0    0  0.56361502208E+02 -0.14265002399E+02 -0.72051836114E+02  0.92582807864E+02  0.00000000000E+00 0.  1.
         13    1    4    4    0    0  0.92201600122E+02  0.69057247547E+02 -0.31675145259E+03  0.33704824761E+03  0.00000000000E+00 0. -1.
         21    1    1    2  503  502 -0.73662688255E+02 -0.79511083209E+02 -0.25677481975E+03  0.27871403275E+03  0.00000000000E+00 0. -1.
          1    1    1    2  501    0  0.96257626377E+01  0.39967797853E+02  0.11346056637E+02  0.42647545917E+02  0.00000000000E+00 0. -1.
<scales pt_clust_5="13000.00000" pt_clust_6="13000.00000" pt_clust_7="13000.00000" pt_clust_8="13000.00000" pt_clust_9="97.18792" pt_clust_10="41.11061"></scales>
<clustering>
<clus scale="   41.111">  2 10  1 -1</clus>
<clus scale="   80.182">  5  6 -1 -1</clus>
<clus scale="   91.333">  7  8 -1 -1</clus>
<clus scale="   97.188">  2  9  1 -1</clus>
<clus scale="  133.116">  1  5  2 -1</clus>
<clus scale="   41.111">  2  5  1 -1</clus>
</clustering>
</event>
<event>
10    4  0.3403565E-005  0.2740035E+03  0.7546771E-02  0.1133554E+00
          2   -1    0    0  503    0 -0.00000000000E+00  0.00000000000E+00  0.12331789176E+04  0.12331789176E+04  0.00000000000E+00 0. -1.
         21   -1    0    0  501  502  0.00000000000E+00 -0.00000000000E+00 -0.26459174609E+03  0.26459174609E+03  0.00000000000E+00 0. -1.
         24    2    1    2    0    0 -0.84957791739E+02 -0.55374040066E+01  0.47952771983E+02  0.12312183739E+03  0.74906803972E+02 0.  0.
         23    2    1    2    0    0  0.30856409090E+03 -0.10751645573E+03  0.10046363637E+04  0.10601028599E+04  0.88046940621E+02 0.  0.
        -13    1    3    3    0    0 -0.39044595348E+02  0.34562716911E+02  0.17687046367E+02  0.55062631933E+02  0.00000000000E+00 0.  1.
         14    1    3    3    0    0 -0.45913196391E+02 -0.40100120918E+02  0.30265725616E+02  0.68059205458E+02  0.00000000000E+00 0. -1.
        -13    1    4    4    0    0  0.90620824740E+02 -0.64764456807E+02  0.25517643701E+03  0.27842697920E+03  0.00000000000E+00 0.  1.
         13    1    4    4    0    0  0.21794326616E+03 -0.42751998921E+02  0.74945992672E+03  0.78167588068E+03  0.00000000000E+00 0. -1.
         21    1    1    2  503  502 -0.78762998264E+01 -0.30056718225E+02 -0.42053432115E+02  0.52287030534E+02  0.00000000000E+00 0. -1.
          1    1    1    2  501    0 -0.21572999933E+03  0.14311057796E+03 -0.41948532049E+02  0.26225893593E+03  0.00000000000E+00 0. -1.
<scales pt_clust_5="13000.00000" pt_clust_6="13000.00000" pt_clust_7="13000.00000" pt_clust_8="13000.00000" pt_clust_9="31.07157" pt_clust_10="259.47186"></scales>
<clustering>
<clus scale="   31.072">  2  9  1 -1</clus>
<clus scale="   74.907">  5  6 -1 -1</clus>
<clus scale="   88.047">  7  8 -1 -1</clus>
<clus scale="  114.792">  1  5  2 -1</clus>
<clus scale="  259.472">  2 10  1 -1</clus>
<clus scale="   31.072">  2  5  1 -1</clus>
</clustering>
</event>
<event>
10    4  0.3403565E-005  0.2054356E+03  0.7546771E-02  0.1168175E+00
          2   -1    0    0  502    0 -0.00000000000E+00  0.00000000000E+00  0.53637929905E+03  0.53637929905E+03  0.00000000000E+00 0. -1.
         21   -1    0    0  503  502  0.00000000000E+00 -0.00000000000E+00 -0.18573507303E+03  0.18573507303E+03  0.00000000000E+00 0.  1.
         23    2    1    2    0    0 -0.12573353498E+02  0.77519769991E+02  0.23541071003E+03  0.26425359460E+03  0.90798435590E+02 0.  0.
         24    2    1    2    0    0 -0.35866768020E+02  0.15454496006E+03 -0.93135019240E+00  0.17773443750E+03  0.80113002260E+02 0.  0.
        -13    1    4    4    0    0 -0.61325574013E+02  0.11782827978E+03  0.31458517626E+01  0.13286920609E+03  0.00000000000E+00 0.  1.
         14    1    4    4    0    0  0.25458805993E+02  0.36716680283E+02 -0.40772019550E+01  0.44865231409E+02  0.00000000000E+00 0. -1.
        -13    1    3    3    0    0 -0.43443609485E+02  0.74331300463E+02  0.19611146821E+03  0.21417795731E+03  0.00000000000E+00 0. -1.
         13    1    3    3    0    0  0.30870255987E+02  0.31884695280E+01  0.39299241816E+02  0.50075637289E+02  0.00000000000E+00 0.  1.
         21    1    1    2  503  501  0.46225807621E+02 -0.36253555907E+02  0.20839535787E+02  0.62333232372E+02  0.00000000000E+00 0.  1.
          1    1    1    2  501    0  0.22143138969E+01 -0.19581117414E+03  0.95325330402E+02  0.21779310761E+03  0.00000000000E+00 0. -1.
<scales pt_clust_5="13000.00000" pt_clust_6="13000.00000" pt_clust_7="13000.00000" pt_clust_8="13000.00000" pt_clust_9="51.31055" pt_clust_10="51.31055"></scales>
<clustering>
<clus scale="   51.311">  9 10 -1 -1</clus>
<clus scale="   80.113">  5  6 -1 -1</clus>
<clus scale="   90.798">  7  8 -1 -1</clus>
<clus scale="  120.049">  1  7  2 -1</clus>
<clus scale="  199.614">  1  5  2 -1</clus>
<clus scale="  205.436">  2  5  1 -1</clus>
</clustering>
</event>
<event>
10    4  0.3403565E-005  0.9576371E+02  0.7546771E-02  0.1297606E+00
         21   -1    0    0  501  502  0.00000000000E+00  0.00000000000E+00  0.38748026200E+03  0.38748026200E+03  0.00000000000E+00 0. -1.
          4   -1    0    0  503    0 -0.00000000000E+00 -0.00000000000E+00 -0.97019383217E+02  0.97019383217E+02  0.00000000000E+00 0. -1.
         23    2    1    2    0    0 -0.20399417846E+01 -0.37604756489E+01 -0.76910580675E+00  0.93102654457E+02  0.93001130121E+02 0.  0.
         24    2    1    2    0    0 -0.44633727694E+02 -0.32574344862E+02  0.14713151359E+02  0.97570569560E+02  0.79058722670E+02 0.  0.
        -11    1    4    4    0    0 -0.20838110631E+02  0.21149002075E+02  0.23880555542E+02  0.38102336889E+02  0.00000000000E+00 0.  1.
         12    1    4    4    0    0 -0.23795617063E+02 -0.53723346937E+02 -0.91674041833E+01  0.59468232671E+02  0.00000000000E+00 0. -1.
        -13    1    3    3    0    0 -0.31257495794E+02  0.33276753714E+02  0.31650466511E+01  0.45764515745E+02  0.00000000000E+00 0. -1.
         13    1    3    3    0    0  0.29217554010E+02 -0.37037229363E+02 -0.39341524578E+01  0.47338138712E+02  0.00000000000E+00 0.  1.
         21    1    1    2  503  502  0.20974150655E+02  0.27417881368E+02  0.25939959413E+03  0.26168646249E+03  0.00000000000E+00 0. -1.
          3    1    1    2  501    0  0.25699518824E+02  0.89169391429E+01  0.17117239097E+02  0.32139958708E+02  0.00000000000E+00 0. -1.
<scales pt_clust_5="13000.00000" pt_clust_6="13000.00000" pt_clust_7="13000.00000" pt_clust_8="13000.00000" pt_clust_9="51.94577" pt_clust_10="27.20253"></scales>
<clustering>
<clus scale="   27.203">  1 10  2 -1</clus>
<clus scale="   51.946">  1  9  2 -1</clus>
<clus scale="   79.059">  5  6 -1 -1</clus>
<clus scale="   82.291">  1  5  2 -1</clus>
<clus scale="   93.001">  7  8 -1 -1</clus>
<clus scale="   27.203">  1  5  2 -1</clus>
</clustering>
</event>
<event>
10    4  0.3403565E-005  0.1063210E+03  0.7546771E-02  0.1274175E+00
         21   -1    0    0  501  502  0.00000000000E+00  0.00000000000E+00  0.56188377472E+02  0.56188377472E+02  0.00000000000E+00 0. -1.
          2   -1    0    0  503    0 -0.00000000000E+00 -0.00000000000E+00 -0.61737194764E+03  0.61737194764E+03  0.00000000000E+00 0. -1.
         24    2    1    2    0    0 -0.29756536702E+02  0.35885440251E+02 -0.38984632819E+03  0.40074592022E+03  0.80274009944E+02 0.  0.
         23    2    1    2    0    0  0.35800612512E+02 -0.38170049056E+02 -0.15839980509E+03  0.19190891860E+03  0.94867793725E+02 0.  0.
        -13    1    3    3    0    0 -0.41776281408E+02 -0.11655500549E+02 -0.20208234781E+03  0.20668426083E+03  0.00000000000E+00 0.  1.
         14    1    3    3    0    0  0.12019744706E+02  0.47540940800E+02 -0.18776398039E+03  0.19406165939E+03  0.00000000000E+00 0. -1.
        -13    1    4    4    0    0 -0.15882146696E+02  0.17062956557E+02 -0.78477338265E+02  0.81866230470E+02  0.00000000000E+00 0. -1.
         13    1    4    4    0    0  0.51682759208E+02 -0.55233005613E+02 -0.79922466820E+02  0.11004268813E+03  0.00000000000E+00 0.  1.
         21    1    1    2  503  502  0.19595001096E+02  0.27549098775E+02  0.13335104320E+02  0.36342013132E+02  0.00000000000E+00 0. -1.
          1    1    1    2  501    0 -0.25639076906E+02 -0.25264489970E+02 -0.26272541212E+02  0.44563473157E+02  0.00000000000E+00 0. -1.
<scales pt_clust_5="13000.00000" pt_clust_6="13000.00000" pt_clust_7="13000.00000" pt_clust_8="13000.00000" pt_clust_9="33.80705" pt_clust_10="26.33843"></scales>
<clustering>
<clus scale="   33.807">  1  9  2 -1</clus>
<clus scale="   26.338">  1 10  2 -1</clus>
<clus scale="   80.274">  5  6 -1 -1</clus>
<clus scale="   93.532">  2  5  1 -1</clus>
<clus scale="   94.868">  7  8 -1 -1</clus>
<clus scale="   33.807">  1  5  2 -1</clus>
</clustering>
</event>
<event>
10    4  0.3403565E-005  0.9756250E+02  0.7546771E-02  0.1291308E+00
         21   -1    0    0  501  502  0.00000000000E+00  0.00000000000E+00  0.62162503158E+02  0.62162503158E+02  0.00000000000E+00 0.  1.
          2   -1    0    0  503    0 -0.00000000000E+00 -0.00000000000E+00 -0.42908399247E+03  0.42908399247E+03  0.00000000000E+00 0. -1.
         24    2    1    2    0    0 -0.14792981473E+02 -0.29429109096E+02 -0.17523396651E+03  0.19476888994E+03  0.78377756461E+02 0.  0.
         23    2    1    2    0    0  0.43536463131E+02  0.39227267826E+02 -0.72818081431E+02  0.12939545058E+03  0.89479089654E+02 0.  0.
        -13    1    3    3    0    0  0.72219901308E+01  0.20059190619E+02 -0.98892917739E+02  0.10116490226E+03  0.00000000000E+00 0.  1.
         14    1    3    3    0    0 -0.22014971604E+02 -0.49488299715E+02 -0.76341048772E+02  0.93603987687E+02  0.00000000000E+00 0. -1.
        -11    1    4    4    0    0 -0.60934115936E+01  0.41287033229E+02 -0.59359450031E+00  0.41738485024E+02  0.00000000000E+00 0.  1.
         11    1    4    4    0    0  0.49629874725E+02 -0.20597654028E+01 -0.72224486931E+02  0.87656965560E+02  0.00000000000E+00 0. -1.
         21    1    1    2  503  502 -0.74653096219E+01 -0.38654686802E+02  0.35421721342E+01  0.39527998216E+02  0.00000000000E+00 0. -1.
          1    1    1    2  501    0 -0.21278172037E+02  0.28856528073E+02 -0.12241161351E+03  0.12755415689E+03  0.00000000000E+00 0. -1.
<scales pt_clust_5="13000.00000" pt_clust_6="13000.00000" pt_clust_7="13000.00000" pt_clust_8="13000.00000" pt_clust_9="32.03755" pt_clust_10="35.85333"></scales>
<clustering>
<clus scale="   35.853">  1 10  2 -1</clus>
<clus scale="   32.038">  1  9  2 -1</clus>
<clus scale="   78.378">  5  6 -1 -1</clus>
<clus scale="   87.493">  2  5  1 -1</clus>
<clus scale="   89.479">  7  8 -1 -1</clus>
<clus scale="   35.853">  1  5  2 -1</clus>
</clustering>
</event>
<event>
10    4  0.3403565E-005  0.1485621E+03  0.7546771E-02  0.1220851E+00
         -1   -1    0    0    0  501 -0.00000000000E+00  0.00000000000E+00  0.14144867643E+04  0.14144867643E+04  0.00000000000E+00 0.  1.
         21   -1    0    0  503  502  0.00000000000E+00 -0.00000000000E+00 -0.32736104253E+02  0.32736104253E+02  0.00000000000E+00 0.  1.
         23    2    1    2    0    0  0.22653235322E+01 -0.34643323299E+02  0.37858324284E+03  0.39094141966E+03  0.91129744383E+02 0.  0.
         24    2    1    2    0    0 -0.13940496110E+03  0.40411298891E+01  0.63460116826E+03  0.65457142886E+03  0.79341280605E+02 0.  0.
        -11    1    4    4    0    0 -0.11198546587E+03 -0.27970385355E+02  0.51450553656E+03  0.52729406803E+03  0.00000000000E+00 0.  1.
         12    1    4    4    0    0 -0.27419495230E+02  0.32011515244E+02  0.12009563170E+03  0.12727736083E+03  0.00000000000E+00 0. -1.
        -13    1    3    3    0    0  0.81611416988E+01 -0.64562217326E+02  0.29142968098E+03  0.29860700443E+03  0.00000000000E+00 0. -1.
         13    1    3    3    0    0 -0.58958181666E+01  0.29918894027E+02  0.87153561858E+02  0.92334415232E+02  0.00000000000E+00 0.  1.
         21    1    1    2  503  501  0.33181955272E+02 -0.25056709471E+02  0.10684917712E+03  0.11465438281E+03  0.00000000000E+00 0.  1.
         -2    1    1    2    0  502  0.10395768230E+03  0.55658902880E+02  0.26171707186E+03  0.28705563725E+03  0.00000000000E+00 0.  1.
<scales pt_clust_5="13000.00000" pt_clust_6="13000.00000" pt_clust_7="13000.00000" pt_clust_8="13000.00000" pt_clust_9="41.57981" pt_clust_10="125.60118"></scales>
<clustering>
<clus scale="   41.580">  2  9  1 -1</clus>
<clus scale="   79.341">  5  6 -1 -1</clus>
<clus scale="   91.130">  7  8 -1 -1</clus>
<clus scale="   99.968">  1  7  2 -1</clus>
<clus scale="  125.601">  2 10  1 -1</clus>
<clus scale="   41.580">  2  5  1 -1</clus>
</clustering>
</event>
<event>
10    4  0.3403565E-005  0.1476974E+03  0.7546771E-02  0.1231174E+00
         21   -1    0    0  501  502  0.00000000000E+00  0.00000000000E+00  0.14148572523E+03  0.14148572523E+03  0.00000000000E+00 0. -1.
          2   -1    0    0  503    0 -0.00000000000E+00 -0.00000000000E+00 -0.69940967610E+03  0.69940967610E+03  0.00000000000E+00 0. -1.
         24    2    1    2    0    0 -0.16285913351E+02  0.16447257876E+02 -0.22014067225E+03  0.23533193814E+03  0.79896572314E+02 0.  0.
         23    2    1    2    0    0  0.68519640798E+02 -0.76058964373E+02 -0.10593799405E+03  0.17379698503E+03  0.92209685959E+02 0.  0.
        -13    1    3    3    0    0  0.89745948042E+00 -0.31322617205E+02 -0.10306761263E+03  0.10772578408E+03  0.00000000000E+00 0.  1.
         14    1    3    3    0    0 -0.17183372831E+02  0.47769875081E+02 -0.11707305962E+03  0.12760615406E+03  0.00000000000E+00 0. -1.
        -13    1    4    4    0    0  0.86156324460E+02 -0.55917507977E+02 -0.55630247506E+02  0.11680926496E+03  0.00000000000E+00 0. -1.
         13    1    4    4    0    0 -0.17636683661E+02 -0.20141456397E+02 -0.50307746542E+02  0.56987720067E+02  0.00000000000E+00 0.  1.
         21    1    1    2  503  502  0.13558877506E+02 -0.27468688542E+02  0.88335038103E+02  0.93495726993E+02  0.00000000000E+00 0. -1.
          1    1    1    2  501    0 -0.65792604953E+02  0.87080395039E+02 -0.32018032268E+03  0.33827075117E+03  0.00000000000E+00 0. -1.
<scales pt_clust_5="13000.00000" pt_clust_6="13000.00000" pt_clust_7="13000.00000" pt_clust_8="13000.00000" pt_clust_9="30.63286" pt_clust_10="115.37723"></scales>
<clustering>
<clus scale="   30.633">  1  9  2 -1</clus>
<clus scale="   79.897">  5  6 -1 -1</clus>
<clus scale="   82.087">  2  5  1 -1</clus>
<clus scale="   92.210">  7  8 -1 -1</clus>
<clus scale="  115.377">  1 10  2 -1</clus>
<clus scale="   30.633">  1  5  2 -1</clus>
</clustering>
</event>
<event>
10    4  0.3403565E-005  0.9451883E+02  0.7546771E-02  0.1300728E+00
         -3   -1    0    0    0  501 -0.00000000000E+00  0.00000000000E+00  0.13562631711E+03  0.13562631711E+03  0.00000000000E+00 0.  1.
         21   -1    0    0  503  502  0.00000000000E+00 -0.00000000000E+00 -0.26421158785E+03  0.26421158785E+03  0.00000000000E+00 0.  1.
         23    2    1    2    0    0 -0.19609494928E+02  0.21271378338E+01  0.72335369853E+02  0.11999932249E+03  0.93692980846E+02 0.  0.
         24    2    1    2    0    0 -0.11189763701E+02 -0.67573545719E+01 -0.50636815631E+02  0.95429669196E+02  0.79823943858E+02 0.  0.
        -13    1    4    4    0    0  0.10257242955E+02 -0.39940359133E+02 -0.23050596458E+02  0.47241648128E+02  0.00000000000E+00 0.  1.
         14    1    4    4    0    0 -0.21447006656E+02  0.33183004561E+02 -0.27586219173E+02  0.48188021068E+02  0.00000000000E+00 0. -1.
        -11    1    3    3    0    0 -0.74510158432E+01 -0.39123326698E+02  0.65207073065E+02  0.76407556607E+02  0.00000000000E+00 0.  1.
         11    1    3    3    0    0 -0.12158479085E+02  0.41250464532E+02  0.71282967882E+01  0.43591765883E+02  0.00000000000E+00 0. -1.
         21    1    1    2  503  501 -0.35443589732E+01  0.24881587237E+02 -0.14132838718E+03  0.14354570313E+03  0.00000000000E+00 0.  1.
         -4    1    1    2    0  502  0.34343617602E+02 -0.20251370499E+02 -0.89554377852E+01  0.40863210141E+02  0.00000000000E+00 0.  1.
<scales pt_clust_5="13000.00000" pt_clust_6="13000.00000" pt_clust_7="13000.00000" pt_clust_8="13000.00000" pt_clust_9="25.13276" pt_clust_10="36.87940"></scales>
<clustering>
<clus scale="   25.133">  2  9  1 -1</clus>
<clus scale="   36.879">  2 10  1 -1</clus>
<clus scale="   79.824">  5  6 -1 -1</clus>
<clus scale="   80.792">  2  5  1 -1</clus>
<clus scale="   93.693">  7  8 -1 -1</clus>
<clus scale="   25.133">  2  5  1 -1</clus>
</clustering>
</event>
<event>
10    4  0.3403565E-005  0.2517806E+03  0.7546771E-02  0.1128809E+00
         21   -1    0    0  503  502  0.00000000000E+00  0.00000000000E+00  0.49154640018E+03  0.49154640018E+03  0.00000000000E+00 0. -1.
          2   -1    0    0  502    0 -0.00000000000E+00 -0.00000000000E+00 -0.49219163660E+03  0.49219163660E+03  0.00000000000E+00 0. -1.
         23    2    1    2    0    0  0.17545357495E+02 -0.12396610948E+03  0.56142322275E+02  0.17263189984E+03  0.10475865894E+03 0.  0.
         24    2    1    2    0    0  0.18558293579E+03 -0.28410668288E+02 -0.34817048740E+03  0.40366317669E+03  0.80455452182E+02 0.  0.
        -11    1    4    4    0    0  0.29843897882E+02  0.75883766428E+01 -0.15261496713E+02  0.34367935388E+02  0.00000000000E+00 0.  1.
         12    1    4    4    0    0  0.15573903790E+03 -0.35999044930E+02 -0.33290899069E+03  0.36929524130E+03  0.00000000000E+00 0. -1.
        -13    1    3    3    0    0 -0.12653725335E+02 -0.10563899325E+03  0.11050060548E+00  0.10639420036E+03  0.00000000000E+00 0. -1.
         13    1    3    3    0    0  0.30199082830E+02 -0.18327116235E+02  0.56031821669E+02  0.66237699483E+02  0.00000000000E+00 0.  1.
         21    1    1    2  503  501 -0.25582837026E+02 -0.16811832550E+02  0.72597383842E+02  0.78787685616E+02  0.00000000000E+00 0.  1.
          1    1    1    2  501    0 -0.17754545626E+03  0.16918861032E+03  0.21878554487E+03  0.32865527463E+03  0.00000000000E+00 0. -1.
<scales pt_clust_5="13000.00000" pt_clust_6="13000.00000" pt_clust_7="13000.00000" pt_clust_8="13000.00000" pt_clust_9="30.61240" pt_clust_10="238.57995"></scales>
<clustering>
<clus scale="   30.612">  1  9  2 -1</clus>
<clus scale="   80.455">  5  6 -1 -1</clus>
<clus scale="  104.759">  7  8 -1 -1</clus>
<clus scale="  166.194">  2  7  1 -1</clus>
<clus scale="  238.580">  1 10  2 -1</clus>
<clus scale="   30.612">  1  5  2 -1</clus>
</clustering>
</event>
<event>
10    4  0.3403565E-005  0.2059830E+03  0.7546771E-02  0.1165393E+00
          2   -1    0    0  503    0 -0.00000000000E+00  0.00000000000E+00  0.61722443186E+03  0.61722443186E+03  0.00000000000E+00 0. -1.
         21   -1    0    0  501  502  0.00000000000E+00 -0.00000000000E+00 -0.39446583950E+03  0.39446583950E+03  0.00000000000E+00 0. -1.
         24    2    1    2    0    0  0.81140595311E+02 -0.54261166355E+02  0.46966390499E+02  0.13504242546E+03  0.80638355988E+02 0.  0.
         23    2    1    2    0    0 -0.20538732616E+03 -0.16368620398E+03 -0.87863687043E+02  0.29181785726E+03  0.91981015397E+02 0.  0.
        -13    1    3    3    0    0  0.60216265839E+02 -0.72058022807E+02  0.18935985323E+02  0.95796288355E+02  0.00000000000E+00 0.  1.
         14    1    3    3    0    0  0.20924329472E+02  0.17796856453E+02  0.28030405176E+02  0.39246137107E+02  0.00000000000E+00 0. -1.
        -11    1    4    4    0    0 -0.11527895511E+03 -0.43559506129E+02 -0.12688850214E+02  0.12388573359E+03  0.00000000000E+00 0.  1.
         11    1    4    4    0    0 -0.90108371049E+02 -0.12012669785E+03 -0.75174836830E+02  0.16793212367E+03  0.00000000000E+00 0. -1.
         21    1    1    2  503  502  0.60025923162E+02  0.11317729483E+03 -0.12392135957E+03  0.17823780428E+03  0.00000000000E+00 0. -1.
          1    1    1    2  501    0  0.64220807690E+02  0.10477007550E+03  0.38757724846E+03  0.40659218437E+03  0.00000000000E+00 0. -1.
<scales pt_clust_5="13000.00000" pt_clust_6="13000.00000" pt_clust_7="13000.00000" pt_clust_8="13000.00000" pt_clust_9="184.30542" pt_clust_10="122.88652"></scales>
<clustering>
<clus scale="   80.638">  5  6 -1 -1</clus>
<clus scale="   91.981">  7  8 -1 -1</clus>
<clus scale="  122.887">  2 10  1 -1</clus>
<clus scale="  126.964">  1  5  2 -1</clus>
<clus scale="  184.305">  1  9  2 -1</clus>
<clus scale="  122.887">  2  5  1 -1</clus>
</clustering>
</event>
<event>
10    4  0.3403565E-005  0.1839389E+03  0.7546771E-02  0.1192662E+00
          2   -1    0    0  502    0 -0.00000000000E+00  0.00000000000E+00  0.59732408694E+03  0.59732408694E+03  0.00000000000E+00 0. -1.
         21   -1    0    0  503  502  0.00000000000E+00 -0.00000000000E+00 -0.24878522838E+03  0.24878522838E+03  0.00000000000E+00 0.  1.
         23    2    1    2    0    0  0.32956042323E+02  0.66621620484E+00  0.18423257581E+03  0.20784281246E+03  0.90390531208E+02 0.  0.
         24    2    1    2    0    0  0.88807256336E+02  0.17971363609E+03  0.15731714296E+02  0.21737496475E+03  0.82587339771E+02 0.  0.
        -11    1    4    4    0    0  0.56441784423E+02  0.17229622997E+03  0.16633848434E+01  0.18131307934E+03  0.00000000000E+00 0.  1.
         12    1    4    4    0    0  0.32365471913E+02  0.74174061205E+01  0.14068329453E+02  0.36061885410E+02  0.00000000000E+00 0. -1.
        -13    1    3    3    0    0  0.43228697539E+02  0.33868411588E+02  0.14693604725E+03  0.15686297070E+03  0.00000000000E+00 0. -1.
         13    1    3    3    0    0 -0.10272655217E+02 -0.33202195383E+02  0.37296528554E+02  0.50979841758E+02  0.00000000000E+00 0.  1.
         21    1    1    2  503  501  0.49152618734E+01 -0.66621777608E+02 -0.99599937159E+02  0.11992818073E+03  0.00000000000E+00 0.  1.
          1    1    1    2  501    0 -0.12667856053E+03 -0.11375807469E+03  0.24817450561E+03  0.30096335739E+03  0.00000000000E+00 0. -1.
<scales pt_clust_5="13000.00000" pt_clust_6="13000.00000" pt_clust_7="13000.00000" pt_clust_8="13000.00000" pt_clust_9="66.80285" pt_clust_10="164.35590"></scales>
<clustering>
<clus scale="   66.803">  2  9  1 -1</clus>
<clus scale="   82.587">  5  6 -1 -1</clus>
<clus scale="   90.391">  7  8 -1 -1</clus>
<clus scale="   96.484">  1  7  2 -1</clus>
<clus scale="  164.356">  2 10  1 -1</clus>
<clus scale="   66.803">  2  5  1 -1</clus>
</clustering>
</event>
<event>
10    4  0.3403565E-005  0.2239379E+03  0.7546771E-02  0.1175244E+00
          2   -1    0    0  503    0 -0.00000000000E+00  0.00000000000E+00  0.73449039110E+03  0.73449039110E+03  0.00000000000E+00 0. -1.
         21   -1    0    0  501  502  0.00000000000E+00 -0.00000000000E+00 -0.12097206329E+03  0.12097206329E+03  0.00000000000E+00 0. -1.
         24    2    1    2    0    0 -0.29247169935E+02  0.19169701929E+02  0.11558465244E+03  0.14106014628E+03  0.72905957014E+02 0.  0.
         23    2    1    2    0    0 -0.94499806116E+02 -0.18014478996E+03  0.20071141103E+03  0.30044689983E+03  0.92741093339E+02 0.  0.
        -13    1    3    3    0    0  0.62593814387E+01 -0.21984309240E+02  0.55584581916E+02  0.60101043714E+02  0.00000000000E+00 0.  1.
         14    1    3    3    0    0 -0.35506551374E+02  0.41154011169E+02  0.60000070524E+02  0.80959102568E+02  0.00000000000E+00 0. -1.
        -13    1    4    4    0    0 -0.78095053739E+02 -0.14693938010E+03  0.10238964676E+03  0.19538080409E+03  0.00000000000E+00 0. -1.
         13    1    4    4    0    0 -0.16404752376E+02 -0.33205409856E+02  0.98321764273E+02  0.10506609574E+03  0.00000000000E+00 0.  1.
         21    1    1    2  503  502  0.86381251505E+02  0.18586715270E+03  0.13449367989E+03  0.24514662754E+03  0.00000000000E+00 0. -1.
          1    1    1    2  501    0  0.37365724545E+02 -0.24892064674E+02  0.16272858445E+03  0.16880878073E+03  0.00000000000E+00 0. -1.
<scales pt_clust_5="13000.00000" pt_clust_6="13000.00000" pt_clust_7="13000.00000" pt_clust_8="13000.00000" pt_clust_9="203.83148" pt_clust_10="44.89782"></scales>
<clustering>
<clus scale="   44.898">  2 10  1 -1</clus>
<clus scale="   72.906">  5  6 -1 -1</clus>
<clus scale="   78.883">  1  5  2 -1</clus>
<clus scale="   92.741">  7  8 -1 -1</clus>
<clus scale="  203.831">  2  9  1 -1</clus>
<clus scale="   44.898">  2  5  1 -1</clus>
</clustering>
</event>
<event>
10    4  0.3403565E-005  0.9546475E+02  0.7546771E-02  0.1293915E+00
         -1   -1    0    0    0  501 -0.00000000000E+00  0.00000000000E+00  0.33944945393E+03  0.33944945393E+03  0.00000000000E+00 0.  1.
         21   -1    0    0  503  502  0.00000000000E+00 -0.00000000000E+00 -0.13283405459E+03  0.13283405459E+03  0.00000000000E+00 0.  1.
         23    2    1    2    0    0 -0.70848400515E+00 -0.22351244105E+02  0.21093703999E+03  0.23067705747E+03  0.90649820405E+02 0.  0.
         24    2    1    2    0    0 -0.28669483442E+02  0.46368579344E+02  0.71075509862E+02  0.12264133174E+03  0.83768632068E+02 0.  0.
        -13    1    4    4    0    0  0.13945088364E+02  0.50405222832E+02  0.57519212465E+02  0.77740670056E+02  0.00000000000E+00 0.  1.
         14    1    4    4    0    0 -0.42614571806E+02 -0.40366434875E+01  0.13556297397E+02  0.44900661687E+02  0.00000000000E+00 0. -1.
        -11    1    3    3    0    0 -0.42087627272E+02 -0.28752436312E+02  0.10353672392E+03  0.11540331089E+03  0.00000000000E+00 0. -1.
         11    1    3    3    0    0  0.41379143266E+02  0.64011922068E+01  0.10740031607E+03  0.11527374658E+03  0.00000000000E+00 0.  1.
         21    1    1    2  503  501 -0.21050895928E+02  0.14205656961E+02 -0.37233652929E+02  0.45069788324E+02  0.00000000000E+00 0.  1.
         -2    1    1    2    0  502  0.50428863375E+02 -0.38222992200E+02 -0.38163497576E+02  0.73895330985E+02  0.00000000000E+00 0.  1.
<scales pt_clust_5="13000.00000" pt_clust_6="13000.00000" pt_clust_7="13000.00000" pt_clust_8="13000.00000" pt_clust_9="25.39569" pt_clust_10="47.78877"></scales>
<clustering>
<clus scale="   25.396">  2  9  1 -1</clus>
<clus scale="   47.789">  2 10  1 -1</clus>
<clus scale="   83.769">  5  6 -1 -1</clus>
<clus scale="   88.957">  2  5  1 -1</clus>
<clus scale="   90.650">  7  8 -1 -1</clus>
<clus scale="   25.396">  2  5  1 -1</clus>
</clustering>
</event>
<event>
10    4  0.3403565E-005  0.1590845E+03  0.7546771E-02  0.1203125E+00
         21   -1    0    0  503  502  0.00000000000E+00  0.00000000000E+00  0.14867876564E+03  0.14867876564E+03  0.00000000000E+00 0.  1.
         -1   -1    0    0    0  501 -0.00000000000E+00 -0.00000000000E+00 -0.57126446756E+03  0.57126446756E+03  0.00000000000E+00 0.  1.
         23    2    1    2    0    0  0.13026790044E+02 -0.82939368161E+02 -0.21981071243E+03  0.25308569274E+03  0.93203983408E+02 0.  0.
         24    2    1    2    0    0 -0.13855972442E+03 -0.32253197233E+02 -0.12322945964E+03  0.20417294399E+03  0.79132960083E+02 0.  0.
        -13    1    4    4    0    0 -0.14195465299E+03 -0.45434639679E+02 -0.11511100852E+03  0.18832412026E+03  0.00000000000E+00 0.  1.
         14    1    4    4    0    0  0.33949285758E+01  0.13181442446E+02 -0.81184511150E+01  0.15848823726E+02  0.00000000000E+00 0. -1.
        -11    1    3    3    0    0  0.42577497792E+02 -0.75704590306E+02 -0.11603213122E+03  0.14493958668E+03  0.00000000000E+00 0. -1.
         11    1    3    3    0    0 -0.29550707748E+02 -0.72347778551E+01 -0.10377858121E+03  0.10814610606E+03  0.00000000000E+00 0.  1.
         21    1    1    2  503  501  0.12104555576E+03  0.29676576374E+02  0.25443440700E+02  0.12720100011E+03  0.00000000000E+00 0.  1.
         -2    1    1    2    0  502  0.44873786121E+01  0.85515989020E+02 -0.10498897055E+03  0.13548359636E+03  0.00000000000E+00 0.  1.
<scales pt_clust_5="13000.00000" pt_clust_6="13000.00000" pt_clust_7="13000.00000" pt_clust_8="13000.00000" pt_clust_9="138.00670" pt_clust_10="85.63369"></scales>
<clustering>
<clus scale="   79.133">  5  6 -1 -1</clus>
<clus scale="   85.634">  1 10  2 -1</clus>
<clus scale="   93.204">  7  8 -1 -1</clus>
<clus scale="  118.724">  2  7  1 -1</clus>
<clus scale="  138.007">  1  9  2 -1</clus>
<clus scale="   85.634">  1  5  2 -1</clus>
</clustering>
</event>
<event>
10    4  0.3403565E-005  0.4454900E+03  0.7546771E-02  0.1074804E+00
          2   -1    0    0  502    0 -0.00000000000E+00  0.00000000000E+00  0.29360034733E+04  0.29360034733E+04  0.00000000000E+00 0. -1.
         21   -1    0    0  503  502  0.00000000000E+00 -0.00000000000E+00 -0.14423152132E+03  0.14423152132E+03  0.00000000000E+00 0. -1.
         23    2    1    2    0    0  0.56641030021E+02 -0.52989701226E+02  0.23044568068E+03  0.25918077238E+03  0.89740438520E+02 0.  0.
         24    2    1    2    0    0 -0.51356160635E+02  0.48688279385E+03  0.17007583534E+04  0.17715304359E+04  0.77774021661E+02 0.  0.
        -13    1    4    4    0    0 -0.38152353831E+01  0.12222819131E+03  0.31784777607E+03  0.34056056073E+03  0.00000000000E+00 0.  1.
         14    1    4    4    0    0 -0.47540925252E+02  0.36465460255E+03  0.13829105774E+04  0.14309698752E+04  0.00000000000E+00 0. -1.
        -11    1    3    3    0    0  0.22246033716E+02 -0.38271823427E+02  0.21362199526E+03  0.21816043487E+03  0.00000000000E+00 0.  1.
         11    1    3    3    0    0  0.34394996305E+02 -0.14717877798E+02  0.16823685424E+02  0.41020337504E+02  0.00000000000E+00 0. -1.
         21    1    1    2  503  501  0.49788099099E+01 -0.32851216475E+02 -0.46818143709E+02  0.57410186835E+02  0.00000000000E+00 0. -1.
          1    1    1    2  501    0 -0.10263679296E+02 -0.40104187615E+03  0.90738606156E+03  0.99211359947E+03  0.00000000000E+00 0. -1.
<scales pt_clust_5="13000.00000" pt_clust_6="13000.00000" pt_clust_7="13000.00000" pt_clust_8="13000.00000" pt_clust_9="33.22636" pt_clust_10="438.64850"></scales>
<clustering>
<clus scale="   33.226">  2  9  1 -1</clus>
<clus scale="   77.774">  5  6 -1 -1</clus>
<clus scale="   89.740">  7  8 -1 -1</clus>
<clus scale="  121.356">  1  7  2 -1</clus>
<clus scale="  438.649">  2 10  1 -1</clus>
<clus scale="   33.226">  2  5  1 -1</clus>
</clustering>
</event>
<event>
10    4  0.3403565E-005  0.4000309E+03  0.7546771E-02  0.1088229E+00
          2   -1    0    0  503    0 -0.00000000000E+00  0.00000000000E+00  0.74485655751E+03  0.74485655751E+03  0.00000000000E+00 0. -1.
         21   -1    0    0  501  502  0.00000000000E+00 -0.00000000000E+00 -0.30028715467E+03  0.30028715467E+03  0.00000000000E+00 0. -1.
         24    2    1    2    0    0 -0.41191933659E+02  0.78956865405E+02  0.56817928668E+02  0.13043092133E+03  0.76504811793E+02 0.  0.
         23    2    1    2    0    0  0.17196657424E+03  0.30899690614E+03  0.21193288738E+03  0.42212704523E+03  0.90686839706E+02 0.  0.
        -11    1    3    3    0    0 -0.38743344667E+02  0.31593294278E+02  0.65312840699E+02  0.82249317077E+02  0.00000000000E+00 0.  1.
         12    1    3    3    0    0 -0.24485889916E+01  0.47363571127E+02 -0.84949120308E+01  0.48181604253E+02  0.00000000000E+00 0. -1.
        -11    1    4    4    0    0  0.10381118659E+03  0.22564210721E+03  0.18882620636E+03  0.31200394103E+03  0.00000000000E+00 0. -1.
         11    1    4    4    0    0  0.68155387648E+02  0.83354798933E+02  0.23106681021E+02  0.11012310420E+03  0.00000000000E+00 0.  1.
         21    1    1    2  503  502  0.29487645391E+02  0.84046372552E+01  0.95956732985E+00  0.30677026055E+02  0.00000000000E+00 0. -1.
          1    1    1    2  501    0 -0.16026228597E+03 -0.39635840880E+03  0.17485901946E+03  0.46190871957E+03  0.00000000000E+00 0. -1.
<scales pt_clust_5="13000.00000" pt_clust_6="13000.00000" pt_clust_7="13000.00000" pt_clust_8="13000.00000" pt_clust_9="30.66201" pt_clust_10="389.61598"></scales>
<clustering>
<clus scale="   30.662">  2  9  1 -1</clus>
<clus scale="   76.505">  5  6 -1 -1</clus>
<clus scale="   90.687">  7  8 -1 -1</clus>
<clus scale="  116.865">  1  5  2 -1</clus>
<clus scale="  389.616">  2 10  1 -1</clus>
<clus scale="   30.662">  2  5  1 -1</clus>
</clustering>
</event>
<event>
10    4  0.3403565E-005  0.1323928E+03  0.7546771E-02  0.1246608E+00
          2   -1    0    0  503    0 -0.00000000000E+00  0.00000000000E+00  0.16811515957E+03  0.16811515957E+03  0.00000000000E+00 0. -1.
         21   -1    0    0  501  502  0.00000000000E+00 -0.00000000000E+00 -0.27114575298E+03  0.27114575298E+03  0.00000000000E+00 0.  1.
         24    2    1    2    0    0 -0.21266958532E+02 -0.33719225946E+01  0.35131283898E+02  0.90149987175E+02  0.80182040957E+02 0.  0.
         23    2    1    2    0    0 -0.80921410677E+02 -0.48800911704E+02 -0.67384969157E+02  0.14495214868E+03  0.86836557102E+02 0.  0.
        -11    1    3    3    0    0  0.98373757071E-01  0.36612460585E+02  0.85515878879E+01  0.37598026583E+02  0.00000000000E+00 0.  1.
         12    1    3    3    0    0 -0.21365332289E+02 -0.39984383180E+02  0.26579696010E+02  0.52551960592E+02  0.00000000000E+00 0. -1.
        -11    1    4    4    0    0  0.30628602739E+01 -0.25803312920E+02 -0.49722538386E+02  0.56102788649E+02  0.00000000000E+00 0.  1.
         11    1    4    4    0    0 -0.83984270951E+02 -0.22997598784E+02 -0.17662430771E+02  0.88849360030E+02  0.00000000000E+00 0. -1.
         21    1    1    2  503  502 -0.75997314732E+01  0.24391693630E+02 -0.86162099919E+02  0.89870006671E+02  0.00000000000E+00 0. -1.
          1    1    1    2  501    0  0.10978810068E+03  0.27781140668E+02  0.15385191772E+02  0.11428877003E+03  0.00000000000E+00 0. -1.
<scales pt_clust_5="13000.00000" pt_clust_6="13000.00000" pt_clust_7="13000.00000" pt_clust_8="13000.00000" pt_clust_9="25.54820" pt_clust_10="99.93638"></scales>
<clustering>
<clus scale="   25.548">  2  9  1 -1</clus>
<clus scale="   80.182">  5  6 -1 -1</clus>
<clus scale="   83.255">  1  5  2 -1</clus>
<clus scale="   86.837">  7  8 -1 -1</clus>
<clus scale="   99.936">  2 10  1 -1</clus>
<clus scale="   25.548">  2  5  1 -1</clus>
</clustering>
</event>
<event>
10    4  0.3403565E-005  0.3235534E+03  0.7546771E-02  0.1074338E+00
         21   -1    0    0  503  502  0.00000000000E+00  0.00000000000E+00  0.10004119870E+03  0.10004119870E+03  0.00000000000E+00 0. -1.
          2   -1    0    0  502    0 -0.00000000000E+00 -0.00000000000E+00 -0.19858985877E+04  0.19858985877E+04  0.00000000000E+00 0. -1.
         24    2    1    2    0    0 -0.26308581466E+03 -0.26800594217E+03 -0.12228286284E+04  0.12817308054E+04  0.80515043786E+02 0.  0.
         23    2    1    2    0    0  0.10801266283E+03  0.18141242990E+03 -0.23364801109E+03  0.32774896147E+03  0.90833824148E+02 0.  0.
        -11    1    3    3    0    0 -0.59768222458E+02 -0.11046879737E+03 -0.45171534860E+03  0.46885216408E+03  0.00000000000E+00 0.  1.
         12    1    3    3    0    0 -0.20331759220E+03 -0.15753714480E+03 -0.77111327976E+03  0.81287864132E+03  0.00000000000E+00 0. -1.
        -11    1    4    4    0    0  0.73550913621E+02  0.39109201685E+02 -0.89948431852E+02  0.12259684720E+03  0.00000000000E+00 0.  1.
         11    1    4    4    0    0  0.34461749208E+02  0.14230322821E+03 -0.14369957924E+03  0.20515211427E+03  0.00000000000E+00 0. -1.
         21    1    1    2  503  501  0.27219841727E+02  0.74294769158E+01 -0.84183261353E+01  0.29444611151E+02  0.00000000000E+00 0. -1.
          1    1    1    2  501    0  0.12785331010E+03  0.79164035357E+02 -0.42096242340E+03  0.44701540836E+03  0.00000000000E+00 0. -1.
<scales pt_clust_5="13000.00000" pt_clust_6="13000.00000" pt_clust_7="13000.00000" pt_clust_8="13000.00000" pt_clust_9="28.21554" pt_clust_10="154.31844"></scales>
<clustering>
<clus scale="   28.216">  1  9  2 -1</clus>
<clus scale="   80.515">  5  6 -1 -1</clus>
<clus scale="   90.834">  7  8 -1 -1</clus>
<clus scale="  154.318">  1 10  2 -1</clus>
<clus scale="  320.809">  2  5  1 -1</clus>
<clus scale="   28.216">  1  5  2 -1</clus>
</clustering>
</event>
<event>
10    4  0.3403565E-005  0.2260713E+03  0.7546771E-02  0.1130081E+00
          2   -1    0    0  503    0 -0.00000000000E+00  0.00000000000E+00  0.40354818068E+03  0.40354818068E+03  0.00000000000E+00 0. -1.
         21   -1    0    0  501  502  0.00000000000E+00 -0.00000000000E+00 -0.27447772287E+03  0.27447772287E+03  0.00000000000E+00 0. -1.
         24    2    1    2    0    0 -0.19888176080E+02  0.20767411810E+03  0.51266880951E+02  0.22981488634E+03  0.81624199997E+02 0.  0.
         23    2    1    2    0    0  0.78320821422E+02 -0.19453442889E+03 -0.55901570941E+02  0.23528636452E+03  0.90867445243E+02 0.  0.
        -11    1    3    3    0    0  0.22090844201E+02  0.18676635142E+02 -0.20608929135E+01  0.29001196137E+02  0.00000000000E+00 0.  1.
         12    1    3    3    0    0 -0.41979020281E+02  0.18899748296E+03  0.53327773864E+02  0.20081369020E+03  0.00000000000E+00 0. -1.
        -13    1    4    4    0    0  0.88105461693E+02 -0.10374128772E+03 -0.21972519969E+02  0.13786812102E+03  0.00000000000E+00 0. -1.
         13    1    4    4    0    0 -0.97846402709E+01 -0.90793141168E+02 -0.33929050972E+02  0.97418243508E+02  0.00000000000E+00 0.  1.
         21    1    1    2  503  502 -0.39894861408E+02  0.48449898887E+02 -0.19523636778E+01  0.62791754178E+02  0.00000000000E+00 0. -1.
          1    1    1    2  501    0 -0.18537783935E+02 -0.61589588095E+02  0.13565751148E+03  0.15013289851E+03  0.00000000000E+00 0. -1.
<scales pt_clust_5="13000.00000" pt_clust_6="13000.00000" pt_clust_7="13000.00000" pt_clust_8="13000.00000" pt_clust_9="62.76139" pt_clust_10="63.29500"></scales>
<clustering>
<clus scale="   62.761">  2  9  1 -1</clus>
<clus scale="   63.295">  2 10  1 -1</clus>
<clus scale="   81.624">  5  6 -1 -1</clus>
<clus scale="   90.867">  7  8 -1 -1</clus>
<clus scale="  222.517">  1  5  2 -1</clus>
<clus scale="   62.761">  2  5  1 -1</clus>
</clustering>
</event>
<event>
10    4  0.3403565E-005  0.3383688E+03  0.7546771E-02  0.1113434E+00
         21   -1    0    0  501  502  0.00000000000E+00  0.00000000000E+00  0.41957261216E+03  0.41957261216E+03  0.00000000000E+00 0. -1.
          2   -1    0    0  503    0 -0.00000000000E+00 -0.00000000000E+00 -0.39061838827E+03  0.39061838827E+03  0.00000000000E+00 0. -1.
         23    2    1    2    0    0 -0.16670112738E+02 -0.36772694957E+02 -0.31820663574E+02  0.10597535711E+03  0.92671991084E+02 0.  0.
         24    2    1    2    0    0  0.10551431914E+03 -0.30389196796E+03  0.17247612261E+02  0.33421939344E+03  0.89002938644E+02 0.  0.
        -11    1    4    4    0    0 -0.13462955793E+02 -0.32886273986E+02  0.14099350007E+02  0.38230221893E+02  0.00000000000E+00 0.  1.
         12    1    4    4    0    0  0.11897727493E+03 -0.27100569397E+03  0.31482622535E+01  0.29598917154E+03  0.00000000000E+00 0. -1.
        -13    1    3    3    0    0 -0.45830156331E+02 -0.31395686537E+01  0.75435602231E+01  0.46552823991E+02  0.00000000000E+00 0.  1.
         13    1    3    3    0    0  0.29160043593E+02 -0.33633126304E+02 -0.39364223797E+02  0.59422533120E+02  0.00000000000E+00 0. -1.
         21    1    1    2  503  502 -0.16177305875E+02  0.17209516123E+02 -0.21755974641E+02  0.32112226693E+02  0.00000000000E+00 0.  1.
          1    1    1    2  501    0 -0.72666900528E+02  0.32345514679E+03  0.65283249851E+02  0.33788402319E+03  0.00000000000E+00 0. -1.
<scales pt_clust_5="13000.00000" pt_clust_6="13000.00000" pt_clust_7="13000.00000" pt_clust_8="13000.00000" pt_clust_9="23.61933" pt_clust_10="326.45351"></scales>
<clustering>
<clus scale="   23.619">  2  9  1 -1</clus>
<clus scale="   89.003">  5  6 -1 -1</clus>
<clus scale="   92.672">  7  8 -1 -1</clus>
<clus scale="  100.502">  2  7  1 -1</clus>
<clus scale="  326.454">  1 10  2 -1</clus>
<clus scale="  326.454">  1  5  2 -1</clus>
</clustering>
</event>
<event>
10    4  0.3403565E-005  0.9303109E+02  0.7546771E-02  0.1303264E+00
         21   -1    0    0  501  502  0.00000000000E+00  0.00000000000E+00  0.14415573913E+03  0.14415573913E+03  0.00000000000E+00 0. -1.
          2   -1    0    0  503    0 -0.00000000000E+00 -0.00000000000E+00 -0.59798943812E+03  0.59798943812E+03  0.00000000000E+00 0. -1.
         23    2    1    2    0    0 -0.69400761924E+01 -0.88789718056E+01 -0.46487535604E+03  0.47400394249E+03  0.91889281455E+02 0.  0.
         24    2    1    2    0    0  0.17599870974E+02  0.20560371002E+02 -0.83260504391E+02  0.11829658663E+03  0.79556813048E+02 0.  0.
        -13    1    4    4    0    0  0.29494991629E+02  0.15322540267E+02  0.79015519315E+00  0.33246941463E+02  0.00000000000E+00 0.  1.
         14    1    4    4    0    0 -0.11895120655E+02  0.52378307354E+01 -0.84050659584E+02  0.85049645165E+02  0.00000000000E+00 0. -1.
        -13    1    3    3    0    0  0.30545314394E+02 -0.35326516003E+02 -0.23366356257E+03  0.23828478642E+03  0.00000000000E+00 0. -1.
         13    1    3    3    0    0 -0.37485390586E+02  0.26447544198E+02 -0.23121179347E+03  0.23571915608E+03  0.00000000000E+00 0.  1.
         21    1    1    2  503  502 -0.58701753327E+01  0.34601586951E+02  0.97082510096E+02  0.10323149977E+03  0.00000000000E+00 0. -1.
          1    1    1    2  501    0 -0.47896194487E+01 -0.46282986147E+02 -0.27803486558E+01  0.46613148358E+02  0.00000000000E+00 0. -1.
<scales pt_clust_5="13000.00000" pt_clust_6="13000.00000" pt_clust_7="13000.00000" pt_clust_8="13000.00000" pt_clust_9="35.09599" pt_clust_10="30.05418"></scales>
<clustering>
<clus scale="   35.096">  1  9  2 -1</clus>
<clus scale="   30.054">  1 10  2 -1</clus>
<clus scale="   79.557">  5  6 -1 -1</clus>
<clus scale="   80.873">  1  5  2 -1</clus>
<clus scale="   91.889">  7  8 -1 -1</clus>
<clus scale="   35.096">  1  5  2 -1</clus>
</clustering>
</event>
<event>
10    4  0.3403565E-005  0.1199935E+03  0.7546771E-02  0.1246750E+00
          4   -1    0    0  502    0 -0.00000000000E+00  0.00000000000E+00  0.22280796459E+03  0.22280796459E+03  0.00000000000E+00 0. -1.
         21   -1    0    0  503  502  0.00000000000E+00 -0.00000000000E+00 -0.31737210596E+03  0.31737210596E+03  0.00000000000E+00 0.  1.
         23    2    1    2    0    0  0.57376969616E+02  0.70299396332E+02  0.10786730364E+03  0.16791522556E+03  0.91247169888E+02 0.  0.
         24    2    1    2    0    0 -0.31393990810E+02 -0.53530981397E+02  0.28372046634E+02  0.10496244258E+03  0.79755831727E+02 0.  0.
        -13    1    4    4    0    0  0.12495854986E+02 -0.55683777211E+02  0.17561342842E+02  0.59709548639E+02  0.00000000000E+00 0.  1.
         14    1    4    4    0    0 -0.43889845796E+02  0.21527958142E+01  0.10810703792E+02  0.45252893943E+02  0.00000000000E+00 0. -1.
        -13    1    3    3    0    0  0.51713065770E+01  0.60973437608E+02  0.18378132435E+02  0.63892552440E+02  0.00000000000E+00 0.  1.
         13    1    3    3    0    0  0.52205663039E+02  0.93259587239E+01  0.89489171209E+02  0.10402267312E+03  0.00000000000E+00 0. -1.
         21    1    1    2  503  501  0.45615481992E+02 -0.23342951665E+02 -0.15305317471E+03  0.16140303553E+03  0.00000000000E+00 0.  1.
          3    1    1    2  501    0 -0.71598460799E+02  0.65745367297E+01 -0.77750316941E+02  0.10589936688E+03  0.00000000000E+00 0. -1.
<scales pt_clust_5="13000.00000" pt_clust_6="13000.00000" pt_clust_7="13000.00000" pt_clust_8="13000.00000" pt_clust_9="51.24125" pt_clust_10="45.95048"></scales>
<clustering>
<clus scale="   51.241">  2  9  1 -1</clus>
<clus scale="   45.950">  2 10  1 -1</clus>
<clus scale="   79.756">  5  6 -1 -1</clus>
<clus scale="   91.247">  7  8 -1 -1</clus>
<clus scale="  111.505">  2  5  1 -1</clus>
<clus scale="   51.241">  2  5  1 -1</clus>
</clustering>
</event>
<event>
10    4  0.3403565E-005  0.1162128E+03  0.7546771E-02  0.1261865E+00
         21   -1    0    0  503  502  0.00000000000E+00  0.00000000000E+00  0.27034016773E+03  0.27034016773E+03  0.00000000000E+00 0. -1.
          2   -1    0    0  502    0 -0.00000000000E+00 -0.00000000000E+00 -0.14589206427E+03  0.14589206427E+03  0.00000000000E+00 0. -1.
         24    2    1    2    0    0 -0.27704836039E+02 -0.32766264689E+02 -0.74458036246E+02  0.11816891893E+03  0.81109236199E+02 0.  0.
         23    2    1    2    0    0 -0.21679160519E+02 -0.54595268212E+02  0.87265899496E+02  0.13933799806E+03  0.91373470851E+02 0.  0.
        -11    1    3    3    0    0  0.12430015639E+02 -0.32128626775E+02 -0.69699218753E+02  0.77747894133E+02  0.00000000000E+00 0.  1.
         12    1    3    3    0    0 -0.40134851679E+02 -0.63763791352E+00 -0.47588174926E+01  0.40421024793E+02  0.00000000000E+00 0. -1.
        -11    1    4    4    0    0 -0.43729058753E+02 -0.45368361622E+02  0.17214939926E+02  0.65321305654E+02  0.00000000000E+00 0.  1.
         11    1    4    4    0    0  0.22049898235E+02 -0.92269065902E+01  0.70050959570E+02  0.74016692402E+02  0.00000000000E+00 0. -1.
         21    1    1    2  503  501  0.19473819689E+02  0.71567642069E+01  0.47270318591E+02  0.51622978865E+02  0.00000000000E+00 0. -1.
          1    1    1    2  501    0  0.29910176869E+02  0.80204768694E+02  0.64369921619E+02  0.10710233616E+03  0.00000000000E+00 0. -1.
<scales pt_clust_5="13000.00000" pt_clust_6="13000.00000" pt_clust_7="13000.00000" pt_clust_8="13000.00000" pt_clust_9="20.74726" pt_clust_10="71.80748"></scales>
<clustering>
<clus scale="   20.747">  1  9  2 -1</clus>
<clus scale="   81.109">  5  6 -1 -1</clus>
<clus scale="   90.945">  2  5  1 -1</clus>
<clus scale="   71.807">  1 10  2 -1</clus>
<clus scale="   91.373">  7  8 -1 -1</clus>
<clus scale="   20.747">  1  5  2 -1</clus>
</clustering>
</event>
<event>
10    4  0.3403565E-005  0.1339184E+03  0.7546771E-02  0.1223330E+00
         21   -1    0    0  503  502  0.00000000000E+00  0.00000000000E+00  0.35045096937E+02  0.35045096937E+02  0.00000000000E+00 0. -1.
          2   -1    0    0  502    0 -0.00000000000E+00 -0.00000000000E+00 -0.13758840757E+04  0.13758840757E+04  0.00000000000E+00 0. -1.
         24    2    1    2    0    0  0.37566712690E+02  0.74151590312E+02 -0.53688076501E+03  0.54979303085E+03  0.84390193042E+02 0.  0.
         23    2    1    2    0    0  0.38102629069E+02 -0.14932597094E+03 -0.53672952514E+03  0.56576819783E+03  0.90912125620E+02 0.  0.
        -11    1    3    3    0    0  0.49671913609E+02  0.87290288871E+02 -0.46541290399E+03  0.47612610171E+03  0.00000000000E+00 0.  1.
         12    1    3    3    0    0 -0.12105200918E+02 -0.13138698559E+02 -0.71467861022E+02  0.73666929135E+02  0.00000000000E+00 0. -1.
        -11    1    4    4    0    0  0.51153644478E+01 -0.21054404187E+02 -0.12388896620E+02  0.24958758955E+02  0.00000000000E+00 0.  1.
         11    1    4    4    0    0  0.32987264621E+02 -0.12827156675E+03 -0.52434062852E+03  0.54080943888E+03  0.00000000000E+00 0. -1.
         21    1    1    2  503  501 -0.27004683988E+02  0.12023735097E+02 -0.20227492832E+02  0.35818635223E+02  0.00000000000E+00 0.  1.
          1    1    1    2  501    0 -0.48664657771E+02  0.63150645532E+02 -0.24700119580E+03  0.25954930875E+03  0.00000000000E+00 0. -1.
<scales pt_clust_5="13000.00000" pt_clust_6="13000.00000" pt_clust_7="13000.00000" pt_clust_8="13000.00000" pt_clust_9="29.56050" pt_clust_10="85.77524"></scales>
<clustering>
<clus scale="   29.561">  1  9  2 -1</clus>
<clus scale="   84.390">  5  6 -1 -1</clus>
<clus scale="   85.775">  1 10  2 -1</clus>
<clus scale="   90.912">  7  8 -1 -1</clus>
<clus scale="  129.579">  2  5  1 -1</clus>
<clus scale="   29.561">  1  5  2 -1</clus>
</clustering>
</event>
<event>
10    4  0.3403565E-005  0.3783568E+03  0.7546771E-02  0.1096522E+00
         21   -1    0    0  501  502  0.00000000000E+00  0.00000000000E+00  0.74909354761E+02  0.74909354761E+02  0.00000000000E+00 0. -1.
          2   -1    0    0  503    0 -0.00000000000E+00 -0.00000000000E+00 -0.36370681824E+04  0.36370681824E+04  0.00000000000E+00 0. -1.
         24    2    1    2    0    0  0.18261254660E+02  0.78870929608E+02 -0.66884821698E+03  0.67848888802E+03  0.80219304747E+02 0.  0.
         23    2    1    2    0    0 -0.35784644491E+03 -0.13408538133E+03 -0.77401104263E+03  0.86788767340E+03  0.90016398013E+02 0.  0.
        -11    1    3    3    0    0  0.29717653402E+02  0.57640718915E+02 -0.22971322016E+03  0.23869175712E+03  0.00000000000E+00 0.  1.
         12    1    3    3    0    0 -0.11456398742E+02  0.21230210693E+02 -0.43913499682E+03  0.43979713090E+03  0.00000000000E+00 0. -1.
        -11    1    4    4    0    0 -0.27457436317E+03 -0.66567922114E+02 -0.60541540039E+03  0.66809443658E+03  0.00000000000E+00 0. -1.
         11    1    4    4    0    0 -0.83272081736E+02 -0.67517459221E+02 -0.16859564224E+03  0.19979323682E+03  0.00000000000E+00 0.  1.
         21    1    1    2  503  502  0.27573479519E+02 -0.65764701351E+02 -0.12930887888E+03  0.14766881483E+03  0.00000000000E+00 0. -1.
          1    1    1    2  501    0  0.31201171073E+03  0.12097915308E+03 -0.19899906891E+04  0.20179321609E+04  0.00000000000E+00 0. -1.
<scales pt_clust_5="13000.00000" pt_clust_6="13000.00000" pt_clust_7="13000.00000" pt_clust_8="13000.00000" pt_clust_9="71.31124" pt_clust_10="367.49297"></scales>
<clustering>
<clus scale="   71.311">  1  9  2 -1</clus>
<clus scale="   80.219">  5  6 -1 -1</clus>
<clus scale="   90.016">  7  8 -1 -1</clus>
<clus scale="  111.039">  2  5  1 -1</clus>
<clus scale="  367.493">  1 10  2 -1</clus>
<clus scale="   71.311">  1  5  2 -1</clus>
</clustering>
</event>
<event>
10    4  0.3403565E-005  0.1862123E+03  0.7546771E-02  0.1195962E+00
          2   -1    0    0  503    0 -0.00000000000E+00  0.00000000000E+00  0.81827171843E+03  0.81827171843E+03  0.00000000000E+00 0. -1.
         21   -1    0    0  501  502  0.00000000000E+00 -0.00000000000E+00 -0.10726552411E+03  0.10726552411E+03  0.00000000000E+00 0. -1.
         24    2    1    2    0    0  0.20489647944E+02 -0.22933667076E+02  0.14104666079E+03  0.16545835490E+03  0.80848796690E+02 0.  0.
         23    2    1    2    0    0  0.47371753411E+02 -0.15907588454E+03  0.37463635088E+03  0.42033455497E+03  0.93699106916E+02 0.  0.
        -13    1    3    3    0    0  0.56747977231E+01 -0.31144535832E+02  0.14470696431E+03  0.14812930487E+03  0.00000000000E+00 0.  1.
         14    1    3    3    0    0  0.14814850221E+02  0.82108687559E+01 -0.36603035230E+01  0.17329050022E+02  0.00000000000E+00 0. -1.
        -11    1    4    4    0    0 -0.18825478034E+02 -0.85617870570E+02  0.21956231707E+03  0.23641579782E+03  0.00000000000E+00 0.  1.
         11    1    4    4    0    0  0.66197231445E+02 -0.73458013966E+02  0.15507403381E+03  0.18391875714E+03  0.00000000000E+00 0. -1.
         21    1    1    2  503  502 -0.10366136195E+03  0.91689020912E+02  0.20727018479E+02  0.13993628483E+03  0.00000000000E+00 0. -1.
          1    1    1    2  501    0  0.35799960594E+02  0.90320530701E+02  0.17459616417E+03  0.19980804785E+03  0.00000000000E+00 0. -1.
<scales pt_clust_5="13000.00000" pt_clust_6="13000.00000" pt_clust_7="13000.00000" pt_clust_8="13000.00000" pt_clust_9="160.92073" pt_clust_10="93.60118"></scales>
<clustering>
<clus scale="   80.849">  5  6 -1 -1</clus>
<clus scale="   86.500">  1  5  2 -1</clus>
<clus scale="   93.601">  2 10  1 -1</clus>
<clus scale="   93.699">  7  8 -1 -1</clus>
<clus scale="  160.921">  2  9  1 -1</clus>
<clus scale="   93.601">  2  5  1 -1</clus>
</clustering>
</event>
<event>
10    4  0.3403565E-005  0.1086817E+03  0.7546771E-02  0.1266149E+00
         21   -1    0    0  501  502  0.00000000000E+00  0.00000000000E+00  0.40520418698E+02  0.40520418698E+02  0.00000000000E+00 0. -1.
          4   -1    0    0  503    0 -0.00000000000E+00 -0.00000000000E+00 -0.87299247839E+03  0.87299247839E+03  0.00000000000E+00 0. -1.
         24    2    1    2    0    0 -0.57971485667E+02  0.87440823617E+01 -0.38897973425E+03  0.40207666271E+03  0.83206110999E+02 0.  0.
         23    2    1    2    0    0  0.57440255365E+02  0.57377029872E+02 -0.28499068536E+03  0.30997993064E+03  0.90974502817E+02 0.  0.
        -11    1    3    3    0    0 -0.17377282040E+02 -0.27014548989E+02 -0.54588025669E+02  0.63337258660E+02  0.00000000000E+00 0.  1.
         12    1    3    3    0    0 -0.40594203627E+02  0.35758631351E+02 -0.33439170858E+03  0.33873940405E+03  0.00000000000E+00 0. -1.
        -11    1    4    4    0    0  0.69095237055E+02  0.27896361301E+02 -0.25735164002E+03  0.26792205094E+03  0.00000000000E+00 0.  1.
         11    1    4    4    0    0 -0.11654981690E+02  0.29480668571E+02 -0.27639045341E+02  0.42057879701E+02  0.00000000000E+00 0. -1.
         21    1    1    2  503  502  0.41035071211E+01 -0.25091033007E+02  0.10501042852E+02  0.27507646374E+02  0.00000000000E+00 0. -1.
          3    1    1    2  501    0 -0.35722768193E+01 -0.41030079226E+02 -0.16900268293E+03  0.17394865737E+03  0.00000000000E+00 0. -1.
<scales pt_clust_5="13000.00000" pt_clust_6="13000.00000" pt_clust_7="13000.00000" pt_clust_8="13000.00000" pt_clust_9="25.42437" pt_clust_10="44.02331"></scales>
<clustering>
<clus scale="   25.424">  1  9  2 -1</clus>
<clus scale="   44.023">  1 10  2 -1</clus>
<clus scale="   83.206">  5  6 -1 -1</clus>
<clus scale="   90.975">  7  8 -1 -1</clus>
<clus scale="  102.267">  2  5  1 -1</clus>
<clus scale="   25.424">  1  5  2 -1</clus>
</clustering>
</event>
<event>
10    4  0.3403565E-005  0.1872679E+03  0.7546771E-02  0.1161936E+00
         -3   -1    0    0    0  501 -0.00000000000E+00  0.00000000000E+00  0.63542838481E+03  0.63542838481E+03  0.00000000000E+00 0.  1.
         21   -1    0    0  503  502  0.00000000000E+00 -0.00000000000E+00 -0.28358921336E+03  0.28358921336E+03  0.00000000000E+00 0.  1.
         24    2    1    2    0    0  0.13020292660E+03 -0.11280996267E+03  0.47706775881E+03  0.51363839540E+03  0.80943591210E+02 0.  0.
         23    2    1    2    0    0 -0.23476416072E+02  0.73924163828E+02 -0.20365978428E+03  0.23583129980E+03  0.90128630973E+02 0.  0.
        -11    1    3    3    0    0  0.12681738482E+03 -0.70559036205E+02  0.32820829212E+03  0.35886196468E+03  0.00000000000E+00 0.  1.
         12    1    3    3    0    0  0.33855417816E+01 -0.42250926464E+02  0.14885946669E+03  0.15477643071E+03  0.00000000000E+00 0. -1.
        -13    1    4    4    0    0  0.29793955695E+02  0.50629246096E+02 -0.80687769396E+02  0.99807396952E+02  0.00000000000E+00 0.  1.
         13    1    4    4    0    0 -0.53270371766E+02  0.23294917732E+02 -0.12297201488E+03  0.13602390284E+03  0.00000000000E+00 0. -1.
         21    1    1    2  503  501 -0.39917446126E+02 -0.55751250866E+01 -0.17957728564E+02  0.44124421131E+02  0.00000000000E+00 0.  1.
         -4    1    1    2    0  502 -0.66809064407E+02  0.44460923928E+02  0.96388925484E+02  0.12542348185E+03  0.00000000000E+00 0.  1.
<scales pt_clust_5="13000.00000" pt_clust_6="13000.00000" pt_clust_7="13000.00000" pt_clust_8="13000.00000" pt_clust_9="40.30489" pt_clust_10="81.99817"></scales>
<clustering>
<clus scale="   40.305">  2  9  1 -1</clus>
<clus scale="   80.944">  5  6 -1 -1</clus>
<clus scale="   81.998">  2 10  1 -1</clus>
<clus scale="   90.129">  7  8 -1 -1</clus>
<clus scale="  183.024">  1  5  2 -1</clus>
<clus scale="   40.305">  2  5  1 -1</clus>
</clustering>
</event>
<event>
10    4  0.3403565E-005  0.1232165E+03  0.7546771E-02  0.1240073E+00
          4   -1    0    0  503    0 -0.00000000000E+00  0.00000000000E+00  0.38417435639E+03  0.38417435639E+03  0.00000000000E+00 0. -1.
         21   -1    0    0  501  502  0.00000000000E+00 -0.00000000000E+00 -0.10986629047E+03  0.10986629047E+03  0.00000000000E+00 0. -1.
         23    2    1    2    0    0 -0.58952770152E+02  0.66570258897E+02  0.26428734684E+03  0.29211796001E+03  0.87052124539E+02 0.  0.
         24    2    1    2    0    0  0.71456139839E+02 -0.44226453581E+02  0.20744300400E+02  0.11737061074E+03  0.79269004973E+02 0.  0.
        -11    1    4    4    0    0  0.54254109597E+02  0.35704438816E+00  0.38353226493E+02  0.66442500489E+02  0.00000000000E+00 0.  1.
         12    1    4    4    0    0  0.17202030242E+02 -0.44583497969E+02 -0.17608926093E+02  0.50928110251E+02  0.00000000000E+00 0. -1.
        -13    1    3    3    0    0 -0.18484156674E+02 -0.15938541536E+02  0.10879224185E+03  0.11149642614E+03  0.00000000000E+00 0. -1.
         13    1    3    3    0    0 -0.40468613478E+02  0.82508800433E+02  0.15549510498E+03  0.18062153387E+03  0.00000000000E+00 0.  1.
         21    1    1    2  503  502 -0.41571123614E+02 -0.60965960928E+01 -0.24361267446E+02  0.48567459827E+02  0.00000000000E+00 0. -1.
          3    1    1    2  501    0  0.29067753927E+02 -0.16247209224E+02  0.13637686125E+02  0.35984616279E+02  0.00000000000E+00 0. -1.
<scales pt_clust_5="13000.00000" pt_clust_6="13000.00000" pt_clust_7="13000.00000" pt_clust_8="13000.00000" pt_clust_9="33.12055" pt_clust_10="33.30024"></scales>
<clustering>
<clus scale="   33.300">  2 10  1 -1</clus>
<clus scale="   33.121">  2  9  1 -1</clus>
<clus scale="   79.269">  5  6 -1 -1</clus>
<clus scale="   87.052">  7  8 -1 -1</clus>
<clus scale="  117.847">  2  5  1 -1</clus>
<clus scale="   33.300">  2  5  1 -1</clus>
</clustering>
</event>
<event>
10    4  0.3403565E-005  0.1331862E+03  0.7546771E-02  0.1246324E+00
         21   -1    0    0  501  502  0.00000000000E+00  0.00000000000E+00  0.29619750696E+03  0.29619750696E+03  0.00000000000E+00 0. -1.
          2   -1    0    0  503    0 -0.00000000000E+00 -0.00000000000E+00 -0.30902741034E+03  0.30902741034E+03  0.00000000000E+00 0. -1.
         24    2    1    2    0    0  0.13645584821E+02  0.24328691041E+01 -0.20265210313E+03  0.21889674036E+03  0.81583008040E+02 0.  0.
         23    2    1    2    0    0  0.67060321957E+02  0.10551574060E+03  0.32763604776E+02  0.15620078179E+03  0.87718710305E+02 0.  0.
        -11    1    3    3    0    0 -0.18578153175E+02  0.23575094711E+02 -0.31706559761E+02  0.43660494706E+02  0.00000000000E+00 0.  1.
         12    1    3    3    0    0  0.32223737996E+02 -0.21142225607E+02 -0.17094554336E+03  0.17523624565E+03  0.00000000000E+00 0. -1.
        -11    1    4    4    0    0  0.51699637068E+02  0.18879096896E+02  0.39816032130E+02  0.67930767604E+02  0.00000000000E+00 0. -1.
         11    1    4    4    0    0  0.15360684888E+02  0.86636643701E+02 -0.70524273538E+01  0.88270014181E+02  0.00000000000E+00 0.  1.
         21    1    1    2  503  502 -0.73027747734E+02 -0.22850575869E+02  0.10551629476E+03  0.13034143323E+03  0.00000000000E+00 0. -1.
          1    1    1    2  501    0 -0.76781590436E+01 -0.85098033832E+02  0.51542300207E+02  0.99785961934E+02  0.00000000000E+00 0. -1.
<scales pt_clust_5="13000.00000" pt_clust_6="13000.00000" pt_clust_7="13000.00000" pt_clust_8="13000.00000" pt_clust_9="76.51928" pt_clust_10="100.21975"></scales>
<clustering>
<clus scale="   76.519">  1  9  2 -1</clus>
<clus scale="   81.583">  5  6 -1 -1</clus>
<clus scale="   82.245">  2  5  1 -1</clus>
<clus scale="   87.719">  7  8 -1 -1</clus>
<clus scale="  100.220">  1 10  2 -1</clus>
<clus scale="   76.519">  1  5  2 -1</clus>
</clustering>
</event>
<event>
10    4  0.3403565E-005  0.2126948E+03  0.7546771E-02  0.1165543E+00
          2   -1    0    0  502    0 -0.00000000000E+00  0.00000000000E+00  0.12836436277E+04  0.12836436277E+04  0.00000000000E+00 0. -1.
         21   -1    0    0  503  502  0.00000000000E+00 -0.00000000000E+00 -0.10791690287E+03  0.10791690287E+03  0.00000000000E+00 0. -1.
         24    2    1    2    0    0  0.62064373438E+02 -0.37466709080E+02  0.94724858014E+02  0.14430217723E+03  0.81207012549E+02 0.  0.
         23    2    1    2    0    0 -0.22522364388E+03 -0.81888396235E+02  0.48500283788E+03  0.54825386218E+03  0.89012052220E+02 0.  0.
        -13    1    3    3    0    0  0.31945196657E+02 -0.66237808039E+01 -0.73980790405E+01  0.33452976475E+02  0.00000000000E+00 0.  1.
         14    1    3    3    0    0  0.30119176782E+02 -0.30842928276E+02  0.10212293705E+03  0.11084920075E+03  0.00000000000E+00 0. -1.
        -11    1    4    4    0    0 -0.11300131645E+03 -0.11988555185E+02  0.15058787667E+03  0.18865240941E+03  0.00000000000E+00 0. -1.
         11    1    4    4    0    0 -0.11222232742E+03 -0.69899841050E+02  0.33441496121E+03  0.35960145277E+03  0.00000000000E+00 0.  1.
         21    1    1    2  503  501  0.39088744775E+02  0.28508721071E+02 -0.28297389072E+02  0.56048366377E+02  0.00000000000E+00 0. -1.
          1    1    1    2  501    0  0.12407052566E+03  0.90846384243E+02  0.62429641804E+03  0.64295612482E+03  0.00000000000E+00 0. -1.
<scales pt_clust_5="13000.00000" pt_clust_6="13000.00000" pt_clust_7="13000.00000" pt_clust_8="13000.00000" pt_clust_9="48.38055" pt_clust_10="193.17338"></scales>
<clustering>
<clus scale="   48.381">  2  9  1 -1</clus>
<clus scale="   81.207">  5  6 -1 -1</clus>
<clus scale="   89.012">  7  8 -1 -1</clus>
<clus scale="  114.922">  1  5  2 -1</clus>
<clus scale="  193.173">  2 10  1 -1</clus>
<clus scale="   48.381">  2  5  1 -1</clus>
</clustering>
</event>
<event>
10    4  0.3403565E-005  0.1232086E+03  0.7546771E-02  0.1240437E+00
         -1   -1    0    0    0  501 -0.00000000000E+00  0.00000000000E+00  0.52034443406E+03  0.52034443406E+03  0.00000000000E+00 0.  1.
         21   -1    0    0  503  502  0.00000000000E+00 -0.00000000000E+00 -0.98056585146E+02  0.98056585146E+02  0.00000000000E+00 0.  1.
         23    2    1    2    0    0 -0.32235110062E+02 -0.82595974281E+02  0.37475567128E+03  0.39500340551E+03  0.87890158280E+02 0.  0.
         24    2    1    2    0    0 -0.37072773690E+02  0.87172032561E+02 -0.96682568074E+01  0.12369566638E+03  0.78954346818E+02 0.  0.
        -13    1    4    4    0    0 -0.56065780379E+02  0.78838200240E+02 -0.22477643638E+02  0.99318064873E+02  0.00000000000E+00 0.  1.
         14    1    4    4    0    0  0.18993006689E+02  0.83338323205E+01  0.12809386830E+02  0.24377601506E+02  0.00000000000E+00 0. -1.
        -13    1    3    3    0    0 -0.57954441821E+02 -0.44213697669E+02  0.28345692342E+03  0.29267968126E+03  0.00000000000E+00 0.  1.
         13    1    3    3    0    0  0.25719331760E+02 -0.38382276612E+02  0.91298747863E+02  0.10232372425E+03  0.00000000000E+00 0. -1.
         21    1    1    2  503  501  0.35538119116E+02  0.10442231443E+02  0.75436130704E+01  0.37800849276E+02  0.00000000000E+00 0.  1.
         -2    1    1    2    0  502  0.33769764636E+02 -0.15018289722E+02  0.49656821376E+02  0.61901098043E+02  0.00000000000E+00 0.  1.
<scales pt_clust_5="13000.00000" pt_clust_6="13000.00000" pt_clust_7="13000.00000" pt_clust_8="13000.00000" pt_clust_9="41.86111" pt_clust_10="36.95873"></scales>
<clustering>
<clus scale="   36.959">  2 10  1 -1</clus>
<clus scale="   41.861">  2  9  1 -1</clus>
<clus scale="   78.954">  5  6 -1 -1</clus>
<clus scale="   87.890">  7  8 -1 -1</clus>
<clus scale="  117.002">  2  5  1 -1</clus>
<clus scale="   36.959">  2  5  1 -1</clus>
</clustering>
</event>
<event>
10    4  0.3403565E-005  0.1016111E+03  0.7546771E-02  0.1283519E+00
          4   -1    0    0  503    0 -0.00000000000E+00  0.00000000000E+00  0.32249216484E+03  0.32249216484E+03  0.00000000000E+00 0. -1.
         21   -1    0    0  501  502  0.00000000000E+00 -0.00000000000E+00 -0.68513976456E+02  0.68513976456E+02  0.00000000000E+00 0. -1.
         24    2    1    2    0    0  0.87430748291E+01  0.55262537335E+02  0.16012077492E+03  0.18692747119E+03  0.78567343948E+02 0.  0.
         23    2    1    2    0    0 -0.32231486796E+02 -0.71154638866E+00  0.29778698330E+02  0.10190196421E+03  0.91966648286E+02 0.  0.
        -13    1    3    3    0    0  0.38888635244E+02  0.50482715110E+02  0.12565135318E+03  0.14088680929E+03  0.00000000000E+00 0.  1.
         14    1    3    3    0    0 -0.30145560415E+02  0.47798222247E+01  0.34469421738E+02  0.46040661900E+02  0.00000000000E+00 0. -1.
        -11    1    4    4    0    0 -0.28349795449E+02  0.31889074904E+02 -0.15997971539E+02  0.45569277958E+02  0.00000000000E+00 0. -1.
         11    1    4    4    0    0 -0.38816913467E+01 -0.32600621293E+02  0.45776669870E+02  0.56332686255E+02  0.00000000000E+00 0.  1.
         21    1    1    2  503  502 -0.73547177135E+01 -0.47341089076E+02  0.38995403203E+02  0.61773069039E+02  0.00000000000E+00 0. -1.
          3    1    1    2  501    0  0.30843129680E+02 -0.72099018697E+01  0.25083311932E+02  0.40403636853E+02  0.00000000000E+00 0. -1.
<scales pt_clust_5="13000.00000" pt_clust_6="13000.00000" pt_clust_7="13000.00000" pt_clust_8="13000.00000" pt_clust_9="48.71613" pt_clust_10="31.67462"></scales>
<clustering>
<clus scale="   31.675">  2 10  1 -1</clus>
<clus scale="   48.716">  2  9  1 -1</clus>
<clus scale="   78.567">  5  6 -1 -1</clus>
<clus scale="   89.665">  1  5  2 -1</clus>
<clus scale="   91.967">  7  8 -1 -1</clus>
<clus scale="   31.675">  2  5  1 -1</clus>
</clustering>
</event>
<event>
10    4  0.3403565E-005  0.1246502E+03  0.7546771E-02  0.1241518E+00
         21   -1    0    0  503  502  0.00000000000E+00  0.00000000000E+00  0.62865307821E+03  0.62865307821E+03  0.00000000000E+00 0. -1.
         -3   -1    0    0    0  501 -0.00000000000E+00 -0.00000000000E+00 -0.15926964029E+03  0.15926964029E+03  0.00000000000E+00 0.  1.
         24    2    1    2    0    0  0.88474670992E+02  0.36209388153E+02 -0.10134782557E+03  0.15773775560E+03  0.73965739331E+02 0.  0.
         23    2    1    2    0    0 -0.12327761879E+02 -0.25250037420E+02  0.10864529725E+03  0.14622821536E+03  0.93751545316E+02 0.  0.
        -13    1    3    3    0    0  0.26794393797E+02 -0.21825849086E+02 -0.41653931234E+02  0.54123536604E+02  0.00000000000E+00 0.  1.
         14    1    3    3    0    0  0.61680277195E+02  0.58035237238E+02 -0.59693894338E+02  0.10361421899E+03  0.00000000000E+00 0. -1.
        -13    1    4    4    0    0  0.11102043931E+02  0.31961417072E+02  0.53956725098E+02  0.63687642004E+02  0.00000000000E+00 0. -1.
         13    1    4    4    0    0 -0.23429805811E+02 -0.57211454492E+02  0.54688572153E+02  0.82540573353E+02  0.00000000000E+00 0.  1.
         21    1    1    2  503  501 -0.45951322468E+02  0.54431226380E+02  0.25153852156E+03  0.26143050753E+03  0.00000000000E+00 0. -1.
         -4    1    1    2    0  502 -0.30195586645E+02 -0.65390577114E+02  0.21054744468E+03  0.22252624000E+03  0.00000000000E+00 0.  1.
<scales pt_clust_5="13000.00000" pt_clust_6="13000.00000" pt_clust_7="13000.00000" pt_clust_8="13000.00000" pt_clust_9="71.23400" pt_clust_10="66.16855"></scales>
<clustering>
<clus scale="   71.234">  1  9  2 -1</clus>
<clus scale="   66.169">  1 10  2 -1</clus>
<clus scale="   73.966">  5  6 -1 -1</clus>
<clus scale="   93.752">  7  8 -1 -1</clus>
<clus scale="  110.541">  2  5  1 -1</clus>
<clus scale="   71.234">  1  5  2 -1</clus>
</clustering>
</event>
<event>
10    4  0.3403565E-005  0.1386853E+03  0.7546771E-02  0.1217280E+00
         21   -1    0    0  501  502  0.00000000000E+00  0.00000000000E+00  0.28046203322E+03  0.28046203322E+03  0.00000000000E+00 0.  1.
          2   -1    0    0  503    0 -0.00000000000E+00 -0.00000000000E+00 -0.24889706358E+03  0.24889706358E+03  0.00000000000E+00 0. -1.
         23    2    1    2    0    0  0.26202906087E+02 -0.99779003618E+02 -0.82951119961E+02  0.16029829155E+03  0.90400288270E+02 0.  0.
         24    2    1    2    0    0  0.73208153811E+01  0.11457847035E+03  0.58340019337E+02  0.15189360383E+03  0.80537499481E+02 0.  0.
        -11    1    4    4    0    0  0.43246817388E+02  0.53259949421E+02  0.35489174731E+02  0.77242416778E+02  0.00000000000E+00 0.  1.
         12    1    4    4    0    0 -0.35926002007E+02  0.61318520934E+02  0.22850844606E+02  0.74651187056E+02  0.00000000000E+00 0. -1.
        -11    1    3    3    0    0 -0.98680590055E+01 -0.91258173283E+02 -0.31824738465E+02  0.97150639513E+02  0.00000000000E+00 0.  1.
         11    1    3    3    0    0  0.36070965093E+02 -0.85208303349E+01 -0.51126381497E+02  0.63147652033E+02  0.00000000000E+00 0. -1.
         21    1    1    2  503  502 -0.44677394681E+02 -0.10695080282E+03  0.20407838615E+02  0.11769037214E+03  0.00000000000E+00 0.  1.
          1    1    1    2  501    0  0.11153673212E+02  0.92151336079E+02  0.35768231647E+02  0.99476829274E+02  0.00000000000E+00 0. -1.
<scales pt_clust_5="13000.00000" pt_clust_6="13000.00000" pt_clust_7="13000.00000" pt_clust_8="13000.00000" pt_clust_9="87.31173" pt_clust_10="92.82388"></scales>
<clustering>
<clus scale="   80.537">  5  6 -1 -1</clus>
<clus scale="   90.400">  7  8 -1 -1</clus>
<clus scale="   92.824">  1 10  2 -1</clus>
<clus scale="   87.312">  1  9  2 -1</clus>
<clus scale="  132.468">  1  5  2 -1</clus>
<clus scale="   92.824">  1  5  2 -1</clus>
</clustering>
</event>
<event>
10    4  0.3403565E-005  0.1244354E+03  0.7546771E-02  0.1238561E+00
         21   -1    0    0  501  502  0.00000000000E+00  0.00000000000E+00  0.45104180060E+03  0.45104180060E+03  0.00000000000E+00 0. -1.
          4   -1    0    0  503    0 -0.00000000000E+00 -0.00000000000E+00 -0.72139931553E+02  0.72139931553E+02  0.00000000000E+00 0. -1.
         24    2    1    2    0    0 -0.99460153099E+02  0.69453201575E+01  0.64023733770E+02  0.14342658482E+03  0.80818235687E+02 0.  0.
         23    2    1    2    0    0  0.57501260553E+02 -0.16461389679E+02  0.19087584943E+03  0.21932778799E+03  0.89965084206E+02 0.  0.
        -13    1    3    3    0    0 -0.12215397649E+02 -0.25173015649E+02 -0.39512036326E+01  0.28257895653E+02  0.00000000000E+00 0.  1.
         14    1    3    3    0    0 -0.87244755450E+02  0.32118335807E+02  0.67974937403E+02  0.11516868916E+03  0.00000000000E+00 0. -1.
        -13    1    4    4    0    0 -0.18250300136E+00  0.31962418018E+02  0.45551020521E+02  0.55646427948E+02  0.00000000000E+00 0.  1.
         13    1    4    4    0    0  0.57683763554E+02 -0.48423807696E+02  0.14532482890E+03  0.16368136004E+03  0.00000000000E+00 0. -1.
         21    1    1    2  503  502  0.51486537784E+02 -0.11285761231E+02  0.12685556772E+03  0.13737018251E+03  0.00000000000E+00 0. -1.
          3    1    1    2  501    0 -0.95276452383E+01  0.20801830752E+02 -0.28532818690E+01  0.23057176840E+02  0.00000000000E+00 0. -1.
<scales pt_clust_5="13000.00000" pt_clust_6="13000.00000" pt_clust_7="13000.00000" pt_clust_8="13000.00000" pt_clust_9="48.89372" pt_clust_10="22.87996"></scales>
<clustering>
<clus scale="   22.880">  1 10  2 -1</clus>
<clus scale="   48.894">  1  9  2 -1</clus>
<clus scale="   80.818">  5  6 -1 -1</clus>
<clus scale="   89.965">  7  8 -1 -1</clus>
<clus scale="  117.992">  2  5  1 -1</clus>
<clus scale="   22.880">  1  5  2 -1</clus>
</clustering>
</event>
<event>
10    4  0.3403565E-005  0.9656162E+02  0.7546771E-02  0.1293914E+00
          2   -1    0    0  502    0 -0.00000000000E+00  0.00000000000E+00  0.33136810361E+03  0.33136810361E+03  0.00000000000E+00 0. -1.
         21   -1    0    0  503  502  0.00000000000E+00 -0.00000000000E+00 -0.16584696869E+03  0.16584696869E+03  0.00000000000E+00 0. -1.
         23    2    1    2    0    0  0.31336484592E+02 -0.22136378427E+02  0.24492724193E+03  0.26411579000E+03  0.91081294311E+02 0.  0.
         24    2    1    2    0    0 -0.28496335815E+02 -0.57360096054E+02  0.80333333888E+01  0.10260455873E+03  0.79755496694E+02 0.  0.
        -11    1    4    4    0    0 -0.11752630757E+02 -0.25530989488E+02  0.43696853112E+02  0.51955468681E+02  0.00000000000E+00 0.  1.
         12    1    4    4    0    0 -0.16743705058E+02 -0.31829106566E+02 -0.35663519724E+02  0.50649090050E+02  0.00000000000E+00 0. -1.
        -11    1    3    3    0    0 -0.30432938836E+02  0.35174840855E+01  0.98092979762E+02  0.10276560290E+03  0.00000000000E+00 0.  1.
         11    1    3    3    0    0  0.61769423428E+02 -0.25653862512E+02  0.14683426217E+03  0.16135018710E+03  0.00000000000E+00 0. -1.
         21    1    1    2  503  501  0.21319601034E+02  0.37692765059E+02 -0.62813891182E+02  0.76294527009E+02  0.00000000000E+00 0. -1.
          1    1    1    2  501    0 -0.24159749811E+02  0.41803709422E+02 -0.24625549210E+02  0.54200196552E+02  0.00000000000E+00 0. -1.
<scales pt_clust_5="13000.00000" pt_clust_6="13000.00000" pt_clust_7="13000.00000" pt_clust_8="13000.00000" pt_clust_9="43.30439" pt_clust_10="59.27592"></scales>
<clustering>
<clus scale="   43.304">  2  9  1 -1</clus>
<clus scale="   59.276">  2 10  1 -1</clus>
<clus scale="   79.755">  5  6 -1 -1</clus>
<clus scale="   85.961">  2  5  1 -1</clus>
<clus scale="   91.081">  7  8 -1 -1</clus>
<clus scale="   43.304">  2  5  1 -1</clus>
</clustering>
</event>
<event>
10    4  0.3403565E-005  0.2167100E+03  0.7546771E-02  0.1165614E+00
          2   -1    0    0  503    0 -0.00000000000E+00  0.00000000000E+00  0.67832342193E+03  0.67832342193E+03  0.00000000000E+00 0. -1.
         21   -1    0    0  501  502  0.00000000000E+00 -0.00000000000E+00 -0.38937730569E+03  0.38937730569E+03  0.00000000000E+00 0. -1.
         24    2    1    2    0    0  0.41189662484E+02  0.59875244698E+02  0.30607570975E+03  0.32472918304E+03  0.80529926085E+02 0.  0.
         23    2    1    2    0    0  0.17213427340E+03 -0.38864401453E+02  0.23898311627E+03  0.31138894419E+03  0.93324674804E+02 0.  0.
        -13    1    3    3    0    0 -0.10296967551E+01  0.29969691798E+02  0.25323312154E+02  0.39249367387E+02  0.00000000000E+00 0.  1.
         14    1    3    3    0    0  0.42219359239E+02  0.29905552900E+02  0.28075239760E+03  0.28547981566E+03  0.00000000000E+00 0. -1.
        -11    1    4    4    0    0  0.14167232822E+03 -0.64800803093E+02  0.21218649646E+03  0.26323620941E+03  0.00000000000E+00 0. -1.
         11    1    4    4    0    0  0.30461945180E+02  0.25936401641E+02  0.26796619808E+02  0.48152734786E+02  0.00000000000E+00 0.  1.
         21    1    1    2  503  502 -0.15598994662E+03  0.72857073668E+02 -0.27051138798E+03  0.32065156737E+03  0.00000000000E+00 0. -1.
          1    1    1    2  501    0 -0.57333989260E+02 -0.93867916914E+02  0.14398678193E+02  0.11093103301E+03  0.00000000000E+00 0. -1.
<scales pt_clust_5="13000.00000" pt_clust_6="13000.00000" pt_clust_7="13000.00000" pt_clust_8="13000.00000" pt_clust_9="195.58556" pt_clust_10="97.46487"></scales>
<clustering>
<clus scale="   80.530">  5  6 -1 -1</clus>
<clus scale="   93.325">  7  8 -1 -1</clus>
<clus scale="  108.474">  1  5  2 -1</clus>
<clus scale="   97.465">  2 10  1 -1</clus>
<clus scale="  195.586">  2  9  1 -1</clus>
<clus scale="   97.465">  2  5  1 -1</clus>
</clustering>
</event>
<event>
10    4  0.3403565E-005  0.2361624E+03  0.7546771E-02  0.1159820E+00
         21   -1    0    0  501  502  0.00000000000E+00  0.00000000000E+00  0.70233252766E+02  0.70233252766E+02  0.00000000000E+00 0. -1.
          2   -1    0    0  503    0 -0.00000000000E+00 -0.00000000000E+00 -0.13820234002E+04  0.13820234002E+04  0.00000000000E+00 0. -1.
         23    2    1    2    0    0  0.32624434647E+02  0.25232817981E+02 -0.20816466926E+03  0.22834566519E+03  0.84309930852E+02 0.  0.
         24    2    1    2    0    0 -0.15491693247E+03  0.15761025271E+03 -0.61610847197E+03  0.65943441462E+03  0.80148925287E+02 0.  0.
        -11    1    4    4    0    0 -0.52530673735E+02  0.98826691183E+02 -0.23188874527E+03  0.25748510007E+03  0.00000000000E+00 0.  1.
         12    1    4    4    0    0 -0.10238625874E+03  0.58783561527E+02 -0.38421972670E+03  0.40194931455E+03  0.00000000000E+00 0. -1.
        -11    1    3    3    0    0  0.50299801711E+02  0.43389906648E+02 -0.17017104017E+03  0.18267713859E+03  0.00000000000E+00 0. -1.
         11    1    3    3    0    0 -0.17675367064E+02 -0.18157088667E+02 -0.37993629094E+02  0.45668526596E+02  0.00000000000E+00 0.  1.
         21    1    1    2  503  502  0.16282366731E+02  0.19233838611E+02  0.10738152394E+01  0.25223185629E+02  0.00000000000E+00 0. -1.
          1    1    1    2  501    0  0.10601013109E+03 -0.20207690930E+03 -0.48859082142E+03  0.53925338751E+03  0.00000000000E+00 0. -1.
<scales pt_clust_5="13000.00000" pt_clust_6="13000.00000" pt_clust_7="13000.00000" pt_clust_8="13000.00000" pt_clust_9="25.20032" pt_clust_10="222.14596"></scales>
<clustering>
<clus scale="   25.200">  1  9  2 -1</clus>
<clus scale="   80.149">  5  6 -1 -1</clus>
<clus scale="   84.310">  7  8 -1 -1</clus>
<clus scale="   95.856">  2  7  1 -1</clus>
<clus scale="  222.146">  1 10  2 -1</clus>
<clus scale="   25.200">  1  5  2 -1</clus>
</clustering>
</event>
<event>
10    4  0.3403565E-005  0.2376260E+03  0.7546771E-02  0.1167230E+00
         21   -1    0    0  501  502  0.00000000000E+00  0.00000000000E+00  0.14201582208E+03  0.14201582208E+03  0.00000000000E+00 0. -1.
          4   -1    0    0  503    0 -0.00000000000E+00 -0.00000000000E+00 -0.84136693792E+03  0.84136693792E+03  0.00000000000E+00 0. -1.
         24    2    1    2    0    0  0.11418370114E+02 -0.24542142971E+01 -0.16957929357E+03  0.18734980944E+03  0.78780784118E+02 0.  0.
         23    2    1    2    0    0 -0.89118490296E+02  0.18313113976E+03 -0.47729931608E+03  0.52665398394E+03  0.89836863275E+02 0.  0.
        -11    1    3    3    0    0  0.44724418298E+02 -0.74616146751E+01 -0.85579790945E+02  0.96849625212E+02  0.00000000000E+00 0.  1.
         12    1    3    3    0    0 -0.33306048184E+02  0.50074003781E+01 -0.83999502622E+02  0.90500184226E+02  0.00000000000E+00 0. -1.
        -13    1    4    4    0    0  0.70686875967E+01  0.83615230866E+02 -0.16747263647E+03  0.18731939874E+03  0.00000000000E+00 0. -1.
         13    1    4    4    0    0 -0.96187177893E+02  0.99515908893E+02 -0.30982667961E+03  0.33933458520E+03  0.00000000000E+00 0.  1.
         21    1    1    2  503  502 -0.13729594061E+02  0.23748850642E+02 -0.35405677337E+02  0.44789191192E+02  0.00000000000E+00 0.  1.
          3    1    1    2  501    0  0.91429714243E+02 -0.20442577610E+03 -0.17066828848E+02  0.22458977543E+03  0.00000000000E+00 0. -1.
<scales pt_clust_5="13000.00000" pt_clust_6="13000.00000" pt_clust_7="13000.00000" pt_clust_8="13000.00000" pt_clust_9="27.43191" pt_clust_10="219.98972"></scales>
<clustering>
<clus scale="   27.432">  2  9  1 -1</clus>
<clus scale="   78.781">  5  6 -1 -1</clus>
<clus scale="   79.274">  2  5  1 -1</clus>
<clus scale="   89.837">  7  8 -1 -1</clus>
<clus scale="  219.990">  1 10  2 -1</clus>
<clus scale="  219.990">  1  5  2 -1</clus>
</clustering>
</event>
<event>
10    4  0.3403565E-005  0.1089773E+03  0.7546771E-02  0.1266721E+00
         -1   -1    0    0    0  501 -0.00000000000E+00  0.00000000000E+00  0.13464400646E+03  0.13464400646E+03  0.00000000000E+00 0.  1.
         21   -1    0    0  501  502  0.00000000000E+00 -0.00000000000E+00 -0.18173321847E+03  0.18173321847E+03  0.00000000000E+00 0.  1.
         24    2    1    2    0    0 -0.75137982981E+01 -0.50827104854E+02  0.18519041085E+02  0.97406132601E+02  0.80654497908E+02 0.  0.
         23    2    1    2    0    0  0.33065931794E+02  0.64915284036E+02  0.90693232957E+01  0.11707930255E+03  0.91202853652E+02 0.  0.
        -11    1    3    3    0    0  0.13535970249E+02 -0.65901594616E+02  0.23060966467E+02  0.71119974958E+02  0.00000000000E+00 0.  1.
         12    1    3    3    0    0 -0.21049768547E+02  0.15074489762E+02 -0.45419253822E+01  0.26286157643E+02  0.00000000000E+00 0. -1.
        -13    1    4    4    0    0  0.59347258000E+01  0.21124897758E+02 -0.40198907800E+02  0.45797756102E+02  0.00000000000E+00 0. -1.
         13    1    4    4    0    0  0.27131205994E+02  0.43790386278E+02  0.49268231096E+02  0.71281546450E+02  0.00000000000E+00 0.  1.
         21    1    1    2  503  502  0.14342158912E+01  0.22751660325E+02 -0.17636982581E+02  0.28822875938E+02  0.00000000000E+00 0. -1.
         -2    1    1    2    0  503 -0.26986349387E+02 -0.36839839507E+02 -0.57040593802E+02  0.73068913837E+02  0.00000000000E+00 0.  1.
<scales pt_clust_5="13000.00000" pt_clust_6="13000.00000" pt_clust_7="13000.00000" pt_clust_8="13000.00000" pt_clust_9="22.79682" pt_clust_10="38.12073"></scales>
<clustering>
<clus scale="   22.797">  2  9  1 -1</clus>
<clus scale="   38.121">  2 10  1 -1</clus>
<clus scale="   80.654">  5  6 -1 -1</clus>
<clus scale="   91.203">  7  8 -1 -1</clus>
<clus scale="  100.316">  1  5  2 -1</clus>
<clus scale="   22.797">  2  5  1 -1</clus>
</clustering>
</event>
<event>
10    4  0.3403565E-005  0.1918708E+03  0.7546771E-02  0.1170907E+00
         21   -1    0    0  503  502  0.00000000000E+00  0.00000000000E+00  0.22970219259E+03  0.22970219259E+03  0.00000000000E+00 0. -1.
         -1   -1    0    0    0  501 -0.00000000000E+00 -0.00000000000E+00 -0.35488836070E+03  0.35488836070E+03  0.00000000000E+00 0.  1.
         24    2    1    2    0    0  0.30811350952E+02  0.10509797543E+03 -0.35687046137E+02  0.13981347608E+03  0.79242154457E+02 0.  0.
         23    2    1    2    0    0 -0.16746617111E+03 -0.91108485564E+02  0.50577961757E+02  0.21740872655E+03  0.91448070264E+02 0.  0.
        -13    1    3    3    0    0  0.20142837587E+02 -0.52991545665E+01 -0.17943886870E+02  0.27491780976E+02  0.00000000000E+00 0.  1.
         14    1    3    3    0    0  0.10668513365E+02  0.11039713000E+03 -0.17743159267E+02  0.11232169510E+03  0.00000000000E+00 0. -1.
        -13    1    4    4    0    0 -0.14161181122E+03 -0.89069768780E+02  0.73563921539E+02  0.18275387640E+03  0.00000000000E+00 0. -1.
         13    1    4    4    0    0 -0.25854359887E+02 -0.20387167839E+01 -0.22985959782E+02  0.34654850142E+02  0.00000000000E+00 0.  1.
         21    1    1    2  503  501 -0.97961422001E+01  0.20026759572E+02 -0.62536093041E+00  0.22303062060E+02  0.00000000000E+00 0. -1.
         -2    1    1    2    0  502  0.14645096236E+03 -0.34016249443E+02 -0.13945172280E+03  0.20506528861E+03  0.00000000000E+00 0.  1.
<scales pt_clust_5="13000.00000" pt_clust_6="13000.00000" pt_clust_7="13000.00000" pt_clust_8="13000.00000" pt_clust_9="22.29429" pt_clust_10="168.67624"></scales>
<clustering>
<clus scale="   22.294">  1  9  2 -1</clus>
<clus scale="   79.242">  5  6 -1 -1</clus>
<clus scale="   91.448">  7  8 -1 -1</clus>
<clus scale="  138.420">  2  5  1 -1</clus>
<clus scale="  168.676">  1 10  2 -1</clus>
<clus scale="   22.294">  1  5  2 -1</clus>
</clustering>
</event>
<event>
10    4  0.3403565E-005  0.8201770E+02  0.7546771E-02  0.1324591E+00
          2   -1    0    0  502    0 -0.00000000000E+00  0.00000000000E+00  0.98510113896E+03  0.98510113896E+03  0.00000000000E+00 0. -1.
         21   -1    0    0  503  502  0.00000000000E+00 -0.00000000000E+00 -0.60056373888E+02  0.60056373888E+02  0.00000000000E+00 0. -1.
         24    2    1    2    0    0  0.12874668014E+02  0.21000248137E+02  0.71354736470E+03  0.71853128309E+03  0.80812100605E+02 0.  0.
         23    2    1    2    0    0  0.21350310257E+02  0.16519513842E+02  0.18408442302E+03  0.20217004201E+03  0.79100701655E+02 0.  0.
        -13    1    3    3    0    0  0.21064513762E+02 -0.25184859023E+02  0.18363773192E+03  0.18654974524E+03  0.00000000000E+00 0.  1.
         14    1    3    3    0    0 -0.81898457481E+01  0.46185107160E+02  0.52990963278E+03  0.53198153785E+03  0.00000000000E+00 0. -1.
        -11    1    4    4    0    0  0.42821910795E+01  0.43274321569E+02  0.14731480108E+03  0.15359900613E+03  0.00000000000E+00 0.  1.
         11    1    4    4    0    0  0.17068119177E+02 -0.26754807727E+02  0.36769621947E+02  0.48571035884E+02  0.00000000000E+00 0. -1.
         21    1    1    2  503  501 -0.26262536697E+02 -0.95507508983E+01 -0.41286750377E+02  0.49855124443E+02  0.00000000000E+00 0. -1.
          1    1    1    2  501    0 -0.79624415732E+01 -0.27969011080E+02  0.68699727719E+02  0.74601063299E+02  0.00000000000E+00 0. -1.
<scales pt_clust_5="13000.00000" pt_clust_6="13000.00000" pt_clust_7="13000.00000" pt_clust_8="13000.00000" pt_clust_9="27.94526" pt_clust_10="32.74276"></scales>
<clustering>
<clus scale="   27.945">  2  9  1 -1</clus>
<clus scale="   32.743">  2 10  1 -1</clus>
<clus scale="   79.101">  7  8 -1 -1</clus>
<clus scale="   80.332">  2  7  1 -1</clus>
<clus scale="   80.812">  5  6 -1 -1</clus>
<clus scale="   27.945">  2  5  1 -1</clus>
</clustering>
</event>
<event>
10    4  0.3403565E-005  0.1765385E+03  0.7546771E-02  0.1191587E+00
          2   -1    0    0  503    0 -0.00000000000E+00  0.00000000000E+00  0.60202421491E+03  0.60202421491E+03  0.00000000000E+00 0. -1.
         21   -1    0    0  501  502  0.00000000000E+00 -0.00000000000E+00 -0.47014945118E+03  0.47014945118E+03  0.00000000000E+00 0. -1.
         23    2    1    2    0    0  0.23982035910E+01 -0.50426028544E+02  0.21194471147E+03  0.23842207770E+03  0.96829699379E+02 0.  0.
         24    2    1    2    0    0  0.96538466600E+02 -0.92058180718E+02  0.20364599520E+03  0.25595010425E+03  0.79021391623E+02 0.  0.
        -13    1    4    4    0    0  0.20745957896E+02 -0.33515496324E+02  0.12793212877E+03  0.13386677270E+03  0.00000000000E+00 0.  1.
         14    1    4    4    0    0  0.75792508704E+02 -0.58542684394E+02  0.75713866436E+02  0.12208333155E+03  0.00000000000E+00 0. -1.
        -13    1    3    3    0    0  0.46609260947E+02 -0.39299749151E+02  0.14634540670E+03  0.15853665681E+03  0.00000000000E+00 0.  1.
         13    1    3    3    0    0 -0.44211057356E+02 -0.11126279393E+02  0.65599304762E+02  0.79885420891E+02  0.00000000000E+00 0. -1.
         21    1    1    2  503  502 -0.56651193669E+02 -0.38397605097E+02 -0.36764623125E+03  0.37396187663E+03  0.00000000000E+00 0. -1.
          1    1    1    2  501    0 -0.42285476521E+02  0.18088181436E+03  0.83930288321E+02  0.20383960751E+03  0.00000000000E+00 0. -1.
<scales pt_clust_5="13000.00000" pt_clust_6="13000.00000" pt_clust_7="13000.00000" pt_clust_8="13000.00000" pt_clust_9="68.43781" pt_clust_10="157.86532"></scales>
<clustering>
<clus scale="   68.438">  2  9  1 -1</clus>
<clus scale="   79.021">  5  6 -1 -1</clus>
<clus scale="   96.830">  7  8 -1 -1</clus>
<clus scale="  111.748">  1  7  2 -1</clus>
<clus scale="  157.865">  2 10  1 -1</clus>
<clus scale="   68.438">  2  5  1 -1</clus>
</clustering>
</event>
<event>
10    4  0.3403565E-005  0.1968391E+03  0.7546771E-02  0.1185563E+00
          2   -1    0    0  503    0 -0.00000000000E+00  0.00000000000E+00  0.21533537973E+04  0.21533537973E+04  0.00000000000E+00 0. -1.
         21   -1    0    0  501  502  0.00000000000E+00 -0.00000000000E+00 -0.12440184405E+03  0.12440184405E+03  0.00000000000E+00 0.  1.
         23    2    1    2    0    0 -0.11060146220E+02 -0.55833471977E+01  0.29846188866E+02  0.96836740019E+02  0.91285588279E+02 0.  0.
         24    2    1    2    0    0  0.84743175418E+02  0.11692700454E+03  0.28200034136E+03  0.32718916686E+03  0.81702069822E+02 0.  0.
        -11    1    4    4    0    0  0.99586480787E+02  0.11270188519E+03  0.25872724409E+03  0.29926404548E+03  0.00000000000E+00 0.  1.
         12    1    4    4    0    0 -0.14843305369E+02  0.42251193534E+01  0.23273097262E+02  0.27925121378E+02  0.00000000000E+00 0. -1.
        -11    1    3    3    0    0  0.12417282653E+02 -0.40122396497E+02 -0.51956330840E+01  0.42320092300E+02  0.00000000000E+00 0.  1.
         11    1    3    3    0    0 -0.23477428873E+02  0.34539049299E+02  0.35041821950E+02  0.54516647719E+02  0.00000000000E+00 0. -1.
         21    1    1    2  503  502  0.12248420832E+03 -0.98615276853E+01  0.40616351318E+00  0.12288122715E+03  0.00000000000E+00 0.  1.
          1    1    1    2  501    0 -0.19616723752E+03 -0.10148212966E+03  0.17166992595E+04  0.17308485073E+04  0.00000000000E+00 0. -1.
<scales pt_clust_5="13000.00000" pt_clust_6="13000.00000" pt_clust_7="13000.00000" pt_clust_8="13000.00000" pt_clust_9="122.56876" pt_clust_10="179.08222"></scales>
<clustering>
<clus scale="   81.702">  5  6 -1 -1</clus>
<clus scale="   91.286">  7  8 -1 -1</clus>
<clus scale="   92.123">  1  7  2 -1</clus>
<clus scale="  122.569">  2  9  1 -1</clus>
<clus scale="  179.082">  2 10  1 -1</clus>
<clus scale="  122.569">  2  5  1 -1</clus>
</clustering>
</event>
<event>
10    4  0.3403565E-005  0.1243230E+03  0.7546771E-02  0.1239119E+00
         21   -1    0    0  503  502  0.00000000000E+00  0.00000000000E+00  0.63975677450E+03  0.63975677450E+03  0.00000000000E+00 0. -1.
          2   -1    0    0  502    0 -0.00000000000E+00 -0.00000000000E+00 -0.65256152933E+02  0.65256152933E+02  0.00000000000E+00 0. -1.
         24    2    1    2    0    0 -0.42826619454E+02 -0.99968350757E+02  0.21087547203E+03  0.25064159533E+03  0.80777188125E+02 0.  0.
         23    2    1    2    0    0 -0.52666671289E+02  0.67612909279E+02  0.23856751467E+03  0.26936542427E+03  0.91093298173E+02 0.  0.
        -13    1    3    3    0    0  0.16781939954E+02 -0.60525253875E+02  0.82233116228E+02  0.10347572309E+03  0.00000000000E+00 0.  1.
         14    1    3    3    0    0 -0.59608559407E+02 -0.39443096882E+02  0.12864235580E+03  0.14716587224E+03  0.00000000000E+00 0. -1.
        -11    1    4    4    0    0 -0.31047677093E+02  0.43325977178E+02  0.22950160678E+03  0.23561002964E+03  0.00000000000E+00 0. -1.
         11    1    4    4    0    0 -0.21618994196E+02  0.24286932101E+02  0.90659078865E+01  0.33755394632E+02  0.00000000000E+00 0.  1.
         21    1    1    2  503  501  0.32527299928E+02  0.93690229949E+01  0.11162261469E+03  0.11664223911E+03  0.00000000000E+00 0. -1.
          1    1    1    2  501    0  0.62965990815E+02  0.22986418483E+02  0.13435020177E+02  0.68363668722E+02  0.00000000000E+00 0. -1.
<scales pt_clust_5="13000.00000" pt_clust_6="13000.00000" pt_clust_7="13000.00000" pt_clust_8="13000.00000" pt_clust_9="33.84972" pt_clust_10="69.65831"></scales>
<clustering>
<clus scale="   33.850">  1  9  2 -1</clus>
<clus scale="   69.658">  1 10  2 -1</clus>
<clus scale="   80.777">  5  6 -1 -1</clus>
<clus scale="   91.093">  7  8 -1 -1</clus>
<clus scale="  116.975">  2  5  1 -1</clus>
<clus scale="   33.850">  1  5  2 -1</clus>
</clustering>
</event>
<event>
10    4  0.3403565E-005  0.2433908E+03  0.7546771E-02  0.1118403E+00
         21   -1    0    0  503  502  0.00000000000E+00  0.00000000000E+00  0.61406056253E+02  0.61406056253E+02  0.00000000000E+00 0. -1.
          2   -1    0    0  502    0 -0.00000000000E+00 -0.00000000000E+00 -0.17403696974E+04  0.17403696974E+04  0.00000000000E+00 0. -1.
         23    2    1    2    0    0 -0.18303429030E+03 -0.12087389275E+03 -0.91733373477E+03  0.94770442058E+03  0.92360372745E+02 0.  0.
         24    2    1    2    0    0  0.19315841928E+03  0.14182531288E+03 -0.39156248153E+03  0.46562377355E+03  0.77844249900E+02 0.  0.
        -13    1    4    4    0    0  0.95840567554E+01  0.41594378829E+02 -0.61058806418E+02  0.74499156608E+02  0.00000000000E+00 0.  1.
         14    1    4    4    0    0  0.18357436252E+03  0.10023093405E+03 -0.33050367511E+03  0.39112461694E+03  0.00000000000E+00 0. -1.
        -11    1    3    3    0    0 -0.64353275263E+02 -0.78045255599E+02 -0.55212375409E+03  0.56131367861E+03  0.00000000000E+00 0. -1.
         11    1    3    3    0    0 -0.11868101504E+03 -0.42828637149E+02 -0.36520998068E+03  0.38639074197E+03  0.00000000000E+00 0.  1.
         21    1    1    2  503  501 -0.18653713594E+02  0.31297707145E+02 -0.39779291688E+02  0.53943484783E+02  0.00000000000E+00 0.  1.
          1    1    1    2  501    0  0.85295846178E+01 -0.52249127274E+02 -0.33028813317E+03  0.33450407475E+03  0.00000000000E+00 0. -1.
<scales pt_clust_5="13000.00000" pt_clust_6="13000.00000" pt_clust_7="13000.00000" pt_clust_8="13000.00000" pt_clust_9="36.43498" pt_clust_10="51.62818"></scales>
<clustering>
<clus scale="   36.435">  1  9  2 -1</clus>
<clus scale="   51.628">  1 10  2 -1</clus>
<clus scale="   77.844">  5  6 -1 -1</clus>
<clus scale="   92.360">  7  8 -1 -1</clus>
<clus scale="  238.261">  1  5  2 -1</clus>
<clus scale="   36.435">  1  5  2 -1</clus>
</clustering>
</event>
<event>
10    4  0.3403565E-005  0.1398728E+03  0.7546771E-02  0.1216436E+00
          2   -1    0    0  502    0 -0.00000000000E+00  0.00000000000E+00  0.26023802446E+03  0.26023802446E+03  0.00000000000E+00 0. -1.
         21   -1    0    0  503  502  0.00000000000E+00 -0.00000000000E+00 -0.22253357502E+03  0.22253357502E+03  0.00000000000E+00 0. -1.
         23    2    1    2    0    0 -0.68075434615E+02 -0.92602216680E+02 -0.19717287409E+02  0.14885110933E+03  0.92511869473E+02 0.  0.
         24    2    1    2    0    0  0.80478518901E+02  0.53359468206E+02 -0.60170238946E+02  0.13861955210E+03  0.79188999983E+02 0.  0.
        -13    1    4    4    0    0 -0.12444319173E+02  0.24619112602E+02 -0.14523453291E+02  0.31175190143E+02  0.00000000000E+00 0.  1.
         14    1    4    4    0    0  0.92922838073E+02  0.28740355603E+02 -0.45646785655E+02  0.10744436196E+03  0.00000000000E+00 0. -1.
        -11    1    3    3    0    0 -0.29484939054E+01 -0.60122938262E+02  0.23028235530E+02  0.64449677681E+02  0.00000000000E+00 0.  1.
         11    1    3    3    0    0 -0.65126940709E+02 -0.32479278419E+02 -0.42745522939E+02  0.84401431647E+02  0.00000000000E+00 0. -1.
         21    1    1    2  503  501  0.27536737749E+02  0.20216212772E+02 -0.27348123825E+02  0.43759422545E+02  0.00000000000E+00 0. -1.
          1    1    1    2  501    0 -0.39939822035E+02  0.19026535703E+02  0.14494009962E+03  0.15154151550E+03  0.00000000000E+00 0. -1.
<scales pt_clust_5="13000.00000" pt_clust_6="13000.00000" pt_clust_7="13000.00000" pt_clust_8="13000.00000" pt_clust_9="34.16090" pt_clust_10="43.95810"></scales>
<clustering>
<clus scale="   34.161">  2  9  1 -1</clus>
<clus scale="   43.958">  2 10  1 -1</clus>
<clus scale="   79.189">  5  6 -1 -1</clus>
<clus scale="   92.512">  7  8 -1 -1</clus>
<clus scale="  131.441">  2  5  1 -1</clus>
<clus scale="   34.161">  2  5  1 -1</clus>
</clustering>
</event>
<event>
10    4  0.3403565E-005  0.1313532E+03  0.7546771E-02  0.1242472E+00
         21   -1    0    0  501  502  0.00000000000E+00  0.00000000000E+00  0.37638344797E+03  0.37638344797E+03  0.00000000000E+00 0.  1.
          2   -1    0    0  503    0 -0.00000000000E+00 -0.00000000000E+00 -0.53854198954E+03  0.53854198954E+03  0.00000000000E+00 0. -1.
         23    2    1    2    0    0 -0.28175683168E+02 -0.87550847909E+02 -0.36933079133E+03  0.39129386190E+03  0.90810973142E+02 0.  0.
         24    2    1    2    0    0 -0.24752470954E+02 -0.41396365417E+02  0.42763024149E+02  0.98654227505E+02  0.74683575719E+02 0.  0.
        -11    1    4    4    0    0 -0.31428136998E+02 -0.15571374796E+02  0.58114296166E+02  0.67878324428E+02  0.00000000000E+00 0.  1.
         12    1    4    4    0    0  0.66756660440E+01 -0.25824990621E+02 -0.15351272017E+02  0.30775903078E+02  0.00000000000E+00 0. -1.
        -13    1    3    3    0    0 -0.32318696992E+01 -0.99256192690E+02 -0.31642559925E+03  0.33164347819E+03  0.00000000000E+00 0. -1.
         13    1    3    3    0    0 -0.24943813469E+02  0.11705344781E+02 -0.52905192080E+02  0.59650383703E+02  0.00000000000E+00 0.  1.
         21    1    1    2  503  502  0.71846188789E+02  0.15834336401E+03  0.26585992527E+03  0.31767278076E+03  0.00000000000E+00 0.  1.
          1    1    1    2  501    0 -0.18918034668E+02 -0.29396150687E+02 -0.10145069967E+03  0.10730456735E+03  0.00000000000E+00 0. -1.
<scales pt_clust_5="13000.00000" pt_clust_6="13000.00000" pt_clust_7="13000.00000" pt_clust_8="13000.00000" pt_clust_9="94.90533" pt_clust_10="34.95750"></scales>
<clustering>
<clus scale="   34.958">  1 10  2 -1</clus>
<clus scale="   74.684">  5  6 -1 -1</clus>
<clus scale="   90.811">  7  8 -1 -1</clus>
<clus scale="   92.660">  1  5  2 -1</clus>
<clus scale="   94.905">  1  9  2 -1</clus>
<clus scale="   34.958">  1  5  2 -1</clus>
</clustering>
</event>
<event>
10    4  0.3403565E-005  0.4595183E+03  0.7546771E-02  0.1024921E+00
          2   -1    0    0  503    0 -0.00000000000E+00  0.00000000000E+00  0.81528610221E+03  0.81528610221E+03  0.00000000000E+00 0. -1.
         21   -1    0    0  501  502  0.00000000000E+00 -0.00000000000E+00 -0.35099663744E+03  0.35099663744E+03  0.00000000000E+00 0. -1.
         24    2    1    2    0    0  0.47324359610E+02 -0.40403773785E+02  0.13394495669E+03  0.16841620245E+03  0.80936431095E+02 0.  0.
         23    2    1    2    0    0  0.19536776645E+03 -0.28044416497E+03  0.39328163486E+03  0.52892249366E+03  0.90945401979E+02 0.  0.
        -11    1    3    3    0    0 -0.10694762482E+00 -0.46556257825E+02  0.98294885439E+02  0.10876295823E+03  0.00000000000E+00 0.  1.
         12    1    3    3    0    0  0.47431307234E+02  0.61524840407E+01  0.35650071248E+02  0.59653244219E+02  0.00000000000E+00 0. -1.
        -13    1    4    4    0    0  0.12256631561E+03 -0.11294205052E+03  0.14646399974E+03  0.22187859680E+03  0.00000000000E+00 0.  1.
         13    1    4    4    0    0  0.72801450841E+02 -0.16750211446E+03  0.24681763511E+03  0.30704389685E+03  0.00000000000E+00 0. -1.
         21    1    1    2  503  502  0.22512175434E+02  0.16342265426E+01 -0.48719008062E+02  0.53693672679E+02  0.00000000000E+00 0. -1.
          1    1    1    2  501    0 -0.26520430149E+03  0.31921371222E+03 -0.14218118710E+02  0.41525037086E+03  0.00000000000E+00 0. -1.
<scales pt_clust_5="13000.00000" pt_clust_6="13000.00000" pt_clust_7="13000.00000" pt_clust_8="13000.00000" pt_clust_9="22.57141" pt_clust_10="405.81592"></scales>
<clustering>
<clus scale="   22.571">  2  9  1 -1</clus>
<clus scale="   80.936">  5  6 -1 -1</clus>
<clus scale="   90.945">  7  8 -1 -1</clus>
<clus scale="   96.063">  5  7 -1 -1</clus>
<clus scale="  405.816">  2 10  1 -1</clus>
<clus scale="   22.571">  2  5  1 -1</clus>
</clustering>
</event>
<event>
10    4  0.3403565E-005  0.7689487E+03  0.7546771E-02  0.1025671E+00
         21   -1    0    0  501  502  0.00000000000E+00  0.00000000000E+00  0.58677405645E+03  0.58677405645E+03  0.00000000000E+00 0. -1.
          2   -1    0    0  503    0 -0.00000000000E+00 -0.00000000000E+00 -0.17780551939E+04  0.17780551939E+04  0.00000000000E+00 0. -1.
         23    2    1    2    0    0  0.12441944853E+02  0.24276805508E+02 -0.76906092743E+02  0.12243633649E+03  0.91279483537E+02 0.  0.
         24    2    1    2    0    0  0.65694702237E+03 -0.40499868849E+03 -0.81731786293E+03  0.11270198198E+04  0.81005290868E+02 0.  0.
        -11    1    4    4    0    0  0.11162443324E+02 -0.23286559924E+02 -0.26284007439E+02  0.36847158114E+02  0.00000000000E+00 0.  1.
         12    1    4    4    0    0  0.64578457905E+03 -0.38171212857E+03 -0.79103385550E+03  0.10901726616E+04  0.00000000000E+00 0. -1.
        -13    1    3    3    0    0 -0.20240413098E+02 -0.27254698882E+01 -0.77390022454E+02  0.80039478284E+02  0.00000000000E+00 0.  1.
         13    1    3    3    0    0  0.32682357952E+02  0.27002275396E+02  0.48392971081E+00  0.42396858207E+02  0.00000000000E+00 0. -1.
         21    1    1    2  503  502  0.52692386030E+01  0.36504972571E+02  0.20395552321E+03  0.20726368072E+03  0.00000000000E+00 0. -1.
          1    1    1    2  501    0 -0.67465820583E+03  0.34421691042E+03 -0.50101270494E+03  0.90810941335E+03  0.00000000000E+00 0. -1.
<scales pt_clust_5="13000.00000" pt_clust_6="13000.00000" pt_clust_7="13000.00000" pt_clust_8="13000.00000" pt_clust_9="36.88330" pt_clust_10="764.67003"></scales>
<clustering>
<clus scale="   36.883">  1  9  2 -1</clus>
<clus scale="   81.005">  5  6 -1 -1</clus>
<clus scale="   91.279">  7  8 -1 -1</clus>
<clus scale="   95.889">  2  7  1 -1</clus>
<clus scale="  764.670">  1 10  2 -1</clus>
<clus scale="   36.883">  1  5  2 -1</clus>
</clustering>
</event>
<event>
10    4  0.3403565E-005  0.1005946E+03  0.7546771E-02  0.1283205E+00
         21   -1    0    0  501  502  0.00000000000E+00  0.00000000000E+00  0.18112986385E+03  0.18112986385E+03  0.00000000000E+00 0. -1.
          2   -1    0    0  503    0 -0.00000000000E+00 -0.00000000000E+00 -0.13226525470E+03  0.13226525470E+03  0.00000000000E+00 0. -1.
         23    2    1    2    0    0 -0.51956275874E+02 -0.57878428438E+02  0.26722910581E+02  0.12156614156E+03  0.89525670861E+02 0.  0.
         24    2    1    2    0    0  0.88926139082E+01  0.18898467171E+02  0.42855100810E+02  0.93862105297E+02  0.80853599189E+02 0.  0.
        -13    1    4    4    0    0  0.44892093697E+02  0.61209166176E+01  0.23394274863E+02  0.50990761841E+02  0.00000000000E+00 0.  1.
         14    1    4    4    0    0 -0.35999479789E+02  0.12777550554E+02  0.19460825947E+02  0.42871343456E+02  0.00000000000E+00 0. -1.
        -13    1    3    3    0    0 -0.46640701075E+02  0.10641547350E+02  0.22064931327E+02  0.52682622574E+02  0.00000000000E+00 0.  1.
         13    1    3    3    0    0 -0.53155747989E+01 -0.68519975788E+02  0.46579792538E+01  0.68883518988E+02  0.00000000000E+00 0. -1.
         21    1    1    2  503  502  0.48535790697E+02  0.11858864594E+02  0.15574352376E+02  0.52334654866E+02  0.00000000000E+00 0. -1.
          1    1    1    2  501    0 -0.54721287313E+01  0.27121096673E+02 -0.36287754618E+02  0.45632216830E+02  0.00000000000E+00 0. -1.
<scales pt_clust_5="13000.00000" pt_clust_6="13000.00000" pt_clust_7="13000.00000" pt_clust_8="13000.00000" pt_clust_9="50.46051" pt_clust_10="27.66765"></scales>
<clustering>
<clus scale="   27.668">  1 10  2 -1</clus>
<clus scale="   50.461">  2  9  1 -1</clus>
<clus scale="   80.854">  5  6 -1 -1</clus>
<clus scale="   89.526">  7  8 -1 -1</clus>
<clus scale="   92.961">  1  5  2 -1</clus>
<clus scale="   27.668">  1  5  2 -1</clus>
</clustering>
</event>
<event>
10    4  0.3403565E-005  0.1877500E+03  0.7546771E-02  0.1194271E+00
         21   -1    0    0  501  502  0.00000000000E+00  0.00000000000E+00  0.10676172242E+03  0.10676172242E+03  0.00000000000E+00 0.  1.
          2   -1    0    0  503    0 -0.00000000000E+00 -0.00000000000E+00 -0.98937760598E+03  0.98937760598E+03  0.00000000000E+00 0. -1.
         24    2    1    2    0    0 -0.20831366729E+02 -0.20699179743E+02 -0.96396651680E+02  0.13124117654E+03  0.84080497632E+02 0.  0.
         23    2    1    2    0    0 -0.14594277305E+03 -0.83826015840E+02 -0.18211981835E+03  0.26456198857E+03  0.92191776306E+02 0.  0.
        -11    1    3    3    0    0 -0.94144385075E+01 -0.48404230359E+02 -0.86707046140E+02  0.99748248202E+02  0.00000000000E+00 0.  1.
         12    1    3    3    0    0 -0.11416928222E+02  0.27705050615E+02 -0.96896055395E+01  0.31492928335E+02  0.00000000000E+00 0. -1.
        -13    1    4    4    0    0 -0.89880174250E+02 -0.37411708878E+02 -0.40716652982E+02  0.10552690422E+03  0.00000000000E+00 0.  1.
         13    1    4    4    0    0 -0.56062598803E+02 -0.46414306963E+02 -0.14140316537E+03  0.15903508435E+03  0.00000000000E+00 0. -1.
         21    1    1    2  503  502  0.10508117706E+02  0.17736904195E+02  0.32848504514E+02  0.38781987533E+02  0.00000000000E+00 0. -1.
          1    1    1    2  501    0  0.15626602208E+03  0.86788291389E+02 -0.63694791804E+03  0.66155417576E+03  0.00000000000E+00 0. -1.
<scales pt_clust_5="13000.00000" pt_clust_6="13000.00000" pt_clust_7="13000.00000" pt_clust_8="13000.00000" pt_clust_9="20.61597" pt_clust_10="163.55664"></scales>
<clustering>
<clus scale="   20.616">  1  9  2 -1</clus>
<clus scale="   84.080">  5  6 -1 -1</clus>
<clus scale="   87.577">  2  5  1 -1</clus>
<clus scale="   92.192">  7  8 -1 -1</clus>
<clus scale="  163.557">  1 10  2 -1</clus>
<clus scale="   20.616">  1  5  2 -1</clus>
</clustering>
</event>
<event>
10    4  0.3403565E-005  0.1200978E+03  0.7546771E-02  0.1245245E+00
         21   -1    0    0  503  502  0.00000000000E+00  0.00000000000E+00  0.74100615246E+02  0.74100615246E+02  0.00000000000E+00 0.  1.
         -1   -1    0    0    0  501 -0.00000000000E+00 -0.00000000000E+00 -0.87785834261E+03  0.87785834261E+03  0.00000000000E+00 0.  1.
         24    2    1    2    0    0 -0.26911978532E+02 -0.80721646424E+02 -0.42188253111E+03  0.43835603881E+03  0.83252074529E+02 0.  0.
         23    2    1    2    0    0  0.40787577593E+02  0.39617419973E+02 -0.43430446178E+02  0.11547066835E+03  0.90631700546E+02 0.  0.
        -11    1    3    3    0    0 -0.30041430359E+02 -0.96941577774E+02 -0.34001285346E+03  0.35483643775E+03  0.00000000000E+00 0.  1.
         12    1    3    3    0    0  0.31294518269E+01  0.16219931350E+02 -0.81869677656E+02  0.83519601060E+02  0.00000000000E+00 0. -1.
        -11    1    4    4    0    0  0.62731000817E+01  0.62594717264E+02 -0.13519369112E+02  0.64344570519E+02  0.00000000000E+00 0.  1.
         11    1    4    4    0    0  0.34514477511E+02 -0.22977297292E+02 -0.29911077066E+02  0.51126097836E+02  0.00000000000E+00 0. -1.
         21    1    1    2  503  501  0.17495359621E+02 -0.44086897381E+02  0.30105318509E+00  0.47432402026E+02  0.00000000000E+00 0. -1.
         -2    1    1    2    0  502 -0.31370958682E+02  0.85191123832E+02 -0.33874580326E+03  0.35069984867E+03  0.00000000000E+00 0.  1.
<scales pt_clust_5="13000.00000" pt_clust_6="13000.00000" pt_clust_7="13000.00000" pt_clust_8="13000.00000" pt_clust_9="47.43145" pt_clust_10="85.14195"></scales>
<clustering>
<clus scale="   47.431">  1  9  2 -1</clus>
<clus scale="   83.252">  5  6 -1 -1</clus>
<clus scale="   85.142">  1 10  2 -1</clus>
<clus scale="   90.632">  7  8 -1 -1</clus>
<clus scale="  114.631">  2  5  1 -1</clus>
<clus scale="   47.431">  1  5  2 -1</clus>
</clustering>
</event>
<event>
10    4  0.3403565E-005  0.3829572E+03  0.7546771E-02  0.1100423E+00
         21   -1    0    0  501  502  0.00000000000E+00  0.00000000000E+00  0.17440290229E+03  0.17440290229E+03  0.00000000000E+00 0.  1.
         -3   -1    0    0    0  501 -0.00000000000E+00 -0.00000000000E+00 -0.12003130930E+04  0.12003130930E+04  0.00000000000E+00 0.  1.
         23    2    1    2    0    0  0.28017846303E+02 -0.11639030906E+02 -0.58730303235E+02  0.11396630288E+03  0.92836431003E+02 0.  0.
         24    2    1    2    0    0  0.24548796193E+03 -0.28164669415E+03 -0.55433611806E+03  0.67298589503E+03  0.77667775438E+02 0.  0.
        -13    1    4    4    0    0  0.20509066092E+03 -0.24308116530E+03 -0.41485195262E+03  0.52273585559E+03  0.00000000000E+00 0.  1.
         14    1    4    4    0    0  0.40397301008E+02 -0.38565528849E+02 -0.13948416543E+03  0.15025003944E+03  0.00000000000E+00 0. -1.
        -11    1    3    3    0    0 -0.18754671474E+02 -0.24876229034E+02  0.72761177536E+01  0.31992285986E+02  0.00000000000E+00 0.  1.
         11    1    3    3    0    0  0.46772517776E+02  0.13237198128E+02 -0.66006420988E+02  0.81974016890E+02  0.00000000000E+00 0. -1.
         21    1    1    2  503  502 -0.90120402179E+01  0.29780636678E+02  0.32357560490E-01  0.31114373477E+02  0.00000000000E+00 0.  1.
         -4    1    1    2    0  503 -0.26449376801E+03  0.26350508838E+03 -0.41287612698E+03  0.55664942392E+03  0.00000000000E+00 0.  1.
<scales pt_clust_5="13000.00000" pt_clust_6="13000.00000" pt_clust_7="13000.00000" pt_clust_8="13000.00000" pt_clust_9="31.11436" pt_clust_10="374.99857"></scales>
<clustering>
<clus scale="   31.114">  1  9  2 -1</clus>
<clus scale="   77.668">  5  6 -1 -1</clus>
<clus scale="   92.836">  7  8 -1 -1</clus>
<clus scale="   96.747">  2  7  1 -1</clus>
<clus scale="  374.999">  1 10  2 -1</clus>
<clus scale="   31.114">  1  5  2 -1</clus>
</clustering>
</event>
<event>
10    4  0.3403565E-005  0.1043009E+03  0.7546771E-02  0.1277183E+00
         -1   -1    0    0    0  501 -0.00000000000E+00  0.00000000000E+00  0.16462176398E+03  0.16462176398E+03  0.00000000000E+00 0.  1.
         21   -1    0    0  501  502  0.00000000000E+00 -0.00000000000E+00 -0.20956431009E+03  0.20956431009E+03  0.00000000000E+00 0.  1.
         24    2    1    2    0    0 -0.31016336668E+02  0.30336856089E+02  0.17486311575E+02  0.93779690080E+02  0.81280509357E+02 0.  0.
         23    2    1    2    0    0 -0.43811190310E+01 -0.74489912077E+02 -0.11069466195E+03  0.16297260313E+03  0.93481655852E+02 0.  0.
        -11    1    3    3    0    0 -0.58268255394E+02  0.28133743944E+02  0.10396754721E+02  0.65534644607E+02  0.00000000000E+00 0.  1.
         12    1    3    3    0    0  0.27251918727E+02  0.22031121452E+01  0.70895568539E+01  0.28245045473E+02  0.00000000000E+00 0. -1.
        -13    1    4    4    0    0 -0.31585912690E+02 -0.60015030656E+02 -0.11329988032E+03  0.13204672153E+03  0.00000000000E+00 0.  1.
         13    1    4    4    0    0  0.27204793659E+02 -0.14474881421E+02  0.26052183685E+01  0.30925881603E+02  0.00000000000E+00 0. -1.
         21    1    1    2  503  502 -0.21478591602E+02  0.59100239279E+01 -0.12753315385E+02  0.25669151395E+02  0.00000000000E+00 0. -1.
         -2    1    1    2    0  503  0.56876047301E+02  0.38243032060E+02  0.61019119656E+02  0.91764629467E+02  0.00000000000E+00 0.  1.
<scales pt_clust_5="13000.00000" pt_clust_6="13000.00000" pt_clust_7="13000.00000" pt_clust_8="13000.00000" pt_clust_9="22.27686" pt_clust_10="67.37839"></scales>
<clustering>
<clus scale="   22.277">  2  9  1 -1</clus>
<clus scale="   67.378">  2 10  1 -1</clus>
<clus scale="   81.281">  5  6 -1 -1</clus>
<clus scale="   93.482">  7  8 -1 -1</clus>
<clus scale="   93.522">  1  5  2 -1</clus>
<clus scale="   22.277">  2  5  1 -1</clus>
</clustering>
</event>
<event>
10    4  0.3403565E-005  0.1975211E+03  0.7546771E-02  0.1152586E+00
         21   -1    0    0  501  502  0.00000000000E+00  0.00000000000E+00  0.10921973890E+03  0.10921973890E+03  0.00000000000E+00 0. -1.
          2   -1    0    0  503    0 -0.00000000000E+00 -0.00000000000E+00 -0.10565760820E+04  0.10565760820E+04  0.00000000000E+00 0. -1.
         23    2    1    2    0    0  0.12964804133E+03  0.99957583074E+02 -0.42472875435E+03  0.46128142153E+03  0.74738892428E+02 0.  0.
         24    2    1    2    0    0 -0.20572928141E+03 -0.51139763808E+02 -0.44525840028E+03  0.50011670030E+03  0.83197705645E+02 0.  0.
        -13    1    4    4    0    0 -0.11771596446E+03  0.12845409063E+02 -0.21539812431E+03  0.24580155569E+03  0.00000000000E+00 0.  1.
         14    1    4    4    0    0 -0.88013316941E+02 -0.63985172871E+02 -0.22986027598E+03  0.25431514461E+03  0.00000000000E+00 0. -1.
        -11    1    3    3    0    0  0.54974544205E+02  0.21579334961E+00 -0.11641291362E+03  0.12874087748E+03  0.00000000000E+00 0.  1.
         11    1    3    3    0    0  0.74673497129E+02  0.99741789724E+02 -0.30831584073E+03  0.33254054404E+03  0.00000000000E+00 0. -1.
         21    1    1    2  503  502  0.75752493270E+02 -0.77647301893E+02  0.13266798291E+02  0.10928655757E+03  0.00000000000E+00 0. -1.
          1    1    1    2  501    0  0.32874680197E+00  0.28829482627E+02 -0.90635986746E+02  0.95111141495E+02  0.00000000000E+00 0. -1.
<scales pt_clust_5="13000.00000" pt_clust_6="13000.00000" pt_clust_7="13000.00000" pt_clust_8="13000.00000" pt_clust_9="97.49067" pt_clust_10="28.83137"></scales>
<clustering>
<clus scale="   28.831">  1 10  2 -1</clus>
<clus scale="   74.739">  7  8 -1 -1</clus>
<clus scale="   83.198">  5  6 -1 -1</clus>
<clus scale="   97.491">  1  9  2 -1</clus>
<clus scale="  194.110">  2  7  1 -1</clus>
<clus scale="   28.831">  1  5  2 -1</clus>
</clustering>
</event>
<event>
10    4  0.3403565E-005  0.1013292E+03  0.7546771E-02  0.1282950E+00
         21   -1    0    0  501  502  0.00000000000E+00  0.00000000000E+00  0.23941046100E+03  0.23941046100E+03  0.00000000000E+00 0.  1.
         -1   -1    0    0    0  501 -0.00000000000E+00 -0.00000000000E+00 -0.13263685526E+03  0.13263685526E+03  0.00000000000E+00 0.  1.
         24    2    1    2    0    0 -0.23796588806E+02  0.15105174223E+02 -0.26360785177E+02  0.92323516664E+02  0.83870714834E+02 0.  0.
         23    2    1    2    0    0  0.69063829507E+02 -0.25931972049E+02  0.12370786495E+03  0.17232227197E+03  0.94599417791E+02 0.  0.
        -11    1    3    3    0    0  0.26172995726E+02  0.26138615753E+02 -0.14929141690E+02  0.39888998613E+02  0.00000000000E+00 0.  1.
         12    1    3    3    0    0 -0.49969584533E+02 -0.11033441530E+02 -0.11431643487E+02  0.52434518050E+02  0.00000000000E+00 0. -1.
        -13    1    4    4    0    0 -0.51698999526E+01 -0.36009467679E+02  0.12964049764E+02  0.38619635088E+02  0.00000000000E+00 0. -1.
         13    1    4    4    0    0  0.74233729460E+02  0.10077495631E+02  0.11074381518E+03  0.13370263688E+03  0.00000000000E+00 0.  1.
         21    1    1    2  503  502 -0.19360035483E+02 -0.17741200981E+02  0.46821694454E+02  0.53682699798E+02  0.00000000000E+00 0.  1.
         -2    1    1    2    0  503 -0.25907205218E+02  0.28567998807E+02 -0.37395168474E+02  0.53718827829E+02  0.00000000000E+00 0.  1.
<scales pt_clust_5="13000.00000" pt_clust_6="13000.00000" pt_clust_7="13000.00000" pt_clust_8="13000.00000" pt_clust_9="26.25950" pt_clust_10="38.57648"></scales>
<clustering>
<clus scale="   26.259">  1  9  2 -1</clus>
<clus scale="   38.576">  1 10  2 -1</clus>
<clus scale="   83.871">  5  6 -1 -1</clus>
<clus scale="   91.394">  2  5  1 -1</clus>
<clus scale="   94.599">  7  8 -1 -1</clus>
<clus scale="   26.259">  1  5  2 -1</clus>
</clustering>
</event>
<event>
10    4  0.3403565E-005  0.2973289E+03  0.7546771E-02  0.1120937E+00
         -1   -1    0    0    0  501 -0.00000000000E+00  0.00000000000E+00  0.32486859927E+03  0.32486859927E+03  0.00000000000E+00 0.  1.
         21   -1    0    0  501  502  0.00000000000E+00 -0.00000000000E+00 -0.74498736641E+03  0.74498736641E+03  0.00000000000E+00 0. -1.
         23    2    1    2    0    0 -0.32773652438E+02  0.73368362963E+02  0.73956111118E+02  0.14233590973E+03  0.91285134880E+02 0.  0.
         24    2    1    2    0    0  0.25303385690E+03  0.13141918269E+03 -0.41836897803E+03  0.51276919266E+03  0.81255823450E+02 0.  0.
        -11    1    4    4    0    0  0.13602021263E+03  0.25066734869E+02 -0.19077072831E+03  0.23563384779E+03  0.00000000000E+00 0.  1.
         12    1    4    4    0    0  0.11701364426E+03  0.10635244782E+03 -0.22759824972E+03  0.27713534487E+03  0.00000000000E+00 0. -1.
        -11    1    3    3    0    0 -0.18704931099E+01  0.86179095184E+02  0.64228195454E+02  0.10749695941E+03  0.00000000000E+00 0.  1.
         11    1    3    3    0    0 -0.30903159328E+02 -0.12810732221E+02  0.97279156635E+01  0.34838950323E+02  0.00000000000E+00 0. -1.
         21    1    1    2  503  502 -0.17376591335E+02  0.24606126575E+02 -0.10298280930E+03  0.10729802609E+03  0.00000000000E+00 0.  1.
         -2    1    1    2    0  503 -0.20288361312E+03 -0.22939367223E+03  0.27276909071E+02  0.30745283720E+03  0.00000000000E+00 0.  1.
<scales pt_clust_5="13000.00000" pt_clust_6="13000.00000" pt_clust_7="13000.00000" pt_clust_8="13000.00000" pt_clust_9="30.12320" pt_clust_10="286.01057"></scales>
<clustering>
<clus scale="   30.123">  2  9  1 -1</clus>
<clus scale="   81.256">  5  6 -1 -1</clus>
<clus scale="   91.285">  7  8 -1 -1</clus>
<clus scale="  122.664">  1  7  2 -1</clus>
<clus scale="  286.011">  2 10  1 -1</clus>
<clus scale="   30.123">  2  5  1 -1</clus>
</clustering>
</event>
<event>
10    4  0.3403565E-005  0.1041528E+03  0.7546771E-02  0.1276428E+00
         21   -1    0    0  503  502  0.00000000000E+00  0.00000000000E+00  0.43699976168E+02  0.43699976168E+02  0.00000000000E+00 0. -1.
          2   -1    0    0  502    0 -0.00000000000E+00 -0.00000000000E+00 -0.68250368113E+03  0.68250368113E+03  0.00000000000E+00 0. -1.
         23    2    1    2    0    0  0.21333503945E+02  0.14673835820E+02 -0.19482118463E+03  0.21655766765E+03  0.90947729987E+02 0.  0.
         24    2    1    2    0    0  0.39786502139E+02 -0.89298933573E+02 -0.32306097702E+03  0.34702889949E+03  0.80643641505E+02 0.  0.
        -11    1    4    4    0    0 -0.24724369741E+02 -0.25670991264E+02 -0.10531997394E+03  0.11118718974E+03  0.00000000000E+00 0.  1.
         12    1    4    4    0    0  0.64510871881E+02 -0.63627942309E+02 -0.21774100308E+03  0.23584170974E+03  0.00000000000E+00 0. -1.
        -11    1    3    3    0    0  0.23491890141E+02  0.39846779376E+02 -0.18283093617E+03  0.18859158504E+03  0.00000000000E+00 0. -1.
         11    1    3    3    0    0 -0.21583861957E+01 -0.25172943557E+02 -0.11990248463E+02  0.27966082608E+02  0.00000000000E+00 0.  1.
         21    1    1    2  503  501 -0.22625517222E+02  0.16919603984E+02 -0.67862492151E+01  0.29055811931E+02  0.00000000000E+00 0. -1.
          1    1    1    2  501    0 -0.38494488862E+02  0.57705493769E+02 -0.11413529409E+03  0.13356127822E+03  0.00000000000E+00 0. -1.
<scales pt_clust_5="13000.00000" pt_clust_6="13000.00000" pt_clust_7="13000.00000" pt_clust_8="13000.00000" pt_clust_9="28.25220" pt_clust_10="77.36101"></scales>
<clustering>
<clus scale="   28.252">  1  9  2 -1</clus>
<clus scale="   77.361">  1 10  2 -1</clus>
<clus scale="   80.644">  5  6 -1 -1</clus>
<clus scale="   90.948">  7  8 -1 -1</clus>
<clus scale="   95.288">  1  5  2 -1</clus>
<clus scale="   28.252">  1  5  2 -1</clus>
</clustering>
</event>
<event>
10    4  0.3403565E-005  0.1291970E+03  0.7546771E-02  0.1245198E+00
         21   -1    0    0  503  502  0.00000000000E+00  0.00000000000E+00  0.49479055617E+03  0.49479055617E+03  0.00000000000E+00 0. -1.
          2   -1    0    0  502    0 -0.00000000000E+00 -0.00000000000E+00 -0.10579693584E+03  0.10579693584E+03  0.00000000000E+00 0. -1.
         23    2    1    2    0    0 -0.39629758256E+00 -0.13022755563E+02  0.72088083254E+02  0.11772649236E+03  0.92157940742E+02 0.  0.
         24    2    1    2    0    0 -0.84332005689E+02 -0.67954031288E+02  0.42951389379E+01  0.13504416470E+03  0.80553340396E+02 0.  0.
        -13    1    4    4    0    0 -0.47953061038E+02 -0.35307284888E+02  0.42370608617E+02  0.73084669416E+02  0.00000000000E+00 0.  1.
         14    1    4    4    0    0 -0.36378944651E+02 -0.32646746400E+02 -0.38075469679E+02  0.61959495283E+02  0.00000000000E+00 0. -1.
        -13    1    3    3    0    0  0.30888747414E+02 -0.62210841286E+01 -0.71106340648E+01  0.32301357887E+02  0.00000000000E+00 0.  1.
         13    1    3    3    0    0 -0.31285044997E+02 -0.68016714344E+01  0.79198717318E+02  0.85425134472E+02  0.00000000000E+00 0. -1.
         21    1    1    2  503  501  0.65046068022E+01  0.57478070819E+02  0.64649060050E+02  0.86749867436E+02  0.00000000000E+00 0. -1.
          1    1    1    2  501    0  0.78223696469E+02  0.23498716032E+02  0.24796133808E+03  0.26106696752E+03  0.00000000000E+00 0. -1.
<scales pt_clust_5="13000.00000" pt_clust_6="13000.00000" pt_clust_7="13000.00000" pt_clust_8="13000.00000" pt_clust_9="57.84495" pt_clust_10="101.01006"></scales>
<clustering>
<clus scale="   57.845">  1  9  2 -1</clus>
<clus scale="   80.553">  5  6 -1 -1</clus>
<clus scale="   92.158">  7  8 -1 -1</clus>
<clus scale="   92.164">  2  7  1 -1</clus>
<clus scale="  101.010">  1 10  2 -1</clus>
<clus scale="   57.845">  1  5  2 -1</clus>
</clustering>
</event>
<event>
10    4  0.3403565E-005  0.1291298E+03  0.7546771E-02  0.1232572E+00
         21   -1    0    0  501  502  0.00000000000E+00  0.00000000000E+00  0.17805417897E+03  0.17805417897E+03  0.00000000000E+00 0.  1.
          2   -1    0    0  503    0 -0.00000000000E+00 -0.00000000000E+00 -0.17554026568E+03  0.17554026568E+03  0.00000000000E+00 0. -1.
         24    2    1    2    0    0  0.10286392114E+03  0.38439434787E+02 -0.27794125220E+02  0.13691956705E+03  0.76914745176E+02 0.  0.
         23    2    1    2    0    0 -0.75250403616E+02  0.31097529534E+01  0.58702954265E+02  0.13215516983E+03  0.91360047431E+02 0.  0.
        -11    1    3    3    0    0  0.10709987275E+03  0.14775958271E+02 -0.13506895845E+02  0.10895479760E+03  0.00000000000E+00 0.  1.
         12    1    3    3    0    0 -0.42359516114E+01  0.23663476515E+02 -0.14287229375E+02  0.27964769444E+02  0.00000000000E+00 0. -1.
        -11    1    4    4    0    0 -0.85725116237E+01  0.32115095895E+02 -0.72112177105E+01  0.34012777022E+02  0.00000000000E+00 0.  1.
         11    1    4    4    0    0 -0.66677891992E+02 -0.29005342941E+02  0.65914171976E+02  0.98142392812E+02  0.00000000000E+00 0. -1.
         21    1    1    2  503  502 -0.23959799169E+02  0.10235120053E+02 -0.16101633556E+01  0.26104066441E+02  0.00000000000E+00 0. -1.
          1    1    1    2  501    0 -0.36537183517E+01 -0.51784307793E+02 -0.26784752401E+02  0.58415641335E+02  0.00000000000E+00 0. -1.
<scales pt_clust_5="13000.00000" pt_clust_6="13000.00000" pt_clust_7="13000.00000" pt_clust_8="13000.00000" pt_clust_9="26.05436" pt_clust_10="50.08917"></scales>
<clustering>
<clus scale="   26.054">  2  9  1 -1</clus>
<clus scale="   50.089">  1 10  2 -1</clus>
<clus scale="   76.915">  5  6 -1 -1</clus>
<clus scale="   91.360">  7  8 -1 -1</clus>
<clus scale="  119.347">  2  5  1 -1</clus>
<clus scale="   50.089">  1  5  2 -1</clus>
</clustering>
</event>
<event>
10    4  0.3403565E-005  0.1805603E+03  0.7546771E-02  0.1197216E+00
          2   -1    0    0  502    0 -0.00000000000E+00  0.00000000000E+00  0.41849748977E+03  0.41849748977E+03  0.00000000000E+00 0. -1.
         21   -1    0    0  503  502  0.00000000000E+00 -0.00000000000E+00 -0.20388338256E+03  0.20388338256E+03  0.00000000000E+00 0. -1.
         23    2    1    2    0    0  0.13206855724E+02  0.58126134367E+01  0.21717845438E+02  0.95473788394E+02  0.91844280969E+02 0.  0.
         24    2    1    2    0    0  0.96298710233E+02  0.12597605041E+03  0.25456959424E+03  0.31035016069E+03  0.79800608143E+02 0.  0.
        -11    1    4    4    0    0  0.26040171604E+01  0.56207104366E+02  0.11733460301E+03  0.13012850783E+03  0.00000000000E+00 0.  1.
         12    1    4    4    0    0  0.93694693072E+02  0.69768946045E+02  0.13723499123E+03  0.18022165286E+03  0.00000000000E+00 0. -1.
        -13    1    3    3    0    0  0.40865255376E+02 -0.55192554773E+01 -0.18639357508E+02  0.45253253212E+02  0.00000000000E+00 0. -1.
         13    1    3    3    0    0 -0.27658399652E+02  0.11331868914E+02  0.40357202946E+02  0.50220535182E+02  0.00000000000E+00 0.  1.
         21    1    1    2  503  501 -0.19719944832E+02 -0.51345221553E+01 -0.57768642724E+02  0.61257290375E+02  0.00000000000E+00 0. -1.
          1    1    1    2  501    0 -0.89785621126E+02 -0.12665414169E+03 -0.39046897396E+01  0.15529963287E+03  0.00000000000E+00 0. -1.
<scales pt_clust_5="13000.00000" pt_clust_6="13000.00000" pt_clust_7="13000.00000" pt_clust_8="13000.00000" pt_clust_9="20.37743" pt_clust_10="161.96876"></scales>
<clustering>
<clus scale="   20.377">  2  9  1 -1</clus>
<clus scale="   79.801">  5  6 -1 -1</clus>
<clus scale="   91.844">  7  8 -1 -1</clus>
<clus scale="   92.317">  1  7  2 -1</clus>
<clus scale="  161.969">  2 10  1 -1</clus>
<clus scale="   20.377">  2  5  1 -1</clus>
</clustering>
</event>
<event>
10    4  0.3403565E-005  0.3410241E+03  0.7546771E-02  0.1082481E+00
         -1   -1    0    0    0  501 -0.00000000000E+00  0.00000000000E+00  0.50321169086E+03  0.50321169086E+03  0.00000000000E+00 0.  1.
         21   -1    0    0  503  502  0.00000000000E+00 -0.00000000000E+00 -0.98217429056E+03  0.98217429056E+03  0.00000000000E+00 0.  1.
         24    2    1    2    0    0 -0.14363668485E+03  0.14318575356E+03 -0.12451707757E+02  0.21850934045E+03  0.80359377663E+02 0.  0.
         23    2    1    2    0    0 -0.97271592849E+02 -0.32920444883E+03  0.20316090968E+03  0.40921454959E+03  0.91350207802E+02 0.  0.
        -13    1    3    3    0    0 -0.10477200725E+03  0.58875982171E+02  0.16394951005E+02  0.12129447307E+03  0.00000000000E+00 0.  1.
         14    1    3    3    0    0 -0.38864677606E+02  0.84309771392E+02 -0.28846658761E+02  0.97214867378E+02  0.00000000000E+00 0. -1.
        -13    1    4    4    0    0 -0.82174488068E+02 -0.27288306931E+03  0.20470013916E+03  0.35088454366E+03  0.00000000000E+00 0.  1.
         13    1    4    4    0    0 -0.15097104781E+02 -0.56321379528E+02 -0.15392294832E+01  0.58330005933E+02  0.00000000000E+00 0. -1.
         21    1    1    2  503  501 -0.67589595945E+02 -0.57618720733E+02 -0.31814276938E+03  0.33030757207E+03  0.00000000000E+00 0.  1.
         -2    1    1    2    0  502  0.30849787365E+03  0.24363741600E+03 -0.35152903225E+03  0.52735451931E+03  0.00000000000E+00 0.  1.
<scales pt_clust_5="13000.00000" pt_clust_6="13000.00000" pt_clust_7="13000.00000" pt_clust_8="13000.00000" pt_clust_9="88.81594" pt_clust_10="328.56134"></scales>
<clustering>
<clus scale="   80.359">  5  6 -1 -1</clus>
<clus scale="   88.816">  2  9  1 -1</clus>
<clus scale="   91.350">  7  8 -1 -1</clus>
<clus scale="  219.878">  1  5  2 -1</clus>
<clus scale="  328.561">  2 10  1 -1</clus>
<clus scale="   88.816">  2  5  1 -1</clus>
</clustering>
</event>
<event>
10    4  0.3403565E-005  0.1727402E+03  0.7546771E-02  0.1176703E+00
         21   -1    0    0  501  502  0.00000000000E+00  0.00000000000E+00  0.39919199781E+03  0.39919199781E+03  0.00000000000E+00 0.  1.
          2   -1    0    0  503    0 -0.00000000000E+00 -0.00000000000E+00 -0.20726201443E+03  0.20726201443E+03  0.00000000000E+00 0. -1.
         23    2    1    2    0    0 -0.54009565149E+02  0.12084314332E+03 -0.59266490827E+02  0.17284677603E+03  0.94039314301E+02 0.  0.
         24    2    1    2    0    0  0.57175891818E+01 -0.21243543629E+03  0.20047729025E+03  0.30332507068E+03  0.81568677698E+02 0.  0.
        -13    1    4    4    0    0 -0.25713195036E+02 -0.17421517144E+03  0.17234107990E+03  0.24640118137E+03  0.00000000000E+00 0.  1.
         14    1    4    4    0    0  0.31430784218E+02 -0.38220264849E+02  0.28136210347E+02  0.56923889312E+02  0.00000000000E+00 0. -1.
        -11    1    3    3    0    0 -0.44474939582E+02  0.53844506634E+02 -0.75918387740E+02  0.10315450907E+03  0.00000000000E+00 0. -1.
         11    1    3    3    0    0 -0.95346255662E+01  0.66998636690E+02  0.16651896912E+02  0.69692266959E+02  0.00000000000E+00 0.  1.
         21    1    1    2  503  502  0.13063203501E+02  0.53011350343E+02  0.55457263803E+02  0.77822610207E+02  0.00000000000E+00 0.  1.
          1    1    1    2  501    0  0.35228772466E+02  0.38580942625E+02 -0.47380798447E+01  0.52459555315E+02  0.00000000000E+00 0. -1.
<scales pt_clust_5="13000.00000" pt_clust_6="13000.00000" pt_clust_7="13000.00000" pt_clust_8="13000.00000" pt_clust_9="62.90129" pt_clust_10="52.24517"></scales>
<clustering>
<clus scale="   52.245">  1 10  2 -1</clus>
<clus scale="   62.901">  1  9  2 -1</clus>
<clus scale="   81.569">  5  6 -1 -1</clus>
<clus scale="   94.039">  7  8 -1 -1</clus>
<clus scale="  166.281">  1  5  2 -1</clus>
<clus scale="   52.245">  1  5  2 -1</clus>
</clustering>
</event>
<event>
10    4  0.3403565E-005  0.2093809E+03  0.7546771E-02  0.1179725E+00
          2   -1    0    0  503    0 -0.00000000000E+00  0.00000000000E+00  0.27929228475E+03  0.27929228475E+03  0.00000000000E+00 0. -1.
         21   -1    0    0  501  502  0.00000000000E+00 -0.00000000000E+00 -0.26831367441E+03  0.26831367441E+03  0.00000000000E+00 0. -1.
         24    2    1    2    0    0  0.11384987475E+01  0.11259732743E+02 -0.19913518437E+02  0.89930282188E+02  0.86964531144E+02 0.  0.
         23    2    1    2    0    0 -0.33352021034E+02 -0.17742824026E+03 -0.17654446645E+02  0.19998094324E+03  0.84187650071E+02 0.  0.
        -13    1    3    3    0    0 -0.61787703471E+01  0.30658971492E+02 -0.46608584394E+02  0.56129402947E+02  0.00000000000E+00 0.  1.
         14    1    3    3    0    0  0.73172690946E+01 -0.19399238749E+02  0.26695065957E+02  0.33800879242E+02  0.00000000000E+00 0. -1.
        -13    1    4    4    0    0 -0.10522318906E+01 -0.10758865232E+03 -0.47285386575E+02  0.11752588261E+03  0.00000000000E+00 0. -1.
         13    1    4    4    0    0 -0.32299789144E+02 -0.69839587938E+02  0.29630939930E+02  0.82455060628E+02  0.00000000000E+00 0.  1.
         21    1    1    2  503  502  0.19011400307E+02 -0.40908341766E+02  0.14768280129E+02  0.47466070678E+02  0.00000000000E+00 0. -1.
          1    1    1    2  501    0  0.13202121980E+02  0.20707684928E+03  0.33778295297E+02  0.21022866305E+03  0.00000000000E+00 0. -1.
<scales pt_clust_5="13000.00000" pt_clust_6="13000.00000" pt_clust_7="13000.00000" pt_clust_8="13000.00000" pt_clust_9="45.11015" pt_clust_10="191.71026"></scales>
<clustering>
<clus scale="   45.110">  1  9  2 -1</clus>
<clus scale="   84.188">  7  8 -1 -1</clus>
<clus scale="   86.965">  5  6 -1 -1</clus>
<clus scale="   87.221">  1  5  2 -1</clus>
<clus scale="  191.710">  2 10  1 -1</clus>
<clus scale="  191.710">  2  5  1 -1</clus>
</clustering>
</event>
<event>
10    4  0.3403565E-005  0.1085406E+03  0.7546771E-02  0.1266141E+00
          2   -1    0    0  502    0 -0.00000000000E+00  0.00000000000E+00  0.78943129016E+03  0.78943129016E+03  0.00000000000E+00 0. -1.
         21   -1    0    0  503  502  0.00000000000E+00 -0.00000000000E+00 -0.42699076452E+02  0.42699076452E+02  0.00000000000E+00 0.  1.
         24    2    1    2    0    0 -0.45530810761E+02 -0.46408538419E+02  0.43037156586E+03  0.44255157943E+03  0.80033796566E+02 0.  0.
         23    2    1    2    0    0  0.81768761111E+02 -0.23810799603E+01  0.15221068179E+03  0.19365602472E+03  0.87422905610E+02 0.  0.
        -11    1    3    3    0    0 -0.19963571653E+02  0.11178292534E+02  0.32642252680E+02  0.39862451971E+02  0.00000000000E+00 0.  1.
         12    1    3    3    0    0 -0.25567239108E+02 -0.57586830953E+02  0.39772931318E+03  0.40268912746E+03  0.00000000000E+00 0. -1.
        -11    1    4    4    0    0  0.30000824062E+02  0.30826130788E+02  0.11250959385E+03  0.12045210041E+03  0.00000000000E+00 0. -1.
         11    1    4    4    0    0  0.51767937049E+02 -0.33207210748E+02  0.39701087941E+02  0.73203924319E+02  0.00000000000E+00 0.  1.
         21    1    1    2  503  501 -0.19645223142E+02 -0.92992512754E+01  0.78917922001E+00  0.21749337241E+02  0.00000000000E+00 0. -1.
          1    1    1    2  501    0 -0.16592727208E+02  0.58088869654E+02  0.16336078684E+03  0.17417342522E+03  0.00000000000E+00 0. -1.
<scales pt_clust_5="13000.00000" pt_clust_6="13000.00000" pt_clust_7="13000.00000" pt_clust_8="13000.00000" pt_clust_9="21.73501" pt_clust_10="59.92537"></scales>
<clustering>
<clus scale="   21.735">  2  9  1 -1</clus>
<clus scale="   59.925">  2 10  1 -1</clus>
<clus scale="   80.034">  5  6 -1 -1</clus>
<clus scale="   87.423">  7  8 -1 -1</clus>
<clus scale="  102.683">  1  5  2 -1</clus>
<clus scale="   21.735">  2  5  1 -1</clus>
</clustering>
</event>
<event>
10    4  0.3403565E-005  0.4844561E+03  0.7546771E-02  0.1053796E+00
          2   -1    0    0  502    0 -0.00000000000E+00  0.00000000000E+00  0.81728387200E+03  0.81728387200E+03  0.00000000000E+00 0. -1.
         21   -1    0    0  503  502  0.00000000000E+00 -0.00000000000E+00 -0.56937198211E+03  0.56937198211E+03  0.00000000000E+00 0. -1.
         24    2    1    2    0    0 -0.12615372339E+03 -0.80998309696E+02  0.31769318562E+03  0.35987990208E+03  0.78160703913E+02 0.  0.
         23    2    1    2    0    0  0.44261186747E+03 -0.24771937744E+03  0.10099397489E+03  0.52481297046E+03  0.89211634947E+02 0.  0.
        -11    1    3    3    0    0 -0.37409869461E+02 -0.89124508099E+01  0.25575380313E+02  0.46184739803E+02  0.00000000000E+00 0.  1.
         12    1    3    3    0    0 -0.88743853929E+02 -0.72085858886E+02  0.29211780530E+03  0.31369516228E+03  0.00000000000E+00 0. -1.
        -13    1    4    4    0    0  0.88951405123E+02 -0.17920603694E+02  0.37992676070E+02  0.98371458996E+02  0.00000000000E+00 0.  1.
         13    1    4    4    0    0  0.35366046235E+03 -0.22979877375E+03  0.63001298818E+02  0.42644151146E+03  0.00000000000E+00 0. -1.
         21    1    1    2  503  501 -0.71148056177E+02  0.14288953674E+02 -0.35967923986E+02  0.80993281516E+02  0.00000000000E+00 0.  1.
          1    1    1    2  501    0 -0.24531008791E+03  0.31442873347E+03 -0.13480734662E+03  0.42096970005E+03  0.00000000000E+00 0. -1.
<scales pt_clust_5="13000.00000" pt_clust_6="13000.00000" pt_clust_7="13000.00000" pt_clust_8="13000.00000" pt_clust_9="51.54615" pt_clust_10="51.54615"></scales>
<clustering>
<clus scale="   51.546">  9 10 -1 -1</clus>
<clus scale="   78.161">  5  6 -1 -1</clus>
<clus scale="   89.212">  7  8 -1 -1</clus>
<clus scale="  169.070">  1  5  2 -1</clus>
<clus scale="  477.551">  1  7  2 -1</clus>
<clus scale="  484.456">  2  5  1 -1</clus>
</clustering>
</event>
<event>
10    4  0.3403565E-005  0.1270360E+03  0.7546771E-02  0.1236016E+00
         21   -1    0    0  501  502  0.00000000000E+00  0.00000000000E+00  0.22342292742E+03  0.22342292742E+03  0.00000000000E+00 0.  1.
          2   -1    0    0  503    0 -0.00000000000E+00 -0.00000000000E+00 -0.11847616568E+04  0.11847616568E+04  0.00000000000E+00 0. -1.
         24    2    1    2    0    0  0.16140726323E+02 -0.95445815772E+02 -0.80303424214E+03  0.81223133698E+03  0.74062972675E+02 0.  0.
         23    2    1    2    0    0  0.13807323684E+02  0.78701938343E+02 -0.35865840413E+03  0.37815551831E+03  0.89337046594E+02 0.  0.
        -11    1    3    3    0    0  0.16547530815E+02 -0.49569510231E+02 -0.17792278935E+03  0.18543860464E+03  0.00000000000E+00 0.  1.
         12    1    3    3    0    0 -0.40680449234E+00 -0.45876305541E+02 -0.62511145279E+03  0.62679273234E+03  0.00000000000E+00 0. -1.
        -13    1    4    4    0    0 -0.28271108527E+02  0.70452784713E+01 -0.44476067559E+02  0.53169654048E+02  0.00000000000E+00 0.  1.
         13    1    4    4    0    0  0.42078432211E+02  0.71656659872E+02 -0.31418233657E+03  0.32498586426E+03  0.00000000000E+00 0. -1.
         21    1    1    2  503  502 -0.20499170887E+02 -0.22582530858E+02  0.15070305008E+03  0.15375823884E+03  0.00000000000E+00 0.  1.
          1    1    1    2  501    0 -0.94488791194E+01  0.39326408287E+02  0.49650866849E+02  0.64039490037E+02  0.00000000000E+00 0. -1.
<scales pt_clust_5="13000.00000" pt_clust_6="13000.00000" pt_clust_7="13000.00000" pt_clust_8="13000.00000" pt_clust_9="30.49896" pt_clust_10="33.46617"></scales>
<clustering>
<clus scale="   30.499">  1  9  2 -1</clus>
<clus scale="   33.466">  1 10  2 -1</clus>
<clus scale="   74.063">  5  6 -1 -1</clus>
<clus scale="   89.337">  7  8 -1 -1</clus>
<clus scale="  116.800">  2  5  1 -1</clus>
<clus scale="   30.499">  1  5  2 -1</clus>
</clustering>
</event>
<event>
10    4  0.3403565E-005  0.1210410E+03  0.7546771E-02  0.1242485E+00
          2   -1    0    0  503    0 -0.00000000000E+00  0.00000000000E+00  0.50500121650E+03  0.50500121650E+03  0.00000000000E+00 0. -1.
         21   -1    0    0  501  502  0.00000000000E+00 -0.00000000000E+00 -0.63766215557E+02  0.63766215557E+02  0.00000000000E+00 0. -1.
         24    2    1    2    0    0 -0.38696818899E+02  0.40580005046E+02  0.12143528008E+03  0.15597335284E+03  0.80230785517E+02 0.  0.
         23    2    1    2    0    0  0.11079713648E+03 -0.61509040672E+02  0.23762336639E+03  0.28212864655E+03  0.84097214063E+02 0.  0.
        -13    1    3    3    0    0 -0.15267827926E+00  0.45727272043E+02  0.10349749587E+03  0.11314918634E+03  0.00000000000E+00 0.  1.
         14    1    3    3    0    0 -0.38544140620E+02 -0.51472669967E+01  0.17937784218E+02  0.42824166499E+02  0.00000000000E+00 0. -1.
        -11    1    4    4    0    0  0.72151644263E+02 -0.19730659108E+01  0.16732669697E+03  0.18223055803E+03  0.00000000000E+00 0. -1.
         11    1    4    4    0    0  0.38645492212E+02 -0.59535974762E+02  0.70296669420E+02  0.99898088524E+02  0.00000000000E+00 0.  1.
         21    1    1    2  503  502 -0.54560087662E+00  0.22893622315E+02  0.43848840373E+02  0.49468539751E+02  0.00000000000E+00 0.  1.
          1    1    1    2  501    0 -0.71554716699E+02 -0.19645866886E+01  0.38327514096E+02  0.81196892918E+02  0.00000000000E+00 0. -1.
<scales pt_clust_5="13000.00000" pt_clust_6="13000.00000" pt_clust_7="13000.00000" pt_clust_8="13000.00000" pt_clust_9="22.90012" pt_clust_10="71.63313"></scales>
<clustering>
<clus scale="   22.900">  1  9  2 -1</clus>
<clus scale="   71.633">  2 10  1 -1</clus>
<clus scale="   80.231">  5  6 -1 -1</clus>
<clus scale="   84.097">  7  8 -1 -1</clus>
<clus scale="  118.387">  1  5  2 -1</clus>
<clus scale="   71.633">  2  5  1 -1</clus>
</clustering>
</event>
<event>
10    4  0.3403565E-005  0.2489352E+03  0.7546771E-02  0.1148272E+00
          2   -1    0    0  503    0 -0.00000000000E+00  0.00000000000E+00  0.17678956898E+04  0.17678956898E+04  0.00000000000E+00 0. -1.
         21   -1    0    0  501  502  0.00000000000E+00 -0.00000000000E+00 -0.11261802102E+03  0.11261802102E+03  0.00000000000E+00 0.  1.
         24    2    1    2    0    0  0.10930042791E+02 -0.70474062604E+02  0.59127548819E+03  0.60086605343E+03  0.79669642247E+02 0.  0.
         23    2    1    2    0    0 -0.96437719366E+02 -0.17132955054E+03  0.72443646331E+02  0.23005684066E+03  0.94994839007E+02 0.  0.
        -11    1    3    3    0    0 -0.11633022427E+02 -0.80383056978E+02  0.41465133707E+03  0.42253105731E+03  0.00000000000E+00 0.  1.
         12    1    3    3    0    0  0.22563065219E+02  0.99089943737E+01  0.17662415112E+03  0.17833499612E+03  0.00000000000E+00 0. -1.
        -11    1    4    4    0    0 -0.86612444712E+02 -0.57216690661E+02  0.33184485878E+02  0.10898016045E+03  0.00000000000E+00 0.  1.
         11    1    4    4    0    0 -0.98252746538E+01 -0.11411285988E+03  0.39259160453E+02  0.12107668021E+03  0.00000000000E+00 0. -1.
         21    1    1    2  503  502 -0.27613356381E+02 -0.19391148499E+02  0.25004854253E+02  0.41997104983E+02  0.00000000000E+00 0.  1.
          1    1    1    2  501    0  0.11312103296E+03  0.26119476164E+03  0.96655368001E+03  0.10075937117E+04  0.00000000000E+00 0. -1.
<scales pt_clust_5="13000.00000" pt_clust_6="13000.00000" pt_clust_7="13000.00000" pt_clust_8="13000.00000" pt_clust_9="33.74187" pt_clust_10="230.09729"></scales>
<clustering>
<clus scale="   33.742">  2  9  1 -1</clus>
<clus scale="   79.670">  5  6 -1 -1</clus>
<clus scale="   94.995">  7  8 -1 -1</clus>
<clus scale="  107.396">  1  5  2 -1</clus>
<clus scale="  230.097">  2 10  1 -1</clus>
<clus scale="   33.742">  2  5  1 -1</clus>
</clustering>
</event>
<event>
10    4  0.3403565E-005  0.5759708E+03  0.7546771E-02  0.9956552E-01
         21   -1    0    0  503  502  0.00000000000E+00  0.00000000000E+00  0.24711530609E+03  0.24711530609E+03  0.00000000000E+00 0. -1.
          2   -1    0    0  502    0 -0.00000000000E+00 -0.00000000000E+00 -0.19919042120E+04  0.19919042120E+04  0.00000000000E+00 0. -1.
         24    2    1    2    0    0 -0.33315463194E+03  0.27506790112E+03 -0.60953010818E+03  0.75173558640E+03  0.83217066013E+02 0.  0.
         23    2    1    2    0    0 -0.22289931529E+02  0.83963691199E+02 -0.33305787446E+03  0.35495573939E+03  0.86713820702E+02 0.  0.
        -13    1    3    3    0    0 -0.95084922618E+02  0.12878872283E+03 -0.23893859397E+03  0.28760968225E+03  0.00000000000E+00 0.  1.
         14    1    3    3    0    0 -0.23806970932E+03  0.14627917829E+03 -0.37059151421E+03  0.46412590415E+03  0.00000000000E+00 0. -1.
        -11    1    4    4    0    0 -0.34786556813E+02  0.29895741086E+01 -0.15600375053E+03  0.15986310478E+03  0.00000000000E+00 0.  1.
         11    1    4    4    0    0  0.12496625285E+02  0.80974117090E+02 -0.17705412392E+03  0.19509263461E+03  0.00000000000E+00 0. -1.
         21    1    1    2  503  501 -0.12392966753E+02 -0.24132636498E+02  0.99161757705E+02  0.10280575840E+03  0.00000000000E+00 0. -1.
          1    1    1    2  501    0  0.36783753022E+03 -0.33489895582E+03 -0.90136268096E+03  0.10295224339E+04  0.00000000000E+00 0. -1.
<scales pt_clust_5="13000.00000" pt_clust_6="13000.00000" pt_clust_7="13000.00000" pt_clust_8="13000.00000" pt_clust_9="27.12876" pt_clust_10="500.69312"></scales>
<clustering>
<clus scale="   27.129">  1  9  2 -1</clus>
<clus scale="   83.217">  5  6 -1 -1</clus>
<clus scale="   86.714">  7  8 -1 -1</clus>
<clus scale="  121.288">  5  7 -1 -1</clus>
<clus scale="  500.693">  1 10  2 -1</clus>
<clus scale="   27.129">  1  5  2 -1</clus>
</clustering>
</event>
<event>
10    4  0.3403565E-005  0.3641651E+03  0.7546771E-02  0.1074645E+00
         -1   -1    0    0    0  501 -0.00000000000E+00  0.00000000000E+00  0.47587255023E+03  0.47587255023E+03  0.00000000000E+00 0.  1.
         21   -1    0    0  501  502  0.00000000000E+00 -0.00000000000E+00 -0.91281363798E+03  0.91281363798E+03  0.00000000000E+00 0. -1.
         23    2    1    2    0    0 -0.56403389970E+02  0.20954567259E+03 -0.22541565979E+03  0.32600250775E+03  0.91513300012E+02 0.  0.
         24    2    1    2    0    0  0.30282668377E+03 -0.38613106508E+02  0.10548617535E+03  0.33253030137E+03  0.79082840983E+02 0.  0.
        -13    1    4    4    0    0  0.23491857452E+03  0.44193322400E+01  0.78890356807E+02  0.24785067187E+03  0.00000000000E+00 0.  1.
         14    1    4    4    0    0  0.67908109256E+02 -0.43032438748E+02  0.26595818546E+02  0.84679629495E+02  0.00000000000E+00 0. -1.
        -11    1    3    3    0    0 -0.63787530214E+02  0.11977356874E+03 -0.17914248330E+03  0.22473670395E+03  0.00000000000E+00 0.  1.
         11    1    3    3    0    0  0.73841402442E+01  0.89772103844E+02 -0.46273176487E+02  0.10126580379E+03  0.00000000000E+00 0. -1.
         21    1    1    2  503  502  0.18945287743E+03 -0.17482663026E+02 -0.13599768989E+03  0.23386621801E+03  0.00000000000E+00 0. -1.
         -2    1    1    2    0  503 -0.43587617123E+03 -0.15344990305E+03 -0.18101391342E+03  0.49628716108E+03  0.00000000000E+00 0.  1.
<scales pt_clust_5="13000.00000" pt_clust_6="13000.00000" pt_clust_7="13000.00000" pt_clust_8="13000.00000" pt_clust_9="190.25782" pt_clust_10="355.47449"></scales>
<clustering>
<clus scale="   79.083">  5  6 -1 -1</clus>
<clus scale="   91.513">  7  8 -1 -1</clus>
<clus scale="  190.258">  2  9  1 -1</clus>
<clus scale="  223.134">  1  7  2 -1</clus>
<clus scale="  355.474">  2 10  1 -1</clus>
<clus scale="  190.258">  2  5  1 -1</clus>
</clustering>
</event>
<event>
10    4  0.3403565E-005  0.4939280E+03  0.7546771E-02  0.1015376E+00
         21   -1    0    0  503  502  0.00000000000E+00  0.00000000000E+00  0.48586722234E+03  0.48586722234E+03  0.00000000000E+00 0. -1.
          2   -1    0    0  502    0 -0.00000000000E+00 -0.00000000000E+00 -0.50262185843E+03  0.50262185843E+03  0.00000000000E+00 0. -1.
         24    2    1    2    0    0  0.12876867309E+03 -0.16689645927E+03 -0.51394666797E+02  0.23253171824E+03  0.83628876138E+02 0.  0.
         23    2    1    2    0    0  0.18950497340E+03 -0.13569118738E+03  0.32143029879E+02  0.25167143403E+03  0.89337019531E+02 0.  0.
        -11    1    3    3    0    0  0.61775595645E+02 -0.29525342483E+02 -0.39940988255E+02  0.79266970479E+02  0.00000000000E+00 0.  1.
         12    1    3    3    0    0  0.66993077446E+02 -0.13737111679E+03 -0.11453678542E+02  0.15326474776E+03  0.00000000000E+00 0. -1.
        -13    1    4    4    0    0  0.13047414158E+03 -0.40597406373E+02  0.62380761920E+01  0.13678656593E+03  0.00000000000E+00 0. -1.
         13    1    4    4    0    0  0.59030831828E+02 -0.95093781007E+02  0.25904953687E+02  0.11488486810E+03  0.00000000000E+00 0.  1.
         21    1    1    2  503  501  0.38634294886E+00 -0.30391205516E+02  0.29830334272E+02  0.42586658432E+02  0.00000000000E+00 0. -1.
          1    1    1    2  501    0 -0.31865998944E+03  0.33297885217E+03 -0.27333333442E+02  0.46169927007E+03  0.00000000000E+00 0. -1.
<scales pt_clust_5="13000.00000" pt_clust_6="13000.00000" pt_clust_7="13000.00000" pt_clust_8="13000.00000" pt_clust_9="30.39366" pt_clust_10="450.26683"></scales>
<clustering>
<clus scale="   30.394">  1  9  2 -1</clus>
<clus scale="   83.629">  5  6 -1 -1</clus>
<clus scale="   89.337">  7  8 -1 -1</clus>
<clus scale="  134.862">  5  7 -1 -1</clus>
<clus scale="  450.267">  1 10  2 -1</clus>
<clus scale="   30.394">  1  5  2 -1</clus>
</clustering>
</event>
<event>
10    4  0.3403565E-005  0.1059572E+03  0.7546771E-02  0.1270814E+00
         -1   -1    0    0    0  501 -0.00000000000E+00  0.00000000000E+00  0.51461610456E+03  0.51461610456E+03  0.00000000000E+00 0.  1.
         21   -1    0    0  503  502  0.00000000000E+00 -0.00000000000E+00 -0.10505907753E+03  0.10505907753E+03  0.00000000000E+00 0.  1.
         23    2    1    2    0    0 -0.41196858159E+02 -0.32904707091E+02  0.30496700615E+03  0.32263238305E+03  0.91142080756E+02 0.  0.
         24    2    1    2    0    0 -0.58156783594E+02  0.57388405510E+02  0.88943329731E+02  0.15477700289E+03  0.96795475901E+02 0.  0.
        -13    1    4    4    0    0 -0.70319991315E+02  0.35107858123E+02  0.19701016809E+02  0.81028346545E+02  0.00000000000E+00 0.  1.
         14    1    4    4    0    0  0.12163207720E+02  0.22280547387E+02  0.69242312922E+02  0.73748656345E+02  0.00000000000E+00 0. -1.
        -11    1    3    3    0    0  0.63637548425E+01 -0.47596408221E+02  0.90350735480E+02  0.10231896624E+03  0.00000000000E+00 0.  1.
         11    1    3    3    0    0 -0.47560613002E+02  0.14691701129E+02  0.21461627067E+03  0.22031341681E+03  0.00000000000E+00 0. -1.
         21    1    1    2  503  501 -0.25123103188E+01 -0.29904617197E+02 -0.17825124061E+02  0.34904625490E+02  0.00000000000E+00 0.  1.
         -2    1    1    2    0  502  0.10186595207E+03  0.54209187784E+01  0.33471815214E+02  0.10736117066E+03  0.00000000000E+00 0.  1.
<scales pt_clust_5="13000.00000" pt_clust_6="13000.00000" pt_clust_7="13000.00000" pt_clust_8="13000.00000" pt_clust_9="30.00996" pt_clust_10="101.05468"></scales>
<clustering>
<clus scale="   30.010">  2  9  1 -1</clus>
<clus scale="   91.142">  7  8 -1 -1</clus>
<clus scale="   96.795">  5  6 -1 -1</clus>
<clus scale="  101.055">  2 10  1 -1</clus>
<clus scale="  100.819">  1  7  2 -1</clus>
<clus scale="   30.010">  2  5  1 -1</clus>
</clustering>
</event>
<event>
10    4  0.3403565E-005  0.3660855E+03  0.7546771E-02  0.1056448E+00
         21   -1    0    0  501  502  0.00000000000E+00  0.00000000000E+00  0.26900924270E+03  0.26900924270E+03  0.00000000000E+00 0. -1.
          2   -1    0    0  503    0 -0.00000000000E+00 -0.00000000000E+00 -0.90313617817E+03  0.90313617817E+03  0.00000000000E+00 0. -1.
         24    2    1    2    0    0 -0.67763202704E+02  0.34656147286E+03 -0.46635325406E+03  0.59039249721E+03  0.79882645649E+02 0.  0.
         23    2    1    2    0    0  0.95684918781E+02 -0.34556094231E+03 -0.13300198241E+03  0.39306480022E+03  0.90787891920E+02 0.  0.
        -13    1    3    3    0    0  0.67206875994E+01  0.66416047400E+02 -0.51571213519E+02  0.84355492162E+02  0.00000000000E+00 0.  1.
         14    1    3    3    0    0 -0.74483890304E+02  0.28014542546E+03 -0.41478204054E+03  0.50603700505E+03  0.00000000000E+00 0. -1.
        -11    1    4    4    0    0  0.59877704752E+02 -0.87665024111E+02 -0.63002142242E+02  0.12344944676E+03  0.00000000000E+00 0.  1.
         11    1    4    4    0    0  0.35807214029E+02 -0.25789591820E+03 -0.69999840170E+02  0.26961535346E+03  0.00000000000E+00 0. -1.
         21    1    1    2  503  502 -0.20072001213E+02  0.43251463204E+02  0.64211698893E+02  0.79979475972E+02  0.00000000000E+00 0. -1.
          1    1    1    2  501    0 -0.78497148637E+01 -0.44251993759E+02 -0.98983397895E+02  0.10870864747E+03  0.00000000000E+00 0. -1.
<scales pt_clust_5="13000.00000" pt_clust_6="13000.00000" pt_clust_7="13000.00000" pt_clust_8="13000.00000" pt_clust_9="38.27879" pt_clust_10="44.94284"></scales>
<clustering>
<clus scale="   44.943">  1 10  2 -1</clus>
<clus scale="   38.279">  1  9  2 -1</clus>
<clus scale="   79.883">  5  6 -1 -1</clus>
<clus scale="   90.788">  7  8 -1 -1</clus>
<clus scale="  363.535">  2  5  1 -1</clus>
<clus scale="   44.943">  1  5  2 -1</clus>
</clustering>
</event>
<event>
10    4  0.3403565E-005  0.2539412E+03  0.7546771E-02  0.1124343E+00
          2   -1    0    0  503    0 -0.00000000000E+00  0.00000000000E+00  0.60014138230E+03  0.60014138230E+03  0.00000000000E+00 0. -1.
         21   -1    0    0  501  502  0.00000000000E+00 -0.00000000000E+00 -0.47919552010E+03  0.47919552010E+03  0.00000000000E+00 0. -1.
         24    2    1    2    0    0 -0.10124303409E+03 -0.10806337064E+03  0.28466353394E+02  0.17101171310E+03  0.80664916259E+02 0.  0.
         23    2    1    2    0    0  0.34157422674E+03  0.17460063858E+03  0.31958290156E+03  0.50784618291E+03  0.92823376129E+02 0.  0.
        -13    1    3    3    0    0 -0.20426326582E+02  0.12019069287E+02  0.67824359111E+01  0.24651455962E+02  0.00000000000E+00 0.  1.
         14    1    3    3    0    0 -0.80816707512E+02 -0.12008243993E+03  0.21683917483E+02  0.14636025714E+03  0.00000000000E+00 0. -1.
        -13    1    4    4    0    0  0.17652935044E+03  0.43398293099E+02  0.12227341656E+03  0.21908174686E+03  0.00000000000E+00 0.  1.
         13    1    4    4    0    0  0.16504487630E+03  0.13120234548E+03  0.19730948501E+03  0.28876443605E+03  0.00000000000E+00 0. -1.
         21    1    1    2  503  502 -0.12387890211E+03 -0.66611516113E+02 -0.24515325133E+03  0.28263614968E+03  0.00000000000E+00 0. -1.
          1    1    1    2  501    0 -0.11645229054E+03  0.74248176268E-01  0.18049858577E+02  0.11784285672E+03  0.00000000000E+00 0. -1.
<scales pt_clust_5="13000.00000" pt_clust_6="13000.00000" pt_clust_7="13000.00000" pt_clust_8="13000.00000" pt_clust_9="236.36822" pt_clust_10="116.45237"></scales>
<clustering>
<clus scale="   80.665">  5  6 -1 -1</clus>
<clus scale="   92.823">  7  8 -1 -1</clus>
<clus scale="  116.452">  2 10  1 -1</clus>
<clus scale="  180.888">  1  5  2 -1</clus>
<clus scale="  236.368">  2  9  1 -1</clus>
<clus scale="  116.452">  2  5  1 -1</clus>
</clustering>
</event>
<event>
10    4  0.3403565E-005  0.2612236E+03  0.7546771E-02  0.1144148E+00
         -1   -1    0    0    0  501 -0.00000000000E+00  0.00000000000E+00  0.60105962900E+03  0.60105962900E+03  0.00000000000E+00 0.  1.
         21   -1    0    0  501  502  0.00000000000E+00 -0.00000000000E+00 -0.10648890471E+04  0.10648890471E+04  0.00000000000E+00 0.  1.
         23    2    1    2    0    0 -0.28138631245E+02 -0.38487206116E+02  0.39124179798E+03  0.40444003411E+03  0.90711350445E+02 0.  0.
         24    2    1    2    0    0  0.24864296238E+03 -0.73683511605E+02 -0.84218580030E+03  0.88487522168E+03  0.80465229074E+02 0.  0.
        -13    1    4    4    0    0  0.24984112125E+03 -0.80727667870E+02 -0.83190564546E+03  0.87235574463E+03  0.00000000000E+00 0.  1.
         14    1    4    4    0    0 -0.11981588758E+01  0.70441562650E+01 -0.10280154838E+02  0.12519477052E+02  0.00000000000E+00 0. -1.
        -13    1    3    3    0    0 -0.43814730099E+02  0.92002096341E+01  0.11014295152E+03  0.11889425638E+03  0.00000000000E+00 0.  1.
         13    1    3    3    0    0  0.15676098854E+02 -0.47687415750E+02  0.28109884646E+03  0.28554577773E+03  0.00000000000E+00 0. -1.
         21    1    1    2  503  502 -0.16298377127E+02 -0.15656727671E+02 -0.11337138864E+03  0.11560208467E+03  0.00000000000E+00 0.  1.
         -2    1    1    2    0  503 -0.20420595400E+03  0.12782744539E+03  0.10048597285E+03  0.26103133564E+03  0.00000000000E+00 0.  1.
<scales pt_clust_5="13000.00000" pt_clust_6="13000.00000" pt_clust_7="13000.00000" pt_clust_8="13000.00000" pt_clust_9="22.60023" pt_clust_10="248.52202"></scales>
<clustering>
<clus scale="   22.600">  2  9  1 -1</clus>
<clus scale="   80.465">  5  6 -1 -1</clus>
<clus scale="   90.711">  7  8 -1 -1</clus>
<clus scale="  102.549">  1  7  2 -1</clus>
<clus scale="  248.522">  2 10  1 -1</clus>
<clus scale="   22.600">  2  5  1 -1</clus>
</clustering>
</event>
<event>
10    4  0.3403565E-005  0.1038070E+03  0.7546771E-02  0.1276802E+00
          2   -1    0    0  502    0 -0.00000000000E+00  0.00000000000E+00  0.10799817965E+04  0.10799817965E+04  0.00000000000E+00 0. -1.
         21   -1    0    0  503  502  0.00000000000E+00 -0.00000000000E+00 -0.20975678119E+02  0.20975678119E+02  0.00000000000E+00 0.  1.
         24    2    1    2    0    0 -0.55649767639E+02  0.76168891554E-01  0.66913288766E+03  0.67639567462E+03  0.81703028502E+02 0.  0.
         23    2    1    2    0    0  0.25585455416E+02  0.47360722263E+02  0.24651150306E+03  0.26830161217E+03  0.91215022937E+02 0.  0.
        -13    1    3    3    0    0 -0.67469679132E+02  0.16428035860E+02  0.36195797221E+03  0.36855883059E+03  0.00000000000E+00 0.  1.
         14    1    3    3    0    0  0.11819911493E+02 -0.16351866969E+02  0.30717491545E+03  0.30783684403E+03  0.00000000000E+00 0. -1.
        -13    1    4    4    0    0  0.14889287039E+02 -0.21215553361E+02  0.24393804226E+02  0.35592811881E+02  0.00000000000E+00 0.  1.
         13    1    4    4    0    0  0.10696168377E+02  0.68576275624E+02  0.22211769884E+03  0.23270880029E+03  0.00000000000E+00 0. -1.
         21    1    1    2  503  501  0.21909711784E+02 -0.10768629290E+02  0.50609448091E+02  0.56189990953E+02  0.00000000000E+00 0. -1.
          1    1    1    2  501    0  0.81546004386E+01 -0.36668261865E+02  0.92752279601E+02  0.10007019690E+03  0.00000000000E+00 0. -1.
<scales pt_clust_5="13000.00000" pt_clust_6="13000.00000" pt_clust_7="13000.00000" pt_clust_8="13000.00000" pt_clust_9="21.48915" pt_clust_10="62.16640"></scales>
<clustering>
<clus scale="   21.489">  9 10 -1 -1</clus>
<clus scale="   62.166">  2  9  1 -1</clus>
<clus scale="   81.703">  5  6 -1 -1</clus>
<clus scale="   91.215">  7  8 -1 -1</clus>
<clus scale="   95.557">  1  5  2 -1</clus>
<clus scale="   62.166">  2  5  1 -1</clus>
</clustering>
</event>
<event>
10    4  0.3403565E-005  0.2991377E+03  0.7546771E-02  0.1107035E+00
          2   -1    0    0  503    0 -0.00000000000E+00  0.00000000000E+00  0.79878274033E+03  0.79878274033E+03  0.00000000000E+00 0. -1.
         21   -1    0    0  501  502  0.00000000000E+00 -0.00000000000E+00 -0.34086151963E+03  0.34086151963E+03  0.00000000000E+00 0. -1.
         23    2    1    2    0    0  0.79870121569E+02 -0.12550443327E+03  0.19787198067E+03  0.26319091604E+03  0.89361840091E+02 0.  0.
         24    2    1    2    0    0 -0.21666600157E+03  0.21407542429E+03 -0.14703786736E+03  0.34744899643E+03  0.79550155016E+02 0.  0.
        -11    1    4    4    0    0 -0.64789156429E+02  0.31025861856E+02 -0.61878223786E+02  0.94811146357E+02  0.00000000000E+00 0.  1.
         12    1    4    4    0    0 -0.15187684514E+03  0.18304956243E+03 -0.85159643575E+02  0.25263785008E+03  0.00000000000E+00 0. -1.
        -11    1    3    3    0    0  0.72273252275E+02 -0.40645637998E+02  0.13031544540E+03  0.15445907611E+03  0.00000000000E+00 0. -1.
         11    1    3    3    0    0  0.75968692940E+01 -0.84858795272E+02  0.67556535267E+02  0.10873183993E+03  0.00000000000E+00 0.  1.
         21    1    1    2  503  502  0.25793109562E+02  0.46988102348E+02 -0.27632375696E+02  0.60305177637E+02  0.00000000000E+00 0.  1.
          1    1    1    2  501    0  0.11100277044E+03 -0.13555909337E+03  0.43471948309E+03  0.46869916985E+03  0.00000000000E+00 0. -1.
<scales pt_clust_5="13000.00000" pt_clust_6="13000.00000" pt_clust_7="13000.00000" pt_clust_8="13000.00000" pt_clust_9="53.60192" pt_clust_10="288.36646"></scales>
<clustering>
<clus scale="   53.602">  2  9  1 -1</clus>
<clus scale="   79.550">  5  6 -1 -1</clus>
<clus scale="   89.362">  7  8 -1 -1</clus>
<clus scale="  171.192">  1  7  2 -1</clus>
<clus scale="  288.366">  2 10  1 -1</clus>
<clus scale="   53.602">  2  5  1 -1</clus>
</clustering>
</event>
<event>
10    4  0.3403565E-005  0.3368915E+03  0.7546771E-02  0.1112994E+00
         21   -1    0    0  501  502  0.00000000000E+00  0.00000000000E+00  0.10873847037E+03  0.10873847037E+03  0.00000000000E+00 0.  1.
          2   -1    0    0  503    0 -0.00000000000E+00 -0.00000000000E+00 -0.26199890852E+04  0.26199890852E+04  0.00000000000E+00 0. -1.
         23    2    1    2    0    0  0.79714435553E+01 -0.43979159800E+02 -0.36352018019E+03  0.37746205441E+03  0.91285106715E+02 0.  0.
         24    2    1    2    0    0 -0.18311327779E+03 -0.26629312837E+03 -0.36134871886E+03  0.49171738641E+03  0.82283587404E+02 0.  0.
        -11    1    4    4    0    0 -0.17551888078E+03 -0.23323929429E+03 -0.35044822656E+03  0.45609363667E+03  0.00000000000E+00 0.  1.
         12    1    4    4    0    0 -0.75943970139E+01 -0.33053834081E+02 -0.10900492303E+02  0.35623749745E+02  0.00000000000E+00 0. -1.
        -11    1    3    3    0    0 -0.37002907266E+02 -0.42545531969E+02 -0.18874200372E+03  0.19698446996E+03  0.00000000000E+00 0.  1.
         11    1    3    3    0    0  0.44974350822E+02 -0.14336278308E+01 -0.17477817647E+03  0.18047758446E+03  0.00000000000E+00 0. -1.
         21    1    1    2  503  502  0.55748644736E+02 -0.26567773670E+02 -0.32808897905E+02  0.69929834616E+02  0.00000000000E+00 0. -1.
          1    1    1    2  501    0  0.11939318950E+03  0.33684006184E+03 -0.17535728179E+04  0.17896182801E+04  0.00000000000E+00 0. -1.
<scales pt_clust_5="13000.00000" pt_clust_6="13000.00000" pt_clust_7="13000.00000" pt_clust_8="13000.00000" pt_clust_9="61.75563" pt_clust_10="326.68853"></scales>
<clustering>
<clus scale="   61.756">  1  9  2 -1</clus>
<clus scale="   82.284">  5  6 -1 -1</clus>
<clus scale="   91.285">  7  8 -1 -1</clus>
<clus scale="  102.970">  2  7  1 -1</clus>
<clus scale="  326.689">  1 10  2 -1</clus>
<clus scale="   61.756">  1  5  2 -1</clus>
</clustering>
</event>
<event>
10    4  0.3403565E-005  0.1233117E+03  0.7546771E-02  0.1250175E+00
         -1   -1    0    0    0  501 -0.00000000000E+00  0.00000000000E+00  0.12247184398E+03  0.12247184398E+03  0.00000000000E+00 0.  1.
         21   -1    0    0  501  502  0.00000000000E+00 -0.00000000000E+00 -0.34998726439E+03  0.34998726439E+03  0.00000000000E+00 0.  1.
         24    2    1    2    0    0  0.39959029994E+02 -0.24789279880E+02 -0.12705160388E+03  0.15769278869E+03  0.80707329783E+02 0.  0.
         23    2    1    2    0    0  0.25852549745E+02  0.59720666848E+02 -0.63595308798E+01  0.11198679281E+03  0.90915816855E+02 0.  0.
        -13    1    3    3    0    0  0.22223641658E+02 -0.73405891520E+01 -0.13049382755E+03  0.13257606694E+03  0.00000000000E+00 0.  1.
         14    1    3    3    0    0  0.17735388336E+02 -0.17448690728E+02  0.34422236669E+01  0.25116721747E+02  0.00000000000E+00 0. -1.
        -13    1    4    4    0    0  0.49957259209E+02  0.22418348626E+02  0.22306670873E+02  0.59126116634E+02  0.00000000000E+00 0.  1.
         13    1    4    4    0    0 -0.24104709464E+02  0.37302318223E+02 -0.28666201753E+02  0.52860676179E+02  0.00000000000E+00 0. -1.
         21    1    1    2  503  502  0.19094513171E+02  0.24618078227E+02 -0.94046118628E+02  0.99072310147E+02  0.00000000000E+00 0.  1.
         -2    1    1    2    0  503 -0.84906092910E+02 -0.59549465196E+02 -0.58167022269E-01  0.10370721673E+03  0.00000000000E+00 0.  1.
<scales pt_clust_5="13000.00000" pt_clust_6="13000.00000" pt_clust_7="13000.00000" pt_clust_8="13000.00000" pt_clust_9="31.15526" pt_clust_10="83.30723"></scales>
<clustering>
<clus scale="   31.155">  2  9  1 -1</clus>
<clus scale="   80.707">  5  6 -1 -1</clus>
<clus scale="   90.916">  7  8 -1 -1</clus>
<clus scale="   95.932">  1  5  2 -1</clus>
<clus scale="   83.307">  2 10  1 -1</clus>
<clus scale="   31.155">  2  5  1 -1</clus>
</clustering>
</event>
<event>
10    4  0.3403565E-005  0.1219367E+03  0.7546771E-02  0.1243660E+00
          2   -1    0    0  503    0 -0.00000000000E+00  0.00000000000E+00  0.14953345731E+04  0.14953345731E+04  0.00000000000E+00 0. -1.
         21   -1    0    0  501  502  0.00000000000E+00 -0.00000000000E+00 -0.30025651909E+03  0.30025651909E+03  0.00000000000E+00 0. -1.
         24    2    1    2    0    0  0.73478908185E+02 -0.32605993753E+02  0.12596403335E+04  0.12647007070E+04  0.79446886267E+02 0.  0.
         23    2    1    2    0    0 -0.10295420024E+03 -0.40116769349E+02  0.17664122539E+03  0.22760528224E+03  0.91613969800E+02 0.  0.
        -13    1    3    3    0    0  0.24943723181E+02 -0.11156375461E+02  0.94987516803E+02  0.98839680230E+02  0.00000000000E+00 0.  1.
         14    1    3    3    0    0  0.48535185004E+02 -0.21449618291E+02  0.11646528167E+04  0.11658610268E+04  0.00000000000E+00 0. -1.
        -13    1    4    4    0    0 -0.76103002373E+01  0.26267758494E+02  0.34606414566E+02  0.44108000806E+02  0.00000000000E+00 0.  1.
         13    1    4    4    0    0 -0.95343900007E+02 -0.66384527843E+02  0.14203481083E+03  0.18349728143E+03  0.00000000000E+00 0. -1.
         21    1    1    2  503  502  0.53418919138E+02  0.16151432790E+02 -0.23500838991E+03  0.24154377043E+03  0.00000000000E+00 0. -1.
          1    1    1    2  501    0 -0.23943627078E+02  0.56571330312E+02 -0.61951149790E+01  0.61741332513E+02  0.00000000000E+00 0. -1.
<scales pt_clust_5="13000.00000" pt_clust_6="13000.00000" pt_clust_7="13000.00000" pt_clust_8="13000.00000" pt_clust_9="55.80725" pt_clust_10="65.64004"></scales>
<clustering>
<clus scale="   55.807">  2  9  1 -1</clus>
<clus scale="   65.640">  2 10  1 -1</clus>
<clus scale="   79.447">  5  6 -1 -1</clus>
<clus scale="   91.614">  7  8 -1 -1</clus>
<clus scale="  113.081">  1  5  2 -1</clus>
<clus scale="   55.807">  2  5  1 -1</clus>
</clustering>
</event>
<event>
10    4  0.3403565E-005  0.3141632E+03  0.7546771E-02  0.1122809E+00
          2   -1    0    0  502    0 -0.00000000000E+00  0.00000000000E+00  0.29768447018E+04  0.29768447018E+04  0.00000000000E+00 0. -1.
         21   -1    0    0  503  502  0.00000000000E+00 -0.00000000000E+00 -0.64711128205E+02  0.64711128205E+02  0.00000000000E+00 0. -1.
         23    2    1    2    0    0  0.50325417039E+02  0.44188223687E+02  0.22948653397E+03  0.25059556394E+03  0.75158636749E+02 0.  0.
         24    2    1    2    0    0 -0.33705578217E+03 -0.78392829229E+02  0.18416665765E+04  0.18756099189E+04  0.80154556355E+02 0.  0.
        -13    1    4    4    0    0 -0.14189667653E+03 -0.55158597625E+02  0.63175710704E+03  0.64984165763E+03  0.00000000000E+00 0.  1.
         14    1    4    4    0    0 -0.19515910564E+03 -0.23234231604E+02  0.12099094694E+04  0.12257682612E+04  0.00000000000E+00 0. -1.
        -11    1    3    3    0    0  0.32335349692E+02  0.59388399186E+02  0.11247328400E+03  0.13123565221E+03  0.00000000000E+00 0.  1.
         11    1    3    3    0    0  0.17990067347E+02 -0.15200175499E+02  0.11701324997E+03  0.11935991172E+03  0.00000000000E+00 0. -1.
         21    1    1    2  503  501  0.12924685035E+02 -0.33234473095E+02  0.88534499515E+01  0.36741818970E+02  0.00000000000E+00 0.  1.
          1    1    1    2  501    0  0.27380568010E+03  0.67439078637E+02  0.83212701324E+03  0.87860852827E+03  0.00000000000E+00 0. -1.
<scales pt_clust_5="13000.00000" pt_clust_6="13000.00000" pt_clust_7="13000.00000" pt_clust_8="13000.00000" pt_clust_9="35.65919" pt_clust_10="303.76598"></scales>
<clustering>
<clus scale="   35.659">  2  9  1 -1</clus>
<clus scale="   75.159">  7  8 -1 -1</clus>
<clus scale="   80.155">  5  6 -1 -1</clus>
<clus scale="   99.241">  1  7  2 -1</clus>
<clus scale="  303.766">  2 10  1 -1</clus>
<clus scale="   35.659">  2  5  1 -1</clus>
</clustering>
</event>
<event>
10    4  0.3403565E-005  0.1290723E+03  0.7546771E-02  0.1232200E+00
          2   -1    0    0  503    0 -0.00000000000E+00  0.00000000000E+00  0.13209464065E+03  0.13209464065E+03  0.00000000000E+00 0. -1.
         21   -1    0    0  501  502  0.00000000000E+00 -0.00000000000E+00 -0.41892164617E+03  0.41892164617E+03  0.00000000000E+00 0. -1.
         23    2    1    2    0    0 -0.11915811222E+03 -0.69701575293E+02  0.13402543055E+02  0.16629979967E+03  0.91755271796E+02 0.  0.
         24    2    1    2    0    0  0.33814966484E+02  0.31043560152E+02 -0.45493674693E+02  0.10216838645E+03  0.79129957454E+02 0.  0.
        -13    1    4    4    0    0  0.13850271455E+02  0.33193218119E+02  0.14593477164E+02  0.38814808053E+02  0.00000000000E+00 0.  1.
         14    1    4    4    0    0  0.19964695030E+02 -0.21496579669E+01 -0.60087151857E+02  0.63353578393E+02  0.00000000000E+00 0. -1.
        -11    1    3    3    0    0 -0.10314885102E+03 -0.25602875882E+02 -0.20730863833E+02  0.10828186107E+03  0.00000000000E+00 0.  1.
         11    1    3    3    0    0 -0.16009261203E+02 -0.44098699411E+02  0.34133406888E+02  0.58017938603E+02  0.00000000000E+00 0. -1.
         21    1    1    2  503  502  0.93343812841E+01  0.26780894197E+02 -0.17915876777E+02  0.33545873198E+02  0.00000000000E+00 0.  1.
          1    1    1    2  501    0  0.76008764456E+02  0.11877120944E+02 -0.23681999710E+03  0.24900222751E+03  0.00000000000E+00 0. -1.
<scales pt_clust_5="13000.00000" pt_clust_6="13000.00000" pt_clust_7="13000.00000" pt_clust_8="13000.00000" pt_clust_9="28.36101" pt_clust_10="86.57398"></scales>
<clustering>
<clus scale="   28.361">  2  9  1 -1</clus>
<clus scale="   79.130">  5  6 -1 -1</clus>
<clus scale="   86.574">  2 10  1 -1</clus>
<clus scale="   91.755">  7  8 -1 -1</clus>
<clus scale="  120.425">  2  5  1 -1</clus>
<clus scale="   28.361">  2  5  1 -1</clus>
</clustering>
</event>
<event>
10    4  0.3403565E-005  0.3536821E+03  0.7546771E-02  0.1061114E+00
         21   -1    0    0  501  502  0.00000000000E+00  0.00000000000E+00  0.31026118378E+03  0.31026118378E+03  0.00000000000E+00 0. -1.
          2   -1    0    0  503    0 -0.00000000000E+00 -0.00000000000E+00 -0.21126616972E+04  0.21126616972E+04  0.00000000000E+00 0. -1.
         24    2    1    2    0    0 -0.16818185776E+03 -0.49250106225E+02 -0.81582305415E+03  0.83831242809E+03  0.80559053864E+02 0.  0.
         23    2    1    2    0    0 -0.13819447091E+03  0.51682041964E+02 -0.49145682029E+03  0.52125691374E+03  0.91707244289E+02 0.  0.
        -13    1    3    3    0    0 -0.15304615899E+03 -0.69063810375E+02 -0.70500453813E+03  0.72472362695E+03  0.00000000000E+00 0.  1.
         14    1    3    3    0    0 -0.15135698776E+02  0.19813704151E+02 -0.11081851603E+03  0.11358880114E+03  0.00000000000E+00 0. -1.
        -11    1    4    4    0    0 -0.59334490838E+02  0.10603138133E+02 -0.79239432695E+02  0.99558505588E+02  0.00000000000E+00 0. -1.
         11    1    4    4    0    0 -0.78859980069E+02  0.41078903830E+02 -0.41221738760E+03  0.42169840815E+03  0.00000000000E+00 0.  1.
         21    1    1    2  503  502  0.47530004270E+02  0.44609485602E+02  0.25773674349E+03  0.26585209508E+03  0.00000000000E+00 0. -1.
          1    1    1    2  501    0  0.25884632440E+03 -0.47041421342E+02 -0.75285738251E+03  0.79750144412E+03  0.00000000000E+00 0. -1.
<scales pt_clust_5="13000.00000" pt_clust_6="13000.00000" pt_clust_7="13000.00000" pt_clust_8="13000.00000" pt_clust_9="65.18518" pt_clust_10="281.98449"></scales>
<clustering>
<clus scale="   65.185">  1  9  2 -1</clus>
<clus scale="   80.559">  5  6 -1 -1</clus>
<clus scale="   91.707">  7  8 -1 -1</clus>
<clus scale="  147.471">  5  7 -1 -1</clus>
<clus scale="  281.984">  1 10  2 -1</clus>
<clus scale="   65.185">  1  5  2 -1</clus>
</clustering>
</event>
<event>
10    4  0.3403565E-005  0.1301699E+03  0.7546771E-02  0.1239766E+00
          2   -1    0    0  502    0 -0.00000000000E+00  0.00000000000E+00  0.89899867815E+03  0.89899867815E+03  0.00000000000E+00 0. -1.
         21   -1    0    0  503  502  0.00000000000E+00 -0.00000000000E+00 -0.12411376702E+03  0.12411376702E+03  0.00000000000E+00 0. -1.
         24    2    1    2    0    0  0.60519522557E+02  0.10022625169E+02  0.75085100135E+03  0.75755748171E+03  0.79705998815E+02 0.  0.
         23    2    1    2    0    0  0.71163835799E+02 -0.52436141438E+01 -0.17001393502E+02  0.11757685718E+03  0.91888426630E+02 0.  0.
        -11    1    3    3    0    0  0.40726851912E+02 -0.25200234037E+02  0.21907996433E+03  0.22425378265E+03  0.00000000000E+00 0.  1.
         12    1    3    3    0    0  0.19792670645E+02  0.35222859206E+02  0.53177103702E+03  0.53330369906E+03  0.00000000000E+00 0. -1.
        -11    1    4    4    0    0  0.48977688626E+02 -0.46452858363E+02  0.78857396236E+00  0.67507806083E+02  0.00000000000E+00 0. -1.
         11    1    4    4    0    0  0.22186147173E+02  0.41209244219E+02 -0.17789967464E+02  0.50069051098E+02  0.00000000000E+00 0.  1.
         21    1    1    2  503  501 -0.28677371677E+02 -0.19818490437E+02 -0.29180583799E+01  0.34981127401E+02  0.00000000000E+00 0. -1.
          1    1    1    2  501    0 -0.10300598668E+03  0.15039479412E+02  0.43953361660E+02  0.11299697887E+03  0.00000000000E+00 0. -1.
<scales pt_clust_5="13000.00000" pt_clust_6="13000.00000" pt_clust_7="13000.00000" pt_clust_8="13000.00000" pt_clust_9="30.89448" pt_clust_10="106.54114"></scales>
<clustering>
<clus scale="   30.894">  9 10 -1 -1</clus>
<clus scale="   79.706">  5  6 -1 -1</clus>
<clus scale="   91.888">  7  8 -1 -1</clus>
<clus scale="  100.579">  1  5  2 -1</clus>
<clus scale="  106.541">  2  9  1 -1</clus>
<clus scale="  106.541">  2  5  1 -1</clus>
</clustering>
</event>
<event>
10    4  0.3403565E-005  0.1889932E+03  0.7546771E-02  0.1167312E+00
         21   -1    0    0  501  502  0.00000000000E+00  0.00000000000E+00  0.85310637926E+03  0.85310637926E+03  0.00000000000E+00 0. -1.
          2   -1    0    0  503    0 -0.00000000000E+00 -0.00000000000E+00 -0.61811156083E+03  0.61811156083E+03  0.00000000000E+00 0. -1.
         24    2    1    2    0    0 -0.13455169839E+03 -0.38240801674E+02 -0.13560812579E+03  0.21060494916E+03  0.79989764203E+02 0.  0.
         23    2    1    2    0    0  0.16596414454E+03 -0.13775874637E+03 -0.39526761697E+03  0.45935016936E+03  0.90799336989E+02 0.  0.
        -13    1    3    3    0    0 -0.63561131262E+02 -0.58746059145E+02 -0.63387054762E+02  0.10728017330E+03  0.00000000000E+00 0.  1.
         14    1    3    3    0    0 -0.70990567132E+02  0.20505257472E+02 -0.72221071026E+02  0.10332477586E+03  0.00000000000E+00 0. -1.
        -11    1    4    4    0    0  0.11507913320E+03 -0.13957325096E+03 -0.33253500428E+03  0.37855439286E+03  0.00000000000E+00 0. -1.
         11    1    4    4    0    0  0.50885011344E+02  0.18145045945E+01 -0.62732612686E+02  0.80795776504E+02  0.00000000000E+00 0.  1.
         21    1    1    2  503  502  0.21704099077E+02  0.65212781672E+02  0.53807265667E+03  0.54244442911E+03  0.00000000000E+00 0. -1.
          1    1    1    2  501    0 -0.53116545226E+02  0.11078676637E+03  0.22779790450E+03  0.25881839246E+03  0.00000000000E+00 0. -1.
<scales pt_clust_5="13000.00000" pt_clust_6="13000.00000" pt_clust_7="13000.00000" pt_clust_8="13000.00000" pt_clust_9="68.72972" pt_clust_10="165.75258"></scales>
<clustering>
<clus scale="   68.730">  1  9  2 -1</clus>
<clus scale="   79.990">  5  6 -1 -1</clus>
<clus scale="   90.799">  7  8 -1 -1</clus>
<clus scale="  157.273">  2  5  1 -1</clus>
<clus scale="  165.753">  1 10  2 -1</clus>
<clus scale="   68.730">  1  5  2 -1</clus>
</clustering>
</event>
<event>
10    4  0.3403565E-005  0.1523567E+03  0.7546771E-02  0.1212341E+00
         21   -1    0    0  501  502  0.00000000000E+00  0.00000000000E+00  0.12060893723E+03  0.12060893723E+03  0.00000000000E+00 0.  1.
          2   -1    0    0  503    0 -0.00000000000E+00 -0.00000000000E+00 -0.54496943289E+03  0.54496943289E+03  0.00000000000E+00 0. -1.
         23    2    1    2    0    0 -0.26571899578E+02 -0.59586368476E+02 -0.19901423019E+03  0.22891246879E+03  0.92399423124E+02 0.  0.
         24    2    1    2    0    0  0.13282524165E+03  0.15509672634E+02 -0.90750666469E+02  0.18055500571E+03  0.80506719325E+02 0.  0.
        -13    1    4    4    0    0  0.12911402207E+03  0.68999978876E+01 -0.49820040929E+02  0.13856434297E+03  0.00000000000E+00 0.  1.
         14    1    4    4    0    0  0.37112195877E+01  0.86096747462E+01 -0.40930625540E+02  0.41990662738E+02  0.00000000000E+00 0. -1.
        -13    1    3    3    0    0 -0.54054077764E+02 -0.23753869724E+02 -0.66569156042E+02  0.88980571958E+02  0.00000000000E+00 0.  1.
         13    1    3    3    0    0  0.27482178187E+02 -0.35832498752E+02 -0.13244507415E+03  0.13993189683E+03  0.00000000000E+00 0. -1.
         21    1    1    2  503  502  0.12870686345E+02  0.16724050211E+02  0.38682017773E+02  0.44064122837E+02  0.00000000000E+00 0.  1.
          1    1    1    2  501    0 -0.11912402842E+03  0.27352645631E+02 -0.17327761677E+03  0.21204677278E+03  0.00000000000E+00 0. -1.
<scales pt_clust_5="13000.00000" pt_clust_6="13000.00000" pt_clust_7="13000.00000" pt_clust_8="13000.00000" pt_clust_9="21.10328" pt_clust_10="129.34934"></scales>
<clustering>
<clus scale="   21.103">  1  9  2 -1</clus>
<clus scale="   80.507">  5  6 -1 -1</clus>
<clus scale="   92.399">  7  8 -1 -1</clus>
<clus scale="  110.928">  2  7  1 -1</clus>
<clus scale="  129.349">  1 10  2 -1</clus>
<clus scale="   21.103">  1  5  2 -1</clus>
</clustering>
</event>
<event>
10    4  0.3403565E-005  0.1222395E+03  0.7546771E-02  0.1251702E+00
         21   -1    0    0  501  502  0.00000000000E+00  0.00000000000E+00  0.10511899289E+03  0.10511899289E+03  0.00000000000E+00 0.  1.
         -1   -1    0    0    0  501 -0.00000000000E+00 -0.00000000000E+00 -0.49043632088E+03  0.49043632088E+03  0.00000000000E+00 0.  1.
         24    2    1    2    0    0 -0.25269638249E+01  0.46969815020E+02 -0.25505146201E+03  0.27141493279E+03  0.80014176229E+02 0.  0.
         23    2    1    2    0    0  0.13105993713E+02  0.32484320967E+02 -0.85875200392E+02  0.13132289015E+03  0.92973938579E+02 0.  0.
        -11    1    3    3    0    0  0.30134770820E+02 -0.18446661306E+01 -0.52955612172E+02  0.60957395499E+02  0.00000000000E+00 0.  1.
         12    1    3    3    0    0 -0.32661734645E+02  0.48814481151E+02 -0.20209584984E+03  0.21045753729E+03  0.00000000000E+00 0. -1.
        -11    1    4    4    0    0 -0.25694459959E+02  0.34861647275E+02 -0.81386132107E+02  0.92191334857E+02  0.00000000000E+00 0.  1.
         11    1    4    4    0    0  0.38800453672E+02 -0.23773263090E+01 -0.44890682845E+01  0.39131555292E+02  0.00000000000E+00 0. -1.
         21    1    1    2  503  502 -0.38801279054E+02  0.42578856697E+02  0.57663234792E+01  0.57894289704E+02  0.00000000000E+00 0.  1.
         -2    1    1    2    0  503  0.28222249166E+02 -0.12203299268E+03 -0.50156989068E+02  0.13492320113E+03  0.00000000000E+00 0.  1.
<scales pt_clust_5="13000.00000" pt_clust_6="13000.00000" pt_clust_7="13000.00000" pt_clust_8="13000.00000" pt_clust_9="57.60641" pt_clust_10="79.36214"></scales>
<clustering>
<clus scale="   57.606">  1  9  2 -1</clus>
<clus scale="   80.014">  5  6 -1 -1</clus>
<clus scale="   92.974">  7  8 -1 -1</clus>
<clus scale="   95.523">  2  5  1 -1</clus>
<clus scale="   79.362">  1 10  2 -1</clus>
<clus scale="   57.606">  1  5  2 -1</clus>
</clustering>
</event>
<event>
10    4  0.3403565E-005  0.1730543E+03  0.7546771E-02  0.1188856E+00
         21   -1    0    0  501  502  0.00000000000E+00  0.00000000000E+00  0.33775402170E+03  0.33775402170E+03  0.00000000000E+00 0.  1.
          2   -1    0    0  503    0 -0.00000000000E+00 -0.00000000000E+00 -0.57528545203E+03  0.57528545203E+03  0.00000000000E+00 0. -1.
         23    2    1    2    0    0  0.82163603354E+02 -0.36227499314E+02 -0.11857291682E+03  0.17302608578E+03  0.88403621721E+02 0.  0.
         24    2    1    2    0    0  0.54198991426E+02  0.13500858892E+03 -0.25248527128E+03  0.30218033308E+03  0.79995573220E+02 0.  0.
        -13    1    4    4    0    0  0.22513592770E+02 -0.57920390283E-01 -0.14716037806E+02  0.26896597980E+02  0.00000000000E+00 0.  1.
         14    1    4    4    0    0  0.31685398656E+02  0.13506650931E+03 -0.23776923347E+03  0.27528373510E+03  0.00000000000E+00 0. -1.
        -11    1    3    3    0    0  0.39114742740E+02 -0.33494294601E+02 -0.11924084757E+03  0.12988537485E+03  0.00000000000E+00 0.  1.
         11    1    3    3    0    0  0.43048860614E+02 -0.27332047137E+01  0.66793074715E+00  0.43140710931E+02  0.00000000000E+00 0. -1.
         21    1    1    2  503  502 -0.12274072448E+03  0.76578916918E+02  0.20252997405E+03  0.24889356430E+03  0.00000000000E+00 0.  1.
          1    1    1    2  501    0 -0.13621870301E+02 -0.17536000653E+03 -0.69003216288E+02  0.18893949057E+03  0.00000000000E+00 0. -1.
<scales pt_clust_5="13000.00000" pt_clust_6="13000.00000" pt_clust_7="13000.00000" pt_clust_8="13000.00000" pt_clust_9="139.87477" pt_clust_10="153.45519"></scales>
<clustering>
<clus scale="   79.996">  5  6 -1 -1</clus>
<clus scale="   88.404">  7  8 -1 -1</clus>
<clus scale="  126.010">  2  7  1 -1</clus>
<clus scale="  139.875">  1  9  2 -1</clus>
<clus scale="  153.455">  1 10  2 -1</clus>
<clus scale="  139.875">  1  5  2 -1</clus>
</clustering>
</event>
<event>
10    4  0.3403565E-005  0.1682176E+03  0.7546771E-02  0.1207486E+00
         21   -1    0    0  503  502  0.00000000000E+00  0.00000000000E+00  0.41492328703E+03  0.41492328703E+03  0.00000000000E+00 0.  1.
         -3   -1    0    0    0  501 -0.00000000000E+00 -0.00000000000E+00 -0.12208471301E+03  0.12208471301E+03  0.00000000000E+00 0.  1.
         24    2    1    2    0    0 -0.57243319663E+02  0.22828738218E+02  0.11696878662E+03  0.15091899408E+03  0.72779782869E+02 0.  0.
         23    2    1    2    0    0  0.13745366097E+03 -0.75001241817E+02  0.14071970965E+03  0.22961469380E+03  0.91663382746E+02 0.  0.
        -13    1    3    3    0    0 -0.46366250219E+02  0.15574254807E+01  0.11821829256E+03  0.12699535200E+03  0.00000000000E+00 0.  1.
         14    1    3    3    0    0 -0.10877069443E+02  0.21271312737E+02 -0.12495059356E+01  0.23923642079E+02  0.00000000000E+00 0. -1.
        -13    1    4    4    0    0  0.72194999997E+02 -0.51360882315E+02  0.20725560944E+02  0.90992346564E+02  0.00000000000E+00 0.  1.
         13    1    4    4    0    0  0.65258660977E+02 -0.23640359502E+02  0.11999414871E+03  0.13862234724E+03  0.00000000000E+00 0. -1.
         21    1    1    2  503  501  0.11050548214E+02 -0.23615075843E+02  0.27052371229E+02  0.37571494674E+02  0.00000000000E+00 0.  1.
         -4    1    1    2    0  502 -0.91260889526E+02  0.75787579442E+02  0.80977065241E+01  0.11890281748E+03  0.00000000000E+00 0.  1.
<scales pt_clust_5="13000.00000" pt_clust_6="13000.00000" pt_clust_7="13000.00000" pt_clust_8="13000.00000" pt_clust_9="26.07271" pt_clust_10="141.04967"></scales>
<clustering>
<clus scale="   26.073">  1  9  2 -1</clus>
<clus scale="   72.780">  5  6 -1 -1</clus>
<clus scale="   91.421">  2  5  1 -1</clus>
<clus scale="   91.663">  7  8 -1 -1</clus>
<clus scale="  141.050">  1 10  2 -1</clus>
<clus scale="   26.073">  1  5  2 -1</clus>
</clustering>
</event>
<event>
10    4  0.3403565E-005  0.1754340E+03  0.7546771E-02  0.1173277E+00
         21   -1    0    0  501  502  0.00000000000E+00  0.00000000000E+00  0.25775196858E+03  0.25775196858E+03  0.00000000000E+00 0. -1.
          4   -1    0    0  503    0 -0.00000000000E+00 -0.00000000000E+00 -0.52518220273E+03  0.52518220273E+03  0.00000000000E+00 0. -1.
         24    2    1    2    0    0 -0.10229156153E+03  0.80850731368E+02 -0.19815198698E+03  0.25084358614E+03  0.81595897209E+02 0.  0.
         23    2    1    2    0    0  0.15356320872E+03 -0.11432283926E+03 -0.16291344695E+03  0.26682178362E+03  0.89452235112E+02 0.  0.
        -11    1    3    3    0    0 -0.10794326079E+03  0.46968775257E+02 -0.16799188346E+03  0.20513187541E+03  0.00000000000E+00 0.  1.
         12    1    3    3    0    0  0.56516992525E+01  0.33881956110E+02 -0.30160103516E+02  0.45711710736E+02  0.00000000000E+00 0. -1.
        -13    1    4    4    0    0  0.36625084941E+02 -0.55452316545E+02 -0.10362121062E+03  0.12310041246E+03  0.00000000000E+00 0.  1.
         13    1    4    4    0    0  0.11693812378E+03 -0.58870522714E+02 -0.59292236323E+02  0.14372137115E+03  0.00000000000E+00 0. -1.
         21    1    1    2  503  502 -0.89749687497E+02  0.29319413829E+01  0.15953653072E+03  0.18307241005E+03  0.00000000000E+00 0. -1.
          3    1    1    2  501    0  0.38478040308E+02  0.30540166509E+02 -0.65901330940E+02  0.82196391502E+02  0.00000000000E+00 0. -1.
<scales pt_clust_5="13000.00000" pt_clust_6="13000.00000" pt_clust_7="13000.00000" pt_clust_8="13000.00000" pt_clust_9="67.69811" pt_clust_10="49.12498"></scales>
<clustering>
<clus scale="   49.125">  1 10  2 -1</clus>
<clus scale="   67.698">  1  9  2 -1</clus>
<clus scale="   81.596">  5  6 -1 -1</clus>
<clus scale="   89.452">  7  8 -1 -1</clus>
<clus scale="  171.561">  2  5  1 -1</clus>
<clus scale="   49.125">  1  5  2 -1</clus>
</clustering>
</event>
<event>
10    4  0.3403565E-005  0.1921442E+03  0.7546771E-02  0.1170693E+00
         21   -1    0    0  503  502  0.00000000000E+00  0.00000000000E+00  0.71743949850E+02  0.71743949850E+02  0.00000000000E+00 0. -1.
          2   -1    0    0  502    0 -0.00000000000E+00 -0.00000000000E+00 -0.15128177152E+04  0.15128177152E+04  0.00000000000E+00 0. -1.
         23    2    1    2    0    0 -0.99397672509E+02 -0.11930378977E+02 -0.32636232518E+03  0.35373825554E+03  0.92715451218E+02 0.  0.
         24    2    1    2    0    0  0.17699034169E+03 -0.14477043465E+03 -0.95348206080E+03  0.98401727362E+03  0.82933073722E+02 0.  0.
        -11    1    4    4    0    0  0.84335130615E+02 -0.42779184020E+02 -0.25265029147E+03  0.26976775682E+03  0.00000000000E+00 0.  1.
         12    1    4    4    0    0  0.92655211071E+02 -0.10199125063E+03 -0.70083176933E+03  0.71424951679E+03  0.00000000000E+00 0. -1.
        -13    1    3    3    0    0 -0.85278983363E+02  0.19236916200E+02 -0.29370224041E+03  0.30643689394E+03  0.00000000000E+00 0.  1.
         13    1    3    3    0    0 -0.14118689146E+02 -0.31167295177E+02 -0.32660084770E+02  0.47301361598E+02  0.00000000000E+00 0. -1.
         21    1    1    2  503  501 -0.13772415812E+02  0.15644282785E+02  0.30537301798E+01  0.21065333825E+02  0.00000000000E+00 0.  1.
          1    1    1    2  501    0 -0.63820253364E+02  0.14105653084E+03 -0.16428310956E+03  0.22574080207E+03  0.00000000000E+00 0. -1.
<scales pt_clust_5="13000.00000" pt_clust_6="13000.00000" pt_clust_7="13000.00000" pt_clust_8="13000.00000" pt_clust_9="20.84282" pt_clust_10="173.32481"></scales>
<clustering>
<clus scale="   20.843">  1  9  2 -1</clus>
<clus scale="   82.933">  5  6 -1 -1</clus>
<clus scale="   92.715">  7  8 -1 -1</clus>
<clus scale="  138.505">  2  7  1 -1</clus>
<clus scale="  173.325">  1 10  2 -1</clus>
<clus scale="   20.843">  1  5  2 -1</clus>
</clustering>
</event>
<event>
10    4  0.3403565E-005  0.1053042E+03  0.7546771E-02  0.1274157E+00
         21   -1    0    0  501  502  0.00000000000E+00  0.00000000000E+00  0.12131929552E+03  0.12131929552E+03  0.00000000000E+00 0. -1.
          2   -1    0    0  503    0 -0.00000000000E+00 -0.00000000000E+00 -0.26452255731E+03  0.26452255731E+03  0.00000000000E+00 0. -1.
         23    2    1    2    0    0 -0.48829928041E+02 -0.21353600322E+02 -0.15992221790E+03  0.19148063449E+03  0.90826094737E+02 0.  0.
         24    2    1    2    0    0  0.53379937383E+02  0.10231444416E+02  0.35972762007E+02  0.10335457545E+03  0.80212396118E+02 0.  0.
        -11    1    4    4    0    0  0.15032451953E+02  0.36864999186E+02 -0.63773043413E+01  0.40319632778E+02  0.00000000000E+00 0.  1.
         12    1    4    4    0    0  0.38347485430E+02 -0.26633554770E+02  0.42350066349E+02  0.63034942677E+02  0.00000000000E+00 0. -1.
        -13    1    3    3    0    0  0.19772721719E+02 -0.77854870413E+01 -0.90427795328E+02  0.92891121753E+02  0.00000000000E+00 0. -1.
         13    1    3    3    0    0 -0.68602649759E+02 -0.13568113281E+02 -0.69494422575E+02  0.98589512734E+02  0.00000000000E+00 0.  1.
         21    1    1    2  503  502  0.33627178586E+02  0.69508676679E+01  0.16891543312E+02  0.38267818548E+02  0.00000000000E+00 0.  1.
          1    1    1    2  501    0 -0.38177187929E+02  0.41712882382E+01 -0.36145349204E+02  0.52738824340E+02  0.00000000000E+00 0. -1.
<scales pt_clust_5="13000.00000" pt_clust_6="13000.00000" pt_clust_7="13000.00000" pt_clust_8="13000.00000" pt_clust_9="34.33805" pt_clust_10="35.52486"></scales>
<clustering>
<clus scale="   34.338">  1  9  2 -1</clus>
<clus scale="   35.525">  1 10  2 -1</clus>
<clus scale="   80.212">  5  6 -1 -1</clus>
<clus scale="   90.826">  7  8 -1 -1</clus>
<clus scale="   96.300">  1  5  2 -1</clus>
<clus scale="   34.338">  1  5  2 -1</clus>
</clustering>
</event>
<event>
10    4  0.3403565E-005  0.1497641E+03  0.7546771E-02  0.1201226E+00
         21   -1    0    0  503  502  0.00000000000E+00  0.00000000000E+00  0.10942212111E+03  0.10942212111E+03  0.00000000000E+00 0. -1.
         -1   -1    0    0    0  501 -0.00000000000E+00 -0.00000000000E+00 -0.95967886244E+03  0.95967886244E+03  0.00000000000E+00 0.  1.
         24    2    1    2    0    0  0.90144093819E+02 -0.47151241910E+02 -0.52598989909E+03  0.54380170160E+03  0.93304445000E+02 0.  0.
         23    2    1    2    0    0 -0.15855294883E+03  0.10213450891E+03 -0.22655492911E+03  0.30847627083E+03  0.90884422580E+02 0.  0.
        -11    1    3    3    0    0  0.32047146404E+02  0.27306852624E+02 -0.20128005583E+03  0.20563643808E+03  0.00000000000E+00 0.  1.
         12    1    3    3    0    0  0.58096947415E+02 -0.74458094534E+02 -0.32470984326E+03  0.33816526352E+03  0.00000000000E+00 0. -1.
        -11    1    4    4    0    0 -0.10626978525E+03  0.11311555973E+03 -0.15691799182E+03  0.22070716632E+03  0.00000000000E+00 0.  1.
         11    1    4    4    0    0 -0.52283163587E+02 -0.10981050813E+02 -0.69636937290E+02  0.87769104512E+02  0.00000000000E+00 0. -1.
         21    1    1    2  503  501  0.30310610572E+02 -0.11584681599E+03 -0.75918001124E+02  0.14178420498E+03  0.00000000000E+00 0. -1.
         -2    1    1    2    0  502  0.38098244444E+02  0.60863548985E+02 -0.21793912009E+02  0.75038806130E+02  0.00000000000E+00 0.  1.
<scales pt_clust_5="13000.00000" pt_clust_6="13000.00000" pt_clust_7="13000.00000" pt_clust_8="13000.00000" pt_clust_9="102.29673" pt_clust_10="71.80423"></scales>
<clustering>
<clus scale="   71.804">  1 10  2 -1</clus>
<clus scale="   90.884">  7  8 -1 -1</clus>
<clus scale="   93.304">  5  6 -1 -1</clus>
<clus scale="  102.297">  1  9  2 -1</clus>
<clus scale="  148.269">  1  7  2 -1</clus>
<clus scale="   71.804">  1  5  2 -1</clus>
</clustering>
</event>
<event>
10    4  0.3403565E-005  0.1813210E+03  0.7546771E-02  0.1195151E+00
         21   -1    0    0  501  502  0.00000000000E+00  0.00000000000E+00  0.12187375049E+04  0.12187375049E+04  0.00000000000E+00 0. -1.
          2   -1    0    0  503    0 -0.00000000000E+00 -0.00000000000E+00 -0.21610449968E+03  0.21610449968E+03  0.00000000000E+00 0. -1.
         23    2    1    2    0    0  0.76501096226E+01 -0.22287387357E+02 -0.12053604772E+03  0.15370203071E+03  0.92412789337E+02 0.  0.
         24    2    1    2    0    0  0.47772291269E+02  0.35719692295E+02  0.20636968683E+03  0.22938394126E+03  0.80439148650E+02 0.  0.
        -13    1    4    4    0    0  0.16935885863E+02 -0.12804563423E+02  0.77360444623E+01  0.22597067472E+02  0.00000000000E+00 0.  1.
         14    1    4    4    0    0  0.30836405407E+02  0.48524255719E+02  0.19863364237E+03  0.20678687379E+03  0.00000000000E+00 0. -1.
        -13    1    3    3    0    0 -0.34571842283E+02 -0.59585837116E+01 -0.13683884177E+02  0.37655885129E+02  0.00000000000E+00 0. -1.
         13    1    3    3    0    0  0.42221951906E+02 -0.16328803646E+02 -0.10685216354E+03  0.11604614558E+03  0.00000000000E+00 0.  1.
         21    1    1    2  503  502  0.16194639398E+03  0.60862971027E+02  0.74521317360E+03  0.76503177050E+03  0.00000000000E+00 0. -1.
          1    1    1    2  501    0 -0.21736879487E+03 -0.74295275965E+02  0.17158619246E+03  0.28672426207E+03  0.00000000000E+00 0. -1.
<scales pt_clust_5="13000.00000" pt_clust_6="13000.00000" pt_clust_7="13000.00000" pt_clust_8="13000.00000" pt_clust_9="13000.00000" pt_clust_10="181.32098"></scales>
<clustering>
<clus scale="   80.439">  5  6 -1 -1</clus>
<clus scale="   92.413">  7  8 -1 -1</clus>
<clus scale="   95.370">  2  7  1 -1</clus>
<clus scale="   99.573">  2  5  1 -1</clus>
<clus scale="  181.321">  2 10  1 -1</clus>
<clus scale="  181.321">  1  5  2 -1</clus>
</clustering>
</event>
<event>
10    4  0.3403565E-005  0.1352285E+03  0.7546771E-02  0.1234966E+00
          2   -1    0    0  503    0 -0.00000000000E+00  0.00000000000E+00  0.72874302844E+03  0.72874302844E+03  0.00000000000E+00 0. -1.
         21   -1    0    0  501  502  0.00000000000E+00 -0.00000000000E+00 -0.61424166632E+02  0.61424166632E+02  0.00000000000E+00 0. -1.
         23    2    1    2    0    0  0.41504222014E+00 -0.42227531568E+02  0.17499818804E+03  0.20134690850E+03  0.90182454283E+02 0.  0.
         24    2    1    2    0    0  0.48093258447E+02  0.11759017435E+03  0.28683917826E+03  0.32384468141E+03  0.80363255803E+02 0.  0.
        -11    1    4    4    0    0 -0.19111319069E+02  0.14886484877E+02  0.77276366211E+02  0.80984484460E+02  0.00000000000E+00 0.  1.
         12    1    4    4    0    0  0.67204577516E+02  0.10270368947E+03  0.20956281205E+03  0.24286019695E+03  0.00000000000E+00 0. -1.
        -13    1    3    3    0    0 -0.32052829633E+02  0.13118673081E+02  0.73761640986E+02  0.81487809836E+02  0.00000000000E+00 0.  1.
         13    1    3    3    0    0  0.32467871853E+02 -0.55346204649E+02  0.10123654706E+03  0.11985909866E+03  0.00000000000E+00 0. -1.
         21    1    1    2  503  502 -0.69031655330E+02 -0.83778167688E+02  0.73391576068E+02  0.13103615629E+03  0.00000000000E+00 0. -1.
          1    1    1    2  501    0  0.20523354663E+02  0.84155249107E+01  0.13208991944E+03  0.13393944887E+03  0.00000000000E+00 0. -1.
<scales pt_clust_5="13000.00000" pt_clust_6="13000.00000" pt_clust_7="13000.00000" pt_clust_8="13000.00000" pt_clust_9="108.75892" pt_clust_10="22.18174"></scales>
<clustering>
<clus scale="   22.182">  2 10  1 -1</clus>
<clus scale="   80.363">  5  6 -1 -1</clus>
<clus scale="   90.182">  7  8 -1 -1</clus>
<clus scale="   98.937">  1  7  2 -1</clus>
<clus scale="  108.759">  2  9  1 -1</clus>
<clus scale="   22.182">  2  5  1 -1</clus>
</clustering>
</event>
<event>
10    4  0.3403565E-005  0.3028487E+03  0.7546771E-02  0.1135271E+00
         21   -1    0    0  501  502  0.00000000000E+00  0.00000000000E+00  0.26986511913E+03  0.26986511913E+03  0.00000000000E+00 0.  1.
          2   -1    0    0  503    0 -0.00000000000E+00 -0.00000000000E+00 -0.12675204807E+04  0.12675204807E+04  0.00000000000E+00 0. -1.
         24    2    1    2    0    0  0.16317403698E+02  0.25012459752E+02 -0.14704680586E+03  0.16813805654E+03  0.75866739334E+02 0.  0.
         23    2    1    2    0    0 -0.26037109476E+01  0.28737375877E+03 -0.29185354989E+03  0.41780415899E+03  0.82409733339E+02 0.  0.
        -13    1    3    3    0    0 -0.28381863966E+02  0.33201207866E+00 -0.71761003985E+02  0.77170474452E+02  0.00000000000E+00 0.  1.
         14    1    3    3    0    0  0.44699267664E+02  0.24680447673E+02 -0.75285801874E+02  0.90967582087E+02  0.00000000000E+00 0. -1.
        -11    1    4    4    0    0 -0.16622878665E+02  0.55571471245E+02 -0.22631154498E+02  0.62262971864E+02  0.00000000000E+00 0.  1.
         11    1    4    4    0    0  0.14019167717E+02  0.23180228753E+03 -0.26922239539E+03  0.35554118713E+03  0.00000000000E+00 0. -1.
         21    1    1    2  503  502 -0.24385640962E+03 -0.25471361113E+03 -0.90724317301E+01  0.35274251406E+03  0.00000000000E+00 0.  1.
          1    1    1    2  501    0  0.23014271687E+03 -0.57672607397E+02 -0.54968257410E+03  0.59870087026E+03  0.00000000000E+00 0. -1.
<scales pt_clust_5="13000.00000" pt_clust_6="13000.00000" pt_clust_7="13000.00000" pt_clust_8="13000.00000" pt_clust_9="291.42063" pt_clust_10="242.74158"></scales>
<clustering>
<clus scale="   75.867">  5  6 -1 -1</clus>
<clus scale="   81.533">  2  5  1 -1</clus>
<clus scale="   82.410">  7  8 -1 -1</clus>
<clus scale="  242.742">  1 10  2 -1</clus>
<clus scale="  291.421">  1  9  2 -1</clus>
<clus scale="  242.742">  1  5  2 -1</clus>
</clustering>
</event>
<event>
10    4  0.3403565E-005  0.1228391E+03  0.7546771E-02  0.1241264E+00
          2   -1    0    0  502    0 -0.00000000000E+00  0.00000000000E+00  0.14332877129E+04  0.14332877129E+04  0.00000000000E+00 0. -1.
         21   -1    0    0  503  502  0.00000000000E+00 -0.00000000000E+00 -0.82869664547E+02  0.82869664547E+02  0.00000000000E+00 0. -1.
         24    2    1    2    0    0 -0.84168088917E+02  0.29912750981E+02  0.12055356914E+04  0.12116325625E+04  0.82207805551E+02 0.  0.
         23    2    1    2    0    0  0.44538047051E+02  0.32077235613E+02  0.11919351033E+03  0.15996480085E+03  0.91482555312E+02 0.  0.
        -11    1    3    3    0    0 -0.15506768141E+02  0.26204529292E+02  0.11601562093E+03  0.11994482696E+03  0.00000000000E+00 0.  1.
         12    1    3    3    0    0 -0.68661320777E+02  0.37082216892E+01  0.10895200705E+04  0.10916877355E+04  0.00000000000E+00 0. -1.
        -11    1    4    4    0    0  0.15603411454E+02  0.53577003729E+02  0.10907983812E+03  0.12252498873E+03  0.00000000000E+00 0. -1.
         11    1    4    4    0    0  0.28934635597E+02 -0.21499768117E+02  0.10113672206E+02  0.37439812121E+02  0.00000000000E+00 0.  1.
         21    1    1    2  503  501 -0.26406915231E+02  0.17702371942E+02 -0.12613477866E+02  0.34202324019E+02  0.00000000000E+00 0. -1.
          1    1    1    2  501    0  0.66036957097E+02 -0.79692358536E+02  0.38302324510E+02  0.11035769015E+03  0.00000000000E+00 0. -1.
<scales pt_clust_5="13000.00000" pt_clust_6="13000.00000" pt_clust_7="13000.00000" pt_clust_8="13000.00000" pt_clust_9="31.79149" pt_clust_10="85.20620"></scales>
<clustering>
<clus scale="   31.791">  2  9  1 -1</clus>
<clus scale="   82.208">  5  6 -1 -1</clus>
<clus scale="   85.206">  2 10  1 -1</clus>
<clus scale="   91.483">  7  8 -1 -1</clus>
<clus scale="  116.097">  1  5  2 -1</clus>
<clus scale="   31.791">  2  5  1 -1</clus>
</clustering>
</event>
<event>
10    4  0.3403565E-005  0.2127675E+03  0.7546771E-02  0.1168770E+00
         21   -1    0    0  501  502  0.00000000000E+00  0.00000000000E+00  0.50899089440E+03  0.50899089440E+03  0.00000000000E+00 0. -1.
          2   -1    0    0  503    0 -0.00000000000E+00 -0.00000000000E+00 -0.45155320710E+03  0.45155320710E+03  0.00000000000E+00 0. -1.
         23    2    1    2    0    0 -0.18636285300E+02  0.43866156285E+02  0.43604951840E+02  0.11439480078E+03  0.94409892615E+02 0.  0.
         24    2    1    2    0    0 -0.15642005929E+03 -0.52508335277E+02 -0.35456230290E+03  0.39962052877E+03  0.82205718499E+02 0.  0.
        -13    1    4    4    0    0 -0.68059165441E+02 -0.27219058159E+02 -0.73052497007E+02  0.10348717044E+03  0.00000000000E+00 0.  1.
         14    1    4    4    0    0 -0.88360893850E+02 -0.25289277118E+02 -0.28150980589E+03  0.29613335833E+03  0.00000000000E+00 0. -1.
        -11    1    3    3    0    0 -0.15032152678E+02  0.63912077614E+02  0.59463805090E+02  0.88581394180E+02  0.00000000000E+00 0.  1.
         11    1    3    3    0    0 -0.36041326218E+01 -0.20045921329E+02 -0.15858853250E+02  0.25813406600E+02  0.00000000000E+00 0. -1.
         21    1    1    2  503  502 -0.23834239384E+02  0.14199521685E+02 -0.10550990297E+00  0.27743621166E+02  0.00000000000E+00 0.  1.
          1    1    1    2  501    0  0.19889058397E+03 -0.55573426928E+01  0.36850054826E+03  0.41878515078E+03  0.00000000000E+00 0. -1.
<scales pt_clust_5="13000.00000" pt_clust_6="13000.00000" pt_clust_7="13000.00000" pt_clust_8="13000.00000" pt_clust_9="27.74342" pt_clust_10="196.24536"></scales>
<clustering>
<clus scale="   27.743">  2  9  1 -1</clus>
<clus scale="   82.206">  5  6 -1 -1</clus>
<clus scale="   94.410">  7  8 -1 -1</clus>
<clus scale="  106.595">  2  7  1 -1</clus>
<clus scale="  196.245">  1 10  2 -1</clus>
<clus scale="  196.245">  1  5  2 -1</clus>
</clustering>
</event>
<event>
10    4  0.3403565E-005  0.2117398E+03  0.7546771E-02  0.1140337E+00
         21   -1    0    0  501  502  0.00000000000E+00  0.00000000000E+00  0.12971599306E+03  0.12971599306E+03  0.00000000000E+00 0. -1.
          2   -1    0    0  503    0 -0.00000000000E+00 -0.00000000000E+00 -0.17689403604E+04  0.17689403604E+04  0.00000000000E+00 0. -1.
         24    2    1    2    0    0  0.15197667304E+03  0.27075562143E+02 -0.49261886572E+03  0.52248571966E+03  0.80548030173E+02 0.  0.
         23    2    1    2    0    0 -0.23591902604E+03 -0.10318871731E+03 -0.84033127668E+03  0.88240922393E+03  0.78636414527E+02 0.  0.
        -11    1    3    3    0    0  0.35169482394E+02  0.29532695114E+02 -0.67767679597E+02  0.81862879075E+02  0.00000000000E+00 0.  1.
         12    1    3    3    0    0  0.11680719065E+03 -0.24571329702E+01 -0.42485118612E+03  0.44062284058E+03  0.00000000000E+00 0. -1.
        -11    1    4    4    0    0 -0.10632942899E+03 -0.18480137965E+02 -0.44360609698E+03  0.45654554236E+03  0.00000000000E+00 0. -1.
         11    1    4    4    0    0 -0.12958959705E+03 -0.84708579345E+02 -0.39672517970E+03  0.42586368157E+03  0.00000000000E+00 0.  1.
         21    1    1    2  503  502  0.12480202828E+02  0.31732722684E+02  0.86029055259E+02  0.92540366869E+02  0.00000000000E+00 0. -1.
          1    1    1    2  501    0  0.71462150164E+02  0.44380432483E+02 -0.39230328015E+03  0.40122104296E+03  0.00000000000E+00 0. -1.
<scales pt_clust_5="13000.00000" pt_clust_6="13000.00000" pt_clust_7="13000.00000" pt_clust_8="13000.00000" pt_clust_9="34.09870" pt_clust_10="87.16622"></scales>
<clustering>
<clus scale="   34.099">  1  9  2 -1</clus>
<clus scale="   78.636">  7  8 -1 -1</clus>
<clus scale="   80.548">  5  6 -1 -1</clus>
<clus scale="   87.166">  1 10  2 -1</clus>
<clus scale="  211.020">  1  7  2 -1</clus>
<clus scale="   34.099">  1  5  2 -1</clus>
</clustering>
</event>
<event>
10    4  0.3403565E-005  0.1384892E+03  0.7546771E-02  0.1216679E+00
          2   -1    0    0  502    0 -0.00000000000E+00  0.00000000000E+00  0.25400039890E+03  0.25400039890E+03  0.00000000000E+00 0. -1.
         21   -1    0    0  503  502  0.00000000000E+00 -0.00000000000E+00 -0.16956265849E+03  0.16956265849E+03  0.00000000000E+00 0.  1.
         23    2    1    2    0    0  0.65545572704E+02  0.80461238980E+02  0.14180475908E+03  0.19685513587E+03  0.88730613337E+02 0.  0.
         24    2    1    2    0    0 -0.33450607157E+02 -0.11534753891E+03 -0.51572626281E+01  0.14593134671E+03  0.82736707351E+02 0.  0.
        -13    1    4    4    0    0 -0.42164196967E+02 -0.60090396526E+02 -0.36315435916E+02  0.81899243869E+02  0.00000000000E+00 0.  1.
         14    1    4    4    0    0  0.87135898101E+01 -0.55257142380E+02  0.31158173287E+02  0.64032102839E+02  0.00000000000E+00 0. -1.
        -13    1    3    3    0    0  0.35690190475E+02  0.15389127721E+02  0.98318458157E+00  0.38879063776E+02  0.00000000000E+00 0.  1.
         13    1    3    3    0    0  0.29855382229E+02  0.65072111259E+02  0.14082157450E+03  0.15797607210E+03  0.00000000000E+00 0. -1.
         21    1    1    2  503  501 -0.40620787393E+01  0.22370196556E+02 -0.43140279382E+02  0.48764842692E+02  0.00000000000E+00 0. -1.
          1    1    1    2  501    0 -0.28032886808E+02  0.12516103369E+02 -0.90694766649E+01  0.32011732120E+02  0.00000000000E+00 0. -1.
<scales pt_clust_5="13000.00000" pt_clust_6="13000.00000" pt_clust_7="13000.00000" pt_clust_8="13000.00000" pt_clust_9="22.73601" pt_clust_10="32.97980"></scales>
<clustering>
<clus scale="   22.736">  2  9  1 -1</clus>
<clus scale="   32.980">  2 10  1 -1</clus>
<clus scale="   82.737">  5  6 -1 -1</clus>
<clus scale="   88.731">  7  8 -1 -1</clus>
<clus scale="  134.728">  2  5  1 -1</clus>
<clus scale="   22.736">  2  5  1 -1</clus>
</clustering>
</event>
<event>
10    4  0.3403565E-005  0.1602929E+03  0.7546771E-02  0.1202561E+00
         21   -1    0    0  501  502  0.00000000000E+00  0.00000000000E+00  0.41489124429E+02  0.41489124429E+02  0.00000000000E+00 0. -1.
          2   -1    0    0  503    0 -0.00000000000E+00 -0.00000000000E+00 -0.18056495585E+04  0.18056495585E+04  0.00000000000E+00 0. -1.
         23    2    1    2    0    0 -0.48060983626E+02  0.18233963633E+02 -0.12628090865E+03  0.16491553874E+03  0.92778938633E+02 0.  0.
         24    2    1    2    0    0 -0.78380925025E+02 -0.84053427984E+02 -0.43546633055E+03  0.45758251021E+03  0.80884364608E+02 0.  0.
        -13    1    4    4    0    0 -0.56189950272E+02 -0.15712243100E+02 -0.11261419012E+03  0.12683115119E+03  0.00000000000E+00 0.  1.
         14    1    4    4    0    0 -0.22190974752E+02 -0.68341184884E+02 -0.32285214043E+03  0.33075135902E+03  0.00000000000E+00 0. -1.
        -13    1    3    3    0    0 -0.65209142688E+02 -0.71856868722E+01 -0.49332290951E+02  0.82082527473E+02  0.00000000000E+00 0. -1.
         13    1    3    3    0    0  0.17148159062E+02  0.25419650505E+02 -0.76948617696E+02  0.82833011272E+02  0.00000000000E+00 0.  1.
         21    1    1    2  503  502 -0.42206444164E+02  0.96872893207E+00 -0.11907372944E+03  0.12633635822E+03  0.00000000000E+00 0. -1.
          1    1    1    2  501    0  0.16864835282E+03  0.64850735419E+02 -0.10833394654E+04  0.10983042757E+04  0.00000000000E+00 0. -1.
<scales pt_clust_5="13000.00000" pt_clust_6="13000.00000" pt_clust_7="13000.00000" pt_clust_8="13000.00000" pt_clust_9="42.21756" pt_clust_10="138.38918"></scales>
<clustering>
<clus scale="   42.218">  1  9  2 -1</clus>
<clus scale="   80.884">  5  6 -1 -1</clus>
<clus scale="   92.779">  7  8 -1 -1</clus>
<clus scale="  117.484">  2  7  1 -1</clus>
<clus scale="  138.389">  1 10  2 -1</clus>
<clus scale="   42.218">  1  5  2 -1</clus>
</clustering>
</event>
<event>
10    4  0.3403565E-005  0.1753866E+03  0.7546771E-02  0.1191848E+00
         21   -1    0    0  503  502  0.00000000000E+00  0.00000000000E+00  0.10646988096E+03  0.10646988096E+03  0.00000000000E+00 0. -1.
          2   -1    0    0  502    0 -0.00000000000E+00 -0.00000000000E+00 -0.60811546128E+03  0.60811546128E+03  0.00000000000E+00 0. -1.
         23    2    1    2    0    0 -0.41678096091E+02  0.56018914718E+02 -0.12650866696E+03  0.16983433920E+03  0.89241680034E+02 0.  0.
         24    2    1    2    0    0 -0.23722061137E+02  0.80753844928E+02 -0.36165787732E+03  0.38647871786E+03  0.10717023598E+03 0.  0.
        -13    1    4    4    0    0  0.14065047535E+02 -0.22378783416E+02 -0.69689132935E+02  0.74533286245E+02  0.00000000000E+00 0.  1.
         14    1    4    4    0    0 -0.37787108673E+02  0.10313262834E+03 -0.29196874438E+03  0.31194543162E+03  0.00000000000E+00 0. -1.
        -11    1    3    3    0    0 -0.16030565408E+02  0.33358960421E+02 -0.13025032622E+03  0.13540659787E+03  0.00000000000E+00 0.  1.
         11    1    3    3    0    0 -0.25647530683E+02  0.22659954297E+02  0.37416592578E+01  0.34427741327E+02  0.00000000000E+00 0. -1.
         21    1    1    2  503  501  0.21353095065E+02 -0.27255726026E+02  0.13538683273E+02  0.37176944668E+02  0.00000000000E+00 0. -1.
          1    1    1    2  501    0  0.44047062164E+02 -0.10951703362E+03 -0.27017719320E+02  0.12109534052E+03  0.00000000000E+00 0. -1.
<scales pt_clust_5="13000.00000" pt_clust_6="13000.00000" pt_clust_7="13000.00000" pt_clust_8="13000.00000" pt_clust_9="23.51058" pt_clust_10="145.46292"></scales>
<clustering>
<clus scale="   23.511">  9 10 -1 -1</clus>
<clus scale="   89.242">  7  8 -1 -1</clus>
<clus scale="  107.170">  5  6 -1 -1</clus>
<clus scale="  113.310">  2  7  1 -1</clus>
<clus scale="  145.463">  1  9  2 -1</clus>
<clus scale="  145.463">  1  5  2 -1</clus>
</clustering>
</event>
<event>
10    4  0.3403565E-005  0.1357695E+03  0.7546771E-02  0.1230024E+00
          2   -1    0    0  503    0 -0.00000000000E+00  0.00000000000E+00  0.13461169193E+04  0.13461169193E+04  0.00000000000E+00 0. -1.
         21   -1    0    0  501  502  0.00000000000E+00 -0.00000000000E+00 -0.99930498270E+02  0.99930498270E+02  0.00000000000E+00 0. -1.
         23    2    1    2    0    0  0.91872793109E+02  0.27059434050E+02  0.59683576190E+03  0.61121242337E+03  0.90525558358E+02 0.  0.
         24    2    1    2    0    0 -0.49990098310E+02  0.76894743734E+02 -0.22491814568E+02  0.12370287534E+03  0.79904368476E+02 0.  0.
        -11    1    4    4    0    0  0.82766366001E+01  0.57583172017E+02  0.43731181208E+00  0.58176590263E+02  0.00000000000E+00 0.  1.
         12    1    4    4    0    0 -0.58266734910E+02  0.19311571717E+02 -0.22929126380E+02  0.65526285076E+02  0.00000000000E+00 0. -1.
        -11    1    3    3    0    0  0.81801039780E+02 -0.19497289938E+02  0.37205157053E+03  0.38143665995E+03  0.00000000000E+00 0.  1.
         11    1    3    3    0    0  0.10071753329E+02  0.46556723988E+02  0.22478419137E+03  0.22977576342E+03  0.00000000000E+00 0. -1.
         21    1    1    2  503  502 -0.10979418096E+03 -0.19702891233E+02  0.22190319950E+03  0.24836263013E+03  0.00000000000E+00 0. -1.
          1    1    1    2  501    0  0.67911486160E+02 -0.84251286551E+02  0.44993927420E+03  0.46276948874E+03  0.00000000000E+00 0. -1.
<scales pt_clust_5="13000.00000" pt_clust_6="13000.00000" pt_clust_7="13000.00000" pt_clust_8="13000.00000" pt_clust_9="101.18544" pt_clust_10="108.21396"></scales>
<clustering>
<clus scale="   79.904">  5  6 -1 -1</clus>
<clus scale="   90.526">  7  8 -1 -1</clus>
<clus scale="  108.214">  2 10  1 -1</clus>
<clus scale="  108.214">  2  5  1 -1</clus>
<clus scale="  101.185">  2  9  1 -1</clus>
<clus scale="  108.214">  2  5  1 -1</clus>
</clustering>
</event>
<event>
10    4  0.3403565E-005  0.1421209E+03  0.7546771E-02  0.1215597E+00
         21   -1    0    0  501  502  0.00000000000E+00  0.00000000000E+00  0.12091372882E+03  0.12091372882E+03  0.00000000000E+00 0. -1.
          2   -1    0    0  503    0 -0.00000000000E+00 -0.00000000000E+00 -0.78100827137E+03  0.78100827137E+03  0.00000000000E+00 0. -1.
         24    2    1    2    0    0  0.18261133066E+02 -0.10120158812E+03 -0.39471664169E+03  0.41594801319E+03  0.81463439821E+02 0.  0.
         23    2    1    2    0    0 -0.12413485702E+03  0.44649000371E+02 -0.29292377952E+03  0.33730486025E+03  0.10279704364E+03 0.  0.
        -13    1    3    3    0    0  0.96419279230E+01 -0.98680477747E+02 -0.22361491783E+03  0.24461078255E+03  0.00000000000E+00 0.  1.
         14    1    3    3    0    0  0.86192051433E+01 -0.25211103707E+01 -0.17110172386E+03  0.17133723064E+03  0.00000000000E+00 0. -1.
        -13    1    4    4    0    0 -0.40073759924E+02  0.25165712563E+02 -0.21784510189E+03  0.22292534118E+03  0.00000000000E+00 0.  1.
         13    1    4    4    0    0 -0.84061097094E+02  0.19483287808E+02 -0.75078677629E+02  0.11437951907E+03  0.00000000000E+00 0. -1.
         21    1    1    2  503  502  0.95721854910E+01 -0.20504072727E+02  0.65654609946E+01  0.23561600360E+02  0.00000000000E+00 0.  1.
          1    1    1    2  501    0  0.96301538461E+02  0.77056660474E+02  0.20980417675E+02  0.12510752639E+03  0.00000000000E+00 0. -1.
<scales pt_clust_5="13000.00000" pt_clust_6="13000.00000" pt_clust_7="13000.00000" pt_clust_8="13000.00000" pt_clust_9="22.62838" pt_clust_10="120.61176"></scales>
<clustering>
<clus scale="   22.628">  1  9  2 -1</clus>
<clus scale="   81.463">  5  6 -1 -1</clus>
<clus scale="  102.797">  7  8 -1 -1</clus>
<clus scale="  120.612">  1 10  2 -1</clus>
<clus scale="  127.544">  2  5  1 -1</clus>
<clus scale="   22.628">  1  5  2 -1</clus>
</clustering>
</event>
<event>
10    4  0.3403565E-005  0.2376562E+03  0.7546771E-02  0.1143592E+00
         21   -1    0    0  501  502  0.00000000000E+00  0.00000000000E+00  0.14763905533E+03  0.14763905533E+03  0.00000000000E+00 0. -1.
          2   -1    0    0  503    0 -0.00000000000E+00 -0.00000000000E+00 -0.10047260954E+04  0.10047260954E+04  0.00000000000E+00 0. -1.
         23    2    1    2    0    0  0.41617249912E+02  0.93013074685E+02 -0.88896815752E+02  0.16211265674E+03  0.89411643945E+02 0.  0.
         24    2    1    2    0    0  0.15607351559E+03 -0.15961939502E+03 -0.49376558616E+03  0.54781133067E+03  0.80346166019E+02 0.  0.
        -13    1    4    4    0    0  0.52164702621E+02 -0.19089800655E+02 -0.69594208413E+02  0.89044542411E+02  0.00000000000E+00 0.  1.
         14    1    4    4    0    0  0.10390881297E+03 -0.14052959436E+03 -0.42417137775E+03  0.45876678826E+03  0.00000000000E+00 0. -1.
        -11    1    3    3    0    0  0.38084772929E+02 -0.36553867943E+01 -0.18645401208E+02  0.42561282498E+02  0.00000000000E+00 0.  1.
         11    1    3    3    0    0  0.35324769822E+01  0.96668461479E+02 -0.70251414544E+02  0.11955137424E+03  0.00000000000E+00 0. -1.
         21    1    1    2  503  502  0.32847263512E+02 -0.64718348073E+01  0.35847386031E+02  0.49049591755E+02  0.00000000000E+00 0. -1.
          1    1    1    2  501    0 -0.23053802901E+03  0.73078155139E+02 -0.31027202415E+03  0.39339157153E+03  0.00000000000E+00 0. -1.
<scales pt_clust_5="13000.00000" pt_clust_6="13000.00000" pt_clust_7="13000.00000" pt_clust_8="13000.00000" pt_clust_9="33.47876" pt_clust_10="223.66261"></scales>
<clustering>
<clus scale="   33.479">  1  9  2 -1</clus>
<clus scale="   80.346">  5  6 -1 -1</clus>
<clus scale="   89.412">  7  8 -1 -1</clus>
<clus scale="  138.008">  2  7  1 -1</clus>
<clus scale="  223.663">  1 10  2 -1</clus>
<clus scale="   33.479">  1  5  2 -1</clus>
</clustering>
</event>
<event>
10    4  0.3403565E-005  0.1778848E+03  0.7546771E-02  0.1172033E+00
          2   -1    0    0  503    0 -0.00000000000E+00  0.00000000000E+00  0.57884902410E+03  0.57884902410E+03  0.00000000000E+00 0. -1.
         21   -1    0    0  501  502  0.00000000000E+00 -0.00000000000E+00 -0.11017605445E+03  0.11017605445E+03  0.00000000000E+00 0. -1.
         24    2    1    2    0    0  0.42437050967E+02 -0.11712454313E+03  0.17664488600E+03  0.23081761893E+03  0.80958603987E+02 0.  0.
         23    2    1    2    0    0 -0.45537218501E+02  0.20384053213E+03  0.14140388503E+03  0.27047263286E+03  0.97651347232E+02 0.  0.
        -13    1    3    3    0    0  0.13242141008E+02 -0.11857096828E+03  0.13994908481E+03  0.18390262412E+03  0.00000000000E+00 0.  1.
         14    1    3    3    0    0  0.29194909959E+02  0.14464251517E+01  0.36695801188E+02  0.46914994811E+02  0.00000000000E+00 0. -1.
        -11    1    4    4    0    0  0.15162530758E+02  0.13777300545E+03  0.67160435726E+02  0.15401891928E+03  0.00000000000E+00 0. -1.
         11    1    4    4    0    0 -0.60699749259E+02  0.66067526685E+02  0.74243449308E+02  0.11645371358E+03  0.00000000000E+00 0.  1.
         21    1    1    2  503  502 -0.22141865065E+02 -0.16582505182E+01  0.41749335938E+02  0.47286562939E+02  0.00000000000E+00 0. -1.
          1    1    1    2  501    0  0.25242032599E+02 -0.85057738484E+02  0.10887486268E+03  0.14044826382E+03  0.00000000000E+00 0. -1.
<scales pt_clust_5="13000.00000" pt_clust_6="13000.00000" pt_clust_7="13000.00000" pt_clust_8="13000.00000" pt_clust_9="22.20387" pt_clust_10="87.77155"></scales>
<clustering>
<clus scale="   22.204">  1  9  2 -1</clus>
<clus scale="   80.959">  5  6 -1 -1</clus>
<clus scale="   87.772">  2 10  1 -1</clus>
<clus scale="   97.651">  7  8 -1 -1</clus>
<clus scale="  169.297">  1  5  2 -1</clus>
<clus scale="   87.772">  2  5  1 -1</clus>
</clustering>
</event>
<event>
10    4  0.3403565E-005  0.2523237E+03  0.7546771E-02  0.1143734E+00
          2   -1    0    0  503    0 -0.00000000000E+00  0.00000000000E+00  0.55873407919E+03  0.55873407919E+03  0.00000000000E+00 0. -1.
         21   -1    0    0  501  502  0.00000000000E+00 -0.00000000000E+00 -0.36794736325E+03  0.36794736325E+03  0.00000000000E+00 0. -1.
         24    2    1    2    0    0  0.37825136824E+02  0.54655041509E+02 -0.92632796196E+02  0.14443656578E+03  0.88674528833E+02 0.  0.
         23    2    1    2    0    0 -0.85679770432E+02 -0.22702889709E+03  0.21948810224E+03  0.33856966120E+03  0.87012902951E+02 0.  0.
        -13    1    3    3    0    0 -0.15555360845E+01  0.64629239147E+02 -0.33826948920E+02  0.72963146303E+02  0.00000000000E+00 0.  1.
         14    1    3    3    0    0  0.39380672909E+02 -0.99741976370E+01 -0.58805847276E+02  0.71473419472E+02  0.00000000000E+00 0. -1.
        -11    1    4    4    0    0 -0.33061106844E+02 -0.20277982311E+02  0.11101105469E+02  0.40341887598E+02  0.00000000000E+00 0.  1.
         11    1    4    4    0    0 -0.52618663588E+02 -0.20675091478E+03  0.20838699677E+03  0.29822777360E+03  0.00000000000E+00 0. -1.
         21    1    1    2  503  502  0.69013231700E+02 -0.77862787166E+02 -0.99568539652E+02  0.14401157545E+03  0.00000000000E+00 0. -1.
          1    1    1    2  501    0 -0.21158598092E+02  0.25023664275E+03  0.16349994955E+03  0.29966364002E+03  0.00000000000E+00 0. -1.
<scales pt_clust_5="13000.00000" pt_clust_6="13000.00000" pt_clust_7="13000.00000" pt_clust_8="13000.00000" pt_clust_9="104.04537" pt_clust_10="236.84598"></scales>
<clustering>
<clus scale="   87.013">  7  8 -1 -1</clus>
<clus scale="   88.675">  5  6 -1 -1</clus>
<clus scale="  104.045">  2  9  1 -1</clus>
<clus scale="  114.921">  1  5  2 -1</clus>
<clus scale="  236.846">  2 10  1 -1</clus>
<clus scale="  104.045">  2  5  1 -1</clus>
</clustering>
</event>
<event>
10    4  0.3403565E-005  0.3860738E+03  0.7546771E-02  0.1082355E+00
          2   -1    0    0  503    0 -0.00000000000E+00  0.00000000000E+00  0.24758112858E+04  0.24758112858E+04  0.00000000000E+00 0. -1.
         21   -1    0    0  501  502  0.00000000000E+00 -0.00000000000E+00 -0.16911044977E+03  0.16911044977E+03  0.00000000000E+00 0. -1.
         24    2    1    2    0    0 -0.26694116644E+01  0.20379259928E+03  0.17617715607E+03  0.28134757604E+03  0.81114233921E+02 0.  0.
         23    2    1    2    0    0 -0.27424929144E+02 -0.38532516943E+03  0.90879707653E+03  0.99183378198E+03  0.92706590049E+02 0.  0.
        -13    1    3    3    0    0 -0.12780827707E+02  0.20655249744E+03  0.17457082300E+03  0.27074389375E+03  0.00000000000E+00 0.  1.
         14    1    3    3    0    0  0.10111416043E+02 -0.27598981672E+01  0.16063330681E+01  0.10603682295E+02  0.00000000000E+00 0. -1.
        -11    1    4    4    0    0  0.54233032991E+01 -0.44308578560E+02  0.19545823078E+03  0.20049085349E+03  0.00000000000E+00 0.  1.
         11    1    4    4    0    0 -0.32848232443E+02 -0.34101659087E+03  0.71333884575E+03  0.79134292849E+03  0.00000000000E+00 0. -1.
         21    1    1    2  503  502 -0.41782753123E+02 -0.18371731194E+03  0.16181431732E+03  0.24835805293E+03  0.00000000000E+00 0. -1.
          1    1    1    2  501    0  0.71877093931E+02  0.36524988209E+03  0.10599122861E+04  0.11233823246E+04  0.00000000000E+00 0. -1.
<scales pt_clust_5="13000.00000" pt_clust_6="13000.00000" pt_clust_7="13000.00000" pt_clust_8="13000.00000" pt_clust_9="188.40873" pt_clust_10="374.77789"></scales>
<clustering>
<clus scale="   81.114">  5  6 -1 -1</clus>
<clus scale="   92.707">  7  8 -1 -1</clus>
<clus scale="  188.409">  2  9  1 -1</clus>
<clus scale="  152.050">  1  5  2 -1</clus>
<clus scale="  374.778">  2 10  1 -1</clus>
<clus scale="  188.409">  2  5  1 -1</clus>
</clustering>
</event>
<event>
10    4  0.3403565E-005  0.1259184E+03  0.7546771E-02  0.1237516E+00
         21   -1    0    0  501  502  0.00000000000E+00  0.00000000000E+00  0.63249255231E+03  0.63249255231E+03  0.00000000000E+00 0. -1.
          2   -1    0    0  503    0 -0.00000000000E+00 -0.00000000000E+00 -0.35650703983E+03  0.35650703983E+03  0.00000000000E+00 0. -1.
         23    2    1    2    0    0  0.29719807211E+02 -0.36748945082E+02 -0.33776326095E+02  0.10977312677E+03  0.93142617808E+02 0.  0.
         24    2    1    2    0    0 -0.10570835078E+03  0.11622354339E+03 -0.32565576854E+02  0.17914611419E+03  0.79690940326E+02 0.  0.
        -11    1    4    4    0    0 -0.41239735966E+02  0.10443078814E+02 -0.35236781194E+02  0.55239519066E+02  0.00000000000E+00 0.  1.
         12    1    4    4    0    0 -0.64468614815E+02  0.10578046458E+03  0.26712043401E+01  0.12390659513E+03  0.00000000000E+00 0. -1.
        -13    1    3    3    0    0  0.14086094031E+02 -0.66870406749E+02 -0.32850315642E+02  0.75823562180E+02  0.00000000000E+00 0. -1.
         13    1    3    3    0    0  0.15633713180E+02  0.30121461667E+02 -0.92601045244E+00  0.33949564594E+02  0.00000000000E+00 0.  1.
         21    1    1    2  503  502 -0.15584759813E+02 -0.98745681974E+02  0.50370722555E+03  0.51353146302E+03  0.00000000000E+00 0. -1.
          1    1    1    2  501    0  0.91573303384E+02  0.19271083662E+02 -0.16137981012E+03  0.18654888815E+03  0.00000000000E+00 0. -1.
<scales pt_clust_5="13000.00000" pt_clust_6="13000.00000" pt_clust_7="13000.00000" pt_clust_8="13000.00000" pt_clust_9="102.09876" pt_clust_10="93.57913"></scales>
<clustering>
<clus scale="   79.691">  5  6 -1 -1</clus>
<clus scale="   93.143">  7  8 -1 -1</clus>
<clus scale="   93.579">  1 10  2 -1</clus>
<clus scale="  102.099">  1  9  2 -1</clus>
<clus scale="  116.321">  1  5  2 -1</clus>
<clus scale="   93.579">  1  5  2 -1</clus>
</clustering>
</event>
<event>
10    4  0.3403565E-005  0.1139524E+03  0.7546771E-02  0.1259701E+00
         21   -1    0    0  501  502  0.00000000000E+00  0.00000000000E+00  0.56900163102E+02  0.56900163102E+02  0.00000000000E+00 0. -1.
         -1   -1    0    0    0  501 -0.00000000000E+00 -0.00000000000E+00 -0.91735682827E+03  0.91735682827E+03  0.00000000000E+00 0.  1.
         24    2    1    2    0    0  0.30099799981E+02  0.71339178205E+02 -0.45273231692E+03  0.46641934100E+03  0.81149088514E+02 0.  0.
         23    2    1    2    0    0  0.55420468769E+02  0.19364621625E+02 -0.50414251963E+02  0.12420843578E+03  0.97158230674E+02 0.  0.
        -11    1    3    3    0    0 -0.21242691012E+02  0.47592401594E+02 -0.16009695356E+03  0.16836663313E+03  0.00000000000E+00 0.  1.
         12    1    3    3    0    0  0.51342490993E+02  0.23746776612E+02 -0.29263536336E+03  0.29805270787E+03  0.00000000000E+00 0. -1.
        -11    1    4    4    0    0  0.76818614200E+01  0.49427339816E+02 -0.23195292040E+01  0.50074475852E+02  0.00000000000E+00 0. -1.
         11    1    4    4    0    0  0.47738607349E+02 -0.30062718191E+02 -0.48094722759E+02  0.74133959923E+02  0.00000000000E+00 0.  1.
         21    1    1    2  503  502 -0.75890355586E+01 -0.19219144790E+02 -0.15490616525E+02  0.25824952807E+02  0.00000000000E+00 0.  1.
         -2    1    1    2    0  503 -0.77931233192E+02 -0.71484655040E+02 -0.34181947976E+03  0.35780426179E+03  0.00000000000E+00 0.  1.
<scales pt_clust_5="13000.00000" pt_clust_6="13000.00000" pt_clust_7="13000.00000" pt_clust_8="13000.00000" pt_clust_9="20.66323" pt_clust_10="108.63142"></scales>
<clustering>
<clus scale="   20.663">  1  9  2 -1</clus>
<clus scale="   81.149">  5  6 -1 -1</clus>
<clus scale="   97.158">  7  8 -1 -1</clus>
<clus scale="  108.631">  1 10  2 -1</clus>
<clus scale="  100.651">  2  5  1 -1</clus>
<clus scale="   20.663">  1  5  2 -1</clus>
</clustering>
</event>
<event>
10    4  0.3403565E-005  0.1795841E+03  0.7546771E-02  0.1169358E+00
         21   -1    0    0  503  502  0.00000000000E+00  0.00000000000E+00  0.51929435894E+02  0.51929435894E+02  0.00000000000E+00 0. -1.
          2   -1    0    0  502    0 -0.00000000000E+00 -0.00000000000E+00 -0.10887800940E+04  0.10887800940E+04  0.00000000000E+00 0. -1.
         23    2    1    2    0    0  0.96639050173E+02  0.12838577452E+03 -0.48777605976E+03  0.52151594797E+03  0.90726988205E+02 0.  0.
         24    2    1    2    0    0 -0.11743227022E+02 -0.16207404081E+03 -0.42398228659E+03  0.46123697691E+03  0.81072013922E+02 0.  0.
        -13    1    4    4    0    0 -0.31813434848E+02 -0.43795882395E+02 -0.19943914733E+03  0.20665465744E+03  0.00000000000E+00 0.  1.
         14    1    4    4    0    0  0.20070207826E+02 -0.11827815842E+03 -0.22454313925E+03  0.25458231947E+03  0.00000000000E+00 0. -1.
        -11    1    3    3    0    0 -0.14016725541E+02  0.39713896327E+02 -0.13055868374E+03  0.13718320618E+03  0.00000000000E+00 0.  1.
         11    1    3    3    0    0  0.11065577571E+03  0.88671878196E+02 -0.35721737602E+03  0.38433274179E+03  0.00000000000E+00 0. -1.
         21    1    1    2  503  501 -0.57804751080E+02  0.22996944153E+02 -0.59033663111E+02  0.85762591310E+02  0.00000000000E+00 0. -1.
          1    1    1    2  501    0 -0.27091072071E+02  0.10691322137E+02 -0.66058648680E+02  0.72194013744E+02  0.00000000000E+00 0. -1.
<scales pt_clust_5="13000.00000" pt_clust_6="13000.00000" pt_clust_7="13000.00000" pt_clust_8="13000.00000" pt_clust_9="21.19971" pt_clust_10="96.44793"></scales>
<clustering>
<clus scale="   21.200">  9 10 -1 -1</clus>
<clus scale="   81.072">  5  6 -1 -1</clus>
<clus scale="   90.727">  7  8 -1 -1</clus>
<clus scale="   96.448">  1  9  2 -1</clus>
<clus scale="  174.905">  1  5  2 -1</clus>
<clus scale="   96.448">  1  5  2 -1</clus>
</clustering>
</event>
<event>
10    4  0.3403565E-005  0.9347496E+02  0.7546771E-02  0.1301389E+00
         -3   -1    0    0    0  501 -0.00000000000E+00  0.00000000000E+00  0.23631561737E+03  0.23631561737E+03  0.00000000000E+00 0.  1.
         21   -1    0    0  501  502  0.00000000000E+00 -0.00000000000E+00 -0.15468979642E+03  0.15468979642E+03  0.00000000000E+00 0.  1.
         23    2    1    2    0    0 -0.59553633672E+01  0.25939456342E+02  0.16813644234E+03  0.19317618209E+03  0.91317316736E+02 0.  0.
         24    2    1    2    0    0  0.32960576403E+02  0.40042974700E+02 -0.60917126364E+02  0.11318749543E+03  0.80066681067E+02 0.  0.
        -13    1    4    4    0    0  0.51512718879E+02  0.50985637176E+02 -0.38379500041E+02  0.82012690652E+02  0.00000000000E+00 0.  1.
         14    1    4    4    0    0 -0.18552142476E+02 -0.10942662476E+02 -0.22537626324E+02  0.31174804776E+02  0.00000000000E+00 0. -1.
        -11    1    3    3    0    0 -0.19617503843E+02 -0.16462716452E+02  0.78081344370E+01  0.26773764274E+02  0.00000000000E+00 0.  1.
         11    1    3    3    0    0  0.13662140476E+02  0.42402172794E+02  0.16032830790E+03  0.16640241781E+03  0.00000000000E+00 0. -1.
         21    1    1    2  503  502 -0.84336531190E+01 -0.30243033383E+02 -0.30857955225E+02  0.44022505311E+02  0.00000000000E+00 0. -1.
         -4    1    1    2    0  503 -0.18571559917E+02 -0.35739397659E+02  0.52644602035E+01  0.40619230963E+02  0.00000000000E+00 0.  1.
<scales pt_clust_5="13000.00000" pt_clust_6="13000.00000" pt_clust_7="13000.00000" pt_clust_8="13000.00000" pt_clust_9="31.39694" pt_clust_10="44.91950"></scales>
<clustering>
<clus scale="   31.397">  2  9  1 -1</clus>
<clus scale="   44.920">  2 10  1 -1</clus>
<clus scale="   80.067">  5  6 -1 -1</clus>
<clus scale="   82.519">  2  5  1 -1</clus>
<clus scale="   91.317">  7  8 -1 -1</clus>
<clus scale="   31.397">  2  5  1 -1</clus>
</clustering>
</event>
<event>
10    4  0.3403565E-005  0.3548725E+03  0.7546771E-02  0.1060633E+00
          2   -1    0    0  503    0 -0.00000000000E+00  0.00000000000E+00  0.11040875893E+04  0.11040875893E+04  0.00000000000E+00 0. -1.
         21   -1    0    0  501  502  0.00000000000E+00 -0.00000000000E+00 -0.22893747916E+03  0.22893747916E+03  0.00000000000E+00 0. -1.
         24    2    1    2    0    0 -0.22441378622E+03  0.90674959262E+02  0.68845003875E+03  0.73424376540E+03  0.81036753922E+02 0.  0.
         23    2    1    2    0    0 -0.23049057449E+02  0.19427958630E+02  0.18921178363E+03  0.21211722952E+03  0.91016017098E+02 0.  0.
        -13    1    3    3    0    0 -0.26816370428E+02 -0.14664256110E+02  0.10271595170E+03  0.10716680859E+03  0.00000000000E+00 0.  1.
         14    1    3    3    0    0 -0.19759741579E+03  0.10533921537E+03  0.58573408705E+03  0.62707695680E+03  0.00000000000E+00 0. -1.
        -11    1    4    4    0    0 -0.33251137934E+01 -0.29195021810E+02  0.12875651042E+03  0.13206681891E+03  0.00000000000E+00 0. -1.
         11    1    4    4    0    0 -0.19723943656E+02  0.48622980441E+02  0.60455273204E+02  0.80050410608E+02  0.00000000000E+00 0.  1.
         21    1    1    2  503  502  0.55916113851E+01  0.23026559725E+02 -0.93119578421E+02  0.96087171131E+02  0.00000000000E+00 0. -1.
          1    1    1    2  501    0  0.24187123229E+03 -0.13312947762E+03  0.90607866215E+02  0.29057690245E+03  0.00000000000E+00 0. -1.
<scales pt_clust_5="13000.00000" pt_clust_6="13000.00000" pt_clust_7="13000.00000" pt_clust_8="13000.00000" pt_clust_9="23.69575" pt_clust_10="272.00394"></scales>
<clustering>
<clus scale="   23.696">  2  9  1 -1</clus>
<clus scale="   81.037">  5  6 -1 -1</clus>
<clus scale="   91.016">  7  8 -1 -1</clus>
<clus scale="   92.246">  5  7 -1 -1</clus>
<clus scale="  272.004">  2 10  1 -1</clus>
<clus scale="   23.696">  2  5  1 -1</clus>
</clustering>
</event>
<event>
10    4  0.3403565E-005  0.2209271E+03  0.7546771E-02  0.1157708E+00
          2   -1    0    0  502    0 -0.00000000000E+00  0.00000000000E+00  0.12010229298E+04  0.12010229298E+04  0.00000000000E+00 0. -1.
         21   -1    0    0  503  502  0.00000000000E+00 -0.00000000000E+00 -0.93304938215E+02  0.93304938215E+02  0.00000000000E+00 0.  1.
         24    2    1    2    0    0 -0.87145180134E+02  0.23842251395E+02  0.11323331539E+03  0.16552665804E+03  0.80090919806E+02 0.  0.
         23    2    1    2    0    0  0.87112187317E+01  0.17408734976E+03  0.19593949625E+03  0.28007348142E+03  0.98318757757E+02 0.  0.
        -11    1    3    3    0    0 -0.10257725534E+03  0.18927783290E+02  0.10136059450E+03  0.14544526259E+03  0.00000000000E+00 0.  1.
         12    1    3    3    0    0  0.15432075203E+02  0.49144681052E+01  0.11872720892E+02  0.20081395450E+02  0.00000000000E+00 0. -1.
        -11    1    4    4    0    0  0.24647671098E+02  0.15641197020E+02  0.73855890955E+02  0.79415661954E+02  0.00000000000E+00 0. -1.
         11    1    4    4    0    0 -0.15936452366E+02  0.15844615274E+03  0.12208360530E+03  0.20065781947E+03  0.00000000000E+00 0.  1.
         21    1    1    2  503  501 -0.10189554268E+01  0.29172344576E+02  0.24365364235E+02  0.38022821207E+02  0.00000000000E+00 0.  1.
          1    1    1    2  501    0  0.79452916829E+02 -0.22710194573E+03  0.77417981569E+03  0.81070490733E+03  0.00000000000E+00 0. -1.
<scales pt_clust_5="13000.00000" pt_clust_6="13000.00000" pt_clust_7="13000.00000" pt_clust_8="13000.00000" pt_clust_9="29.19013" pt_clust_10="197.84403"></scales>
<clustering>
<clus scale="   29.190">  2  9  1 -1</clus>
<clus scale="   80.091">  5  6 -1 -1</clus>
<clus scale="   98.319">  7  8 -1 -1</clus>
<clus scale="  123.002">  1  5  2 -1</clus>
<clus scale="  197.844">  2 10  1 -1</clus>
<clus scale="   29.190">  2  5  1 -1</clus>
</clustering>
</event>
<event>
10    4  0.3403565E-005  0.1824118E+03  0.7546771E-02  0.1166234E+00
         21   -1    0    0  503  502  0.00000000000E+00  0.00000000000E+00  0.18711177433E+03  0.18711177433E+03  0.00000000000E+00 0. -1.
          2   -1    0    0  502    0 -0.00000000000E+00 -0.00000000000E+00 -0.85348107381E+03  0.85348107381E+03  0.00000000000E+00 0. -1.
         23    2    1    2    0    0  0.17193632798E+03 -0.51550376953E+01 -0.26357618639E+03  0.32634910576E+03  0.86270838090E+02 0.  0.
         24    2    1    2    0    0 -0.10943598221E+03  0.14687631640E+03 -0.47386822710E+02  0.20521926172E+03  0.79501873505E+02 0.  0.
        -13    1    4    4    0    0 -0.33757528174E+02  0.78901958342E+02  0.13185203311E+02  0.86827065625E+02  0.00000000000E+00 0.  1.
         14    1    4    4    0    0 -0.75678454039E+02  0.67974358056E+02 -0.60572026021E+02  0.11839219609E+03  0.00000000000E+00 0. -1.
        -11    1    3    3    0    0  0.20259275124E+02 -0.15406484120E+02 -0.99359796776E+02  0.10256786630E+03  0.00000000000E+00 0.  1.
         11    1    3    3    0    0  0.15167705286E+03  0.10251446425E+02 -0.16421638961E+03  0.22378123946E+03  0.00000000000E+00 0. -1.
         21    1    1    2  503  501  0.29921188845E+02  0.26205297042E+02  0.48034335103E+02  0.62364192320E+02  0.00000000000E+00 0. -1.
          1    1    1    2  501    0 -0.92421534613E+02 -0.16792657575E+03 -0.40344062548E+03  0.44666028835E+03  0.00000000000E+00 0. -1.
<scales pt_clust_5="13000.00000" pt_clust_6="13000.00000" pt_clust_7="13000.00000" pt_clust_8="13000.00000" pt_clust_9="39.77430" pt_clust_10="185.56866"></scales>
<clustering>
<clus scale="   39.774">  1  9  2 -1</clus>
<clus scale="   79.502">  5  6 -1 -1</clus>
<clus scale="   86.271">  7  8 -1 -1</clus>
<clus scale="  185.569">  1 10  2 -1</clus>
<clus scale="  179.310">  1  5  2 -1</clus>
<clus scale="   39.774">  1  5  2 -1</clus>
</clustering>
</event>
<event>
10    4  0.3403565E-005  0.2781334E+03  0.7546771E-02  0.1121634E+00
         21   -1    0    0  503  502  0.00000000000E+00  0.00000000000E+00  0.66897357300E+03  0.66897357300E+03  0.00000000000E+00 0. -1.
          2   -1    0    0  502    0 -0.00000000000E+00 -0.00000000000E+00 -0.81457121439E+03  0.81457121439E+03  0.00000000000E+00 0. -1.
         23    2    1    2    0    0  0.79360842266E+02 -0.84075649862E+02 -0.72891919778E+02  0.16490270314E+03  0.92264897709E+02 0.  0.
         24    2    1    2    0    0 -0.48925364962E+01 -0.18653812858E+03 -0.50498077810E+03  0.54421549152E+03  0.79652398800E+02 0.  0.
        -11    1    4    4    0    0 -0.21969796085E+02 -0.19520166092E+02 -0.38450009228E+02  0.48395372030E+02  0.00000000000E+00 0.  1.
         12    1    4    4    0    0  0.17077259589E+02 -0.16701796248E+03 -0.46653076887E+03  0.49582011949E+03  0.00000000000E+00 0. -1.
        -11    1    3    3    0    0  0.86616890284E+02 -0.27663786117E+02 -0.41681355580E+02  0.10002552748E+03  0.00000000000E+00 0. -1.
         11    1    3    3    0    0 -0.72560480182E+01 -0.56411863745E+02 -0.31210564198E+02  0.64877175660E+02  0.00000000000E+00 0.  1.
         21    1    1    2  503  501 -0.53475171591E+02 -0.39521706015E+02  0.45773582578E+03  0.46254042572E+03  0.00000000000E+00 0. -1.
          1    1    1    2  501    0 -0.20993134179E+02  0.31013548445E+03 -0.25460769295E+02  0.31188616701E+03  0.00000000000E+00 0. -1.
<scales pt_clust_5="13000.00000" pt_clust_6="13000.00000" pt_clust_7="13000.00000" pt_clust_8="13000.00000" pt_clust_9="66.49481" pt_clust_10="266.48390"></scales>
<clustering>
<clus scale="   66.495">  1  9  2 -1</clus>
<clus scale="   79.652">  5  6 -1 -1</clus>
<clus scale="   92.265">  7  8 -1 -1</clus>
<clus scale="  147.270">  2  7  1 -1</clus>
<clus scale="  266.484">  1 10  2 -1</clus>
<clus scale="   66.495">  1  5  2 -1</clus>
</clustering>
</event>
<event>
10    4  0.3403565E-005  0.4662354E+03  0.7546771E-02  0.1072874E+00
          2   -1    0    0  503    0 -0.00000000000E+00  0.00000000000E+00  0.76657331882E+03  0.76657331882E+03  0.00000000000E+00 0. -1.
         21   -1    0    0  501  502  0.00000000000E+00 -0.00000000000E+00 -0.61125905827E+03  0.61125905827E+03  0.00000000000E+00 0. -1.
         23    2    1    2    0    0 -0.20127599417E+01 -0.62218490906E+02  0.10138692870E+03  0.15030890920E+03  0.91860040602E+02 0.  0.
         24    2    1    2    0    0  0.46386252104E+03 -0.94201889059E+02  0.48860532222E+02  0.48491692055E+03  0.93352203469E+02 0.  0.
        -13    1    4    4    0    0  0.27310613267E+03 -0.21507876482E+02  0.60110499251E+02  0.28046892978E+03  0.00000000000E+00 0.  1.
         14    1    4    4    0    0  0.19075638838E+03 -0.72694012577E+02 -0.11249967028E+02  0.20444799077E+03  0.00000000000E+00 0. -1.
        -13    1    3    3    0    0  0.49854377807E+01  0.20945365894E+02  0.44118916901E+02  0.49092176269E+02  0.00000000000E+00 0.  1.
         13    1    3    3    0    0 -0.69981977224E+01 -0.83163856800E+02  0.57268011802E+02  0.10121673293E+03  0.00000000000E+00 0. -1.
         21    1    1    2  503  502 -0.40820861177E+02 -0.14986282848E+02 -0.22775580940E+03  0.23186987751E+03  0.00000000000E+00 0. -1.
          1    1    1    2  501    0 -0.42102889993E+03  0.17140666281E+03  0.23282260903E+03  0.51073666982E+03  0.00000000000E+00 0. -1.
<scales pt_clust_5="13000.00000" pt_clust_6="13000.00000" pt_clust_7="13000.00000" pt_clust_8="13000.00000" pt_clust_9="43.48484" pt_clust_10="456.79433"></scales>
<clustering>
<clus scale="   43.485">  2  9  1 -1</clus>
<clus scale="   91.860">  7  8 -1 -1</clus>
<clus scale="   93.352">  5  6 -1 -1</clus>
<clus scale="  111.586">  1  7  2 -1</clus>
<clus scale="  456.794">  2 10  1 -1</clus>
<clus scale="   43.485">  2  5  1 -1</clus>
</clustering>
</event>
<event>
10    4  0.3403565E-005  0.1254267E+03  0.7546771E-02  0.1236289E+00
          2   -1    0    0  503    0 -0.00000000000E+00  0.00000000000E+00  0.10296770499E+04  0.10296770499E+04  0.00000000000E+00 0. -1.
         21   -1    0    0  501  502  0.00000000000E+00 -0.00000000000E+00 -0.52857577548E+02  0.52857577548E+02  0.00000000000E+00 0.  1.
         24    2    1    2    0    0  0.23450114766E+02 -0.82659497982E+02  0.62264141911E+03  0.63372789165E+03  0.80908611303E+02 0.  0.
         23    2    1    2    0    0 -0.17378859440E+02  0.96142535554E+02  0.34656893392E+03  0.37063438699E+03  0.87831719602E+02 0.  0.
        -11    1    3    3    0    0  0.53262370203E+02 -0.59184281379E+02  0.39490123205E+03  0.40284816286E+03  0.00000000000E+00 0.  1.
         12    1    3    3    0    0 -0.29812255437E+02 -0.23475216603E+02  0.22774018705E+03  0.23087972879E+03  0.00000000000E+00 0. -1.
        -11    1    4    4    0    0 -0.42477448252E+02  0.80993251426E+02  0.31289585768E+03  0.32598781901E+03  0.00000000000E+00 0. -1.
         11    1    4    4    0    0  0.25098588812E+02  0.15149284127E+02  0.33673076237E+02  0.44646567989E+02  0.00000000000E+00 0.  1.
         21    1    1    2  503  502  0.17599894285E+02  0.22466780238E+02  0.18195391930E+02  0.33846488453E+02  0.00000000000E+00 0.  1.
          1    1    1    2  501    0 -0.23671149611E+02 -0.35949817810E+02 -0.10586272632E+02  0.44325860316E+02  0.00000000000E+00 0. -1.
<scales pt_clust_5="13000.00000" pt_clust_6="13000.00000" pt_clust_7="13000.00000" pt_clust_8="13000.00000" pt_clust_9="28.53967" pt_clust_10="25.74099"></scales>
<clustering>
<clus scale="   28.540">  2  9  1 -1</clus>
<clus scale="   25.741">  2 10  1 -1</clus>
<clus scale="   80.909">  5  6 -1 -1</clus>
<clus scale="   87.832">  7  8 -1 -1</clus>
<clus scale="  120.680">  1  5  2 -1</clus>
<clus scale="   28.540">  2  5  1 -1</clus>
</clustering>
</event>
<event>
10    4  0.3403565E-005  0.1124147E+03  0.7546771E-02  0.1269187E+00
         -1   -1    0    0    0  501 -0.00000000000E+00  0.00000000000E+00  0.70841866759E+03  0.70841866759E+03  0.00000000000E+00 0.  1.
         21   -1    0    0  503  502  0.00000000000E+00 -0.00000000000E+00 -0.14350999492E+03  0.14350999492E+03  0.00000000000E+00 0.  1.
         23    2    1    2    0    0 -0.30716377463E+02 -0.33506543975E+02  0.53702260491E+03  0.54955903361E+03  0.10749729717E+03 0.  0.
         24    2    1    2    0    0 -0.54786884321E+02  0.23732962303E+02  0.10484125218E+03  0.14513873890E+03  0.80676571427E+02 0.  0.
        -11    1    4    4    0    0 -0.16805834830E+02 -0.18927362420E+02 -0.49116795667E+00  0.25316444823E+02  0.00000000000E+00 0.  1.
         12    1    4    4    0    0 -0.37981049491E+02  0.42660324723E+02  0.10533242013E+03  0.11982229407E+03  0.00000000000E+00 0. -1.
        -11    1    3    3    0    0 -0.34537841202E+02  0.33096483664E+02  0.17390655834E+03  0.18036554754E+03  0.00000000000E+00 0. -1.
         11    1    3    3    0    0  0.38214637388E+01 -0.66603027639E+02  0.36311604657E+03  0.36919348607E+03  0.00000000000E+00 0.  1.
         21    1    1    2  503  501 -0.14689986538E+02  0.22003239949E+02 -0.43464078084E+02  0.50882849335E+02  0.00000000000E+00 0.  1.
         -2    1    1    2    0  502  0.10019324832E+03 -0.12229658277E+02 -0.33491106332E+02  0.10634804067E+03  0.00000000000E+00 0.  1.
<scales pt_clust_5="13000.00000" pt_clust_6="13000.00000" pt_clust_7="13000.00000" pt_clust_8="13000.00000" pt_clust_9="26.45635" pt_clust_10="89.60956"></scales>
<clustering>
<clus scale="   26.456">  2  9  1 -1</clus>
<clus scale="   80.677">  5  6 -1 -1</clus>
<clus scale="   89.610">  2 10  1 -1</clus>
<clus scale="   87.121">  2  5  1 -1</clus>
<clus scale="  107.497">  7  8 -1 -1</clus>
<clus scale="   26.456">  2  5  1 -1</clus>
</clustering>
</event>
<event>
10    4  0.3403565E-005  0.1443590E+03  0.7546771E-02  0.1225848E+00
         21   -1    0    0  503  502  0.00000000000E+00  0.00000000000E+00  0.20749311102E+03  0.20749311102E+03  0.00000000000E+00 0. -1.
         -1   -1    0    0    0  501 -0.00000000000E+00 -0.00000000000E+00 -0.21425235719E+03  0.21425235719E+03  0.00000000000E+00 0.  1.
         23    2    1    2    0    0 -0.10217660635E+02  0.44365678003E+02 -0.64662019754E+02  0.11868546698E+03  0.88500561014E+02 0.  0.
         24    2    1    2    0    0 -0.11557431107E+03 -0.36355545414E+02  0.50084916047E+02  0.15319094598E+03  0.79245315651E+02 0.  0.
        -13    1    4    4    0    0  0.35945837630E+01 -0.20482848556E+02  0.20888025917E+02  0.29475035947E+02  0.00000000000E+00 0.  1.
         14    1    4    4    0    0 -0.11916889484E+03 -0.15872696858E+02  0.29196890130E+02  0.12371591003E+03  0.00000000000E+00 0. -1.
        -11    1    3    3    0    0  0.33666075553E+02  0.40240152989E+02 -0.20610500632E+02  0.56369027772E+02  0.00000000000E+00 0.  1.
         11    1    3    3    0    0 -0.43883736188E+02  0.41255250143E+01 -0.44051519123E+02  0.62316439207E+02  0.00000000000E+00 0. -1.
         21    1    1    2  503  501  0.49094440268E+01 -0.20301822859E+02  0.18490194565E+02  0.27895410861E+02  0.00000000000E+00 0. -1.
         -2    1    1    2    0  502  0.12088252768E+03  0.12291690269E+02 -0.10672337024E+02  0.12197364439E+03  0.00000000000E+00 0.  1.
<scales pt_clust_5="13000.00000" pt_clust_6="13000.00000" pt_clust_7="13000.00000" pt_clust_8="13000.00000" pt_clust_9="20.88700" pt_clust_10="120.66369"></scales>
<clustering>
<clus scale="   20.887">  1  9  2 -1</clus>
<clus scale="   79.245">  5  6 -1 -1</clus>
<clus scale="   88.501">  7  8 -1 -1</clus>
<clus scale="   98.162">  2  7  1 -1</clus>
<clus scale="  120.664">  1 10  2 -1</clus>
<clus scale="   20.887">  1  5  2 -1</clus>
</clustering>
</event>
<event>
10    4  0.3403565E-005  0.8927467E+02  0.7546771E-02  0.1307008E+00
          2   -1    0    0  503    0 -0.00000000000E+00  0.00000000000E+00  0.21315630104E+03  0.21315630104E+03  0.00000000000E+00 0. -1.
         21   -1    0    0  501  502  0.00000000000E+00 -0.00000000000E+00 -0.59968661561E+03  0.59968661561E+03  0.00000000000E+00 0.  1.
         23    2    1    2    0    0  0.24317008521E+02  0.18636970915E+02  0.16258773060E+03  0.18595945012E+03  0.84896957314E+02 0.  0.
         24    2    1    2    0    0 -0.97443620936E+01 -0.87365531969E+01 -0.26432530675E+02  0.86087383104E+02  0.80876936746E+02 0.  0.
        -11    1    4    4    0    0  0.44864807683E+01 -0.36455716540E+02 -0.38000458004E+02  0.52850568461E+02  0.00000000000E+00 0.  1.
         12    1    4    4    0    0 -0.14230842862E+02  0.27719163343E+02  0.11567927329E+02  0.33236814644E+02  0.00000000000E+00 0. -1.
        -11    1    3    3    0    0  0.48138533253E+02  0.36285535386E+02  0.10135134151E+03  0.11792392839E+03  0.00000000000E+00 0. -1.
         11    1    3    3    0    0 -0.23821524732E+02 -0.17648564472E+02  0.61236389092E+02  0.68035521733E+02  0.00000000000E+00 0.  1.
         21    1    1    2  503  502 -0.73820066680E+02  0.10045068253E+02 -0.32646876774E+03  0.33486140708E+03  0.00000000000E+00 0.  1.
          1    1    1    2  501    0  0.59247420253E+02 -0.19945485970E+02 -0.19621674675E+03  0.20593467635E+03  0.00000000000E+00 0. -1.
<scales pt_clust_5="13000.00000" pt_clust_6="13000.00000" pt_clust_7="13000.00000" pt_clust_8="13000.00000" pt_clust_9="25.51378" pt_clust_10="62.51463"></scales>
<clustering>
<clus scale="   62.515">  2 10  1 -1</clus>
<clus scale="   25.514">  2  9  1 -1</clus>
<clus scale="   80.877">  5  6 -1 -1</clus>
<clus scale="   84.897">  7  8 -1 -1</clus>
<clus scale="   85.461">  2  5  1 -1</clus>
<clus scale="   62.515">  2  5  1 -1</clus>
</clustering>
</event>
<event>
10    4  0.3403565E-005  0.1467089E+03  0.7546771E-02  0.1206649E+00
         21   -1    0    0  503  502  0.00000000000E+00  0.00000000000E+00  0.47797612090E+02  0.47797612090E+02  0.00000000000E+00 0.  1.
          2   -1    0    0  502    0 -0.00000000000E+00 -0.00000000000E+00 -0.14045629516E+04  0.14045629516E+04  0.00000000000E+00 0. -1.
         24    2    1    2    0    0 -0.13700457174E+03  0.13790999451E+01 -0.68566205558E+03  0.70376712055E+03  0.79897127037E+02 0.  0.
         23    2    1    2    0    0  0.40554207687E+02  0.92885075127E+02 -0.13910989009E+03  0.19453489461E+03  0.90664120554E+02 0.  0.
        -13    1    3    3    0    0 -0.14523816167E+03  0.64454745006E+01 -0.59125102765E+03  0.60886241914E+03  0.00000000000E+00 0.  1.
         14    1    3    3    0    0  0.82335899284E+01 -0.50663745555E+01 -0.94411027928E+02  0.94904701404E+02  0.00000000000E+00 0. -1.
        -11    1    4    4    0    0  0.17010336592E+02  0.94668397638E+02 -0.14118213611E+03  0.17083282067E+03  0.00000000000E+00 0.  1.
         11    1    4    4    0    0  0.23543871095E+02 -0.17833225115E+01  0.20722460152E+01  0.23702073936E+02  0.00000000000E+00 0. -1.
         21    1    1    2  503  501  0.21914480944E+02 -0.42673014705E+02 -0.81792852642E+02  0.94822473087E+02  0.00000000000E+00 0.  1.
          1    1    1    2  501    0  0.74535883113E+02 -0.51591160367E+02 -0.45020054116E+03  0.45923607542E+03  0.00000000000E+00 0. -1.
<scales pt_clust_5="13000.00000" pt_clust_6="13000.00000" pt_clust_7="13000.00000" pt_clust_8="13000.00000" pt_clust_9="47.97114" pt_clust_10="95.31091"></scales>
<clustering>
<clus scale="   47.971">  1  9  2 -1</clus>
<clus scale="   79.897">  5  6 -1 -1</clus>
<clus scale="   90.664">  7  8 -1 -1</clus>
<clus scale="   95.311">  1 10  2 -1</clus>
<clus scale="  140.311">  2  5  1 -1</clus>
<clus scale="   47.971">  1  5  2 -1</clus>
</clustering>
</event>
<event>
10    4  0.3403565E-005  0.1437098E+03  0.7546771E-02  0.1233858E+00
          2   -1    0    0  503    0 -0.00000000000E+00  0.00000000000E+00  0.77479628084E+02  0.77479628084E+02  0.00000000000E+00 0. -1.
         21   -1    0    0  501  502  0.00000000000E+00 -0.00000000000E+00 -0.66863641972E+03  0.66863641972E+03  0.00000000000E+00 0. -1.
         23    2    1    2    0    0  0.59881443223E+02 -0.81039546883E+02 -0.12786317741E+03  0.18698694630E+03  0.91988752285E+02 0.  0.
         24    2    1    2    0    0 -0.26459878266E+02  0.42107371730E+02 -0.13198271540E+03  0.16146545787E+03  0.78603441459E+02 0.  0.
        -13    1    4    4    0    0  0.10167084424E+02 -0.18025164868E+02 -0.17687009166E+02  0.27223270697E+02  0.00000000000E+00 0.  1.
         14    1    4    4    0    0 -0.36626962691E+02  0.60132536598E+02 -0.11429570624E+03  0.13424218718E+03  0.00000000000E+00 0. -1.
        -13    1    3    3    0    0  0.71958572983E+01 -0.67978798609E+02 -0.29109013193E+02  0.74298264258E+02  0.00000000000E+00 0.  1.
         13    1    3    3    0    0  0.52685585924E+02 -0.13060748274E+02 -0.98754164218E+02  0.11268868204E+03  0.00000000000E+00 0. -1.
         21    1    1    2  503  502 -0.71461828078E+02  0.10615295418E+03 -0.27091216191E+03  0.29961415525E+03  0.00000000000E+00 0. -1.
          1    1    1    2  501    0  0.38040263122E+02 -0.67220779029E+02 -0.60398736907E+02  0.98049488381E+02  0.00000000000E+00 0. -1.
<scales pt_clust_5="13000.00000" pt_clust_6="13000.00000" pt_clust_7="13000.00000" pt_clust_8="13000.00000" pt_clust_9="110.41094" pt_clust_10="77.23795"></scales>
<clustering>
<clus scale="   77.238">  2 10  1 -1</clus>
<clus scale="   78.603">  5  6 -1 -1</clus>
<clus scale="   84.327">  2  5  1 -1</clus>
<clus scale="   91.989">  7  8 -1 -1</clus>
<clus scale="  110.411">  2  9  1 -1</clus>
<clus scale="   77.238">  2  5  1 -1</clus>
</clustering>
</event>
<event>
10    4  0.3403565E-005  0.9818563E+02  0.7546771E-02  0.1284795E+00
          2   -1    0    0  502    0 -0.00000000000E+00  0.00000000000E+00  0.71864456373E+03  0.71864456373E+03  0.00000000000E+00 0. -1.
         21   -1    0    0  503  502  0.00000000000E+00 -0.00000000000E+00 -0.21412452543E+03  0.21412452543E+03  0.00000000000E+00 0. -1.
         24    2    1    2    0    0 -0.64430980998E+02  0.26690371846E+02  0.37446985485E+03  0.38961922231E+03  0.81925203292E+02 0.  0.
         23    2    1    2    0    0 -0.44095935856E+01  0.21867723203E+02  0.41437598868E+02  0.95684834321E+02  0.83311890420E+02 0.  0.
        -11    1    3    3    0    0  0.18049362815E+02  0.16038216919E+02  0.96502484006E+02  0.99477300523E+02  0.00000000000E+00 0.  1.
         12    1    3    3    0    0 -0.82480343812E+02  0.10652154928E+02  0.27796737085E+03  0.29014192178E+03  0.00000000000E+00 0. -1.
        -13    1    4    4    0    0  0.38088129645E+02  0.23171581889E+01  0.10416603939E+02  0.39554778214E+02  0.00000000000E+00 0.  1.
         13    1    4    4    0    0 -0.42497723231E+02  0.19550565014E+02  0.31020994929E+02  0.56130056107E+02  0.00000000000E+00 0. -1.
         21    1    1    2  503  501  0.25421960302E+02  0.23029827279E+02 -0.17114433381E+03  0.17454807935E+03  0.00000000000E+00 0. -1.
          1    1    1    2  501    0  0.43418614281E+02 -0.71587922327E+02  0.25975691839E+03  0.27291695319E+03  0.00000000000E+00 0. -1.
<scales pt_clust_5="13000.00000" pt_clust_6="13000.00000" pt_clust_7="13000.00000" pt_clust_8="13000.00000" pt_clust_9="34.30232" pt_clust_10="82.86254"></scales>
<clustering>
<clus scale="   34.302">  2  9  1 -1</clus>
<clus scale="   81.925">  5  6 -1 -1</clus>
<clus scale="   82.863">  2 10  1 -1</clus>
<clus scale="   83.312">  7  8 -1 -1</clus>
<clus scale="   97.012">  1  5  2 -1</clus>
<clus scale="   34.302">  2  5  1 -1</clus>
</clustering>
</event>
<event>
10    4  0.3403565E-005  0.1578465E+03  0.7546771E-02  0.1208266E+00
          2   -1    0    0  503    0 -0.00000000000E+00  0.00000000000E+00  0.16152681461E+04  0.16152681461E+04  0.00000000000E+00 0. -1.
         21   -1    0    0  501  502  0.00000000000E+00 -0.00000000000E+00 -0.35430179571E+02  0.35430179571E+02  0.00000000000E+00 0.  1.
         24    2    1    2    0    0 -0.29427101024E+02  0.54052760791E+02  0.32922844798E+03  0.34388766861E+03  0.77972446673E+02 0.  0.
         23    2    1    2    0    0  0.16311780431E+03 -0.78453112593E+00  0.62359584629E+03  0.65114209525E+03  0.92229144717E+02 0.  0.
        -11    1    3    3    0    0 -0.47199357563E+02  0.54054635676E+01  0.16205630792E+03  0.16887642029E+03  0.00000000000E+00 0.  1.
         12    1    3    3    0    0  0.17772256539E+02  0.48647297224E+02  0.16717214005E+03  0.17501124832E+03  0.00000000000E+00 0. -1.
        -11    1    4    4    0    0  0.88216049016E+02 -0.46170900884E+02  0.31527732510E+03  0.33062609563E+03  0.00000000000E+00 0.  1.
         11    1    4    4    0    0  0.74901755296E+02  0.45386369758E+02  0.30831852118E+03  0.32051599962E+03  0.00000000000E+00 0. -1.
         21    1    1    2  503  502 -0.81549676391E+02 -0.93545577322E+02  0.36598963889E+03  0.38645768272E+03  0.00000000000E+00 0. -1.
          1    1    1    2  501    0 -0.52141026897E+02  0.40277347657E+02  0.26102403336E+03  0.26921087908E+03  0.00000000000E+00 0. -1.
<scales pt_clust_5="13000.00000" pt_clust_6="13000.00000" pt_clust_7="13000.00000" pt_clust_8="13000.00000" pt_clust_9="128.09875" pt_clust_10="65.88593"></scales>
<clustering>
<clus scale="   65.886">  2 10  1 -1</clus>
<clus scale="   77.972">  5  6 -1 -1</clus>
<clus scale="   92.229">  7  8 -1 -1</clus>
<clus scale="  108.817">  1  5  2 -1</clus>
<clus scale="  128.099">  2  9  1 -1</clus>
<clus scale="   65.886">  2  5  1 -1</clus>
</clustering>
</event>
<event>
10    4  0.3403565E-005  0.8430381E+02  0.7546771E-02  0.1320369E+00
         21   -1    0    0  501  502  0.00000000000E+00  0.00000000000E+00  0.58887439969E+02  0.58887439969E+02  0.00000000000E+00 0. -1.
          2   -1    0    0  503    0 -0.00000000000E+00 -0.00000000000E+00 -0.40234697714E+03  0.40234697714E+03  0.00000000000E+00 0. -1.
         24    2    1    2    0    0 -0.19039685125E+02  0.14166248208E+02 -0.17604034899E+03  0.19545859481E+03  0.81551613198E+02 0.  0.
         23    2    1    2    0    0 -0.34637120547E+02 -0.41871961793E+02 -0.15284800892E+02  0.95338677038E+02  0.76829986964E+02 0.  0.
        -13    1    3    3    0    0 -0.16856466611E+02 -0.18600543514E+02 -0.11390266745E+02  0.27565537581E+02  0.00000000000E+00 0.  1.
         14    1    3    3    0    0 -0.21832185145E+01  0.32766791722E+02 -0.16465008225E+03  0.16789305723E+03  0.00000000000E+00 0. -1.
        -13    1    4    4    0    0 -0.27589903644E+02  0.18273363881E+02 -0.99063753215E+01  0.34543521572E+02  0.00000000000E+00 0.  1.
         13    1    4    4    0    0 -0.70472169028E+01 -0.60145325674E+02 -0.53784255704E+01  0.60795155466E+02  0.00000000000E+00 0. -1.
         21    1    1    2  503  502  0.22192359113E+02 -0.61619374245E+01 -0.20204567406E+02  0.30638126899E+02  0.00000000000E+00 0. -1.
          1    1    1    2  501    0  0.31484446559E+02  0.33867651009E+02 -0.13192981988E+03  0.13979901836E+03  0.00000000000E+00 0. -1.
<scales pt_clust_5="13000.00000" pt_clust_6="13000.00000" pt_clust_7="13000.00000" pt_clust_8="13000.00000" pt_clust_9="23.03194" pt_clust_10="47.04241"></scales>
<clustering>
<clus scale="   23.032">  1  9  2 -1</clus>
<clus scale="   47.042">  1 10  2 -1</clus>
<clus scale="   76.830">  7  8 -1 -1</clus>
<clus scale="   79.745">  1  7  2 -1</clus>
<clus scale="   81.552">  5  6 -1 -1</clus>
<clus scale="   23.032">  1  5  2 -1</clus>
</clustering>
</event>
<event>
10    4  0.3403565E-005  0.1109438E+03  0.7546771E-02  0.1261897E+00
          2   -1    0    0  503    0 -0.00000000000E+00  0.00000000000E+00  0.80988256767E+03  0.80988256767E+03  0.00000000000E+00 0. -1.
         21   -1    0    0  501  502  0.00000000000E+00 -0.00000000000E+00 -0.37964193651E+02  0.37964193651E+02  0.00000000000E+00 0.  1.
         24    2    1    2    0    0 -0.41876293749E+02 -0.58115847825E+02  0.16618330263E+03  0.19772269366E+03  0.79663654010E+02 0.  0.
         23    2    1    2    0    0  0.61920374689E+02  0.31781506695E+02  0.16195263128E+03  0.19701689557E+03  0.87993212191E+02 0.  0.
        -11    1    3    3    0    0  0.17442085020E+02 -0.11708384353E+02  0.82525707906E+02  0.85157530843E+02  0.00000000000E+00 0.  1.
         12    1    3    3    0    0 -0.59318378770E+02 -0.46407463472E+02  0.83657594725E+02  0.11256516282E+03  0.00000000000E+00 0. -1.
        -11    1    4    4    0    0  0.53041149199E+02 -0.99219904147E+01  0.38170351984E+02  0.66096786402E+02  0.00000000000E+00 0.  1.
         11    1    4    4    0    0  0.88792254902E+01  0.41703497110E+02  0.12378227930E+03  0.13092010917E+03  0.00000000000E+00 0. -1.
         21    1    1    2  503  502  0.25699532702E+02  0.22977734288E+02  0.90219390786E+02  0.96581471970E+02  0.00000000000E+00 0.  1.
          1    1    1    2  501    0 -0.45743613641E+02  0.33566068419E+01  0.35356304932E+03  0.35652570012E+03  0.00000000000E+00 0. -1.
<scales pt_clust_5="13000.00000" pt_clust_6="13000.00000" pt_clust_7="13000.00000" pt_clust_8="13000.00000" pt_clust_9="34.47379" pt_clust_10="36.15132"></scales>
<clustering>
<clus scale="   34.474">  1  9  2 -1</clus>
<clus scale="   36.151">  2 10  1 -1</clus>
<clus scale="   79.664">  5  6 -1 -1</clus>
<clus scale="   87.993">  7  8 -1 -1</clus>
<clus scale="  104.461">  1  5  2 -1</clus>
<clus scale="   36.151">  2  5  1 -1</clus>
</clustering>
</event>
<event>
10    4  0.3403565E-005  0.2521667E+03  0.7546771E-02  0.1157427E+00
         21   -1    0    0  501  502  0.00000000000E+00  0.00000000000E+00  0.86514465921E+02  0.86514465921E+02  0.00000000000E+00 0. -1.
          2   -1    0    0  503    0 -0.00000000000E+00 -0.00000000000E+00 -0.21094733918E+04  0.21094733918E+04  0.00000000000E+00 0. -1.
         24    2    1    2    0    0  0.17192900180E+02  0.31945139082E+01 -0.10650609046E+04  0.10682564963E+04  0.80693312338E+02 0.  0.
         23    2    1    2    0    0  0.66629389068E+01  0.22803649514E+03 -0.20154043368E+03  0.31641703561E+03  0.86349036708E+02 0.  0.
        -13    1    3    3    0    0  0.38387188374E+01  0.30871939824E+02 -0.18045395126E+03  0.18311592218E+03  0.00000000000E+00 0.  1.
         14    1    3    3    0    0  0.13354181343E+02 -0.27677425915E+02 -0.88460695332E+03  0.88514057411E+03  0.00000000000E+00 0. -1.
        -11    1    4    4    0    0 -0.25194616179E+02  0.19097958339E+03 -0.14159028510E+03  0.23907274791E+03  0.00000000000E+00 0. -1.
         11    1    4    4    0    0  0.31857555085E+02  0.37056911750E+02 -0.59950148580E+02  0.77344287696E+02  0.00000000000E+00 0.  1.
         21    1    1    2  503  502 -0.15899021277E+02  0.29031128245E+02 -0.89446125328E+02  0.95373972450E+02  0.00000000000E+00 0. -1.
          1    1    1    2  501    0 -0.79568178099E+01 -0.26026213730E+03 -0.66691146225E+03  0.71594035334E+03  0.00000000000E+00 0. -1.
<scales pt_clust_5="13000.00000" pt_clust_6="13000.00000" pt_clust_7="13000.00000" pt_clust_8="13000.00000" pt_clust_9="33.09963" pt_clust_10="236.92177"></scales>
<clustering>
<clus scale="   33.100">  2  9  1 -1</clus>
<clus scale="   80.693">  5  6 -1 -1</clus>
<clus scale="   83.262">  2  5  1 -1</clus>
<clus scale="   86.349">  7  8 -1 -1</clus>
<clus scale="  236.922">  1 10  2 -1</clus>
<clus scale="  236.922">  1  5  2 -1</clus>
</clustering>
</event>
<event>
10    4  0.3403565E-005  0.1122718E+03  0.7546771E-02  0.1262289E+00
          2   -1    0    0  502    0 -0.00000000000E+00  0.00000000000E+00  0.42292472087E+03  0.42292472087E+03  0.00000000000E+00 0. -1.
         21   -1    0    0  503  502  0.00000000000E+00 -0.00000000000E+00 -0.15519030370E+03  0.15519030370E+03  0.00000000000E+00 0. -1.
         23    2    1    2    0    0 -0.22322603364E+01 -0.19371407732E+02  0.33717077646E+01  0.92293992810E+02  0.90147536139E+02 0.  0.
         24    2    1    2    0    0  0.19632979425E+02 -0.43801216234E+02  0.80619584348E+02  0.12489755365E+03  0.82437134253E+02 0.  0.
        -13    1    4    4    0    0  0.10691948612E+02  0.19352532756E+02  0.15575634015E-01  0.22109693164E+02  0.00000000000E+00 0.  1.
         14    1    4    4    0    0  0.89410308138E+01 -0.63153748991E+02  0.80604008714E+02  0.10278786049E+03  0.00000000000E+00 0. -1.
        -13    1    3    3    0    0 -0.88510441356E+01  0.27477759530E+02  0.26894535655E+02  0.39454838729E+02  0.00000000000E+00 0.  1.
         13    1    3    3    0    0  0.66187837992E+01 -0.46849167261E+02 -0.23522827890E+02  0.52839154081E+02  0.00000000000E+00 0. -1.
         21    1    1    2  503  501  0.30158684490E+02 -0.37584988101E+02 -0.69316803219E+02  0.84421542210E+02  0.00000000000E+00 0. -1.
          1    1    1    2  501    0 -0.47559403579E+02  0.10075761207E+03  0.25305992827E+03  0.27650193590E+03  0.00000000000E+00 0. -1.
<scales pt_clust_5="13000.00000" pt_clust_6="13000.00000" pt_clust_7="13000.00000" pt_clust_8="13000.00000" pt_clust_9="48.18898" pt_clust_10="76.21739"></scales>
<clustering>
<clus scale="   48.189">  2  9  1 -1</clus>
<clus scale="   82.437">  5  6 -1 -1</clus>
<clus scale="   90.148">  7  8 -1 -1</clus>
<clus scale="  100.027">  1  7  2 -1</clus>
<clus scale="   76.217">  2 10  1 -1</clus>
<clus scale="   48.189">  2  5  1 -1</clus>
</clustering>
</event>
<event>
10    4  0.3403565E-005  0.1468656E+03  0.7546771E-02  0.1228818E+00
         21   -1    0    0  503  502  0.00000000000E+00  0.00000000000E+00  0.31104221250E+03  0.31104221250E+03  0.00000000000E+00 0.  1.
         -3   -1    0    0    0  501 -0.00000000000E+00 -0.00000000000E+00 -0.32914389691E+03  0.32914389691E+03  0.00000000000E+00 0.  1.
         24    2    1    2    0    0  0.13418717565E+02 -0.40157632980E+02 -0.66090534804E+02  0.11177127401E+03  0.79574879426E+02 0.  0.
         23    2    1    2    0    0 -0.51147572929E+01 -0.87852619679E+02 -0.17244955652E+03  0.21547093589E+03  0.94576060084E+02 0.  0.
        -13    1    3    3    0    0  0.39603429126E+02 -0.44618408302E+02 -0.59808475087E+02  0.84476550889E+02  0.00000000000E+00 0.  1.
         14    1    3    3    0    0 -0.26184711560E+02  0.44607753223E+01 -0.62820597175E+01  0.27294723121E+02  0.00000000000E+00 0. -1.
        -13    1    4    4    0    0 -0.10878356784E+01 -0.63253958025E+02 -0.17887268995E+03  0.18973056107E+03  0.00000000000E+00 0.  1.
         13    1    4    4    0    0 -0.40269216145E+01 -0.24598661655E+02  0.64231334289E+01  0.25740374821E+02  0.00000000000E+00 0. -1.
         21    1    1    2  503  501  0.55335806099E+02  0.78270059284E+02  0.21083589020E+03  0.23160316538E+03  0.00000000000E+00 0.  1.
         -4    1    1    2    0  502 -0.63639766371E+02  0.49740193375E+02  0.96025167116E+01  0.81340734125E+02  0.00000000000E+00 0.  1.
<scales pt_clust_5="13000.00000" pt_clust_6="13000.00000" pt_clust_7="13000.00000" pt_clust_8="13000.00000" pt_clust_9="112.36049" pt_clust_10="80.77194"></scales>
<clustering>
<clus scale="   79.575">  5  6 -1 -1</clus>
<clus scale="   80.772">  1 10  2 -1</clus>
<clus scale="   87.651">  2  5  1 -1</clus>
<clus scale="   94.576">  7  8 -1 -1</clus>
<clus scale="  112.360">  1  9  2 -1</clus>
<clus scale="   80.772">  1  5  2 -1</clus>
</clustering>
</event>
<event>
10    4  0.3403565E-005  0.1378108E+03  0.7546771E-02  0.1240846E+00
          2   -1    0    0  503    0 -0.00000000000E+00  0.00000000000E+00  0.88889060554E+03  0.88889060554E+03  0.00000000000E+00 0. -1.
         21   -1    0    0  501  502  0.00000000000E+00 -0.00000000000E+00 -0.14947574290E+03  0.14947574290E+03  0.00000000000E+00 0. -1.
         24    2    1    2    0    0 -0.18030954759E+02  0.18620113319E+01  0.54249142479E+03  0.54876114312E+03  0.80704794290E+02 0.  0.
         23    2    1    2    0    0 -0.69266419621E+02 -0.58383564622E+02  0.27708230709E+03  0.30524393054E+03  0.90513947684E+02 0.  0.
        -11    1    3    3    0    0 -0.56296464543E+01  0.39337768770E+02  0.19307716574E+03  0.19712418649E+03  0.00000000000E+00 0.  1.
         12    1    3    3    0    0 -0.12401308305E+02 -0.37475757438E+02  0.34941425905E+03  0.35163695663E+03  0.00000000000E+00 0. -1.
        -11    1    4    4    0    0 -0.64953732779E+01  0.23545591710E+02  0.43815453738E+02  0.50163520104E+02  0.00000000000E+00 0.  1.
         11    1    4    4    0    0 -0.62771046343E+02 -0.81929156332E+02  0.23326685335E+03  0.25508041044E+03  0.00000000000E+00 0. -1.
         21    1    1    2  503  502 -0.32096333811E+02  0.28084432975E+02 -0.13733496362E+02  0.44805345016E+02  0.00000000000E+00 0.  1.
          1    1    1    2  501    0  0.11939370819E+03  0.28437120315E+02 -0.66425372879E+02  0.13955592975E+03  0.00000000000E+00 0. -1.
<scales pt_clust_5="13000.00000" pt_clust_6="13000.00000" pt_clust_7="13000.00000" pt_clust_8="13000.00000" pt_clust_9="42.64868" pt_clust_10="103.91841"></scales>
<clustering>
<clus scale="   42.649">  2  9  1 -1</clus>
<clus scale="   80.705">  5  6 -1 -1</clus>
<clus scale="   82.922">  1  5  2 -1</clus>
<clus scale="   90.514">  7  8 -1 -1</clus>
<clus scale="  103.918">  2 10  1 -1</clus>
<clus scale="   42.649">  2  5  1 -1</clus>
</clustering>
</event>
<event>
10    4  0.3403565E-005  0.1135376E+03  0.7546771E-02  0.1256814E+00
          4   -1    0    0  503    0 -0.00000000000E+00  0.00000000000E+00  0.14874071546E+03  0.14874071546E+03  0.00000000000E+00 0. -1.
         21   -1    0    0  501  502  0.00000000000E+00 -0.00000000000E+00 -0.50797349935E+03  0.50797349935E+03  0.00000000000E+00 0. -1.
         23    2    1    2    0    0  0.77718310724E+00  0.74669904390E+02  0.10846461707E+03  0.15876702756E+03  0.88691584991E+02 0.  0.
         24    2    1    2    0    0 -0.19754649325E+02 -0.39240221732E+02 -0.19648274744E+03  0.21705662167E+03  0.81105276001E+02 0.  0.
        -11    1    4    4    0    0 -0.16509174712E+02 -0.63557357234E+02 -0.12076536998E+03  0.13746405019E+03  0.00000000000E+00 0.  1.
         12    1    4    4    0    0 -0.32454746130E+01  0.24317135502E+02 -0.75717377460E+02  0.79592571475E+02  0.00000000000E+00 0. -1.
        -13    1    3    3    0    0 -0.59787419057E+00  0.25060996125E+02 -0.12504339097E+02  0.28013737283E+02  0.00000000000E+00 0.  1.
         13    1    3    3    0    0  0.13750572978E+01  0.49608908265E+02  0.12096895616E+03  0.13075329027E+03  0.00000000000E+00 0. -1.
         21    1    1    2  503  502 -0.12551773559E+02 -0.24277149732E+02 -0.20392511998E+03  0.20574834526E+03  0.00000000000E+00 0. -1.
          3    1    1    2  501    0  0.31529239777E+02 -0.11152532925E+02 -0.67289533530E+02  0.75142220317E+02  0.00000000000E+00 0. -1.
<scales pt_clust_5="13000.00000" pt_clust_6="13000.00000" pt_clust_7="13000.00000" pt_clust_8="13000.00000" pt_clust_9="27.32997" pt_clust_10="33.18080"></scales>
<clustering>
<clus scale="   27.330">  2  9  1 -1</clus>
<clus scale="   33.181">  2 10  1 -1</clus>
<clus scale="   81.105">  5  6 -1 -1</clus>
<clus scale="   88.692">  7  8 -1 -1</clus>
<clus scale="  107.716">  2  5  1 -1</clus>
<clus scale="   27.330">  2  5  1 -1</clus>
</clustering>
</event>
<event>
10    4  0.3403565E-005  0.4250566E+03  0.7546771E-02  0.1035589E+00
          2   -1    0    0  502    0 -0.00000000000E+00  0.00000000000E+00  0.74919081591E+03  0.74919081591E+03  0.00000000000E+00 0. -1.
         21   -1    0    0  503  502  0.00000000000E+00 -0.00000000000E+00 -0.70641871799E+03  0.70641871799E+03  0.00000000000E+00 0. -1.
         24    2    1    2    0    0  0.24680152525E+03 -0.40969787718E+03  0.27569694658E+03  0.55790929018E+03  0.80564423190E+02 0.  0.
         23    2    1    2    0    0 -0.32284377078E+03  0.95646495316E+02 -0.24098162285E+03  0.42377862899E+03  0.90221014395E+02 0.  0.
        -13    1    3    3    0    0  0.10809261900E+03 -0.11554457486E+03  0.69358529251E+02  0.17275754294E+03  0.00000000000E+00 0.  1.
         14    1    3    3    0    0  0.13870890625E+03 -0.29415330232E+03  0.20633841732E+03  0.38515174724E+03  0.00000000000E+00 0. -1.
        -11    1    4    4    0    0 -0.32764339938E+02  0.38258724770E+02 -0.18240570460E+02  0.53571918048E+02  0.00000000000E+00 0.  1.
         11    1    4    4    0    0 -0.29007943084E+03  0.57387770546E+02 -0.22274105239E+03  0.37020671094E+03  0.00000000000E+00 0. -1.
         21    1    1    2  503  501  0.37090919656E+02  0.23100597796E+02 -0.13892385716E+03  0.14563382858E+03  0.00000000000E+00 0. -1.
          1    1    1    2  501    0  0.38951325878E+02  0.29095078407E+03  0.14698063136E+03  0.32828778615E+03  0.00000000000E+00 0. -1.
<scales pt_clust_5="13000.00000" pt_clust_6="13000.00000" pt_clust_7="13000.00000" pt_clust_8="13000.00000" pt_clust_9="43.69638" pt_clust_10="298.06604"></scales>
<clustering>
<clus scale="   43.696">  2  9  1 -1</clus>
<clus scale="   80.564">  5  6 -1 -1</clus>
<clus scale="   90.221">  7  8 -1 -1</clus>
<clus scale="  298.066">  2 10  1 -1</clus>
<clus scale="  423.112">  1  5  2 -1</clus>
<clus scale="   43.696">  2  5  1 -1</clus>
</clustering>
</event>
<event>
10    4  0.3403565E-005  0.1671098E+03  0.7546771E-02  0.1182582E+00
         -1   -1    0    0    0  501 -0.00000000000E+00  0.00000000000E+00  0.32243986987E+03  0.32243986987E+03  0.00000000000E+00 0.  1.
         21   -1    0    0  501  502  0.00000000000E+00 -0.00000000000E+00 -0.30276750537E+03  0.30276750537E+03  0.00000000000E+00 0.  1.
         24    2    1    2    0    0 -0.16172910594E+03  0.80320540209E+02  0.19070060532E+03  0.27438415744E+03  0.79449682808E+02 0.  0.
         23    2    1    2    0    0  0.86757426260E+02  0.34021201338E+02 -0.15039504267E+02  0.13136207503E+03  0.91353789827E+02 0.  0.
        -11    1    3    3    0    0 -0.14007169741E+03  0.96573970325E+02  0.16202047758E+03  0.23494094431E+03  0.00000000000E+00 0.  1.
         12    1    3    3    0    0 -0.21657408538E+02 -0.16253430116E+02  0.28680127736E+02  0.39443213131E+02  0.00000000000E+00 0. -1.
        -11    1    4    4    0    0  0.84002748388E+02  0.57449853132E+02 -0.26460457151E+02  0.10515276104E+03  0.00000000000E+00 0.  1.
         11    1    4    4    0    0  0.27546778717E+01 -0.23428651794E+02  0.11420952884E+02  0.26209313990E+02  0.00000000000E+00 0. -1.
         21    1    1    2  503  502  0.36452625696E+02 -0.34530682804E+02 -0.10701550426E+03  0.11820947562E+03  0.00000000000E+00 0.  1.
         -2    1    1    2    0  503  0.38519053988E+02 -0.79811058743E+02 -0.48973232298E+02  0.10125166715E+03  0.00000000000E+00 0.  1.
<scales pt_clust_5="13000.00000" pt_clust_6="13000.00000" pt_clust_7="13000.00000" pt_clust_8="13000.00000" pt_clust_9="50.21117" pt_clust_10="107.39364"></scales>
<clustering>
<clus scale="   50.211">  2  9  1 -1</clus>
<clus scale="   79.450">  5  6 -1 -1</clus>
<clus scale="   91.354">  7  8 -1 -1</clus>
<clus scale="  107.394">  2 10  1 -1</clus>
<clus scale="  160.911">  1  5  2 -1</clus>
<clus scale="   50.211">  2  5  1 -1</clus>
</clustering>
</event>
<event>
10    4  0.3403565E-005  0.1592493E+03  0.7546771E-02  0.1200882E+00
          2   -1    0    0  502    0 -0.00000000000E+00  0.00000000000E+00  0.95354763241E+03  0.95354763241E+03  0.00000000000E+00 0. -1.
         21   -1    0    0  503  502  0.00000000000E+00 -0.00000000000E+00 -0.91097099903E+02  0.91097099903E+02  0.00000000000E+00 0. -1.
         23    2    1    2    0    0  0.90071595498E+02 -0.92465882550E+01  0.19009043496E+03  0.22996862253E+03  0.92481361229E+02 0.  0.
         24    2    1    2    0    0  0.59683831909E+02 -0.80474089998E+02  0.49603410520E+03  0.51243153893E+03  0.80610232719E+02 0.  0.
        -11    1    4    4    0    0 -0.20253270375E+02 -0.15605107560E+02  0.91685075149E+02  0.95183335453E+02  0.00000000000E+00 0.  1.
         12    1    4    4    0    0  0.79937102284E+02 -0.64868982438E+02  0.40434903005E+03  0.41724820348E+03  0.00000000000E+00 0. -1.
        -11    1    3    3    0    0  0.79392301412E+02  0.24544798348E+02  0.84183421331E+02  0.11828961525E+03  0.00000000000E+00 0. -1.
         11    1    3    3    0    0  0.10679294086E+02 -0.33791386603E+02  0.10590701363E+03  0.11167900728E+03  0.00000000000E+00 0.  1.
         21    1    1    2  503  501 -0.19282824266E+02  0.10274085284E+02 -0.35137958057E+02  0.41377049635E+02  0.00000000000E+00 0. -1.
          1    1    1    2  501    0 -0.13047260314E+03  0.79446592970E+02  0.21146395040E+03  0.26086752121E+03  0.00000000000E+00 0. -1.
<scales pt_clust_5="13000.00000" pt_clust_6="13000.00000" pt_clust_7="13000.00000" pt_clust_8="13000.00000" pt_clust_9="21.84912" pt_clust_10="137.34019"></scales>
<clustering>
<clus scale="   21.849">  2  9  1 -1</clus>
<clus scale="   80.610">  5  6 -1 -1</clus>
<clus scale="   92.481">  7  8 -1 -1</clus>
<clus scale="  124.244">  1  7  2 -1</clus>
<clus scale="  137.340">  2 10  1 -1</clus>
<clus scale="   21.849">  2  5  1 -1</clus>
</clustering>
</event>
<event>
10    4  0.3403565E-005  0.1840783E+03  0.7546771E-02  0.1164271E+00
         21   -1    0    0  503  502  0.00000000000E+00  0.00000000000E+00  0.43420859692E+02  0.43420859692E+02  0.00000000000E+00 0.  1.
          2   -1    0    0  502    0 -0.00000000000E+00 -0.00000000000E+00 -0.17905874487E+04  0.17905874487E+04  0.00000000000E+00 0. -1.
         24    2    1    2    0    0  0.10023793373E+02 -0.20724659136E+03 -0.89540246795E+03  0.92254528136E+03  0.79325850050E+02 0.  0.
         23    2    1    2    0    0 -0.68915642245E+02  0.91010497719E+02 -0.22156733136E+03  0.26262641398E+03  0.82754302328E+02 0.  0.
        -11    1    3    3    0    0  0.36007425510E+02 -0.13069916014E+03 -0.65604665793E+03  0.66990747311E+03  0.00000000000E+00 0.  1.
         12    1    3    3    0    0 -0.25983632137E+02 -0.76547431217E+02 -0.23935581002E+03  0.25263780825E+03  0.00000000000E+00 0. -1.
        -11    1    4    4    0    0 -0.19722066690E+02  0.76905272487E+02 -0.17987435886E+03  0.19661679945E+03  0.00000000000E+00 0. -1.
         11    1    4    4    0    0 -0.49193575555E+02  0.14105225233E+02 -0.41692972500E+02  0.66009614531E+02  0.00000000000E+00 0.  1.
         21    1    1    2  503  501  0.20775043446E+02  0.28785118175E+01 -0.28591648045E+02  0.35459421857E+02  0.00000000000E+00 0.  1.
          1    1    1    2  501    0  0.38116805426E+02  0.11335758182E+03 -0.60160514163E+03  0.61337719117E+03  0.00000000000E+00 0. -1.
<scales pt_clust_5="13000.00000" pt_clust_6="13000.00000" pt_clust_7="13000.00000" pt_clust_8="13000.00000" pt_clust_9="20.97351" pt_clust_10="121.00234"></scales>
<clustering>
<clus scale="   20.974">  1  9  2 -1</clus>
<clus scale="   79.326">  5  6 -1 -1</clus>
<clus scale="   82.754">  7  8 -1 -1</clus>
<clus scale="  121.002">  1 10  2 -1</clus>
<clus scale="  182.563">  2  5  1 -1</clus>
<clus scale="   20.974">  1  5  2 -1</clus>
</clustering>
</event>
<event>
10    4  0.3403565E-005  0.2233725E+03  0.7546771E-02  0.1173624E+00
         21   -1    0    0  501  502  0.00000000000E+00  0.00000000000E+00  0.68056790890E+03  0.68056790890E+03  0.00000000000E+00 0. -1.
          2   -1    0    0  503    0 -0.00000000000E+00 -0.00000000000E+00 -0.11170754019E+03  0.11170754019E+03  0.00000000000E+00 0. -1.
         24    2    1    2    0    0  0.11752889368E+02 -0.56637164132E+01  0.46010283964E+02  0.94081688393E+02  0.81019810962E+02 0.  0.
         23    2    1    2    0    0  0.56998432344E+02 -0.18009414701E+03  0.25913750095E+03  0.33342447933E+03  0.91306713552E+02 0.  0.
        -11    1    3    3    0    0  0.32390307118E+02  0.92733589216E+01  0.57098361030E+02  0.66297435948E+02  0.00000000000E+00 0.  1.
         12    1    3    3    0    0 -0.20637417750E+02 -0.14937075335E+02 -0.11088077065E+02  0.27784252446E+02  0.00000000000E+00 0. -1.
        -11    1    4    4    0    0  0.71607433358E+02 -0.14197543510E+03  0.24105397159E+03  0.28877615189E+03  0.00000000000E+00 0. -1.
         11    1    4    4    0    0 -0.14609001014E+02 -0.38118711917E+02  0.18083529361E+02  0.44648327437E+02  0.00000000000E+00 0.  1.
         21    1    1    2  503  502 -0.87303838689E+01 -0.26635337470E+02  0.13462360686E+02  0.31094950714E+02  0.00000000000E+00 0.  1.
          1    1    1    2  501    0 -0.60020937844E+02  0.21239320090E+03  0.25025022311E+03  0.33367433065E+03  0.00000000000E+00 0. -1.
<scales pt_clust_5="13000.00000" pt_clust_6="13000.00000" pt_clust_7="13000.00000" pt_clust_8="13000.00000" pt_clust_9="28.02964" pt_clust_10="203.85881"></scales>
<clustering>
<clus scale="   28.030">  2  9  1 -1</clus>
<clus scale="   81.020">  5  6 -1 -1</clus>
<clus scale="   82.461">  2  5  1 -1</clus>
<clus scale="   91.307">  7  8 -1 -1</clus>
<clus scale="  203.859">  1 10  2 -1</clus>
<clus scale="  203.859">  1  5  2 -1</clus>
</clustering>
</event>
<event>
10    4  0.3403565E-005  0.9588303E+02  0.7546771E-02  0.1296424E+00
         -3   -1    0    0    0  501 -0.00000000000E+00  0.00000000000E+00  0.32615705903E+02  0.32615705903E+02  0.00000000000E+00 0.  1.
         21   -1    0    0  503  502  0.00000000000E+00 -0.00000000000E+00 -0.12511382715E+04  0.12511382715E+04  0.00000000000E+00 0.  1.
         23    2    1    2    0    0  0.74635025977E+01 -0.19664517167E+02 -0.78572636486E+02  0.12410004295E+03  0.93727073732E+02 0.  0.
         24    2    1    2    0    0 -0.20595648968E+02  0.92851983228E+01 -0.34277552525E+03  0.35301385379E+03  0.81322349921E+02 0.  0.
        -13    1    4    4    0    0 -0.14299179270E+02  0.42076954243E+02 -0.12438522129E+03  0.13208565358E+03  0.00000000000E+00 0.  1.
         14    1    4    4    0    0 -0.62964696975E+01 -0.32791755920E+02 -0.21839030395E+03  0.22092820021E+03  0.00000000000E+00 0. -1.
        -13    1    3    3    0    0  0.13604107569E+01  0.30310352992E+02 -0.65344733085E+02  0.72045141112E+02  0.00000000000E+00 0. -1.
         13    1    3    3    0    0  0.61030918408E+01 -0.49974870159E+02 -0.13227903402E+02  0.52054901843E+02  0.00000000000E+00 0.  1.
         21    1    1    2  503  501  0.66914746458E+02 -0.44737213597E+01 -0.40460028008E+03  0.41012069458E+03  0.00000000000E+00 0.  1.
         -4    1    1    2    0  502 -0.53782600088E+02  0.14853040204E+02 -0.39257412381E+03  0.39651938611E+03  0.00000000000E+00 0.  1.
<scales pt_clust_5="13000.00000" pt_clust_6="13000.00000" pt_clust_7="13000.00000" pt_clust_8="13000.00000" pt_clust_9="41.41895" pt_clust_10="55.79589"></scales>
<clustering>
<clus scale="   55.796">  2 10  1 -1</clus>
<clus scale="   41.419">  2  9  1 -1</clus>
<clus scale="   81.322">  5  6 -1 -1</clus>
<clus scale="   83.798">  2  5  1 -1</clus>
<clus scale="   93.727">  7  8 -1 -1</clus>
<clus scale="   55.796">  2  5  1 -1</clus>
</clustering>
</event>
<event>
10    4  0.3403565E-005  0.1088773E+03  0.7546771E-02  0.1266614E+00
         -3   -1    0    0    0  501 -0.00000000000E+00  0.00000000000E+00  0.25575785101E+03  0.25575785101E+03  0.00000000000E+00 0.  1.
         21   -1    0    0  503  502  0.00000000000E+00 -0.00000000000E+00 -0.52621025681E+03  0.52621025681E+03  0.00000000000E+00 0.  1.
         24    2    1    2    0    0  0.31100488131E+02 -0.55453262300E+02  0.14669857769E+03  0.17965617803E+03  0.81936346909E+02 0.  0.
         23    2    1    2    0    0  0.43694714744E+01  0.54676886396E+02  0.43015523589E+02  0.11517785193E+03  0.91689411158E+02 0.  0.
        -11    1    3    3    0    0  0.70493674207E+01 -0.26420522691E+02  0.13837031616E+03  0.14104638242E+03  0.00000000000E+00 0.  1.
         12    1    3    3    0    0  0.24051120710E+02 -0.29032739609E+02  0.83282615340E+01  0.38609795607E+02  0.00000000000E+00 0. -1.
        -11    1    4    4    0    0  0.46396603838E+02  0.15866361826E+02  0.25964935823E+02  0.55484810332E+02  0.00000000000E+00 0.  1.
         11    1    4    4    0    0 -0.42027132363E+02  0.38810524570E+02  0.17050587766E+02  0.59693041598E+02  0.00000000000E+00 0. -1.
         21    1    1    2  503  501 -0.70149020987E+02 -0.30073226023E+02 -0.41640580633E+03  0.42334274485E+03  0.00000000000E+00 0.  1.
         -4    1    1    2    0  502  0.34679061382E+02  0.30849601927E+02 -0.43760700746E+02  0.63791333010E+02  0.00000000000E+00 0.  1.
<scales pt_clust_5="13000.00000" pt_clust_6="13000.00000" pt_clust_7="13000.00000" pt_clust_8="13000.00000" pt_clust_9="39.41769" pt_clust_10="46.41482"></scales>
<clustering>
<clus scale="   46.415">  2 10  1 -1</clus>
<clus scale="   39.418">  2  9  1 -1</clus>
<clus scale="   81.936">  5  6 -1 -1</clus>
<clus scale="   91.689">  7  8 -1 -1</clus>
<clus scale="  100.801">  1  5  2 -1</clus>
<clus scale="   46.415">  2  5  1 -1</clus>
</clustering>
</event>
<event>
10    4  0.3403565E-005  0.1244011E+03  0.7546771E-02  0.1256437E+00
         21   -1    0    0  501  502  0.00000000000E+00  0.00000000000E+00  0.38921493672E+03  0.38921493672E+03  0.00000000000E+00 0. -1.
          4   -1    0    0  503    0 -0.00000000000E+00 -0.00000000000E+00 -0.15151548590E+03  0.15151548590E+03  0.00000000000E+00 0. -1.
         24    2    1    2    0    0 -0.22440932358E+02 -0.15674859357E+02  0.35288970069E+02  0.91437973344E+02  0.79789065039E+02 0.  0.
         23    2    1    2    0    0  0.14213418447E+02 -0.77189786429E+02  0.24052601111E+03  0.28115572215E+03  0.12261930389E+03 0.  0.
        -11    1    3    3    0    0  0.72661795767E+01  0.26590857850E+02  0.27952369161E+02  0.39258196960E+02  0.00000000000E+00 0.  1.
         12    1    3    3    0    0 -0.29707111935E+02 -0.42265717207E+02  0.73366009078E+01  0.52179776384E+02  0.00000000000E+00 0. -1.
        -11    1    4    4    0    0 -0.35023545601E+02 -0.67887908478E+02  0.20757321356E+03  0.22118330826E+03  0.00000000000E+00 0. -1.
         11    1    4    4    0    0  0.49236964048E+02 -0.93018779508E+01  0.32952797551E+02  0.59972413896E+02  0.00000000000E+00 0.  1.
         21    1    1    2  503  502 -0.32225619437E+01  0.33303226038E+02  0.50604920029E+02  0.60665869326E+02  0.00000000000E+00 0. -1.
          3    1    1    2  501    0  0.11450075855E+02  0.59561419748E+02 -0.88720450387E+02  0.10747085780E+03  0.00000000000E+00 0. -1.
<scales pt_clust_5="13000.00000" pt_clust_6="13000.00000" pt_clust_7="13000.00000" pt_clust_8="13000.00000" pt_clust_9="33.45878" pt_clust_10="61.55467"></scales>
<clustering>
<clus scale="   33.459">  1  9  2 -1</clus>
<clus scale="   61.555">  1 10  2 -1</clus>
<clus scale="   79.789">  5  6 -1 -1</clus>
<clus scale="   82.501">  2  5  1 -1</clus>
<clus scale="  122.619">  7  8 -1 -1</clus>
<clus scale="   33.459">  1  5  2 -1</clus>
</clustering>
</event>
<event>
10    4  0.3403565E-005  0.1619266E+03  0.7546771E-02  0.1199126E+00
          2   -1    0    0  502    0 -0.00000000000E+00  0.00000000000E+00  0.78655962745E+03  0.78655962745E+03  0.00000000000E+00 0. -1.
         21   -1    0    0  503  502  0.00000000000E+00 -0.00000000000E+00 -0.10774241243E+03  0.10774241243E+03  0.00000000000E+00 0.  1.
         24    2    1    2    0    0 -0.43196893999E+02 -0.10737961908E+03  0.95478619746E+02  0.16991320708E+03  0.79736922861E+02 0.  0.
         23    2    1    2    0    0 -0.11100394367E+03  0.13472364295E+02  0.47536118580E+03  0.49667434101E+03  0.90629818194E+02 0.  0.
        -13    1    3    3    0    0 -0.35802363210E+02 -0.97489720664E+02  0.37163464560E+02  0.11030493164E+03  0.00000000000E+00 0.  1.
         14    1    3    3    0    0 -0.73945307892E+01 -0.98898984125E+01  0.58315155186E+02  0.59608275437E+02  0.00000000000E+00 0. -1.
        -11    1    4    4    0    0 -0.94495238563E+02 -0.24371642456E+02  0.26731960697E+03  0.28457529643E+03  0.00000000000E+00 0.  1.
         11    1    4    4    0    0 -0.16508705102E+02  0.37844006750E+02  0.20804157882E+03  0.21209904458E+03  0.00000000000E+00 0. -1.
         21    1    1    2  503  501  0.31548213928E+02  0.38955633135E+02 -0.72899272666E+01  0.50655445853E+02  0.00000000000E+00 0.  1.
          1    1    1    2  501    0  0.12265262374E+03  0.54951621647E+02  0.11526733674E+03  0.17705904594E+03  0.00000000000E+00 0. -1.
<scales pt_clust_5="13000.00000" pt_clust_6="13000.00000" pt_clust_7="13000.00000" pt_clust_8="13000.00000" pt_clust_9="50.12815" pt_clust_10="134.18819"></scales>
<clustering>
<clus scale="   50.128">  2  9  1 -1</clus>
<clus scale="   79.737">  5  6 -1 -1</clus>
<clus scale="   90.630">  7  8 -1 -1</clus>
<clus scale="  122.779">  1  5  2 -1</clus>
<clus scale="  134.188">  2 10  1 -1</clus>
<clus scale="   50.128">  2  5  1 -1</clus>
</clustering>
</event>
<event>
10    4  0.3403565E-005  0.2698832E+03  0.7546771E-02  0.1101380E+00
         21   -1    0    0  501  502  0.00000000000E+00  0.00000000000E+00  0.12737511489E+03  0.12737511489E+03  0.00000000000E+00 0. -1.
          2   -1    0    0  503    0 -0.00000000000E+00 -0.00000000000E+00 -0.18939706542E+04  0.18939706542E+04  0.00000000000E+00 0. -1.
         24    2    1    2    0    0 -0.18782750185E+03 -0.11733002703E+03 -0.54889369427E+03  0.59705419924E+03  0.78383183976E+02 0.  0.
         23    2    1    2    0    0  0.18425470302E+03  0.26141558632E+03 -0.79835128079E+03  0.86366793052E+03  0.79180946700E+02 0.  0.
        -13    1    3    3    0    0 -0.10936397376E+03 -0.31848810334E+02 -0.33318339802E+03  0.35211646112E+03  0.00000000000E+00 0.  1.
         14    1    3    3    0    0 -0.78463528088E+02 -0.85481216695E+02 -0.21571029625E+03  0.24493773812E+03  0.00000000000E+00 0. -1.
        -11    1    4    4    0    0  0.56045188942E+02  0.13424689576E+03 -0.29535076124E+03  0.32923451276E+03  0.00000000000E+00 0.  1.
         11    1    4    4    0    0  0.12820951407E+03  0.12716869056E+03 -0.50300051955E+03  0.53443341777E+03  0.00000000000E+00 0. -1.
         21    1    1    2  503  502  0.30734392187E+02 -0.60293910176E+02  0.49324619844E+02  0.83742919642E+02  0.00000000000E+00 0. -1.
          1    1    1    2  501    0 -0.27161593358E+02 -0.83791649115E+02 -0.46867518414E+03  0.47688071972E+03  0.00000000000E+00 0. -1.
<scales pt_clust_5="13000.00000" pt_clust_6="13000.00000" pt_clust_7="13000.00000" pt_clust_8="13000.00000" pt_clust_9="67.67539" pt_clust_10="91.36963"></scales>
<clustering>
<clus scale="   67.675">  1  9  2 -1</clus>
<clus scale="   78.383">  5  6 -1 -1</clus>
<clus scale="   79.181">  7  8 -1 -1</clus>
<clus scale="   91.370">  1 10  2 -1</clus>
<clus scale="  269.650">  2  5  1 -1</clus>
<clus scale="   67.675">  1  5  2 -1</clus>
</clustering>
</event>
<event>
10    4  0.3403565E-005  0.1973777E+03  0.7546771E-02  0.1166204E+00
          2   -1    0    0  503    0 -0.00000000000E+00  0.00000000000E+00  0.19040238463E+04  0.19040238463E+04  0.00000000000E+00 0. -1.
         21   -1    0    0  501  502  0.00000000000E+00 -0.00000000000E+00 -0.13699528709E+03  0.13699528709E+03  0.00000000000E+00 0.  1.
         23    2    1    2    0    0 -0.61422119963E+02  0.12346599727E+03  0.63567257359E+03  0.65607567905E+03  0.85668818878E+02 0.  0.
         24    2    1    2    0    0 -0.81099212581E+02 -0.99405330949E+02  0.15878348855E+03  0.21959620784E+03  0.80943166240E+02 0.  0.
        -13    1    4    4    0    0 -0.11254377826E+02 -0.77051419801E+02  0.72964466241E+02  0.10671174091E+03  0.00000000000E+00 0.  1.
         14    1    4    4    0    0 -0.69844834755E+02 -0.22353911149E+02  0.85819022310E+02  0.11288446694E+03  0.00000000000E+00 0. -1.
        -11    1    3    3    0    0 -0.72759773655E+02  0.66545431508E+02  0.47791674897E+03  0.48798227228E+03  0.00000000000E+00 0. -1.
         11    1    3    3    0    0  0.11337653693E+02  0.56920565762E+02  0.15775582462E+03  0.16809340677E+03  0.00000000000E+00 0.  1.
         21    1    1    2  503  502  0.59029891686E+01 -0.13222237757E+03 -0.39705187753E+02  0.13818141824E+03  0.00000000000E+00 0.  1.
          1    1    1    2  501    0  0.13661834337E+03  0.10816171125E+03  0.10122776848E+04  0.10271658283E+04  0.00000000000E+00 0. -1.
<scales pt_clust_5="13000.00000" pt_clust_6="13000.00000" pt_clust_7="13000.00000" pt_clust_8="13000.00000" pt_clust_9="132.35408" pt_clust_10="180.01721"></scales>
<clustering>
<clus scale="   80.943">  5  6 -1 -1</clus>
<clus scale="   85.669">  7  8 -1 -1</clus>
<clus scale="  132.354">  2  9  1 -1</clus>
<clus scale="  141.632">  1  7  2 -1</clus>
<clus scale="  180.017">  2 10  1 -1</clus>
<clus scale="  132.354">  2  5  1 -1</clus>
</clustering>
</event>
<event>
10    4  0.3403565E-005  0.1710783E+03  0.7546771E-02  0.1210636E+00
         21   -1    0    0  501  502  0.00000000000E+00  0.00000000000E+00  0.17027017464E+03  0.17027017464E+03  0.00000000000E+00 0.  1.
         -1   -1    0    0    0  501 -0.00000000000E+00 -0.00000000000E+00 -0.41920559922E+03  0.41920559922E+03  0.00000000000E+00 0.  1.
         24    2    1    2    0    0  0.20175455410E+02  0.11353421950E+02 -0.37996091850E+02  0.89695147440E+02  0.77881751954E+02 0.  0.
         23    2    1    2    0    0  0.86111327330E+01 -0.16046281007E+02 -0.41004735357E+01  0.92770762827E+02  0.90873350390E+02 0.  0.
        -11    1    3    3    0    0  0.44177688231E+02 -0.11550807085E+02 -0.11117816160E+02  0.46996756462E+02  0.00000000000E+00 0.  1.
         12    1    3    3    0    0 -0.24002232821E+02  0.22904229035E+02 -0.26878275690E+02  0.42698390979E+02  0.00000000000E+00 0. -1.
        -11    1    4    4    0    0  0.37216745794E+02 -0.18493942189E+02  0.27687310022E+02  0.49936952264E+02  0.00000000000E+00 0.  1.
         11    1    4    4    0    0 -0.28605613061E+02  0.24476611818E+01 -0.31787783557E+02  0.42833810563E+02  0.00000000000E+00 0. -1.
         21    1    1    2  503  502  0.15720393412E+03  0.30315871008E+02 -0.70252868223E+02  0.17483590716E+03  0.00000000000E+00 0.  1.
         -2    1    1    2    0  503 -0.18599052227E+03 -0.25623011951E+02 -0.13658599098E+03  0.23217395643E+03  0.00000000000E+00 0.  1.
<scales pt_clust_5="13000.00000" pt_clust_6="13000.00000" pt_clust_7="13000.00000" pt_clust_8="13000.00000" pt_clust_9="171.07829" pt_clust_10="13000.00000"></scales>
<clustering>
<clus scale="   77.882">  5  6 -1 -1</clus>
<clus scale="   81.250">  2  5  1 -1</clus>
<clus scale="   90.873">  7  8 -1 -1</clus>
<clus scale="   92.721">  2  7  1 -1</clus>
<clus scale="  171.078">  1  9  2 -1</clus>
<clus scale="  171.078">  1  5  2 -1</clus>
</clustering>
</event>
<event>
10    4  0.3403565E-005  0.1782308E+03  0.7546771E-02  0.1180106E+00
         21   -1    0    0  503  502  0.00000000000E+00  0.00000000000E+00  0.14948486227E+04  0.14948486227E+04  0.00000000000E+00 0.  1.
         -1   -1    0    0    0  501 -0.00000000000E+00 -0.00000000000E+00 -0.84345848990E+02  0.84345848990E+02  0.00000000000E+00 0.  1.
         23    2    1    2    0    0  0.37366375653E+02 -0.10898776581E+03  0.19211908675E+03  0.24158689623E+03  0.90442831726E+02 0.  0.
         24    2    1    2    0    0 -0.18063895108E+03  0.30656850907E+02  0.15720717435E+03  0.25351233728E+03  0.77357199615E+02 0.  0.
        -13    1    4    4    0    0 -0.42664592019E+02  0.34938297212E+02  0.19398573214E+02  0.58457306361E+02  0.00000000000E+00 0.  1.
         14    1    4    4    0    0 -0.13797435906E+03 -0.42814463056E+01  0.13780860113E+03  0.19505503092E+03  0.00000000000E+00 0. -1.
        -11    1    3    3    0    0  0.18945958376E+02 -0.33212317269E+02  0.14613930263E+03  0.15105860826E+03  0.00000000000E+00 0.  1.
         11    1    3    3    0    0  0.18420417277E+02 -0.75775448544E+02  0.45979784121E+02  0.90528287968E+02  0.00000000000E+00 0. -1.
         21    1    1    2  503  501 -0.14729356697E+02  0.48295537204E+02  0.13656733779E+03  0.14560237160E+03  0.00000000000E+00 0.  1.
         -2    1    1    2    0  502  0.15800193212E+03  0.30035377702E+02  0.92460917485E+03  0.93849286661E+03  0.00000000000E+00 0.  1.
<scales pt_clust_5="13000.00000" pt_clust_6="13000.00000" pt_clust_7="13000.00000" pt_clust_8="13000.00000" pt_clust_9="50.49171" pt_clust_10="160.56797"></scales>
<clustering>
<clus scale="   50.492">  1  9  2 -1</clus>
<clus scale="   77.357">  5  6 -1 -1</clus>
<clus scale="   90.443">  7  8 -1 -1</clus>
<clus scale="  140.204">  2  7  1 -1</clus>
<clus scale="  160.568">  1 10  2 -1</clus>
<clus scale="   50.492">  1  5  2 -1</clus>
</clustering>
</event>
<event>
10    4  0.3403565E-005  0.1163794E+03  0.7546771E-02  0.1253423E+00
          2   -1    0    0  503    0 -0.00000000000E+00  0.00000000000E+00  0.52410129595E+03  0.52410129595E+03  0.00000000000E+00 0. -1.
         21   -1    0    0  501  502  0.00000000000E+00 -0.00000000000E+00 -0.32480655628E+03  0.32480655628E+03  0.00000000000E+00 0. -1.
         24    2    1    2    0    0  0.74944848015E+02 -0.45714205716E+02  0.34301629868E+03  0.36295288746E+03  0.79800366590E+02 0.  0.
         23    2    1    2    0    0 -0.56559800879E+02 -0.58104260951E+02  0.13212239336E+03  0.18028309444E+03  0.92035596909E+02 0.  0.
        -11    1    3    3    0    0  0.24910360339E+02  0.22722482148E+02  0.10582656604E+03  0.11106799417E+03  0.00000000000E+00 0.  1.
         12    1    3    3    0    0  0.50034487676E+02 -0.68436687864E+02  0.23718973263E+03  0.25188489329E+03  0.00000000000E+00 0. -1.
        -11    1    4    4    0    0  0.15057662979E+02 -0.46829350639E+02  0.64718102750E+02  0.81290553690E+02  0.00000000000E+00 0. -1.
         11    1    4    4    0    0 -0.71617463858E+02 -0.11274910312E+02  0.67404290611E+02  0.98992540753E+02  0.00000000000E+00 0.  1.
         21    1    1    2  503  502 -0.42040374272E+02  0.37923602032E+02 -0.82647834536E+02  0.10018112204E+03  0.00000000000E+00 0. -1.
          1    1    1    2  501    0  0.23655327135E+02  0.65894864635E+02 -0.19319611783E+03  0.20549074829E+03  0.00000000000E+00 0. -1.
<scales pt_clust_5="13000.00000" pt_clust_6="13000.00000" pt_clust_7="13000.00000" pt_clust_8="13000.00000" pt_clust_9="56.61795" pt_clust_10="99.04664"></scales>
<clustering>
<clus scale="   56.618">  2  9  1 -1</clus>
<clus scale="   79.800">  5  6 -1 -1</clus>
<clus scale="   92.036">  7  8 -1 -1</clus>
<clus scale="   99.047">  2 10  1 -1</clus>
<clus scale="  106.966">  1  5  2 -1</clus>
<clus scale="   56.618">  2  5  1 -1</clus>
</clustering>
</event>
<event>
10    4  0.3403565E-005  0.1622347E+03  0.7546771E-02  0.1208773E+00
         21   -1    0    0  501  502  0.00000000000E+00  0.00000000000E+00  0.13277368373E+03  0.13277368373E+03  0.00000000000E+00 0.  1.
          2   -1    0    0  503    0 -0.00000000000E+00 -0.00000000000E+00 -0.45880924118E+03  0.45880924118E+03  0.00000000000E+00 0. -1.
         24    2    1    2    0    0 -0.58705245841E+02 -0.20748813432E+02 -0.59833863471E+02  0.11630038030E+03  0.77902940194E+02 0.  0.
         23    2    1    2    0    0  0.53497425931E+02 -0.10612560842E+03 -0.22282743464E+03  0.26838188250E+03  0.90841344548E+02 0.  0.
        -11    1    3    3    0    0 -0.37377974845E+02 -0.41999403609E+02 -0.86028620707E+01  0.56877694598E+02  0.00000000000E+00 0.  1.
         12    1    3    3    0    0 -0.21327270997E+02  0.21250590176E+02 -0.51231001400E+02  0.59422685697E+02  0.00000000000E+00 0. -1.
        -13    1    4    4    0    0 -0.84774461460E+01 -0.69127840859E+02 -0.15229062471E+03  0.16746032321E+03  0.00000000000E+00 0.  1.
         13    1    4    4    0    0  0.61974872077E+02 -0.36997767565E+02 -0.70536809934E+02  0.10092155929E+03  0.00000000000E+00 0. -1.
         21    1    1    2  503  502  0.16349674766E+02 -0.28763030077E+02  0.19804511842E+02  0.38559596127E+02  0.00000000000E+00 0.  1.
          1    1    1    2  501    0 -0.11141854856E+02  0.15563745193E+03 -0.63178771176E+02  0.16834106600E+03  0.00000000000E+00 0. -1.
<scales pt_clust_5="13000.00000" pt_clust_6="13000.00000" pt_clust_7="13000.00000" pt_clust_8="13000.00000" pt_clust_9="33.08510" pt_clust_10="134.41704"></scales>
<clustering>
<clus scale="   33.085">  1  9  2 -1</clus>
<clus scale="   77.903">  5  6 -1 -1</clus>
<clus scale="   90.841">  7  8 -1 -1</clus>
<clus scale="   99.142">  2  5  1 -1</clus>
<clus scale="  134.417">  1 10  2 -1</clus>
<clus scale="   33.085">  1  5  2 -1</clus>
</clustering>
</event>
<event>
10    4  0.3403565E-005  0.1536868E+03  0.7546771E-02  0.1227742E+00
         21   -1    0    0  503  502  0.00000000000E+00  0.00000000000E+00  0.12502934052E+04  0.12502934052E+04  0.00000000000E+00 0.  1.
         -1   -1    0    0    0  501 -0.00000000000E+00 -0.00000000000E+00 -0.16555089670E+03  0.16555089670E+03  0.00000000000E+00 0.  1.
         24    2    1    2    0    0  0.10798285819E+01  0.55695580120E+01 -0.12220167087E+03  0.14507827558E+03  0.77988920210E+02 0.  0.
         23    2    1    2    0    0  0.89592270361E+02  0.68342635251E+02  0.21141106116E+03  0.25736634281E+03  0.94049491905E+02 0.  0.
        -13    1    3    3    0    0 -0.62960536146E+01  0.32368420818E+02 -0.10979467492E+03  0.11463954639E+03  0.00000000000E+00 0.  1.
         14    1    3    3    0    0  0.73758821965E+01 -0.26798862806E+02 -0.12406995954E+02  0.30438729186E+02  0.00000000000E+00 0. -1.
        -13    1    4    4    0    0 -0.51051357174E+01  0.48024269035E+02  0.89154563211E+02  0.10139491589E+03  0.00000000000E+00 0. -1.
         13    1    4    4    0    0  0.94697406079E+02  0.20318366216E+02  0.12225649795E+03  0.15597142692E+03  0.00000000000E+00 0.  1.
         21    1    1    2  503  501 -0.10625534439E+03 -0.97429335621E+02  0.94122386883E+03  0.95220010760E+03  0.00000000000E+00 0.  1.
         -2    1    1    2    0  502  0.15583245447E+02  0.23517142358E+02  0.54309249347E+02  0.61199575880E+02  0.00000000000E+00 0.  1.
<scales pt_clust_5="13000.00000" pt_clust_6="13000.00000" pt_clust_7="13000.00000" pt_clust_8="13000.00000" pt_clust_9="121.54970" pt_clust_10="28.21158"></scales>
<clustering>
<clus scale="   28.212">  1 10  2 -1</clus>
<clus scale="   77.989">  5  6 -1 -1</clus>
<clus scale="   78.214">  2  5  1 -1</clus>
<clus scale="   94.049">  7  8 -1 -1</clus>
<clus scale="  121.550">  1  9  2 -1</clus>
<clus scale="   28.212">  1  5  2 -1</clus>
</clustering>
</event>
<event>
10    4  0.3403565E-005  0.1853344E+03  0.7546771E-02  0.1166164E+00
          2   -1    0    0  502    0 -0.00000000000E+00  0.00000000000E+00  0.18391921462E+04  0.18391921462E+04  0.00000000000E+00 0. -1.
         21   -1    0    0  503  502  0.00000000000E+00 -0.00000000000E+00 -0.10168190660E+03  0.10168190660E+03  0.00000000000E+00 0.  1.
         24    2    1    2    0    0 -0.24349387154E+02  0.16104163442E+03  0.11761737739E+03  0.21626228407E+03  0.80051404605E+02 0.  0.
         23    2    1    2    0    0  0.10787913350E+03  0.10058191291E+03  0.20427587210E+03  0.26773562268E+03  0.90548898841E+02 0.  0.
        -11    1    3    3    0    0 -0.42756230798E+02  0.15259064031E+03  0.11508957894E+03  0.19585098918E+03  0.00000000000E+00 0.  1.
         12    1    3    3    0    0  0.18406843644E+02  0.84509941066E+01  0.25277984503E+01  0.20411294896E+02  0.00000000000E+00 0. -1.
        -11    1    4    4    0    0  0.11865899787E+02  0.44881031338E+02  0.11907978088E+03  0.12780884463E+03  0.00000000000E+00 0. -1.
         11    1    4    4    0    0  0.96013233716E+02  0.55700881572E+02  0.85196091218E+02  0.13992677805E+03  0.00000000000E+00 0.  1.
         21    1    1    2  503  501  0.19638549052E+02 -0.19521140970E+02  0.14497316220E+02  0.31255715177E+02  0.00000000000E+00 0.  1.
          1    1    1    2  501    0 -0.10316829540E+03 -0.24210240636E+03  0.14011196739E+04  0.14256204308E+04  0.00000000000E+00 0. -1.
<scales pt_clust_5="13000.00000" pt_clust_6="13000.00000" pt_clust_7="13000.00000" pt_clust_8="13000.00000" pt_clust_9="27.69021" pt_clust_10="161.70893"></scales>
<clustering>
<clus scale="   27.690">  2  9  1 -1</clus>
<clus scale="   80.051">  5  6 -1 -1</clus>
<clus scale="   90.549">  7  8 -1 -1</clus>
<clus scale="  171.232">  1  5  2 -1</clus>
<clus scale="  161.709">  2 10  1 -1</clus>
<clus scale="   27.690">  2  5  1 -1</clus>
</clustering>
</event>
<event>
10    4  0.3403565E-005  0.3527365E+03  0.7546771E-02  0.1061497E+00
         21   -1    0    0  501  502  0.00000000000E+00  0.00000000000E+00  0.72135906126E+03  0.72135906126E+03  0.00000000000E+00 0. -1.
          2   -1    0    0  503    0 -0.00000000000E+00 -0.00000000000E+00 -0.17439548475E+03  0.17439548475E+03  0.00000000000E+00 0. -1.
         24    2    1    2    0    0  0.77817240147E+02  0.58789015631E+02  0.46019591874E+02  0.13381806889E+03  0.79232578543E+02 0.  0.
         23    2    1    2    0    0  0.13491257798E+03  0.14114441998E+03  0.13025437626E+03  0.25194369698E+03  0.91576595930E+02 0.  0.
        -11    1    3    3    0    0 -0.61313236582E+01  0.33444079808E+02 -0.15855789092E+01  0.34038414542E+02  0.00000000000E+00 0.  1.
         12    1    3    3    0    0  0.83948563805E+02  0.25344935823E+02  0.47605170784E+02  0.99779654349E+02  0.00000000000E+00 0. -1.
        -13    1    4    4    0    0  0.23483758668E+02  0.16896950713E+01  0.51916227787E+02  0.57005584799E+02  0.00000000000E+00 0.  1.
         13    1    4    4    0    0  0.11142881931E+03  0.13945472491E+03  0.78338148472E+02  0.19493811218E+03  0.00000000000E+00 0. -1.
         21    1    1    2  503  502  0.94020824582E+01  0.29381314356E+02  0.37016616589E+02  0.48186000991E+02  0.00000000000E+00 0. -1.
          1    1    1    2  501    0 -0.22213190059E+03 -0.22931474997E+03  0.33367299179E+03  0.46180677914E+03  0.00000000000E+00 0. -1.
<scales pt_clust_5="13000.00000" pt_clust_6="13000.00000" pt_clust_7="13000.00000" pt_clust_8="13000.00000" pt_clust_9="30.84900" pt_clust_10="303.16790"></scales>
<clustering>
<clus scale="   30.849">  1  9  2 -1</clus>
<clus scale="   79.233">  5  6 -1 -1</clus>
<clus scale="   91.577">  7  8 -1 -1</clus>
<clus scale="   97.112">  5  7 -1 -1</clus>
<clus scale="  303.168">  1 10  2 -1</clus>
<clus scale="   30.849">  1  5  2 -1</clus>
</clustering>
</event>
<event>
10    4  0.3403565E-005  0.1439801E+03  0.7546771E-02  0.1221532E+00
         21   -1    0    0  501  502  0.00000000000E+00  0.00000000000E+00  0.50511542528E+02  0.50511542528E+02  0.00000000000E+00 0. -1.
          2   -1    0    0  503    0 -0.00000000000E+00 -0.00000000000E+00 -0.14120408947E+04  0.14120408947E+04  0.00000000000E+00 0. -1.
         24    2    1    2    0    0 -0.30540307843E+02 -0.33914723496E+02 -0.83375058501E+03  0.84080209174E+03  0.98616431695E+02 0.  0.
         23    2    1    2    0    0 -0.10115885607E+03 -0.20037951474E+02 -0.23087924704E+03  0.26848740078E+03  0.90253110779E+02 0.  0.
        -13    1    3    3    0    0 -0.13482228986E+02  0.19812583692E+02 -0.54756194591E+02  0.59770810745E+02  0.00000000000E+00 0.  1.
         14    1    3    3    0    0 -0.17058078856E+02 -0.53727307188E+02 -0.77899439042E+03  0.78103128099E+03  0.00000000000E+00 0. -1.
        -11    1    4    4    0    0 -0.72145310507E+02  0.30434286774E+02 -0.14387397444E+03  0.16380144127E+03  0.00000000000E+00 0.  1.
         11    1    4    4    0    0 -0.29013545561E+02 -0.50472238248E+02 -0.87005272595E+02  0.10468595951E+03  0.00000000000E+00 0. -1.
         21    1    1    2  503  502  0.96922505702E+02  0.65976799963E+02 -0.10350067713E+03  0.15639469432E+03  0.00000000000E+00 0. -1.
          1    1    1    2  501    0  0.34776658209E+02 -0.12024124993E+02 -0.19339884299E+03  0.19686825038E+03  0.00000000000E+00 0. -1.
<scales pt_clust_5="13000.00000" pt_clust_6="13000.00000" pt_clust_7="13000.00000" pt_clust_8="13000.00000" pt_clust_9="112.18135" pt_clust_10="36.79670"></scales>
<clustering>
<clus scale="   36.797">  1 10  2 -1</clus>
<clus scale="   90.253">  7  8 -1 -1</clus>
<clus scale="   98.616">  5  6 -1 -1</clus>
<clus scale="  108.262">  2  5  1 -1</clus>
<clus scale="  112.181">  1  9  2 -1</clus>
<clus scale="   36.797">  1  5  2 -1</clus>
</clustering>
</event>
<event>
10    4  0.3403565E-005  0.1298283E+03  0.7546771E-02  0.1244429E+00
          2   -1    0    0  503    0 -0.00000000000E+00  0.00000000000E+00  0.37037790498E+03  0.37037790498E+03  0.00000000000E+00 0. -1.
         21   -1    0    0  501  502  0.00000000000E+00 -0.00000000000E+00 -0.25991451716E+03  0.25991451716E+03  0.00000000000E+00 0. -1.
         23    2    1    2    0    0  0.17971754649E+02 -0.13593015502E+02  0.28058475673E+03  0.29538295510E+03  0.89529494691E+02 0.  0.
         24    2    1    2    0    0 -0.52087048264E+02 -0.78456973862E+02 -0.14432470738E+02  0.12414161934E+03  0.79588240939E+02 0.  0.
        -11    1    4    4    0    0 -0.38281537131E+02  0.35895193779E+01 -0.14064100604E+02  0.40940928913E+02  0.00000000000E+00 0.  1.
         12    1    4    4    0    0 -0.13805511133E+02 -0.82046493240E+02 -0.36837013471E+00  0.83200690425E+02  0.00000000000E+00 0. -1.
        -13    1    3    3    0    0  0.43566251638E+02 -0.34672836836E+02  0.21220239345E+03  0.21938568705E+03  0.00000000000E+00 0. -1.
         13    1    3    3    0    0 -0.25594496990E+02  0.21079821335E+02  0.68382363285E+02  0.75997268056E+02  0.00000000000E+00 0.  1.
         21    1    1    2  503  502 -0.18411603893E+02 -0.94980016929E+01 -0.53706636498E+02  0.57563894917E+02  0.00000000000E+00 0.  1.
          1    1    1    2  501    0  0.52526897508E+02  0.10154799106E+03 -0.10198226169E+03  0.15320395278E+03  0.00000000000E+00 0. -1.
<scales pt_clust_5="13000.00000" pt_clust_6="13000.00000" pt_clust_7="13000.00000" pt_clust_8="13000.00000" pt_clust_9="20.71712" pt_clust_10="102.57237"></scales>
<clustering>
<clus scale="   20.717">  2  9  1 -1</clus>
<clus scale="   79.588">  5  6 -1 -1</clus>
<clus scale="   89.529">  7  8 -1 -1</clus>
<clus scale="   92.245">  1  7  2 -1</clus>
<clus scale="  102.572">  2 10  1 -1</clus>
<clus scale="   20.717">  2  5  1 -1</clus>
</clustering>
</event>
<event>
10    4  0.3403565E-005  0.4384692E+03  0.7546771E-02  0.1082596E+00
          2   -1    0    0  503    0 -0.00000000000E+00  0.00000000000E+00  0.20302102401E+03  0.20302102401E+03  0.00000000000E+00 0. -1.
         21   -1    0    0  501  502  0.00000000000E+00 -0.00000000000E+00 -0.17339547227E+04  0.17339547227E+04  0.00000000000E+00 0. -1.
         24    2    1    2    0    0 -0.58897023695E+02 -0.20892930918E+02 -0.11592025726E+02  0.10265552805E+03  0.80612706300E+02 0.  0.
         23    2    1    2    0    0  0.13305607657E+03  0.44527107433E+03 -0.38115645600E+03  0.60775664008E+03  0.90097949244E+02 0.  0.
        -11    1    3    3    0    0 -0.31275568857E+02 -0.33708400652E+02 -0.40049178536E+02  0.60978309121E+02  0.00000000000E+00 0.  1.
         12    1    3    3    0    0 -0.27621454838E+02  0.12815469734E+02  0.28457152810E+02  0.41677218932E+02  0.00000000000E+00 0. -1.
        -13    1    4    4    0    0  0.22513602606E+02  0.43311762675E+02 -0.10513336740E+02  0.49932968445E+02  0.00000000000E+00 0.  1.
         13    1    4    4    0    0  0.11054247397E+03  0.40195931165E+03 -0.37064311926E+03  0.55782367163E+03  0.00000000000E+00 0. -1.
         21    1    1    2  503  502 -0.46578295164E+02 -0.25275739710E+02 -0.87540634309E+02  0.10233163369E+03  0.00000000000E+00 0. -1.
          1    1    1    2  501    0 -0.27580757714E+02 -0.39910240370E+03 -0.10506445827E+04  0.11242319449E+04  0.00000000000E+00 0. -1.
<scales pt_clust_5="13000.00000" pt_clust_6="13000.00000" pt_clust_7="13000.00000" pt_clust_8="13000.00000" pt_clust_9="52.99434" pt_clust_10="429.11260"></scales>
<clustering>
<clus scale="   52.994">  2  9  1 -1</clus>
<clus scale="   80.613">  5  6 -1 -1</clus>
<clus scale="   90.098">  7  8 -1 -1</clus>
<clus scale="  103.127">  1  5  2 -1</clus>
<clus scale="  429.113">  2 10  1 -1</clus>
<clus scale="   52.994">  2  5  1 -1</clus>
</clustering>
</event>
<event>
10    4  0.3403565E-005  0.3441150E+03  0.7546771E-02  0.1065057E+00
          2   -1    0    0  503    0 -0.00000000000E+00  0.00000000000E+00  0.16486000556E+04  0.16486000556E+04  0.00000000000E+00 0. -1.
         21   -1    0    0  501  502  0.00000000000E+00 -0.00000000000E+00 -0.10547228613E+03  0.10547228613E+03  0.00000000000E+00 0. -1.
         24    2    1    2    0    0  0.20110594228E+03 -0.41247776812E+02  0.71057670274E+03  0.74420446386E+03  0.82316793184E+02 0.  0.
         23    2    1    2    0    0  0.95364061677E+02 -0.31850540665E+02  0.18798782228E+03  0.23284562713E+03  0.93642423872E+02 0.  0.
        -13    1    3    3    0    0  0.40596642548E+02  0.23571521403E+02  0.12276434473E+03  0.13143358911E+03  0.00000000000E+00 0.  1.
         14    1    3    3    0    0  0.16050929973E+03 -0.64819298216E+02  0.58781235801E+03  0.61277087475E+03  0.00000000000E+00 0. -1.
        -11    1    4    4    0    0  0.20585364562E+02 -0.19004608245E+02  0.14065510893E+03  0.14341824164E+03  0.00000000000E+00 0.  1.
         11    1    4    4    0    0  0.74778697115E+02 -0.12845932420E+02  0.47332713352E+02  0.89427385488E+02  0.00000000000E+00 0. -1.
         21    1    1    2  503  502 -0.18213798885E+03 -0.29449002262E+01  0.85290931656E+02  0.20114040480E+03  0.00000000000E+00 0. -1.
          1    1    1    2  501    0 -0.11433201510E+03  0.76043217703E+02  0.55927231280E+03  0.57588184595E+03  0.00000000000E+00 0. -1.
<scales pt_clust_5="13000.00000" pt_clust_6="13000.00000" pt_clust_7="13000.00000" pt_clust_8="13000.00000" pt_clust_9="253.85874" pt_clust_10="137.31132"></scales>
<clustering>
<clus scale="   82.317">  5  6 -1 -1</clus>
<clus scale="   93.642">  7  8 -1 -1</clus>
<clus scale="  132.206">  5  7 -1 -1</clus>
<clus scale="  137.311">  2 10  1 -1</clus>
<clus scale="  253.859">  2  9  1 -1</clus>
<clus scale="  137.311">  2  5  1 -1</clus>
</clustering>
</event>
<event>
10    4  0.3403565E-005  0.1683185E+03  0.7546771E-02  0.1188960E+00
         21   -1    0    0  503  502  0.00000000000E+00  0.00000000000E+00  0.11478017683E+03  0.11478017683E+03  0.00000000000E+00 0. -1.
          2   -1    0    0  502    0 -0.00000000000E+00 -0.00000000000E+00 -0.73005599636E+03  0.73005599636E+03  0.00000000000E+00 0. -1.
         24    2    1    2    0    0  0.42155043587E+02  0.10695888780E+03 -0.37373058272E+02  0.14572296608E+03  0.81370670266E+02 0.  0.
         23    2    1    2    0    0  0.12112866421E+03  0.23938002730E+02 -0.26503540423E+03  0.30655963796E+03  0.92140462688E+02 0.  0.
        -13    1    3    3    0    0  0.19718618170E+02  0.38346910674E+02 -0.56471853296E+02  0.71051950539E+02  0.00000000000E+00 0.  1.
         14    1    3    3    0    0  0.22436425417E+02  0.68611977125E+02  0.19098795024E+02  0.74671015541E+02  0.00000000000E+00 0. -1.
        -11    1    4    4    0    0  0.69059605418E+02 -0.27626598754E+02 -0.89703542429E+02  0.11652975407E+03  0.00000000000E+00 0.  1.
         11    1    4    4    0    0  0.52069058791E+02  0.51564601484E+02 -0.17533186180E+03  0.19002988389E+03  0.00000000000E+00 0. -1.
         21    1    1    2  503  501 -0.40144918143E+02  0.16306479223E+01 -0.12791894632E+02  0.42165223036E+02  0.00000000000E+00 0. -1.
          1    1    1    2  501    0 -0.12313878965E+03 -0.13252753845E+03 -0.30007546239E+03  0.35038834612E+03  0.00000000000E+00 0. -1.
<scales pt_clust_5="13000.00000" pt_clust_6="13000.00000" pt_clust_7="13000.00000" pt_clust_8="13000.00000" pt_clust_9="40.17802" pt_clust_10="140.85909"></scales>
<clustering>
<clus scale="   40.178">  1  9  2 -1</clus>
<clus scale="   81.371">  5  6 -1 -1</clus>
<clus scale="   92.140">  7  8 -1 -1</clus>
<clus scale="  136.632">  2  5  1 -1</clus>
<clus scale="  140.859">  1 10  2 -1</clus>
<clus scale="   40.178">  1  5  2 -1</clus>
</clustering>
</event>
<event>
10    4  0.3403565E-005  0.1223314E+03  0.7546771E-02  0.1242240E+00
         -3   -1    0    0    0  501 -0.00000000000E+00  0.00000000000E+00  0.39489833405E+03  0.39489833405E+03  0.00000000000E+00 0.  1.
         21   -1    0    0  503  502  0.00000000000E+00 -0.00000000000E+00 -0.10443762710E+03  0.10443762710E+03  0.00000000000E+00 0. -1.
         23    2    1    2    0    0 -0.56856947822E+02 -0.55223769162E+02  0.29788390613E+03  0.32154171725E+03  0.91497962839E+02 0.  0.
         24    2    1    2    0    0  0.61317573866E+02  0.69264365101E+02 -0.11485138426E+02  0.12401016231E+03  0.81787620173E+02 0.  0.
        -11    1    4    4    0    0  0.24890737163E+02  0.37301275402E+02  0.34979090721E+02  0.56872407465E+02  0.00000000000E+00 0.  1.
         12    1    4    4    0    0  0.36426836703E+02  0.31963089700E+02 -0.46464229148E+02  0.67137754845E+02  0.00000000000E+00 0. -1.
        -13    1    3    3    0    0 -0.22851943555E+02 -0.72793882242E+02  0.14393869957E+03  0.16290951430E+03  0.00000000000E+00 0.  1.
         13    1    3    3    0    0 -0.34005004267E+02  0.17570113081E+02  0.15394520656E+03  0.15863220295E+03  0.00000000000E+00 0. -1.
         21    1    1    2  503  501 -0.94056165524E+01  0.18480102472E+02  0.15521949424E+01  0.20793968338E+02  0.00000000000E+00 0. -1.
         -4    1    1    2    0  502  0.49449905085E+01 -0.32520698412E+02  0.25097443005E+01  0.32990113258E+02  0.00000000000E+00 0.  1.
<scales pt_clust_5="13000.00000" pt_clust_6="13000.00000" pt_clust_7="13000.00000" pt_clust_8="13000.00000" pt_clust_9="20.73595" pt_clust_10="29.74910"></scales>
<clustering>
<clus scale="   20.736">  2  9  1 -1</clus>
<clus scale="   29.749">  2 10  1 -1</clus>
<clus scale="   81.788">  5  6 -1 -1</clus>
<clus scale="   91.498">  7  8 -1 -1</clus>
<clus scale="  115.249">  2  5  1 -1</clus>
<clus scale="   20.736">  2  5  1 -1</clus>
</clustering>
</event>
<event>
10    4  0.3403565E-005  0.1417453E+03  0.7546771E-02  0.1229534E+00
         -1   -1    0    0    0  501 -0.00000000000E+00  0.00000000000E+00  0.48961931290E+03  0.48961931290E+03  0.00000000000E+00 0.  1.
         21   -1    0    0  503  502  0.00000000000E+00 -0.00000000000E+00 -0.21226538735E+03  0.21226538735E+03  0.00000000000E+00 0.  1.
         24    2    1    2    0    0  0.13794616839E+02  0.50017558324E+02  0.34617379080E+03  0.35907444793E+03  0.80038229147E+02 0.  0.
         23    2    1    2    0    0 -0.98351744326E+02 -0.98562993196E+02 -0.14115108071E+02  0.16526797014E+03  0.87900719221E+02 0.  0.
        -13    1    3    3    0    0  0.29202017908E+02  0.65427176343E+02  0.23096177795E+03  0.24181980094E+03  0.00000000000E+00 0.  1.
         14    1    3    3    0    0 -0.15407401069E+02 -0.15409618019E+02  0.11521201286E+03  0.11725464700E+03  0.00000000000E+00 0. -1.
        -13    1    4    4    0    0 -0.89402302041E+01 -0.69381500948E+02 -0.13317710765E+02  0.71211528631E+02  0.00000000000E+00 0. -1.
         13    1    4    4    0    0 -0.89411514122E+02 -0.29181492248E+02 -0.79739730584E+00  0.94056441512E+02  0.00000000000E+00 0.  1.
         21    1    1    2  503  501 -0.25775750397E+02  0.44408490631E+02  0.57442171120E+01  0.51667198288E+02  0.00000000000E+00 0. -1.
         -2    1    1    2    0  502  0.11033287788E+03  0.41369442410E+01 -0.60448974295E+02  0.12587508389E+03  0.00000000000E+00 0.  1.
<scales pt_clust_5="13000.00000" pt_clust_6="13000.00000" pt_clust_7="13000.00000" pt_clust_8="13000.00000" pt_clust_9="51.34689" pt_clust_10="111.19886"></scales>
<clustering>
<clus scale="   51.347">  2  9  1 -1</clus>
<clus scale="   80.038">  5  6 -1 -1</clus>
<clus scale="   87.901">  7  8 -1 -1</clus>
<clus scale="   96.064">  1  5  2 -1</clus>
<clus scale="  111.199">  2 10  1 -1</clus>
<clus scale="   51.347">  2  5  1 -1</clus>
</clustering>
</event>
<event>
10    4  0.3403565E-005  0.1598292E+03  0.7546771E-02  0.1207837E+00
          2   -1    0    0  503    0 -0.00000000000E+00  0.00000000000E+00  0.11700335926E+04  0.11700335926E+04  0.00000000000E+00 0. -1.
         21   -1    0    0  501  502  0.00000000000E+00 -0.00000000000E+00 -0.59029609568E+02  0.59029609568E+02  0.00000000000E+00 0. -1.
         23    2    1    2    0    0  0.25231002325E+02 -0.52618132334E+02  0.10181825445E+03  0.14896333614E+03  0.91748826951E+02 0.  0.
         24    2    1    2    0    0  0.80995718003E+02  0.11670104173E+03  0.67629147773E+03  0.69655135466E+03  0.87373836760E+02 0.  0.
        -11    1    4    4    0    0 -0.55134720074E+01  0.60972532508E+02  0.19512126933E+03  0.20450026367E+03  0.00000000000E+00 0.  1.
         12    1    4    4    0    0  0.86509190010E+02  0.55728509226E+02  0.48117020840E+03  0.49205109099E+03  0.00000000000E+00 0. -1.
        -13    1    3    3    0    0 -0.23341709951E+02 -0.12433353843E+02 -0.30329532411E+01  0.26619964624E+02  0.00000000000E+00 0.  1.
         13    1    3    3    0    0  0.48572712276E+02 -0.40184778492E+02  0.10485120769E+03  0.12234337152E+03  0.00000000000E+00 0. -1.
         21    1    1    2  503  502 -0.24573936813E+02  0.39050447982E+02  0.15866843795E+03  0.16524070037E+03  0.00000000000E+00 0. -1.
          1    1    1    2  501    0 -0.81652783515E+02 -0.10313335738E+03  0.17422581291E+03  0.21830781100E+03  0.00000000000E+00 0. -1.
<scales pt_clust_5="13000.00000" pt_clust_6="13000.00000" pt_clust_7="13000.00000" pt_clust_8="13000.00000" pt_clust_9="46.13909" pt_clust_10="133.83271"></scales>
<clustering>
<clus scale="   46.139">  1  9  2 -1</clus>
<clus scale="   87.374">  5  6 -1 -1</clus>
<clus scale="   91.749">  7  8 -1 -1</clus>
<clus scale="  105.786">  1  7  2 -1</clus>
<clus scale="  133.833">  2 10  1 -1</clus>
<clus scale="  133.833">  2  5  1 -1</clus>
</clustering>
</event>
<event>
10    4  0.3403565E-005  0.1464486E+03  0.7546771E-02  0.1207274E+00
         21   -1    0    0  501  502  0.00000000000E+00  0.00000000000E+00  0.65254291219E+03  0.65254291219E+03  0.00000000000E+00 0. -1.
         -1   -1    0    0    0  501 -0.00000000000E+00 -0.00000000000E+00 -0.83251673924E+02  0.83251673924E+02  0.00000000000E+00 0.  1.
         23    2    1    2    0    0  0.12448310974E+02  0.12265251416E+03  0.14776973204E+02  0.15505871851E+03  0.92877594567E+02 0.  0.
         24    2    1    2    0    0  0.39309460758E+01 -0.71688826804E+02  0.34823928974E+03  0.36465860765E+03  0.80935511267E+02 0.  0.
        -13    1    4    4    0    0 -0.32755860276E+02 -0.59846781499E+02  0.19297787163E+03  0.20468278524E+03  0.00000000000E+00 0.  1.
         14    1    4    4    0    0  0.36686806351E+02 -0.11842045304E+02  0.15526141812E+03  0.15997582240E+03  0.00000000000E+00 0. -1.
        -13    1    3    3    0    0  0.23605029704E+02  0.45490532769E+02  0.48086074627E+02  0.70276998883E+02  0.00000000000E+00 0. -1.
         13    1    3    3    0    0 -0.11156718730E+02  0.77161981394E+02 -0.33309101423E+02  0.84781719628E+02  0.00000000000E+00 0.  1.
         21    1    1    2  503  502  0.86775500255E+01 -0.24062137968E+02  0.11209234533E+03  0.11497382415E+03  0.00000000000E+00 0.  1.
         -2    1    1    2    0  503 -0.25056807075E+02 -0.26901549391E+02  0.94182629986E+02  0.10110343580E+03  0.00000000000E+00 0.  1.
<scales pt_clust_5="13000.00000" pt_clust_6="13000.00000" pt_clust_7="13000.00000" pt_clust_8="13000.00000" pt_clust_9="25.57902" pt_clust_10="39.09930"></scales>
<clustering>
<clus scale="   25.579">  1  9  2 -1</clus>
<clus scale="   39.099">  1 10  2 -1</clus>
<clus scale="   80.936">  5  6 -1 -1</clus>
<clus scale="   92.878">  7  8 -1 -1</clus>
<clus scale="  139.181">  1  5  2 -1</clus>
<clus scale="   25.579">  1  5  2 -1</clus>
</clustering>
</event>
<event>
10    4  0.3403565E-005  0.1036583E+03  0.7546771E-02  0.1280513E+00
         21   -1    0    0  501  502  0.00000000000E+00  0.00000000000E+00  0.47997181169E+02  0.47997181169E+02  0.00000000000E+00 0.  1.
          2   -1    0    0  503    0 -0.00000000000E+00 -0.00000000000E+00 -0.71550935331E+03  0.71550935331E+03  0.00000000000E+00 0. -1.
         23    2    1    2    0    0  0.37455429490E+02 -0.12499238664E+02 -0.53995962944E+03  0.54977753801E+03  0.95602299724E+02 0.  0.
         24    2    1    2    0    0 -0.40413729463E+02  0.12938408110E+02 -0.82090582281E+02  0.12218379753E+03  0.79933376921E+02 0.  0.
        -11    1    4    4    0    0 -0.88453350727E+01  0.37210792193E+02 -0.95339578300E+01  0.39418008069E+02  0.00000000000E+00 0.  1.
         12    1    4    4    0    0 -0.31568394390E+02 -0.24272384083E+02 -0.72556624451E+02  0.82765789462E+02  0.00000000000E+00 0. -1.
        -13    1    3    3    0    0  0.69483449215E+02 -0.29044731323E+01 -0.33962038662E+03  0.34666755356E+03  0.00000000000E+00 0. -1.
         13    1    3    3    0    0 -0.32028019725E+02 -0.95947655316E+01 -0.20033924281E+03  0.20310998445E+03  0.00000000000E+00 0.  1.
         21    1    1    2  503  502 -0.30018690782E+02 -0.19714508356E+02 -0.56193863855E+01  0.36350531486E+02  0.00000000000E+00 0. -1.
          1    1    1    2  501    0  0.32976990755E+02  0.19275338909E+02 -0.39842574035E+02  0.55194667452E+02  0.00000000000E+00 0. -1.
<scales pt_clust_5="13000.00000" pt_clust_6="13000.00000" pt_clust_7="13000.00000" pt_clust_8="13000.00000" pt_clust_9="35.91356" pt_clust_10="29.76380"></scales>
<clustering>
<clus scale="   35.914">  1  9  2 -1</clus>
<clus scale="   29.764">  1 10  2 -1</clus>
<clus scale="   79.933">  5  6 -1 -1</clus>
<clus scale="   89.412">  1  5  2 -1</clus>
<clus scale="   95.602">  7  8 -1 -1</clus>
<clus scale="   35.914">  1  5  2 -1</clus>
</clustering>
</event>
<event>
10    4  0.3403565E-005  0.3312160E+03  0.7546771E-02  0.1082161E+00
          2   -1    0    0  503    0 -0.00000000000E+00  0.00000000000E+00  0.43875024856E+03  0.43875024856E+03  0.00000000000E+00 0. -1.
         21   -1    0    0  501  502  0.00000000000E+00 -0.00000000000E+00 -0.12791058556E+04  0.12791058556E+04  0.00000000000E+00 0.  1.
         24    2    1    2    0    0  0.12047258595E+03  0.19894683218E+03  0.22457343065E+03  0.33342675806E+03  0.81527242294E+02 0.  0.
         23    2    1    2    0    0  0.27005589091E+03  0.20356603470E+01 -0.61605379830E+03  0.67872835254E+03  0.90639759532E+02 0.  0.
        -11    1    3    3    0    0 -0.54353630228E+01  0.19364241381E+02  0.47368918142E+02  0.51461941485E+02  0.00000000000E+00 0.  1.
         12    1    3    3    0    0  0.12590794897E+03  0.17958259080E+03  0.17720451251E+03  0.28196481657E+03  0.00000000000E+00 0. -1.
        -11    1    4    4    0    0  0.29291234364E+02 -0.90745216875E+01 -0.15990477157E+03  0.16281848582E+03  0.00000000000E+00 0. -1.
         11    1    4    4    0    0  0.24076465654E+03  0.11110182034E+02 -0.45614902673E+03  0.51590986672E+03  0.00000000000E+00 0.  1.
         21    1    1    2  503  502  0.17428853605E+02 -0.12227728890E+03 -0.14773396133E+03  0.19256381708E+03  0.00000000000E+00 0.  1.
          1    1    1    2  501    0 -0.40795733046E+03 -0.78705203630E+02 -0.30114127807E+03  0.51313717651E+03  0.00000000000E+00 0. -1.
<scales pt_clust_5="13000.00000" pt_clust_6="13000.00000" pt_clust_7="13000.00000" pt_clust_8="13000.00000" pt_clust_9="123.51316" pt_clust_10="318.57274"></scales>
<clustering>
<clus scale="   81.527">  5  6 -1 -1</clus>
<clus scale="   90.640">  7  8 -1 -1</clus>
<clus scale="  123.513">  2  9  1 -1</clus>
<clus scale="  242.064">  1  5  2 -1</clus>
<clus scale="  318.573">  2 10  1 -1</clus>
<clus scale="  123.513">  2  5  1 -1</clus>
</clustering>
</event>
<event>
10    4  0.3403565E-005  0.1790032E+03  0.7546771E-02  0.1170390E+00
          2   -1    0    0  502    0 -0.00000000000E+00  0.00000000000E+00  0.75895552290E+03  0.75895552290E+03  0.00000000000E+00 0. -1.
         21   -1    0    0  503  502  0.00000000000E+00 -0.00000000000E+00 -0.10965929116E+03  0.10965929116E+03  0.00000000000E+00 0.  1.
         24    2    1    2    0    0 -0.42211992441E+02  0.14553311982E+03  0.22036093668E+03  0.27901289146E+03  0.79545646753E+02 0.  0.
         23    2    1    2    0    0 -0.69078072174E+02 -0.16784004677E+03  0.11853793132E+03  0.23581684210E+03  0.92823922043E+02 0.  0.
        -11    1    3    3    0    0 -0.46548186219E+02  0.15439443156E+03  0.20672231625E+03  0.26218026275E+03  0.00000000000E+00 0.  1.
         12    1    3    3    0    0  0.43361937781E+01 -0.88613117424E+01  0.13638620433E+02  0.16832628719E+02  0.00000000000E+00 0. -1.
        -13    1    4    4    0    0 -0.37115012110E+02 -0.45214927449E+01  0.23833623202E+02  0.44339706985E+02  0.00000000000E+00 0. -1.
         13    1    4    4    0    0 -0.31963060064E+02 -0.16331855402E+03  0.94704308114E+02  0.19147713512E+03  0.00000000000E+00 0.  1.
         21    1    1    2  503  501  0.20904095649E+02 -0.20425684419E+02  0.16716747902E+01  0.29274294107E+02  0.00000000000E+00 0. -1.
          1    1    1    2  501    0  0.90385968966E+02  0.42732611371E+02  0.30872568895E+03  0.32451078639E+03  0.00000000000E+00 0. -1.
<scales pt_clust_5="13000.00000" pt_clust_6="13000.00000" pt_clust_7="13000.00000" pt_clust_8="13000.00000" pt_clust_9="29.22653" pt_clust_10="100.84099"></scales>
<clustering>
<clus scale="   29.227">  2  9  1 -1</clus>
<clus scale="   79.546">  5  6 -1 -1</clus>
<clus scale="   92.824">  7  8 -1 -1</clus>
<clus scale="  100.841">  2 10  1 -1</clus>
<clus scale="  172.492">  1  5  2 -1</clus>
<clus scale="   29.227">  2  5  1 -1</clus>
</clustering>
</event>
<event>
10    4  0.3403565E-005  0.9162525E+02  0.7546771E-02  0.1304885E+00
          2   -1    0    0  503    0 -0.00000000000E+00  0.00000000000E+00  0.86106674369E+03  0.86106674369E+03  0.00000000000E+00 0. -1.
         21   -1    0    0  501  502  0.00000000000E+00 -0.00000000000E+00 -0.41485969153E+02  0.41485969153E+02  0.00000000000E+00 0. -1.
         24    2    1    2    0    0 -0.73795091988E+01 -0.16337878978E+02  0.61923401341E+03  0.62462845177E+03  0.79928442731E+02 0.  0.
         23    2    1    2    0    0  0.44068416761E+02 -0.88062953620E+00  0.17369602789E+03  0.20035958046E+03  0.89615012770E+02 0.  0.
        -11    1    3    3    0    0 -0.39376035273E+02 -0.22564828345E+02  0.26117289243E+03  0.26508663371E+03  0.00000000000E+00 0.  1.
         12    1    3    3    0    0  0.31996526074E+02  0.62269493669E+01  0.35806112098E+03  0.35954181806E+03  0.00000000000E+00 0. -1.
        -11    1    4    4    0    0  0.32663116723E+02  0.36830635487E+02  0.14038670582E+03  0.14876761098E+03  0.00000000000E+00 0.  1.
         11    1    4    4    0    0  0.11405300038E+02 -0.37711265024E+02  0.33309322071E+02  0.51591969486E+02  0.00000000000E+00 0. -1.
         21    1    1    2  503  502 -0.64551466868E+01 -0.19700709193E+02  0.21005241580E+02  0.29512828317E+02  0.00000000000E+00 0. -1.
          1    1    1    2  501    0 -0.30233760875E+02  0.36919217707E+02  0.56454916613E+01  0.48051852294E+02  0.00000000000E+00 0. -1.
<scales pt_clust_5="13000.00000" pt_clust_6="13000.00000" pt_clust_7="13000.00000" pt_clust_8="13000.00000" pt_clust_9="20.73130" pt_clust_10="42.54841"></scales>
<clustering>
<clus scale="   20.731">  2  9  1 -1</clus>
<clus scale="   42.548">  2 10  1 -1</clus>
<clus scale="   79.928">  5  6 -1 -1</clus>
<clus scale="   82.176">  1  5  2 -1</clus>
<clus scale="   89.615">  7  8 -1 -1</clus>
<clus scale="   20.731">  2  5  1 -1</clus>
</clustering>
</event>
<event>
10    4  0.3403565E-005  0.4008371E+03  0.7546771E-02  0.1043694E+00
          2   -1    0    0  503    0 -0.00000000000E+00  0.00000000000E+00  0.24151744012E+04  0.24151744012E+04  0.00000000000E+00 0. -1.
         21   -1    0    0  501  502  0.00000000000E+00 -0.00000000000E+00 -0.12114662014E+03  0.12114662014E+03  0.00000000000E+00 0. -1.
         23    2    1    2    0    0  0.15463120358E+03 -0.37296709551E+03  0.13936249706E+04  0.14538793581E+04  0.92516839920E+02 0.  0.
         24    2    1    2    0    0 -0.10225959060E+03  0.35614418718E+03  0.73675604167E+03  0.82872374575E+03  0.81718271611E+02 0.  0.
        -13    1    4    4    0    0 -0.98854934424E+02  0.21332031240E+03  0.49283679216E+03  0.54604574666E+03  0.00000000000E+00 0.  1.
         14    1    4    4    0    0 -0.34046561736E+01  0.14282387478E+03  0.24391924950E+03  0.28267799909E+03  0.00000000000E+00 0. -1.
        -13    1    3    3    0    0  0.87390661901E+02 -0.19058470591E+03  0.56192490583E+03  0.59976600246E+03  0.00000000000E+00 0.  1.
         13    1    3    3    0    0  0.67240541681E+02 -0.18238238960E+03  0.83170006481E+03  0.85411335564E+03  0.00000000000E+00 0. -1.
         21    1    1    2  503  502  0.62277793448E+01 -0.24117570029E+02 -0.34795943574E+02  0.42792523983E+02  0.00000000000E+00 0. -1.
          1    1    1    2  501    0 -0.58599392330E+02  0.40940478364E+02  0.19844271235E+03  0.21092539352E+03  0.00000000000E+00 0. -1.
<scales pt_clust_5="13000.00000" pt_clust_6="13000.00000" pt_clust_7="13000.00000" pt_clust_8="13000.00000" pt_clust_9="24.90868" pt_clust_10="70.06139"></scales>
<clustering>
<clus scale="   24.909">  2  9  1 -1</clus>
<clus scale="   70.061">  2 10  1 -1</clus>
<clus scale="   81.718">  5  6 -1 -1</clus>
<clus scale="   92.517">  7  8 -1 -1</clus>
<clus scale="  398.483">  2  5  1 -1</clus>
<clus scale="   24.909">  2  5  1 -1</clus>
</clustering>
</event>
<event>
10    4  0.3403565E-005  0.2548612E+03  0.7546771E-02  0.1110271E+00
          2   -1    0    0  503    0 -0.00000000000E+00  0.00000000000E+00  0.27723671348E+03  0.27723671348E+03  0.00000000000E+00 0. -1.
         21   -1    0    0  501  502  0.00000000000E+00 -0.00000000000E+00 -0.34541734082E+03  0.34541734082E+03  0.00000000000E+00 0.  1.
         24    2    1    2    0    0 -0.11690037416E+02  0.76553154541E+02  0.18018528158E+02  0.11262024243E+03  0.79759696609E+02 0.  0.
         23    2    1    2    0    0  0.35335319975E+02  0.66357968736E+02 -0.10592951668E+02  0.11686165628E+03  0.88839581448E+02 0.  0.
        -11    1    3    3    0    0 -0.24096515220E+02  0.27478635419E+01 -0.17373052705E+02  0.29833131919E+02  0.00000000000E+00 0.  1.
         12    1    3    3    0    0  0.12406477804E+02  0.73805290999E+02  0.35391580863E+02  0.82787110512E+02  0.00000000000E+00 0. -1.
        -13    1    4    4    0    0 -0.28444838219E+02  0.33437946921E+02 -0.10273573438E+02  0.45086044701E+02  0.00000000000E+00 0. -1.
         13    1    4    4    0    0  0.63780158194E+02  0.32920021815E+02 -0.31937822996E+00  0.71775611583E+02  0.00000000000E+00 0.  1.
         21    1    1    2  503  502  0.11261833170E+03  0.34425705185E+02 -0.11669259410E+03  0.16578654749E+03  0.00000000000E+00 0.  1.
          1    1    1    2  501    0 -0.13626361425E+03 -0.17733682846E+03  0.41086390275E+02  0.22738560809E+03  0.00000000000E+00 0. -1.
<scales pt_clust_5="13000.00000" pt_clust_6="13000.00000" pt_clust_7="13000.00000" pt_clust_8="13000.00000" pt_clust_9="117.76255" pt_clust_10="182.56539"></scales>
<clustering>
<clus scale="   79.760">  5  6 -1 -1</clus>
<clus scale="   88.840">  7  8 -1 -1</clus>
<clus scale="  104.192">  5  7 -1 -1</clus>
<clus scale="  117.763">  2  9  1 -1</clus>
<clus scale="  182.565">  2 10  1 -1</clus>
<clus scale="  117.763">  2  5  1 -1</clus>
</clustering>
</event>
<event>
10    4  0.3403565E-005  0.1799037E+03  0.7546771E-02  0.1189654E+00
         -3   -1    0    0    0  501 -0.00000000000E+00  0.00000000000E+00  0.22130225271E+03  0.22130225271E+03  0.00000000000E+00 0.  1.
         21   -1    0    0  503  502  0.00000000000E+00 -0.00000000000E+00 -0.59731501070E+03  0.59731501070E+03  0.00000000000E+00 0.  1.
         24    2    1    2    0    0 -0.29076137296E+02 -0.68257667739E+02  0.13244977222E+02  0.11012191250E+03  0.80292435665E+02 0.  0.
         23    2    1    2    0    0 -0.14571759420E+03  0.55429481959E+02  0.76742852850E+02  0.19651099348E+03  0.91766335683E+02 0.  0.
        -11    1    3    3    0    0  0.26330175559E+02 -0.25984652498E+02  0.16162535465E+02  0.40369640363E+02  0.00000000000E+00 0.  1.
         12    1    3    3    0    0 -0.55406312854E+02 -0.42273015241E+02 -0.29175582429E+01  0.69752272133E+02  0.00000000000E+00 0. -1.
        -11    1    4    4    0    0 -0.12585586198E+03  0.78260412946E+02  0.50851945185E+02  0.15668538719E+03  0.00000000000E+00 0.  1.
         11    1    4    4    0    0 -0.19861732213E+02 -0.22830930987E+02  0.25890907665E+02  0.39825606285E+02  0.00000000000E+00 0. -1.
         21    1    1    2  503  501  0.10391058290E+03  0.52049827956E+02 -0.36173761649E+03  0.37994828202E+03  0.00000000000E+00 0.  1.
         -4    1    1    2    0  502  0.70883148593E+02 -0.39221642175E+02 -0.10426297157E+03  0.13203607541E+03  0.00000000000E+00 0.  1.
<scales pt_clust_5="13000.00000" pt_clust_6="13000.00000" pt_clust_7="13000.00000" pt_clust_8="13000.00000" pt_clust_9="154.73936" pt_clust_10="81.01085"></scales>
<clustering>
<clus scale="   80.292">  5  6 -1 -1</clus>
<clus scale="   81.011">  2 10  1 -1</clus>
<clus scale="   91.766">  7  8 -1 -1</clus>
<clus scale="  110.195">  1  5  2 -1</clus>
<clus scale="  154.739">  2  9  1 -1</clus>
<clus scale="   81.011">  2  5  1 -1</clus>
</clustering>
</event>
<event>
10    4  0.3403565E-005  0.3037213E+03  0.7546771E-02  0.1129722E+00
          2   -1    0    0  502    0 -0.00000000000E+00  0.00000000000E+00  0.57141803050E+03  0.57141803050E+03  0.00000000000E+00 0. -1.
         21   -1    0    0  503  502  0.00000000000E+00 -0.00000000000E+00 -0.14556431133E+04  0.14556431133E+04  0.00000000000E+00 0. -1.
         23    2    1    2    0    0  0.19584747167E+02  0.34597229028E+01  0.71081939372E+02  0.11671786044E+03  0.90415069748E+02 0.  0.
         24    2    1    2    0    0 -0.19089030998E+03  0.34799810320E+03  0.14932171211E+03  0.43291502454E+03  0.87043980198E+02 0.  0.
        -13    1    4    4    0    0 -0.38139455462E+02  0.15377663798E+03  0.44996707165E+02  0.16470147573E+03  0.00000000000E+00 0.  1.
         14    1    4    4    0    0 -0.15275085452E+03  0.19422146522E+03  0.10432500495E+03  0.26821354881E+03  0.00000000000E+00 0. -1.
        -13    1    3    3    0    0 -0.29095678653E+02 -0.11797685763E+02  0.54818398559E+02  0.63172784695E+02  0.00000000000E+00 0.  1.
         13    1    3    3    0    0  0.48680425819E+02  0.15257408665E+02  0.16263540813E+02  0.53545075749E+02  0.00000000000E+00 0. -1.
         21    1    1    2  503  501  0.81608335585E+02 -0.14058097634E+03 -0.12130645847E+04  0.12239071117E+04  0.00000000000E+00 0. -1.
          1    1    1    2  501    0  0.89697227232E+02 -0.21087684976E+03  0.10843585049E+03  0.25352114706E+03  0.00000000000E+00 0. -1.
<scales pt_clust_5="13000.00000" pt_clust_6="13000.00000" pt_clust_7="13000.00000" pt_clust_8="13000.00000" pt_clust_9="162.62912" pt_clust_10="290.98122"></scales>
<clustering>
<clus scale="   87.044">  5  6 -1 -1</clus>
<clus scale="   90.415">  7  8 -1 -1</clus>
<clus scale="   92.577">  1  7  2 -1</clus>
<clus scale="  162.629">  2  9  1 -1</clus>
<clus scale="  290.981">  2 10  1 -1</clus>
<clus scale="  162.629">  2  5  1 -1</clus>
</clustering>
</event>
<event>
10    4  0.3403565E-005  0.2539659E+03  0.7546771E-02  0.1139795E+00
          2   -1    0    0  503    0 -0.00000000000E+00  0.00000000000E+00  0.14656559138E+04  0.14656559138E+04  0.00000000000E+00 0. -1.
         21   -1    0    0  501  502  0.00000000000E+00 -0.00000000000E+00 -0.18317425168E+03  0.18317425168E+03  0.00000000000E+00 0. -1.
         23    2    1    2    0    0  0.74414195502E+02 -0.62539811418E+01  0.12697715850E+03  0.17255378401E+03  0.89861141899E+02 0.  0.
         24    2    1    2    0    0 -0.28941910616E+03  0.77167777090E+02  0.73897367482E+03  0.80145149378E+03  0.80772024690E+02 0.  0.
        -13    1    4    4    0    0 -0.14602412673E+03  0.73538026279E+02  0.45122777436E+03  0.47993477812E+03  0.00000000000E+00 0.  1.
         14    1    4    4    0    0 -0.14339497942E+03  0.36297508107E+01  0.28774590046E+03  0.32151671565E+03  0.00000000000E+00 0. -1.
        -13    1    3    3    0    0  0.36848867896E+02 -0.12356333444E+02 -0.11616545918E+01  0.38882740166E+02  0.00000000000E+00 0. -1.
         13    1    3    3    0    0  0.37565327606E+02  0.61023523026E+01  0.12813881310E+03  0.13367104385E+03  0.00000000000E+00 0.  1.
         21    1    1    2  503  502  0.33987451441E+02  0.60223974738E+01 -0.10866037074E+03  0.11401093060E+03  0.00000000000E+00 0. -1.
          1    1    1    2  501    0  0.18101745921E+03 -0.76936193422E+02  0.52519119952E+03  0.56081395708E+03  0.00000000000E+00 0. -1.
<scales pt_clust_5="13000.00000" pt_clust_6="13000.00000" pt_clust_7="13000.00000" pt_clust_8="13000.00000" pt_clust_9="34.51690" pt_clust_10="240.77905"></scales>
<clustering>
<clus scale="   34.517">  2  9  1 -1</clus>
<clus scale="   80.772">  5  6 -1 -1</clus>
<clus scale="   89.861">  7  8 -1 -1</clus>
<clus scale="  123.904">  1  7  2 -1</clus>
<clus scale="  240.779">  2 10  1 -1</clus>
<clus scale="   34.517">  2  5  1 -1</clus>
</clustering>
</event>
<event>
10    4  0.1037411E-004  0.1115759E+03  0.7546771E-02  0.1259449E+00
          2   -1    0    0  502    0 -0.00000000000E+00  0.00000000000E+00  0.47314254748E+03  0.47314254748E+03  0.00000000000E+00 0. -1.
         21   -1    0    0  503  502  0.00000000000E+00 -0.00000000000E+00 -0.22106876989E+03  0.22106876989E+03  0.00000000000E+00 0.  1.
         23    2    1    2    0    0 -0.47034671319E+02 -0.47894831126E+02  0.95906256613E+02  0.14502670353E+03  0.85607006281E+02 0.  0.
         24    2    1    2    0    0  0.11559871378E+03  0.28407241834E+02 -0.15442215300E+03  0.21096447962E+03  0.80559147892E+02 0.  0.
        -11    1    4    4    0    0  0.11935902833E+03  0.42026674343E+02 -0.14981022215E+03  0.19610181453E+03  0.00000000000E+00 0.  1.
         12    1    4    4    0    0 -0.37603145529E+01 -0.13619432510E+02 -0.46119308422E+01  0.14862665088E+02  0.00000000000E+00 0. -1.
        -11    1    3    3    0    0 -0.34372456053E+02  0.18794297587E+02  0.47931959797E+02  0.61904475823E+02  0.00000000000E+00 0.  1.
         11    1    3    3    0    0 -0.12662215266E+02 -0.66689128713E+02  0.47974296816E+02  0.83122227707E+02  0.00000000000E+00 0. -1.
         21    1    1    2  503  501 -0.14680396346E+02  0.17899613876E+02  0.16574801400E+00  0.23150327993E+02  0.00000000000E+00 0. -1.
          1    1    1    2  501    0 -0.53883646114E+02  0.15879754167E+01  0.31042392596E+03  0.31506980622E+03  0.00000000000E+00 0. -1.
<scales pt_clust_5="13000.00000" pt_clust_6="13000.00000" pt_clust_7="13000.00000" pt_clust_8="13000.00000" pt_clust_9="23.14973" pt_clust_10="54.07590"></scales>
<clustering>
<clus scale="   23.150">  2  9  1 -1</clus>
<clus scale="   54.076">  2 10  1 -1</clus>
<clus scale="   80.559">  5  6 -1 -1</clus>
<clus scale="   85.607">  7  8 -1 -1</clus>
<clus scale="  107.752">  2  5  1 -1</clus>
<clus scale="   23.150">  2  5  1 -1</clus>
</clustering>
</event>
<event>
10    4  0.3667004E-005  0.2947762E+03  0.7546771E-02  0.1105641E+00
         21   -1    0    0  503  502  0.00000000000E+00  0.00000000000E+00  0.84747098356E+02  0.84747098356E+02  0.00000000000E+00 0. -1.
         -1   -1    0    0    0  501 -0.00000000000E+00 -0.00000000000E+00 -0.20980974443E+04  0.20980974443E+04  0.00000000000E+00 0.  1.
         23    2    1    2    0    0  0.92720740248E+02  0.13663261966E+03 -0.54382807072E+03  0.57554214214E+03  0.90742374003E+02 0.  0.
         24    2    1    2    0    0 -0.67148083363E+02 -0.31505840131E+03 -0.43913670306E+03  0.55027341676E+03  0.78671010432E+02 0.  0.
        -13    1    4    4    0    0 -0.11954826600E+02 -0.61208140630E+02 -0.14499341789E+03  0.15783676881E+03  0.00000000000E+00 0.  1.
         14    1    4    4    0    0 -0.55193256763E+02 -0.25385026068E+03 -0.29414328517E+03  0.39243664795E+03  0.00000000000E+00 0. -1.
        -13    1    3    3    0    0  0.94238055844E+02  0.60697893052E+02 -0.34166642868E+03  0.35958447391E+03  0.00000000000E+00 0. -1.
         13    1    3    3    0    0 -0.15173155961E+01  0.75934726609E+02 -0.20216164205E+03  0.21595766823E+03  0.00000000000E+00 0.  1.
         21    1    1    2  503  501 -0.28825440400E+00 -0.21194306754E+02 -0.30777071606E+02  0.37369905887E+02  0.00000000000E+00 0. -1.
         -2    1    1    2    0  502 -0.25284402481E+02  0.19962008841E+03 -0.99960850059E+03  0.10196590779E+04  0.00000000000E+00 0.  1.
<scales pt_clust_5="13000.00000" pt_clust_6="13000.00000" pt_clust_7="13000.00000" pt_clust_8="13000.00000" pt_clust_9="21.19627" pt_clust_10="284.08446"></scales>
<clustering>
<clus scale="   21.196">  1  9  2 -1</clus>
<clus scale="   78.671">  5  6 -1 -1</clus>
<clus scale="   90.742">  7  8 -1 -1</clus>
<clus scale="  185.415">  2  7  1 -1</clus>
<clus scale="  284.084">  1 10  2 -1</clus>
<clus scale="   21.196">  1  5  2 -1</clus>
</clustering>
</event>
<event>
10    4  0.3403565E-005  0.2539575E+03  0.7546771E-02  0.1150800E+00
         21   -1    0    0  503  502  0.00000000000E+00  0.00000000000E+00  0.12683999638E+03  0.12683999638E+03  0.00000000000E+00 0. -1.
          2   -1    0    0  502    0 -0.00000000000E+00 -0.00000000000E+00 -0.86260193324E+03  0.86260193324E+03  0.00000000000E+00 0. -1.
         24    2    1    2    0    0 -0.20791691665E+02  0.43050186017E+02 -0.25631965441E+03  0.27337099426E+03  0.82135998856E+02 0.  0.
         23    2    1    2    0    0  0.26394685103E+01 -0.27046798419E+03 -0.23698975552E+03  0.37061710225E+03  0.89626976944E+02 0.  0.
        -11    1    3    3    0    0  0.28850534089E+02  0.15040275041E+01 -0.58792083668E+02  0.65506675370E+02  0.00000000000E+00 0.  1.
         12    1    3    3    0    0 -0.49642225754E+02  0.41546158513E+02 -0.19752757074E+03  0.20786431889E+03  0.00000000000E+00 0. -1.
        -13    1    4    4    0    0 -0.16181485262E+02 -0.19836391522E+03 -0.21487593142E+03  0.29288521511E+03  0.00000000000E+00 0.  1.
         13    1    4    4    0    0  0.18820953772E+02 -0.72104068969E+02 -0.22113824105E+02  0.77731887146E+02  0.00000000000E+00 0. -1.
         21    1    1    2  503  501  0.26744088445E+02  0.18777775381E+02 -0.12896689096E+02  0.35130836947E+02  0.00000000000E+00 0. -1.
          1    1    1    2  501    0 -0.85918652903E+01  0.20864002279E+03 -0.22955583784E+03  0.31032299615E+03  0.00000000000E+00 0. -1.
<scales pt_clust_5="13000.00000" pt_clust_6="13000.00000" pt_clust_7="13000.00000" pt_clust_8="13000.00000" pt_clust_9="32.67799" pt_clust_10="237.61625"></scales>
<clustering>
<clus scale="   32.678">  1  9  2 -1</clus>
<clus scale="   82.136">  5  6 -1 -1</clus>
<clus scale="   89.627">  7  8 -1 -1</clus>
<clus scale="   95.262">  2  5  1 -1</clus>
<clus scale="  237.616">  1 10  2 -1</clus>
<clus scale="   32.678">  1  5  2 -1</clus>
</clustering>
</event>
<event>
10    4  0.3403565E-005  0.1509580E+03  0.7546771E-02  0.1199686E+00
         21   -1    0    0  501  502  0.00000000000E+00  0.00000000000E+00  0.25889786218E+03  0.25889786218E+03  0.00000000000E+00 0.  1.
          2   -1    0    0  503    0 -0.00000000000E+00 -0.00000000000E+00 -0.61646542521E+03  0.61646542521E+03  0.00000000000E+00 0. -1.
         24    2    1    2    0    0  0.11836061721E+03  0.38452044957E+02 -0.24909922303E+03  0.28950245773E+03  0.79205142820E+02 0.  0.
         23    2    1    2    0    0 -0.81048960921E+02  0.98208584468E+02  0.11682285920E+03  0.19570633904E+03  0.91866917762E+02 0.  0.
        -11    1    3    3    0    0  0.12739797444E+03  0.40061750613E+02 -0.20647240930E+03  0.24589844155E+03  0.00000000000E+00 0.  1.
         12    1    3    3    0    0 -0.90373572354E+01 -0.16097056567E+01 -0.42626813730E+02  0.43604016178E+02  0.00000000000E+00 0. -1.
        -11    1    4    4    0    0 -0.16860038825E+02  0.13970568191E+02 -0.15051199956E+02  0.26570214619E+02  0.00000000000E+00 0. -1.
         11    1    4    4    0    0 -0.64188922096E+02  0.84238016276E+02  0.13187405915E+03  0.16913612442E+03  0.00000000000E+00 0.  1.
         21    1    1    2  503  502  0.23611074635E+02  0.86615664026E+01  0.59544141669E+02  0.64637530778E+02  0.00000000000E+00 0.  1.
          1    1    1    2  501    0 -0.60922730921E+02 -0.14532219583E+03 -0.28483534086E+03  0.32551695984E+03  0.00000000000E+00 0. -1.
<scales pt_clust_5="13000.00000" pt_clust_6="13000.00000" pt_clust_7="13000.00000" pt_clust_8="13000.00000" pt_clust_9="25.14966" pt_clust_10="119.78644"></scales>
<clustering>
<clus scale="   25.150">  1  9  2 -1</clus>
<clus scale="   79.205">  5  6 -1 -1</clus>
<clus scale="   91.867">  7  8 -1 -1</clus>
<clus scale="  149.700">  2  5  1 -1</clus>
<clus scale="  119.786">  1 10  2 -1</clus>
<clus scale="   25.150">  1  5  2 -1</clus>
</clustering>
</event>
<event>
10    4  0.3403565E-005  0.2839839E+03  0.7546771E-02  0.1135467E+00
         21   -1    0    0  501  502  0.00000000000E+00  0.00000000000E+00  0.34509915951E+03  0.34509915951E+03  0.00000000000E+00 0. -1.
          2   -1    0    0  503    0 -0.00000000000E+00 -0.00000000000E+00 -0.33521888476E+04  0.33521888476E+04  0.00000000000E+00 0. -1.
         24    2    1    2    0    0 -0.17218983193E+02 -0.53740870895E+02 -0.27553087646E+03  0.29257919815E+03  0.80627220713E+02 0.  0.
         23    2    1    2    0    0  0.27272916272E+03  0.24004815111E+02 -0.12216191107E+04  0.12552169300E+04  0.90878283158E+02 0.  0.
        -11    1    3    3    0    0 -0.29260322252E+02  0.78607931264E+01 -0.49875652679E+02  0.58356998355E+02  0.00000000000E+00 0.  1.
         12    1    3    3    0    0  0.12041339059E+02 -0.61601664021E+02 -0.22565522378E+03  0.23422219979E+03  0.00000000000E+00 0. -1.
        -13    1    4    4    0    0  0.98884704003E+02  0.18045309245E+02 -0.27604738839E+03  0.29377879179E+03  0.00000000000E+00 0.  1.
         13    1    4    4    0    0  0.17384445872E+03  0.59595058656E+01 -0.94557172229E+03  0.96143813817E+03  0.00000000000E+00 0. -1.
         21    1    1    2  503  502 -0.34524688825E+02  0.19518457684E+03  0.27741085521E+03  0.34094831832E+03  0.00000000000E+00 0. -1.
          1    1    1    2  501    0 -0.22098549070E+03 -0.16544852106E+03 -0.17873505562E+04  0.18085435607E+04  0.00000000000E+00 0. -1.
<scales pt_clust_5="13000.00000" pt_clust_6="13000.00000" pt_clust_7="13000.00000" pt_clust_8="13000.00000" pt_clust_9="197.69776" pt_clust_10="269.05027"></scales>
<clustering>
<clus scale="   80.627">  5  6 -1 -1</clus>
<clus scale="   90.878">  7  8 -1 -1</clus>
<clus scale="   98.414">  2  5  1 -1</clus>
<clus scale="  197.698">  1  9  2 -1</clus>
<clus scale="  269.050">  1 10  2 -1</clus>
<clus scale="  197.698">  1  5  2 -1</clus>
</clustering>
</event>
<event>
10    4  0.3403565E-005  0.1901493E+03  0.7546771E-02  0.1182353E+00
         -1   -1    0    0    0  501 -0.00000000000E+00  0.00000000000E+00  0.75674740800E+03  0.75674740800E+03  0.00000000000E+00 0.  1.
         21   -1    0    0  501  502  0.00000000000E+00 -0.00000000000E+00 -0.93206755132E+03  0.93206755132E+03  0.00000000000E+00 0. -1.
         24    2    1    2    0    0  0.10311127423E+02 -0.76758904542E+02  0.16835252676E+03  0.20098505808E+03  0.77808556929E+02 0.  0.
         23    2    1    2    0    0 -0.93167864776E+02 -0.11734749336E+03  0.42990188190E+03  0.46440791770E+03  0.91697332259E+02 0.  0.
        -11    1    3    3    0    0 -0.75889283805E+01 -0.87467311522E+02  0.14636625359E+03  0.17067865306E+03  0.00000000000E+00 0.  1.
         12    1    3    3    0    0  0.17900055804E+02  0.10708406981E+02  0.21986273169E+02  0.30306405028E+02  0.00000000000E+00 0. -1.
        -13    1    4    4    0    0 -0.21835599899E+02 -0.33979128080E+02  0.31637160493E+02  0.51305793943E+02  0.00000000000E+00 0. -1.
         13    1    4    4    0    0 -0.71332264877E+02 -0.83368365284E+02  0.39826472140E+03  0.41310212376E+03  0.00000000000E+00 0.  1.
         21    1    1    2  503  502  0.10602813170E+03  0.34525903521E+02 -0.84120250340E+03  0.84856093149E+03  0.00000000000E+00 0. -1.
         -2    1    1    2    0  503 -0.23171394352E+02  0.15958049438E+03  0.67627951429E+02  0.17486105203E+03  0.00000000000E+00 0.  1.
<scales pt_clust_5="13000.00000" pt_clust_6="13000.00000" pt_clust_7="13000.00000" pt_clust_8="13000.00000" pt_clust_9="111.41914" pt_clust_10="166.57843"></scales>
<clustering>
<clus scale="   77.809">  5  6 -1 -1</clus>
<clus scale="   91.697">  7  8 -1 -1</clus>
<clus scale="  109.784">  1  5  2 -1</clus>
<clus scale="  111.419">  2  9  1 -1</clus>
<clus scale="  166.578">  2 10  1 -1</clus>
<clus scale="  111.419">  2  5  1 -1</clus>
</clustering>
</event>
<event>
10    4  0.3403565E-005  0.1465759E+03  0.7546771E-02  0.1216778E+00
          2   -1    0    0  502    0 -0.00000000000E+00  0.00000000000E+00  0.16333425616E+04  0.16333425616E+04  0.00000000000E+00 0. -1.
         21   -1    0    0  503  502  0.00000000000E+00 -0.00000000000E+00 -0.52440428508E+02  0.52440428508E+02  0.00000000000E+00 0.  1.
         24    2    1    2    0    0 -0.80987159541E+02  0.59062980762E+02  0.11572788610E+03  0.17297498670E+03  0.80498737225E+02 0.  0.
         23    2    1    2    0    0 -0.98488925242E+02  0.19165874273E+02  0.55820011438E+03  0.57405309907E+03  0.88781719544E+02 0.  0.
        -13    1    3    3    0    0 -0.96640203692E+02  0.58307576454E+02  0.10060510962E+03  0.15119686017E+03  0.00000000000E+00 0.  1.
         14    1    3    3    0    0  0.15653044151E+02  0.75540430742E+00  0.15122776475E+02  0.21778126530E+02  0.00000000000E+00 0. -1.
        -13    1    4    4    0    0 -0.83270534684E+02 -0.22847711833E+02  0.42085082892E+03  0.42961776044E+03  0.00000000000E+00 0.  1.
         13    1    4    4    0    0 -0.15218390557E+02  0.42013586106E+02  0.13734928546E+03  0.14443533863E+03  0.00000000000E+00 0. -1.
         21    1    1    2  503  501  0.45604790045E+02  0.35448616446E+01  0.50929730881E+02  0.68455828143E+02  0.00000000000E+00 0. -1.
          1    1    1    2  501    0  0.13387129474E+03 -0.81773716679E+02  0.85604440169E+03  0.87029907616E+03  0.00000000000E+00 0. -1.
<scales pt_clust_5="13000.00000" pt_clust_6="13000.00000" pt_clust_7="13000.00000" pt_clust_8="13000.00000" pt_clust_9="45.74235" pt_clust_10="116.62895"></scales>
<clustering>
<clus scale="   45.742">  2  9  1 -1</clus>
<clus scale="   80.499">  5  6 -1 -1</clus>
<clus scale="   88.782">  7  8 -1 -1</clus>
<clus scale="  113.400">  1  5  2 -1</clus>
<clus scale="  116.629">  2 10  1 -1</clus>
<clus scale="   45.742">  2  5  1 -1</clus>
</clustering>
</event>
<event>
10    4  0.3403565E-005  0.3414783E+03  0.7546771E-02  0.1087950E+00
          2   -1    0    0  503    0 -0.00000000000E+00  0.00000000000E+00  0.14904842282E+04  0.14904842282E+04  0.00000000000E+00 0. -1.
         21   -1    0    0  501  502  0.00000000000E+00 -0.00000000000E+00 -0.44575610661E+03  0.44575610661E+03  0.00000000000E+00 0. -1.
         24    2    1    2    0    0 -0.16729903777E+03  0.16060915229E+02  0.89523915752E+03  0.91468157513E+03  0.83320547825E+02 0.  0.
         23    2    1    2    0    0 -0.23226332059E+03 -0.93969758301E+02 -0.21861239420E+03  0.34402393417E+03  0.88229942873E+02 0.  0.
        -13    1    3    3    0    0 -0.16586274578E+02  0.14474878467E+02  0.35066585880E+02  0.41404010147E+02  0.00000000000E+00 0.  1.
         14    1    3    3    0    0 -0.15071276319E+03  0.15860367620E+01  0.86017257164E+03  0.87327756498E+03  0.00000000000E+00 0. -1.
        -11    1    4    4    0    0 -0.36916820577E+02  0.69687446939E+01 -0.57873572553E+01  0.38011952700E+02  0.00000000000E+00 0.  1.
         11    1    4    4    0    0 -0.19534650002E+03 -0.10093850299E+03 -0.21282503694E+03  0.30601198147E+03  0.00000000000E+00 0. -1.
         21    1    1    2  503  502 -0.76127136741E+02  0.46170995746E+02  0.33687091765E+02  0.95194127698E+02  0.00000000000E+00 0. -1.
          1    1    1    2  501    0  0.47568949510E+03  0.31737847326E+02  0.33441426652E+03  0.58234069783E+03  0.00000000000E+00 0. -1.
<scales pt_clust_5="13000.00000" pt_clust_6="13000.00000" pt_clust_7="13000.00000" pt_clust_8="13000.00000" pt_clust_9="89.03427" pt_clust_10="329.88335"></scales>
<clustering>
<clus scale="   83.321">  5  6 -1 -1</clus>
<clus scale="   88.230">  7  8 -1 -1</clus>
<clus scale="   89.034">  2  9  1 -1</clus>
<clus scale="  189.275">  1  5  2 -1</clus>
<clus scale="  329.883">  2 10  1 -1</clus>
<clus scale="   89.034">  2  5  1 -1</clus>
</clustering>
</event>
<event>
10    4  0.3403565E-005  0.8174258E+03  0.7546771E-02  0.9535131E-01
         21   -1    0    0  503  502  0.00000000000E+00  0.00000000000E+00  0.30493150086E+03  0.30493150086E+03  0.00000000000E+00 0. -1.
          2   -1    0    0  502    0 -0.00000000000E+00 -0.00000000000E+00 -0.24617823070E+04  0.24617823070E+04  0.00000000000E+00 0. -1.
         24    2    1    2    0    0  0.24144637200E+03 -0.62945832295E+03 -0.12228961547E+04  0.13985392882E+04  0.76961057588E+02 0.  0.
         23    2    1    2    0    0  0.67316580292E+02 -0.84860754785E+02 -0.17986223531E+03  0.22841890919E+03  0.89955014870E+02 0.  0.
        -13    1    3    3    0    0  0.41021132947E+02 -0.67643548002E+02 -0.18940307326E+03  0.20526058339E+03  0.00000000000E+00 0.  1.
         14    1    3    3    0    0  0.20042523906E+03 -0.56181477495E+03 -0.10334930815E+04  0.11932787048E+04  0.00000000000E+00 0. -1.
        -11    1    4    4    0    0 -0.15642826472E+02 -0.45963138584E+02 -0.52327241819E+02  0.71382409352E+02  0.00000000000E+00 0. -1.
         11    1    4    4    0    0  0.82959406764E+02 -0.38897616200E+02 -0.12753499349E+03  0.15703649984E+03  0.00000000000E+00 0.  1.
         21    1    1    2  503  501 -0.36022730622E+02  0.32551920654E+01  0.29774560317E+02  0.46848242645E+02  0.00000000000E+00 0.  1.
          1    1    1    2  501    0 -0.27274022167E+03  0.71106388567E+03 -0.78386697640E+03  0.10929073679E+04  0.00000000000E+00 0. -1.
<scales pt_clust_5="13000.00000" pt_clust_6="13000.00000" pt_clust_7="13000.00000" pt_clust_8="13000.00000" pt_clust_9="36.16951" pt_clust_10="771.04437"></scales>
<clustering>
<clus scale="   36.170">  1  9  2 -1</clus>
<clus scale="   76.961">  5  6 -1 -1</clus>
<clus scale="   89.955">  7  8 -1 -1</clus>
<clus scale="  100.889">  5  7 -1 -1</clus>
<clus scale="  771.044">  1 10  2 -1</clus>
<clus scale="   36.170">  1  5  2 -1</clus>
</clustering>
</event>
<event>
10    4  0.3403565E-005  0.3976525E+03  0.7546771E-02  0.1044596E+00
          2   -1    0    0  502    0 -0.00000000000E+00  0.00000000000E+00  0.17459859713E+04  0.17459859713E+04  0.00000000000E+00 0. -1.
         21   -1    0    0  503  502  0.00000000000E+00 -0.00000000000E+00 -0.37061006768E+03  0.37061006768E+03  0.00000000000E+00 0. -1.
         24    2    1    2    0    0  0.68956156881E+02 -0.50694978168E+01  0.23206683816E+03  0.25499270089E+03  0.79910004107E+02 0.  0.
         23    2    1    2    0    0  0.26801645295E+03  0.65035032822E+02  0.11528056172E+04  0.11889670062E+04  0.92840596429E+02 0.  0.
        -13    1    3    3    0    0  0.58549196099E+02 -0.21823101679E+02  0.79305574332E+02  0.10096350950E+03  0.00000000000E+00 0.  1.
         14    1    3    3    0    0  0.10406960781E+02  0.16753603863E+02  0.15276126382E+03  0.15402919139E+03  0.00000000000E+00 0. -1.
        -11    1    4    4    0    0  0.94730591086E+02  0.61646475215E+00  0.24821337887E+03  0.26567677047E+03  0.00000000000E+00 0.  1.
         11    1    4    4    0    0  0.17328586186E+03  0.64418568070E+02  0.90459223831E+03  0.92329023576E+03  0.00000000000E+00 0. -1.
         21    1    1    2  503  501 -0.13394342487E+03  0.23407303333E+03 -0.12481013445E+03  0.29716762216E+03  0.00000000000E+00 0. -1.
          1    1    1    2  501    0 -0.20302918496E+03 -0.29403856834E+03  0.11531358277E+03  0.37546870973E+03  0.00000000000E+00 0. -1.
<scales pt_clust_5="13000.00000" pt_clust_6="13000.00000" pt_clust_7="13000.00000" pt_clust_8="13000.00000" pt_clust_9="269.68690" pt_clust_10="328.82516"></scales>
<clustering>
<clus scale="   79.910">  5  6 -1 -1</clus>
<clus scale="   92.841">  7  8 -1 -1</clus>
<clus scale="   97.556">  5  7 -1 -1</clus>
<clus scale="  269.687">  2  9  1 -1</clus>
<clus scale="  328.825">  2 10  1 -1</clus>
<clus scale="  269.687">  2  5  1 -1</clus>
</clustering>
</event>
<event>
10    4  0.3403565E-005  0.1454710E+03  0.7546771E-02  0.1207267E+00
         21   -1    0    0  503  502  0.00000000000E+00  0.00000000000E+00  0.52636229248E+02  0.52636229248E+02  0.00000000000E+00 0. -1.
          2   -1    0    0  502    0 -0.00000000000E+00 -0.00000000000E+00 -0.13430238878E+04  0.13430238878E+04  0.00000000000E+00 0. -1.
         24    2    1    2    0    0  0.91254554688E+02 -0.55752494164E+01 -0.35018263991E+03  0.37074082733E+03  0.80389070157E+02 0.  0.
         23    2    1    2    0    0 -0.20160438626E+03  0.11261407176E+01 -0.32219886585E+03  0.38975616232E+03  0.86325895068E+02 0.  0.
        -13    1    3    3    0    0  0.43805509158E+02 -0.42847999757E+02 -0.18487344717E+03  0.19476412705E+03  0.00000000000E+00 0.  1.
         14    1    3    3    0    0  0.47449045530E+02  0.37272750341E+02 -0.16530919273E+03  0.17597670028E+03  0.00000000000E+00 0. -1.
        -13    1    4    4    0    0 -0.11599854066E+03 -0.13064266449E+02 -0.25348090038E+03  0.27906791889E+03  0.00000000000E+00 0.  1.
         13    1    4    4    0    0 -0.85605845601E+02  0.14190407167E+02 -0.68717965467E+02  0.11068824343E+03  0.00000000000E+00 0. -1.
         21    1    1    2  503  501  0.19044907524E+02  0.18110506931E+02 -0.29705186061E+02  0.39662287413E+02  0.00000000000E+00 0.  1.
          1    1    1    2  501    0  0.91304924052E+02 -0.13661398232E+02 -0.58830096669E+03  0.59550083994E+03  0.00000000000E+00 0. -1.
<scales pt_clust_5="13000.00000" pt_clust_6="13000.00000" pt_clust_7="13000.00000" pt_clust_8="13000.00000" pt_clust_9="26.28115" pt_clust_10="93.55478"></scales>
<clustering>
<clus scale="   26.281">  1  9  2 -1</clus>
<clus scale="   80.389">  5  6 -1 -1</clus>
<clus scale="   86.326">  7  8 -1 -1</clus>
<clus scale="   93.555">  1 10  2 -1</clus>
<clus scale="  142.028">  2  5  1 -1</clus>
<clus scale="   26.281">  1  5  2 -1</clus>
</clustering>
</event>
<event>
10    4  0.3403565E-005  0.1543248E+03  0.7546771E-02  0.1197350E+00
         -1   -1    0    0    0  501 -0.00000000000E+00  0.00000000000E+00  0.19798687184E+03  0.19798687184E+03  0.00000000000E+00 0.  1.
         21   -1    0    0  501  502  0.00000000000E+00 -0.00000000000E+00 -0.57727674105E+03  0.57727674105E+03  0.00000000000E+00 0. -1.
         23    2    1    2    0    0 -0.13110597022E+03 -0.60771579864E+02  0.61157182699E+02  0.18217114812E+03  0.92542778563E+02 0.  0.
         24    2    1    2    0    0  0.47942302273E+02 -0.29096935136E+02 -0.25168827813E+03  0.27013757741E+03  0.80512268633E+02 0.  0.
        -11    1    4    4    0    0  0.20448816932E+02  0.16870535415E+02 -0.22491667441E+02  0.34765560306E+02  0.00000000000E+00 0.  1.
         12    1    4    4    0    0  0.27493485341E+02 -0.45967470552E+02 -0.22919661069E+03  0.23537201711E+03  0.00000000000E+00 0. -1.
        -11    1    3    3    0    0 -0.12025078375E+03 -0.83312694812E+02  0.55886992611E+02  0.15660335901E+03  0.00000000000E+00 0.  1.
         11    1    3    3    0    0 -0.10855186473E+02  0.22541114949E+02  0.52701900881E+01  0.25567789112E+02  0.00000000000E+00 0. -1.
         21    1    1    2  503  502  0.60739174272E+01  0.40271072299E+02 -0.22180551929E+03  0.22551350320E+03  0.00000000000E+00 0.  1.
         -2    1    1    2    0  503  0.77089750523E+02  0.49597442701E+02  0.33046745518E+02  0.97441384162E+02  0.00000000000E+00 0.  1.
<scales pt_clust_5="13000.00000" pt_clust_6="13000.00000" pt_clust_7="13000.00000" pt_clust_8="13000.00000" pt_clust_9="40.72655" pt_clust_10="94.15670"></scales>
<clustering>
<clus scale="   40.727">  2  9  1 -1</clus>
<clus scale="   80.512">  5  6 -1 -1</clus>
<clus scale="   92.543">  7  8 -1 -1</clus>
<clus scale="   94.157">  2 10  1 -1</clus>
<clus scale="  147.425">  2  5  1 -1</clus>
<clus scale="   40.727">  2  5  1 -1</clus>
</clustering>
</event>
<event>
10    4  0.3403565E-005  0.2819956E+03  0.7546771E-02  0.1094604E+00
          2   -1    0    0  502    0 -0.00000000000E+00  0.00000000000E+00  0.40646624557E+03  0.40646624557E+03  0.00000000000E+00 0. -1.
         21   -1    0    0  503  502  0.00000000000E+00 -0.00000000000E+00 -0.64803650593E+03  0.64803650593E+03  0.00000000000E+00 0. -1.
         24    2    1    2    0    0  0.38068720351E+02 -0.87121118819E+02  0.11003740890E+03  0.16575117797E+03  0.79535557005E+02 0.  0.
         23    2    1    2    0    0  0.11374317636E+03 -0.51087116845E+02  0.22523700318E+03  0.27323329548E+03  0.91527714267E+02 0.  0.
        -11    1    3    3    0    0  0.19124769813E+02  0.71506696192E+01  0.11011566908E+01  0.20447529006E+02  0.00000000000E+00 0.  1.
         12    1    3    3    0    0  0.18943950538E+02 -0.94271788438E+02  0.10893625221E+03  0.14530364897E+03  0.00000000000E+00 0. -1.
        -11    1    4    4    0    0  0.19774524918E+02 -0.22726307584E+02  0.14009202121E+03  0.14329442173E+03  0.00000000000E+00 0.  1.
         11    1    4    4    0    0  0.93968651445E+02 -0.28360809261E+02  0.85144981974E+02  0.12993887375E+03  0.00000000000E+00 0. -1.
         21    1    1    2  503  501 -0.18971334344E+02  0.75300840455E+01 -0.12662419077E+03  0.12825872049E+03  0.00000000000E+00 0. -1.
          1    1    1    2  501    0 -0.13284056237E+03  0.13067815162E+03 -0.45022048167E+03  0.48725955756E+03  0.00000000000E+00 0. -1.
<scales pt_clust_5="13000.00000" pt_clust_6="13000.00000" pt_clust_7="13000.00000" pt_clust_8="13000.00000" pt_clust_9="20.41112" pt_clust_10="203.39966"></scales>
<clustering>
<clus scale="   20.411">  2  9  1 -1</clus>
<clus scale="   79.536">  5  6 -1 -1</clus>
<clus scale="   91.528">  7  8 -1 -1</clus>
<clus scale="  119.259">  5  7 -1 -1</clus>
<clus scale="  203.400">  2 10  1 -1</clus>
<clus scale="   20.411">  2  5  1 -1</clus>
</clustering>
</event>
<event>
10    4  0.3403565E-005  0.1591580E+03  0.7546771E-02  0.1192144E+00
         -3   -1    0    0    0  501 -0.00000000000E+00  0.00000000000E+00  0.18941337091E+03  0.18941337091E+03  0.00000000000E+00 0.  1.
         21   -1    0    0  503  502  0.00000000000E+00 -0.00000000000E+00 -0.33390601212E+03  0.33390601212E+03  0.00000000000E+00 0.  1.
         24    2    1    2    0    0 -0.84525893874E+02  0.71681321600E+02  0.66072750070E+01  0.13541719341E+03  0.77532713015E+02 0.  0.
         23    2    1    2    0    0  0.12555605144E+03 -0.14219202612E+03 -0.15463711988E+03  0.26181283555E+03  0.93007675331E+02 0.  0.
        -13    1    3    3    0    0 -0.83031740298E+02  0.86299489454E+02  0.12120052786E+01  0.11976368704E+03  0.00000000000E+00 0.  1.
         14    1    3    3    0    0 -0.14941535766E+01 -0.14618167854E+02  0.53952697285E+01  0.15653506373E+02  0.00000000000E+00 0. -1.
        -11    1    4    4    0    0  0.39927034626E+02 -0.30833925718E+02 -0.98249657100E+02  0.11044407720E+03  0.00000000000E+00 0. -1.
         11    1    4    4    0    0  0.85629016817E+02 -0.11135810040E+03 -0.56387462782E+02  0.15136875835E+03  0.00000000000E+00 0.  1.
         21    1    1    2  503  501  0.19437379983E+02 -0.11544351065E+02 -0.68783458458E+01  0.23630391950E+02  0.00000000000E+00 0.  1.
         -4    1    1    2    0  502 -0.60467537552E+02  0.82055055583E+02  0.10415549510E+02  0.10245896211E+03  0.00000000000E+00 0.  1.
<scales pt_clust_5="13000.00000" pt_clust_6="13000.00000" pt_clust_7="13000.00000" pt_clust_8="13000.00000" pt_clust_9="22.60716" pt_clust_10="98.92879"></scales>
<clustering>
<clus scale="   22.607">  2  9  1 -1</clus>
<clus scale="   77.533">  5  6 -1 -1</clus>
<clus scale="   93.008">  7  8 -1 -1</clus>
<clus scale="   98.929">  2 10  1 -1</clus>
<clus scale="  150.639">  1  5  2 -1</clus>
<clus scale="   22.607">  2  5  1 -1</clus>
</clustering>
</event>
<event>
10    4  0.3403565E-005  0.9660093E+02  0.7546771E-02  0.1293604E+00
         21   -1    0    0  503  502  0.00000000000E+00  0.00000000000E+00  0.18994544479E+03  0.18994544479E+03  0.00000000000E+00 0. -1.
         -1   -1    0    0    0  501 -0.00000000000E+00 -0.00000000000E+00 -0.17737483398E+03  0.17737483398E+03  0.00000000000E+00 0.  1.
         24    2    1    2    0    0 -0.23166137495E+02  0.16541687262E+02 -0.86530165764E+02  0.12127780688E+03  0.80065844849E+02 0.  0.
         23    2    1    2    0    0  0.39451361421E+02 -0.41260737976E+02  0.80489782262E+02  0.13424947601E+03  0.91024493095E+02 0.  0.
        -11    1    3    3    0    0 -0.36449208903E+02 -0.22914469762E+02 -0.38983451448E+02  0.58080351591E+02  0.00000000000E+00 0.  1.
         12    1    3    3    0    0  0.13283071408E+02  0.39456157024E+02 -0.47546714316E+02  0.63197455292E+02  0.00000000000E+00 0. -1.
        -11    1    4    4    0    0  0.32614833409E+02  0.18322672131E+02  0.48563064415E+01  0.37723088216E+02  0.00000000000E+00 0.  1.
         11    1    4    4    0    0  0.68365280117E+01 -0.59583410107E+02  0.75633475820E+02  0.96526387790E+02  0.00000000000E+00 0. -1.
         21    1    1    2  503  501  0.18834518833E+02 -0.16848055380E+02  0.44774050628E+02  0.51413146951E+02  0.00000000000E+00 0.  1.
         -2    1    1    2    0  502 -0.35119742758E+02  0.41567106094E+02 -0.26163056318E+02  0.60379848926E+02  0.00000000000E+00 0.  1.
<scales pt_clust_5="13000.00000" pt_clust_6="13000.00000" pt_clust_7="13000.00000" pt_clust_8="13000.00000" pt_clust_9="25.27046" pt_clust_10="51.40067"></scales>
<clustering>
<clus scale="   25.270">  1  9  2 -1</clus>
<clus scale="   51.401">  1 10  2 -1</clus>
<clus scale="   80.066">  5  6 -1 -1</clus>
<clus scale="   86.353">  2  5  1 -1</clus>
<clus scale="   91.024">  7  8 -1 -1</clus>
<clus scale="   25.270">  1  5  2 -1</clus>
</clustering>
</event>
<event>
10    4  0.3403565E-005  0.3360371E+03  0.7546771E-02  0.1069156E+00
         21   -1    0    0  503  502  0.00000000000E+00  0.00000000000E+00  0.83253040818E+03  0.83253040818E+03  0.00000000000E+00 0. -1.
          2   -1    0    0  502    0 -0.00000000000E+00 -0.00000000000E+00 -0.25159479182E+03  0.25159479182E+03  0.00000000000E+00 0. -1.
         24    2    1    2    0    0 -0.27233921478E+03 -0.13634145925E+03  0.10455953204E+03  0.33229260087E+03  0.82024602635E+02 0.  0.
         23    2    1    2    0    0  0.34229870647E+03  0.56455910380E+02  0.15740233922E+03  0.39482369020E+03  0.10370427032E+03 0.  0.
        -13    1    3    3    0    0 -0.40500457290E+02  0.46517292066E+01 -0.18984085926E+01  0.40810900266E+02  0.00000000000E+00 0.  1.
         14    1    3    3    0    0 -0.23183875749E+03 -0.14099318845E+03  0.10645794063E+03  0.29148170060E+03  0.00000000000E+00 0. -1.
        -13    1    4    4    0    0  0.64156842814E+02  0.36775289970E+02 -0.13495046823E+01  0.73961771173E+02  0.00000000000E+00 0.  1.
         13    1    4    4    0    0  0.27814186366E+03  0.19680620411E+02  0.15875184390E+03  0.32086191903E+03  0.00000000000E+00 0. -1.
         21    1    1    2  503  501  0.25426990360E+02  0.34681762702E+02  0.16369738728E+03  0.16925185702E+03  0.00000000000E+00 0.  1.
          1    1    1    2  501    0 -0.95386482053E+02  0.45203786165E+02  0.15527635782E+03  0.18775705191E+03  0.00000000000E+00 0. -1.
<scales pt_clust_5="13000.00000" pt_clust_6="13000.00000" pt_clust_7="13000.00000" pt_clust_8="13000.00000" pt_clust_9="43.00415" pt_clust_10="104.03313"></scales>
<clustering>
<clus scale="   43.004">  1  9  2 -1</clus>
<clus scale="   82.025">  5  6 -1 -1</clus>
<clus scale="  103.704">  7  8 -1 -1</clus>
<clus scale="  104.033">  1 10  2 -1</clus>
<clus scale="  329.992">  2  5  1 -1</clus>
<clus scale="   43.004">  1  5  2 -1</clus>
</clustering>
</event>
<event>
10    4  0.3403565E-005  0.1848219E+03  0.7546771E-02  0.1195591E+00
          2   -1    0    0  503    0 -0.00000000000E+00  0.00000000000E+00  0.96192711494E+03  0.96192711494E+03  0.00000000000E+00 0. -1.
         21   -1    0    0  501  502  0.00000000000E+00 -0.00000000000E+00 -0.89231100786E+02  0.89231100786E+02  0.00000000000E+00 0. -1.
         24    2    1    2    0    0 -0.10374036311E+02  0.32688201355E+02  0.23419117658E+03  0.25007478446E+03  0.80720205013E+02 0.  0.
         23    2    1    2    0    0 -0.13318488508E+03  0.71703012318E+02  0.23387520344E+03  0.29336204981E+03  0.92109423492E+02 0.  0.
        -13    1    3    3    0    0 -0.38145774591E+02 -0.70931559800E+01  0.92510898144E+02  0.10031789101E+03  0.00000000000E+00 0.  1.
         14    1    3    3    0    0  0.27771738280E+02  0.39781357335E+02  0.14168027844E+03  0.14975689345E+03  0.00000000000E+00 0. -1.
        -11    1    4    4    0    0 -0.10309927978E+03  0.67773542677E+02  0.10828742804E+03  0.16416114537E+03  0.00000000000E+00 0. -1.
         11    1    4    4    0    0 -0.30085605299E+02  0.39294696411E+01  0.12558777540E+03  0.12920090444E+03  0.00000000000E+00 0.  1.
         21    1    1    2  503  502  0.25092302922E+02  0.32713566057E+02 -0.20165229062E+02  0.45895942449E+02  0.00000000000E+00 0.  1.
          1    1    1    2  501    0  0.11846661847E+03 -0.13710477973E+03  0.42479486320E+03  0.46182543901E+03  0.00000000000E+00 0. -1.
<scales pt_clust_5="13000.00000" pt_clust_6="13000.00000" pt_clust_7="13000.00000" pt_clust_8="13000.00000" pt_clust_9="41.22864" pt_clust_10="160.23419"></scales>
<clustering>
<clus scale="   41.229">  2  9  1 -1</clus>
<clus scale="   80.720">  5  6 -1 -1</clus>
<clus scale="   89.188">  1  5  2 -1</clus>
<clus scale="   92.109">  7  8 -1 -1</clus>
<clus scale="  160.234">  2 10  1 -1</clus>
<clus scale="   41.229">  2  5  1 -1</clus>
</clustering>
</event>
<event>
10    4  0.3403565E-005  0.1230392E+03  0.7546771E-02  0.1240300E+00
          2   -1    0    0  503    0 -0.00000000000E+00  0.00000000000E+00  0.45992270379E+03  0.45992270379E+03  0.00000000000E+00 0. -1.
         21   -1    0    0  501  502  0.00000000000E+00 -0.00000000000E+00 -0.23079477201E+03  0.23079477201E+03  0.00000000000E+00 0. -1.
         24    2    1    2    0    0 -0.23185603770E+02  0.84126235227E+02  0.40969536732E+03  0.42735868322E+03  0.84677945449E+02 0.  0.
         23    2    1    2    0    0 -0.17426314809E+02 -0.24174984517E+02 -0.81598444362E+02  0.12639269894E+03  0.91807962061E+02 0.  0.
        -11    1    3    3    0    0 -0.38855928342E+02  0.31812632968E+02  0.90264242438E+02  0.10329307937E+03  0.00000000000E+00 0.  1.
         12    1    3    3    0    0  0.15670324572E+02  0.52313602260E+02  0.31943112488E+03  0.32406560385E+03  0.00000000000E+00 0. -1.
        -11    1    4    4    0    0 -0.25821264117E+02  0.26074259292E+02 -0.91407581154E+01  0.37817431657E+02  0.00000000000E+00 0. -1.
         11    1    4    4    0    0  0.83949493077E+01 -0.50249243809E+02 -0.72457686247E+02  0.88575267279E+02  0.00000000000E+00 0.  1.
         21    1    1    2  503  502  0.25145583547E+02  0.64442747419E+01 -0.34157000025E+02  0.42901395077E+02  0.00000000000E+00 0. -1.
          1    1    1    2  501    0  0.15466335032E+02 -0.66395525453E+02 -0.64811991148E+02  0.94064698564E+02  0.00000000000E+00 0. -1.
<scales pt_clust_5="13000.00000" pt_clust_6="13000.00000" pt_clust_7="13000.00000" pt_clust_8="13000.00000" pt_clust_9="25.95822" pt_clust_10="68.77796"></scales>
<clustering>
<clus scale="   25.958">  2  9  1 -1</clus>
<clus scale="   68.778">  2 10  1 -1</clus>
<clus scale="   84.678">  5  6 -1 -1</clus>
<clus scale="   91.808">  7  8 -1 -1</clus>
<clus scale="  117.815">  1  5  2 -1</clus>
<clus scale="   25.958">  2  5  1 -1</clus>
</clustering>
</event>
<event>
10    4  0.3403565E-005  0.3850618E+03  0.7546771E-02  0.1049079E+00
          2   -1    0    0  502    0 -0.00000000000E+00  0.00000000000E+00  0.14451830677E+04  0.14451830677E+04  0.00000000000E+00 0. -1.
         21   -1    0    0  503  502  0.00000000000E+00 -0.00000000000E+00 -0.12668769321E+03  0.12668769321E+03  0.00000000000E+00 0. -1.
         24    2    1    2    0    0  0.97110719076E+02 -0.32412836571E+02  0.14824294425E+03  0.19467088292E+03  0.73754311066E+02 0.  0.
         23    2    1    2    0    0  0.24219274947E+03  0.60865963307E+01  0.42938139954E+03  0.50153456460E+03  0.92055193570E+02 0.  0.
        -13    1    3    3    0    0  0.53542669784E+02 -0.55238612306E+02  0.87411514782E+02  0.11644266698E+03  0.00000000000E+00 0.  1.
         14    1    3    3    0    0  0.43568049292E+02  0.22825775736E+02  0.60831429469E+02  0.78228215934E+02  0.00000000000E+00 0. -1.
        -11    1    4    4    0    0  0.37761426789E+02 -0.25934187072E+01  0.17651478487E+02  0.41763930209E+02  0.00000000000E+00 0.  1.
         11    1    4    4    0    0  0.20443132268E+03  0.86800150378E+01  0.41172992106E+03  0.45977063439E+03  0.00000000000E+00 0. -1.
         21    1    1    2  503  501 -0.52797812877E+01  0.21482750297E+02 -0.28980737004E+02  0.36459124620E+02  0.00000000000E+00 0. -1.
          1    1    1    2  501    0 -0.33402368726E+03  0.48434899432E+01  0.76985176773E+03  0.83920618880E+03  0.00000000000E+00 0. -1.
<scales pt_clust_5="13000.00000" pt_clust_6="13000.00000" pt_clust_7="13000.00000" pt_clust_8="13000.00000" pt_clust_9="22.12204" pt_clust_10="336.21492"></scales>
<clustering>
<clus scale="   22.122">  2  9  1 -1</clus>
<clus scale="   73.754">  5  6 -1 -1</clus>
<clus scale="   92.055">  7  8 -1 -1</clus>
<clus scale="  104.731">  5  7 -1 -1</clus>
<clus scale="  336.215">  2 10  1 -1</clus>
<clus scale="   22.122">  2  5  1 -1</clus>
</clustering>
</event>
<event>
10    4  0.3403565E-005  0.3379041E+03  0.7546771E-02  0.1067692E+00
          2   -1    0    0  502    0 -0.00000000000E+00  0.00000000000E+00  0.23075681085E+04  0.23075681085E+04  0.00000000000E+00 0. -1.
         21   -1    0    0  503  502  0.00000000000E+00 -0.00000000000E+00 -0.55479690662E+02  0.55479690662E+02  0.00000000000E+00 0. -1.
         24    2    1    2    0    0  0.98178137594E+02 -0.37568893466E+02  0.35454994254E+03  0.37853886219E+03  0.80843305053E+02 0.  0.
         23    2    1    2    0    0  0.11914562683E+03 -0.11931295520E+03  0.26965751109E+03  0.33125976844E+03  0.92663904663E+02 0.  0.
        -11    1    3    3    0    0  0.22203904170E+02  0.16139858409E+02  0.28902295102E+02  0.39860394528E+02  0.00000000000E+00 0.  1.
         12    1    3    3    0    0  0.75974233424E+02 -0.53708751875E+02  0.32564764744E+03  0.33867846766E+03  0.00000000000E+00 0. -1.
        -11    1    4    4    0    0  0.57736154420E+02 -0.45403751282E+02  0.19860443069E+03  0.21175146764E+03  0.00000000000E+00 0.  1.
         11    1    4    4    0    0  0.61409472412E+02 -0.73909203923E+02  0.71053080404E+02  0.11950830081E+03  0.00000000000E+00 0. -1.
         21    1    1    2  503  501 -0.81207492349E+02  0.26075705626E+01  0.54101822186E+03  0.54708516031E+03  0.00000000000E+00 0.  1.
          1    1    1    2  501    0 -0.13611627208E+03  0.15427427811E+03  0.10868627423E+04  0.11061640082E+04  0.00000000000E+00 0. -1.
<scales pt_clust_5="13000.00000" pt_clust_6="13000.00000" pt_clust_7="13000.00000" pt_clust_8="13000.00000" pt_clust_9="67.08212" pt_clust_10="288.50730"></scales>
<clustering>
<clus scale="   67.082">  9 10 -1 -1</clus>
<clus scale="   80.843">  5  6 -1 -1</clus>
<clus scale="   92.664">  7  8 -1 -1</clus>
<clus scale="  121.834">  5  7 -1 -1</clus>
<clus scale="  288.507">  2  9  1 -1</clus>
<clus scale="  288.507">  2  5  1 -1</clus>
</clustering>
</event>
<event>
10    4  0.3403565E-005  0.1752510E+03  0.7546771E-02  0.1201521E+00
         -1   -1    0    0    0  501 -0.00000000000E+00  0.00000000000E+00  0.26876258137E+03  0.26876258137E+03  0.00000000000E+00 0.  1.
         21   -1    0    0  501  502  0.00000000000E+00 -0.00000000000E+00 -0.31819985002E+03  0.31819985002E+03  0.00000000000E+00 0. -1.
         24    2    1    2    0    0  0.36393599345E+02  0.58795861086E+02 -0.62260367169E+02  0.12108576275E+03  0.77485232570E+02 0.  0.
         23    2    1    2    0    0 -0.84360740333E+02  0.14327318161E+03 -0.86649584813E+01  0.19015576052E+03  0.91870521252E+02 0.  0.
        -11    1    3    3    0    0 -0.20478953713E+02  0.35708172567E+02 -0.15748474707E+02  0.44073524807E+02  0.00000000000E+00 0.  1.
         12    1    3    3    0    0  0.56872553059E+02  0.23087688519E+02 -0.46511892462E+02  0.77012237943E+02  0.00000000000E+00 0. -1.
        -11    1    4    4    0    0 -0.37925940557E+02  0.16526098251E+02 -0.33093364622E+02  0.52977916839E+02  0.00000000000E+00 0.  1.
         11    1    4    4    0    0 -0.46434799775E+02  0.12674708336E+03  0.24428406141E+02  0.13717784368E+03  0.00000000000E+00 0. -1.
         21    1    1    2  503  502 -0.38746402352E+01 -0.60034831342E+02 -0.75159836711E+02  0.96271464441E+02  0.00000000000E+00 0.  1.
         -2    1    1    2    0  503  0.51841781222E+02 -0.14203421135E+03  0.96647893710E+02  0.17944944367E+03  0.00000000000E+00 0.  1.
<scales pt_clust_5="13000.00000" pt_clust_6="13000.00000" pt_clust_7="13000.00000" pt_clust_8="13000.00000" pt_clust_9="60.15974" pt_clust_10="149.24049"></scales>
<clustering>
<clus scale="   60.160">  2  9  1 -1</clus>
<clus scale="   77.485">  5  6 -1 -1</clus>
<clus scale="   91.871">  7  8 -1 -1</clus>
<clus scale="   91.941">  1  5  2 -1</clus>
<clus scale="  149.240">  2 10  1 -1</clus>
<clus scale="   60.160">  2  5  1 -1</clus>
</clustering>
</event>
<event>
10    4  0.3403565E-005  0.3104580E+03  0.7546771E-02  0.1128079E+00
          2   -1    0    0  503    0 -0.00000000000E+00  0.00000000000E+00  0.25924237307E+04  0.25924237307E+04  0.00000000000E+00 0. -1.
         21   -1    0    0  501  502  0.00000000000E+00 -0.00000000000E+00 -0.32603668463E+03  0.32603668463E+03  0.00000000000E+00 0. -1.
         24    2    1    2    0    0  0.34932106347E+02 -0.18179369438E+02  0.13731346610E+03  0.16371891331E+03  0.79988455902E+02 0.  0.
         23    2    1    2    0    0  0.68205750423E+02  0.25817716160E+03  0.21518340896E+03  0.35477338318E+03  0.90844827949E+02 0.  0.
        -11    1    3    3    0    0  0.31528399022E+02  0.13954694423E+02  0.12411254579E+03  0.12881264481E+03  0.00000000000E+00 0.  1.
         12    1    3    3    0    0  0.34037073251E+01 -0.32134063861E+02  0.13200920313E+02  0.34906268504E+02  0.00000000000E+00 0. -1.
        -13    1    4    4    0    0  0.27299360011E+02  0.61061211612E+02  0.10712157398E+03  0.12628839310E+03  0.00000000000E+00 0.  1.
         13    1    4    4    0    0  0.40906390412E+02  0.19711594998E+03  0.10806183498E+03  0.22848499009E+03  0.00000000000E+00 0. -1.
         21    1    1    2  503  502  0.32575819282E+02  0.32178611335E+02 -0.23005036007E+03  0.23456303033E+03  0.00000000000E+00 0. -1.
          1    1    1    2  501    0 -0.13571367605E+03 -0.27217640349E+03  0.21439405311E+04  0.21654050885E+04  0.00000000000E+00 0. -1.
<scales pt_clust_5="13000.00000" pt_clust_6="13000.00000" pt_clust_7="13000.00000" pt_clust_8="13000.00000" pt_clust_9="45.78916" pt_clust_10="296.86946"></scales>
<clustering>
<clus scale="   45.789">  2  9  1 -1</clus>
<clus scale="   79.988">  5  6 -1 -1</clus>
<clus scale="   90.257">  1  5  2 -1</clus>
<clus scale="   90.845">  7  8 -1 -1</clus>
<clus scale="  296.869">  2 10  1 -1</clus>
<clus scale="   45.789">  2  5  1 -1</clus>
</clustering>
</event>
<event>
10    4  0.3403565E-005  0.1245120E+03  0.7546771E-02  0.1238305E+00
         21   -1    0    0  503  502  0.00000000000E+00  0.00000000000E+00  0.28361954220E+03  0.28361954220E+03  0.00000000000E+00 0.  1.
          4   -1    0    0  502    0 -0.00000000000E+00 -0.00000000000E+00 -0.18958725808E+03  0.18958725808E+03  0.00000000000E+00 0. -1.
         23    2    1    2    0    0 -0.70805135007E+02 -0.74263734975E+01 -0.39116417357E+02  0.12165237948E+03  0.90557656544E+02 0.  0.
         24    2    1    2    0    0  0.10249832302E+03  0.44164599886E+02 -0.22269401517E+01  0.13847374821E+03  0.81936570445E+02 0.  0.
        -13    1    4    4    0    0  0.42929692239E+02  0.19537367984E+02  0.39640095179E+02  0.61611722661E+02  0.00000000000E+00 0.  1.
         14    1    4    4    0    0  0.59568630784E+02  0.24627231902E+02 -0.41867035331E+02  0.76862025552E+02  0.00000000000E+00 0. -1.
        -11    1    3    3    0    0 -0.70038455256E+02 -0.29711638567E+02 -0.55338726355E+02  0.94077315627E+02  0.00000000000E+00 0.  1.
         11    1    3    3    0    0 -0.76667975069E+00  0.22285265069E+02  0.16222308998E+02  0.27575063849E+02  0.00000000000E+00 0. -1.
         21    1    1    2  503  501  0.46013597973E+00 -0.22328986216E+02  0.16533161456E+03  0.16683326444E+03  0.00000000000E+00 0.  1.
          3    1    1    2  501    0 -0.32153323996E+02 -0.14409240173E+02 -0.29955972931E+02  0.46247408150E+02  0.00000000000E+00 0. -1.
<scales pt_clust_5="13000.00000" pt_clust_6="13000.00000" pt_clust_7="13000.00000" pt_clust_8="13000.00000" pt_clust_9="22.33373" pt_clust_10="35.86648"></scales>
<clustering>
<clus scale="   22.334">  1  9  2 -1</clus>
<clus scale="   35.866">  1 10  2 -1</clus>
<clus scale="   81.937">  5  6 -1 -1</clus>
<clus scale="   90.558">  7  8 -1 -1</clus>
<clus scale="  118.390">  1  5  2 -1</clus>
<clus scale="   22.334">  1  5  2 -1</clus>
</clustering>
</event>
<event>
10    4  0.3403565E-005  0.1061110E+03  0.7546771E-02  0.1272683E+00
         21   -1    0    0  503  502  0.00000000000E+00  0.00000000000E+00  0.88721647785E+02  0.88721647785E+02  0.00000000000E+00 0. -1.
          2   -1    0    0  502    0 -0.00000000000E+00 -0.00000000000E+00 -0.64938014436E+03  0.64938014436E+03  0.00000000000E+00 0. -1.
         24    2    1    2    0    0  0.44632312501E+02  0.35385190633E+02 -0.41604238008E+03  0.42763719509E+03  0.80858849609E+02 0.  0.
         23    2    1    2    0    0 -0.75909411139E+02  0.66991071807E+02 -0.10482500351E+03  0.17222221895E+03  0.91772375673E+02 0.  0.
        -13    1    3    3    0    0  0.33364582861E+02 -0.17759633585E+02 -0.98918327420E+02  0.10589351007E+03  0.00000000000E+00 0.  1.
         14    1    3    3    0    0  0.11267729640E+02  0.53144824218E+02 -0.31712405266E+03  0.32174368502E+03  0.00000000000E+00 0. -1.
        -13    1    4    4    0    0 -0.85601325472E+02  0.40025082004E+02 -0.10786907748E+03  0.14340617835E+03  0.00000000000E+00 0.  1.
         13    1    4    4    0    0  0.96919143324E+01  0.26965989803E+02  0.30440739698E+01  0.28816040599E+02  0.00000000000E+00 0. -1.
         21    1    1    2  503  501 -0.14130345543E+02 -0.30048454623E+02  0.15356463891E+02  0.36584112312E+02  0.00000000000E+00 0. -1.
          1    1    1    2  501    0  0.45407444182E+02 -0.72327807816E+02 -0.55147576871E+02  0.10165826580E+03  0.00000000000E+00 0. -1.
<scales pt_clust_5="13000.00000" pt_clust_6="13000.00000" pt_clust_7="13000.00000" pt_clust_8="13000.00000" pt_clust_9="33.20506" pt_clust_10="92.62758"></scales>
<clustering>
<clus scale="   33.205">  1  9  2 -1</clus>
<clus scale="   80.859">  5  6 -1 -1</clus>
<clus scale="   91.772">  7  8 -1 -1</clus>
<clus scale="   92.628">  1 10  2 -1</clus>
<clus scale="   96.827">  2  5  1 -1</clus>
<clus scale="   33.205">  1  5  2 -1</clus>
</clustering>
</event>
<event>
10    4  0.3403565E-005  0.1435757E+03  0.7546771E-02  0.1211020E+00
         21   -1    0    0  503  502  0.00000000000E+00  0.00000000000E+00  0.16702900789E+03  0.16702900789E+03  0.00000000000E+00 0.  1.
         -1   -1    0    0    0  501 -0.00000000000E+00 -0.00000000000E+00 -0.27909044134E+03  0.27909044134E+03  0.00000000000E+00 0.  1.
         24    2    1    2    0    0  0.93024674551E+02 -0.33372531052E+02 -0.90994883535E+02  0.15552620520E+03  0.78364633419E+02 0.  0.
         23    2    1    2    0    0 -0.15958378414E+03  0.15762413514E+02  0.41723616682E+02  0.18874429300E+03  0.90377597399E+02 0.  0.
        -11    1    3    3    0    0  0.47645151119E+02 -0.54118414877E+02 -0.33821285063E+02  0.79641337114E+02  0.00000000000E+00 0.  1.
         12    1    3    3    0    0  0.45379523433E+02  0.20745883825E+02 -0.57173598471E+02  0.75884868088E+02  0.00000000000E+00 0. -1.
        -13    1    4    4    0    0 -0.30053868351E+02  0.22229616554E+02  0.45638744999E+02  0.58993947996E+02  0.00000000000E+00 0. -1.
         13    1    4    4    0    0 -0.12952991579E+03 -0.64672030405E+01 -0.39151283177E+01  0.12975034501E+03  0.00000000000E+00 0.  1.
         21    1    1    2  503  501  0.16962222828E+02  0.15757356378E+02 -0.18077720091E+01  0.23222388399E+02  0.00000000000E+00 0. -1.
         -2    1    1    2    0  502  0.49596886763E+02  0.18527611596E+01 -0.60982394589E+02  0.78626562625E+02  0.00000000000E+00 0.  1.
<scales pt_clust_5="13000.00000" pt_clust_6="13000.00000" pt_clust_7="13000.00000" pt_clust_8="13000.00000" pt_clust_9="23.15192" pt_clust_10="50.62849"></scales>
<clustering>
<clus scale="   23.152">  1  9  2 -1</clus>
<clus scale="   50.628">  1 10  2 -1</clus>
<clus scale="   78.365">  5  6 -1 -1</clus>
<clus scale="   90.378">  7  8 -1 -1</clus>
<clus scale="  136.334">  2  5  1 -1</clus>
<clus scale="   23.152">  1  5  2 -1</clus>
</clustering>
</event>
<event>
10    4  0.3403565E-005  0.1961220E+03  0.7546771E-02  0.1154162E+00
          2   -1    0    0  503    0 -0.00000000000E+00  0.00000000000E+00  0.13121967555E+04  0.13121967555E+04  0.00000000000E+00 0. -1.
         21   -1    0    0  501  502  0.00000000000E+00 -0.00000000000E+00 -0.43971029765E+03  0.43971029765E+03  0.00000000000E+00 0.  1.
         24    2    1    2    0    0 -0.34078228307E+02  0.16929726800E+03  0.12073951203E+04  0.12223456106E+04  0.80640714041E+02 0.  0.
         23    2    1    2    0    0  0.10661561542E+03 -0.16378006175E+03 -0.43788048510E+02  0.22038424510E+03  0.91983825850E+02 0.  0.
        -11    1    3    3    0    0 -0.53038892960E+02  0.94294893738E+02  0.56092624841E+03  0.57126430600E+03  0.00000000000E+00 0.  1.
         12    1    3    3    0    0  0.18960664653E+02  0.75002374261E+02  0.64646887187E+03  0.65108130463E+03  0.00000000000E+00 0. -1.
        -11    1    4    4    0    0  0.61433558155E+02 -0.19175299970E+02 -0.95061974855E+01  0.65054915166E+02  0.00000000000E+00 0.  1.
         11    1    4    4    0    0  0.45182057265E+02 -0.14460476178E+03 -0.34281851025E+02  0.15532932994E+03  0.00000000000E+00 0. -1.
         21    1    1    2  503  502 -0.77175284273E+01 -0.21502785928E+02 -0.21352438239E+02  0.31270699807E+02  0.00000000000E+00 0.  1.
          1    1    1    2  501    0 -0.64819858686E+02  0.15985579683E+02 -0.26976817565E+03  0.27790649764E+03  0.00000000000E+00 0. -1.
<scales pt_clust_5="13000.00000" pt_clust_6="13000.00000" pt_clust_7="13000.00000" pt_clust_8="13000.00000" pt_clust_9="22.84579" pt_clust_10="69.95368"></scales>
<clustering>
<clus scale="   22.846">  2  9  1 -1</clus>
<clus scale="   69.954">  2 10  1 -1</clus>
<clus scale="   80.641">  5  6 -1 -1</clus>
<clus scale="   91.984">  7  8 -1 -1</clus>
<clus scale="  191.065">  1  5  2 -1</clus>
<clus scale="   22.846">  2  5  1 -1</clus>
</clustering>
</event>
<event>
10    4  0.3403565E-005  0.3048527E+03  0.7546771E-02  0.1082840E+00
          2   -1    0    0  503    0 -0.00000000000E+00  0.00000000000E+00  0.94460961406E+03  0.94460961406E+03  0.00000000000E+00 0. -1.
         21   -1    0    0  501  502  0.00000000000E+00 -0.00000000000E+00 -0.86967720692E+02  0.86967720692E+02  0.00000000000E+00 0. -1.
         24    2    1    2    0    0 -0.12028557919E+02 -0.11478177969E+03  0.13553700080E+03  0.19496998037E+03  0.79520258468E+02 0.  0.
         23    2    1    2    0    0 -0.97210117367E+01 -0.10924276174E+03  0.29773198745E+03  0.32952961479E+03  0.88977253310E+02 0.  0.
        -11    1    3    3    0    0  0.15138158995E+02 -0.72861040364E+02  0.34012564767E+02  0.81821449650E+02  0.00000000000E+00 0.  1.
         12    1    3    3    0    0 -0.27166716914E+02 -0.41920739329E+02  0.10152443603E+03  0.11314853072E+03  0.00000000000E+00 0. -1.
        -13    1    4    4    0    0 -0.83925168802E+01 -0.18615011602E+02  0.23497518982E+01  0.20554180366E+02  0.00000000000E+00 0.  1.
         13    1    4    4    0    0 -0.13284948566E+01 -0.90627750139E+02  0.29538223556E+03  0.30897543442E+03  0.00000000000E+00 0. -1.
         21    1    1    2  503  502  0.88670746479E+01 -0.22525254731E+02  0.78372167690E+02  0.82025659290E+02  0.00000000000E+00 0.  1.
          1    1    1    2  501    0  0.12882495008E+02  0.24654979617E+03  0.34600073742E+03  0.42505208030E+03  0.00000000000E+00 0. -1.
<scales pt_clust_5="13000.00000" pt_clust_6="13000.00000" pt_clust_7="13000.00000" pt_clust_8="13000.00000" pt_clust_9="24.20769" pt_clust_10="237.10225"></scales>
<clustering>
<clus scale="   24.208">  1  9  2 -1</clus>
<clus scale="   79.520">  5  6 -1 -1</clus>
<clus scale="   88.977">  7  8 -1 -1</clus>
<clus scale="  126.546">  5  7 -1 -1</clus>
<clus scale="  237.102">  2 10  1 -1</clus>
<clus scale="  237.102">  2  5  1 -1</clus>
</clustering>
</event>
<event>
10    4  0.3403565E-005  0.1250032E+03  0.7546771E-02  0.1254146E+00
         21   -1    0    0  501  502  0.00000000000E+00  0.00000000000E+00  0.24218961818E+02  0.24218961818E+02  0.00000000000E+00 0. -1.
          2   -1    0    0  503    0 -0.00000000000E+00 -0.00000000000E+00 -0.18521502889E+04  0.18521502889E+04  0.00000000000E+00 0. -1.
         24    2    1    2    0    0  0.28503609168E+02  0.30019070489E+01 -0.56994873994E+03  0.57629575173E+03  0.80335298055E+02 0.  0.
         23    2    1    2    0    0  0.87776365527E+02 -0.38072994197E+02 -0.51556323966E+03  0.53162733159E+03  0.87566673874E+02 0.  0.
        -13    1    3    3    0    0  0.10617984565E+02  0.41124950268E+02 -0.24904431907E+03  0.25264021056E+03  0.00000000000E+00 0.  1.
         14    1    3    3    0    0  0.17885624603E+02 -0.38123043219E+02 -0.32090442087E+03  0.32365554116E+03  0.00000000000E+00 0. -1.
        -11    1    4    4    0    0  0.88551602259E+02  0.30088460867E+01 -0.34938928094E+03  0.36044876065E+03  0.00000000000E+00 0. -1.
         11    1    4    4    0    0 -0.77523673190E+00 -0.41081840284E+02 -0.16617395873E+03  0.17117857095E+03  0.00000000000E+00 0.  1.
         21    1    1    2  503  502 -0.16385733424E+02  0.45387468930E+02 -0.52703577326E+02  0.71457551446E+02  0.00000000000E+00 0. -1.
          1    1    1    2  501    0 -0.99894241271E+02 -0.10316381782E+02 -0.68971577017E+03  0.69698861597E+03  0.00000000000E+00 0. -1.
<scales pt_clust_5="13000.00000" pt_clust_6="13000.00000" pt_clust_7="13000.00000" pt_clust_8="13000.00000" pt_clust_9="48.25468" pt_clust_10="89.20695"></scales>
<clustering>
<clus scale="   48.255">  1  9  2 -1</clus>
<clus scale="   80.335">  5  6 -1 -1</clus>
<clus scale="   85.089">  2  5  1 -1</clus>
<clus scale="   87.567">  7  8 -1 -1</clus>
<clus scale="   89.207">  1 10  2 -1</clus>
<clus scale="   48.255">  1  5  2 -1</clus>
</clustering>
</event>
<event>
10    4  0.3403565E-005  0.6098622E+03  0.7546771E-02  0.9885154E-01
         -1   -1    0    0    0  501 -0.00000000000E+00  0.00000000000E+00  0.12763038537E+04  0.12763038537E+04  0.00000000000E+00 0.  1.
         21   -1    0    0  503  502  0.00000000000E+00 -0.00000000000E+00 -0.39790881725E+03  0.39790881725E+03  0.00000000000E+00 0.  1.
         24    2    1    2    0    0 -0.53856344483E+01 -0.56394615163E+02  0.72166897593E+02  0.12179844797E+03  0.80108945460E+02 0.  0.
         23    2    1    2    0    0  0.15732111111E+03 -0.45142536439E+03  0.16642257971E+03  0.51432249497E+03  0.91084368465E+02 0.  0.
        -11    1    3    3    0    0 -0.39749126761E+02 -0.48044010939E+02  0.40707622161E+02  0.74466976354E+02  0.00000000000E+00 0.  1.
         12    1    3    3    0    0  0.34363492313E+02 -0.83506042239E+01  0.31459275432E+02  0.47331471619E+02  0.00000000000E+00 0. -1.
        -13    1    4    4    0    0  0.18479721307E+01 -0.12499718148E+03  0.46843709533E+02  0.13349922659E+03  0.00000000000E+00 0. -1.
         13    1    4    4    0    0  0.15547313898E+03 -0.32642818291E+03  0.11957887018E+03  0.38082326837E+03  0.00000000000E+00 0.  1.
         21    1    1    2  503  501 -0.17484131866E+03 -0.67519241851E+02  0.14380821753E+02  0.18797644205E+03  0.00000000000E+00 0.  1.
         -2    1    1    2    0  502  0.22905841997E+02  0.57533922140E+03  0.62542473740E+03  0.85011528597E+03  0.00000000000E+00 0.  1.
<scales pt_clust_5="13000.00000" pt_clust_6="13000.00000" pt_clust_7="13000.00000" pt_clust_8="13000.00000" pt_clust_9="187.42554" pt_clust_10="552.42452"></scales>
<clustering>
<clus scale="   80.109">  5  6 -1 -1</clus>
<clus scale="   91.084">  7  8 -1 -1</clus>
<clus scale="   97.274">  5  7 -1 -1</clus>
<clus scale="  187.426">  2  9  1 -1</clus>
<clus scale="  552.425">  2 10  1 -1</clus>
<clus scale="  187.426">  2  5  1 -1</clus>
</clustering>
</event>
<event>
10    4  0.3403565E-005  0.1538462E+03  0.7546771E-02  0.1197987E+00
         21   -1    0    0  503  502  0.00000000000E+00  0.00000000000E+00  0.25933733248E+03  0.25933733248E+03  0.00000000000E+00 0.  1.
          2   -1    0    0  502    0 -0.00000000000E+00 -0.00000000000E+00 -0.27206706253E+03  0.27206706253E+03  0.00000000000E+00 0. -1.
         24    2    1    2    0    0 -0.69186716344E+02  0.11730354690E+03 -0.20200046940E+03  0.25631724013E+03  0.79670660329E+02 0.  0.
         23    2    1    2    0    0  0.11783955060E+02 -0.69121199597E+02  0.92222244897E+02  0.14799236027E+03  0.92087971055E+02 0.  0.
        -13    1    3    3    0    0 -0.70207793730E+02  0.40674466415E+02 -0.10291993141E+03  0.13105746373E+03  0.00000000000E+00 0.  1.
         14    1    3    3    0    0  0.10210773863E+01  0.76629080489E+02 -0.99080537988E+02  0.12525977640E+03  0.00000000000E+00 0. -1.
        -11    1    4    4    0    0  0.22533730398E+02 -0.89419853052E+02  0.79388622937E+02  0.12168086364E+03  0.00000000000E+00 0.  1.
         11    1    4    4    0    0 -0.10749775338E+02  0.20298653455E+02  0.12833621961E+02  0.26311496623E+02  0.00000000000E+00 0. -1.
         21    1    1    2  503  501  0.16601925337E+02 -0.17267039068E+02  0.57872221332E+02  0.62633605716E+02  0.00000000000E+00 0. -1.
          1    1    1    2  501    0  0.40800835947E+02 -0.30915308239E+02  0.39176273127E+02  0.64461188893E+02  0.00000000000E+00 0. -1.
<scales pt_clust_5="13000.00000" pt_clust_6="13000.00000" pt_clust_7="13000.00000" pt_clust_8="13000.00000" pt_clust_9="22.87302" pt_clust_10="82.06508"></scales>
<clustering>
<clus scale="   22.873">  9 10 -1 -1</clus>
<clus scale="   79.671">  5  6 -1 -1</clus>
<clus scale="   82.065">  1  9  2 -1</clus>
<clus scale="   92.088">  7  8 -1 -1</clus>
<clus scale="  146.751">  2  5  1 -1</clus>
<clus scale="   82.065">  1  5  2 -1</clus>
</clustering>
</event>
<event>
10    4  0.3403565E-005  0.1870659E+03  0.7546771E-02  0.1162646E+00
         21   -1    0    0  503  502  0.00000000000E+00  0.00000000000E+00  0.68204730220E+02  0.68204730220E+02  0.00000000000E+00 0. -1.
          2   -1    0    0  502    0 -0.00000000000E+00 -0.00000000000E+00 -0.97480927426E+03  0.97480927426E+03  0.00000000000E+00 0. -1.
         23    2    1    2    0    0  0.84843006937E+02  0.14655311150E+03 -0.32927271945E+03  0.38121273028E+03  0.90699898763E+02 0.  0.
         24    2    1    2    0    0 -0.53828837066E+02 -0.14763602588E+03 -0.17755630165E+03  0.24915201349E+03  0.76528071532E+02 0.  0.
        -13    1    4    4    0    0 -0.62089918034E+02 -0.59428773880E+02 -0.80824081989E+02  0.11798080062E+03  0.00000000000E+00 0.  1.
         14    1    4    4    0    0  0.82610809681E+01 -0.88207251998E+02 -0.96732219660E+02  0.13117121286E+03  0.00000000000E+00 0. -1.
        -13    1    3    3    0    0  0.51497202889E+02  0.29757662863E+02 -0.53999402391E+02  0.80333155441E+02  0.00000000000E+00 0.  1.
         13    1    3    3    0    0  0.33345804049E+02  0.11679544864E+03 -0.27527331706E+03  0.30087957484E+03  0.00000000000E+00 0. -1.
         21    1    1    2  503  501  0.10109699046E+02  0.23753899139E+02 -0.28652311068E+02  0.38566937506E+02  0.00000000000E+00 0. -1.
          1    1    1    2  501    0 -0.41123868918E+02 -0.22670984762E+02 -0.37112321187E+03  0.37408232321E+03  0.00000000000E+00 0. -1.
<scales pt_clust_5="13000.00000" pt_clust_6="13000.00000" pt_clust_7="13000.00000" pt_clust_8="13000.00000" pt_clust_9="25.81577" pt_clust_10="46.48512"></scales>
<clustering>
<clus scale="   25.816">  1  9  2 -1</clus>
<clus scale="   46.485">  1 10  2 -1</clus>
<clus scale="   76.528">  5  6 -1 -1</clus>
<clus scale="   90.700">  7  8 -1 -1</clus>
<clus scale="  180.620">  1  5  2 -1</clus>
<clus scale="   25.816">  1  5  2 -1</clus>
</clustering>
</event>
<event>
10    4  0.3403565E-005  0.3900787E+03  0.7546771E-02  0.1047270E+00
          2   -1    0    0  503    0 -0.00000000000E+00  0.00000000000E+00  0.53431560674E+03  0.53431560674E+03  0.00000000000E+00 0. -1.
         21   -1    0    0  501  502  0.00000000000E+00 -0.00000000000E+00 -0.65812484561E+03  0.65812484561E+03  0.00000000000E+00 0. -1.
         24    2    1    2    0    0  0.94872418134E+02  0.33162244731E+02 -0.44819543488E+02  0.13621023075E+03  0.80274063585E+02 0.  0.
         23    2    1    2    0    0  0.19749612832E+03 -0.25166437520E+02 -0.18918027604E+02  0.21948498708E+03  0.90430622611E+02 0.  0.
        -13    1    3    3    0    0  0.23486936169E+02 -0.16018545546E+02  0.13761856406E+02  0.31585101927E+02  0.00000000000E+00 0.  1.
         14    1    3    3    0    0  0.71385481965E+02  0.49180790278E+02 -0.58581399894E+02  0.10462512882E+03  0.00000000000E+00 0. -1.
        -13    1    4    4    0    0  0.13925119584E+03 -0.29708690069E+02 -0.52905279755E+02  0.15189624891E+03  0.00000000000E+00 0. -1.
         13    1    4    4    0    0  0.58244932476E+02  0.45422525492E+01  0.33987252151E+02  0.67588738161E+02  0.00000000000E+00 0.  1.
         21    1    1    2  503  502 -0.38134648011E+03  0.27374363801E+03 -0.19947931504E+03  0.51005167814E+03  0.00000000000E+00 0. -1.
          1    1    1    2  501    0  0.88977933656E+02 -0.28173944522E+03  0.13940764726E+03  0.32669355639E+03  0.00000000000E+00 0. -1.
<scales pt_clust_5="13000.00000" pt_clust_6="13000.00000" pt_clust_7="13000.00000" pt_clust_8="13000.00000" pt_clust_9="339.48212" pt_clust_10="295.45605"></scales>
<clustering>
<clus scale="   80.274">  5  6 -1 -1</clus>
<clus scale="   90.431">  7  8 -1 -1</clus>
<clus scale="  106.582">  5  7 -1 -1</clus>
<clus scale="  295.456">  2 10  1 -1</clus>
<clus scale="  339.482">  2  9  1 -1</clus>
<clus scale="  295.456">  2  5  1 -1</clus>
</clustering>
</event>
<event>
10    4  0.3403565E-005  0.1319016E+03  0.7546771E-02  0.1243304E+00
         21   -1    0    0  501  502  0.00000000000E+00  0.00000000000E+00  0.20343651514E+03  0.20343651514E+03  0.00000000000E+00 0.  1.
          2   -1    0    0  503    0 -0.00000000000E+00 -0.00000000000E+00 -0.38216566921E+03  0.38216566921E+03  0.00000000000E+00 0. -1.
         23    2    1    2    0    0 -0.46454167136E+01 -0.13625296038E+02 -0.28384937785E+03  0.29780776203E+03  0.88948104165E+02 0.  0.
         24    2    1    2    0    0  0.90553013772E+02 -0.25036128058E+01  0.31191806280E+02  0.12886297442E+03  0.86177845276E+02 0.  0.
        -11    1    4    4    0    0  0.96221480268E+02 -0.34711628181E+01 -0.87157315744E+00  0.96288015225E+02  0.00000000000E+00 0.  1.
         12    1    4    4    0    0 -0.56684664958E+01  0.96755001230E+00  0.32063379437E+02  0.32574959192E+02  0.00000000000E+00 0. -1.
        -11    1    3    3    0    0 -0.31455629987E+01 -0.45511869865E+02 -0.23545230070E+03  0.23983121308E+03  0.00000000000E+00 0. -1.
         11    1    3    3    0    0 -0.14998537149E+01  0.31886573826E+02 -0.48397077149E+02  0.57976548950E+02  0.00000000000E+00 0.  1.
         21    1    1    2  503  502  0.25764448004E+02  0.13205855465E+02  0.16516637187E+02  0.33331677177E+02  0.00000000000E+00 0. -1.
          1    1    1    2  501    0 -0.11167204506E+03  0.29230533790E+01  0.57411780306E+02  0.12559977073E+03  0.00000000000E+00 0. -1.
<scales pt_clust_5="13000.00000" pt_clust_6="13000.00000" pt_clust_7="13000.00000" pt_clust_8="13000.00000" pt_clust_9="28.95171" pt_clust_10="99.85702"></scales>
<clustering>
<clus scale="   28.952">  1  9  2 -1</clus>
<clus scale="   86.178">  5  6 -1 -1</clus>
<clus scale="   88.948">  7  8 -1 -1</clus>
<clus scale="   89.982">  2  7  1 -1</clus>
<clus scale="   99.857">  1 10  2 -1</clus>
<clus scale="   28.952">  1  5  2 -1</clus>
</clustering>
</event>
<event>
10    4  0.3403565E-005  0.1215678E+03  0.7546771E-02  0.1247991E+00
         21   -1    0    0  503  502  0.00000000000E+00  0.00000000000E+00  0.17957340899E+03  0.17957340899E+03  0.00000000000E+00 0.  1.
          4   -1    0    0  502    0 -0.00000000000E+00 -0.00000000000E+00 -0.28234243348E+03  0.28234243348E+03  0.00000000000E+00 0. -1.
         24    2    1    2    0    0  0.52193598150E+02 -0.18880107895E+02  0.14921643363E+02  0.10117804606E+03  0.83268910176E+02 0.  0.
         23    2    1    2    0    0  0.20452511468E+02 -0.62248941316E+02 -0.42543957050E+02  0.12077176895E+03  0.92101009629E+02 0.  0.
        -13    1    3    3    0    0  0.43998267627E+02 -0.50748349266E+02  0.10200122813E+02  0.67935888989E+02  0.00000000000E+00 0.  1.
         14    1    3    3    0    0  0.81953305232E+01  0.31868241371E+02  0.47215205499E+01  0.33242157071E+02  0.00000000000E+00 0. -1.
        -13    1    4    4    0    0  0.43044386775E+02 -0.92195321117E-01 -0.17765523995E+01  0.43081131267E+02  0.00000000000E+00 0.  1.
         13    1    4    4    0    0 -0.22591875306E+02 -0.62156745995E+02 -0.40767404650E+02  0.77690637688E+02  0.00000000000E+00 0. -1.
         21    1    1    2  503  501  0.20017867562E+02  0.12541559264E+02  0.58723515216E+02  0.63296579448E+02  0.00000000000E+00 0.  1.
          3    1    1    2  501    0 -0.92663977180E+02  0.68587489946E+02 -0.13387022602E+03  0.17666944800E+03  0.00000000000E+00 0. -1.
<scales pt_clust_5="13000.00000" pt_clust_6="13000.00000" pt_clust_7="13000.00000" pt_clust_8="13000.00000" pt_clust_9="23.62214" pt_clust_10="79.34818"></scales>
<clustering>
<clus scale="   23.622">  1  9  2 -1</clus>
<clus scale="   83.269">  5  6 -1 -1</clus>
<clus scale="   92.101">  7  8 -1 -1</clus>
<clus scale="  104.591">  2  5  1 -1</clus>
<clus scale="   79.348">  1 10  2 -1</clus>
<clus scale="   23.622">  1  5  2 -1</clus>
</clustering>
</event>
<event>
10    4  0.3403565E-005  0.8566087E+02  0.7546771E-02  0.1321576E+00
          2   -1    0    0  503    0 -0.00000000000E+00  0.00000000000E+00  0.33503716124E+03  0.33503716124E+03  0.00000000000E+00 0. -1.
         21   -1    0    0  501  502  0.00000000000E+00 -0.00000000000E+00 -0.13909687065E+03  0.13909687065E+03  0.00000000000E+00 0. -1.
         24    2    1    2    0    0  0.28943230801E+02  0.24101682087E+02  0.13766756414E+03  0.16452288827E+03  0.81834105725E+02 0.  0.
         23    2    1    2    0    0 -0.17863046359E+02  0.26316532158E+02  0.43757440548E+02  0.88431584442E+02  0.69955580433E+02 0.  0.
        -11    1    3    3    0    0 -0.22389920061E+02 -0.11165797831E+02  0.22763664860E+02  0.33825552463E+02  0.00000000000E+00 0.  1.
         12    1    3    3    0    0  0.51333150862E+02  0.35267479919E+02  0.11490389928E+03  0.13069733581E+03  0.00000000000E+00 0. -1.
        -13    1    4    4    0    0 -0.19526733982E+02  0.49201760868E+02  0.23874039872E+02  0.58069582334E+02  0.00000000000E+00 0. -1.
         13    1    4    4    0    0  0.16636876230E+01 -0.22885228711E+02  0.19883400675E+02  0.30362002109E+02  0.00000000000E+00 0.  1.
         21    1    1    2  503  502  0.32998722499E+02 -0.88547864236E+02 -0.70645386829E+02  0.11798478981E+03  0.00000000000E+00 0. -1.
          1    1    1    2  501    0 -0.44078906940E+02  0.38129649991E+02  0.85160672728E+02  0.10319476937E+03  0.00000000000E+00 0. -1.
<scales pt_clust_5="13000.00000" pt_clust_6="13000.00000" pt_clust_7="13000.00000" pt_clust_8="13000.00000" pt_clust_9="60.91062" pt_clust_10="58.28228"></scales>
<clustering>
<clus scale="   58.282">  2 10  1 -1</clus>
<clus scale="   60.911">  2  9  1 -1</clus>
<clus scale="   69.956">  7  8 -1 -1</clus>
<clus scale="   74.396">  2  7  1 -1</clus>
<clus scale="   81.834">  5  6 -1 -1</clus>
<clus scale="   58.282">  2  5  1 -1</clus>
</clustering>
</event>
<event>
10    4  0.3403565E-005  0.2117993E+03  0.7546771E-02  0.1166359E+00
         21   -1    0    0  503  502  0.00000000000E+00  0.00000000000E+00  0.10120233211E+03  0.10120233211E+03  0.00000000000E+00 0. -1.
          2   -1    0    0  502    0 -0.00000000000E+00 -0.00000000000E+00 -0.13525599618E+04  0.13525599618E+04  0.00000000000E+00 0. -1.
         24    2    1    2    0    0 -0.32292211439E+02  0.77792425259E+02 -0.29301104460E+03  0.31448583967E+03  0.77145464849E+02 0.  0.
         23    2    1    2    0    0  0.13931336168E+03  0.86317183517E+02 -0.90300661005E+03  0.92252333322E+03  0.93645574516E+02 0.  0.
        -13    1    3    3    0    0  0.21501738053E+02  0.43383216345E+02 -0.98434206337E+02  0.10969831893E+03  0.00000000000E+00 0.  1.
         14    1    3    3    0    0 -0.53793949491E+02  0.34409208914E+02 -0.19457683826E+03  0.20478752073E+03  0.00000000000E+00 0. -1.
        -11    1    4    4    0    0  0.10314195012E+03  0.10325052819E+03 -0.76755327783E+03  0.78130465745E+03  0.00000000000E+00 0. -1.
         11    1    4    4    0    0  0.36171411560E+02 -0.16933344677E+02 -0.13545333222E+03  0.14121867577E+03  0.00000000000E+00 0.  1.
         21    1    1    2  503  501 -0.52259281939E+02 -0.56863900913E+02  0.12965668368E+02  0.78311201830E+02  0.00000000000E+00 0.  1.
          1    1    1    2  501    0 -0.54761868306E+02 -0.10724570786E+03 -0.68305643449E+02  0.13844191924E+03  0.00000000000E+00 0. -1.
<scales pt_clust_5="13000.00000" pt_clust_6="13000.00000" pt_clust_7="13000.00000" pt_clust_8="13000.00000" pt_clust_9="59.57507" pt_clust_10="204.01799"></scales>
<clustering>
<clus scale="   59.575">  9 10 -1 -1</clus>
<clus scale="   77.145">  5  6 -1 -1</clus>
<clus scale="   93.646">  7  8 -1 -1</clus>
<clus scale="  114.219">  2  5  1 -1</clus>
<clus scale="  204.018">  1  9  2 -1</clus>
<clus scale="  204.018">  1  5  2 -1</clus>
</clustering>
</event>
<event>
10    4  0.3403565E-005  0.1626992E+03  0.7546771E-02  0.1189561E+00
         21   -1    0    0  501  502  0.00000000000E+00  0.00000000000E+00  0.63519447773E+02  0.63519447773E+02  0.00000000000E+00 0. -1.
          2   -1    0    0  503    0 -0.00000000000E+00 -0.00000000000E+00 -0.23248819012E+04  0.23248819012E+04  0.00000000000E+00 0. -1.
         23    2    1    2    0    0 -0.10553548232E+03 -0.81004115767E+02 -0.17877479841E+03  0.24090453114E+03  0.91515899037E+02 0.  0.
         24    2    1    2    0    0  0.96644206677E+02 -0.91034516328E+02 -0.26834796148E+03  0.30983181754E+03  0.79735443080E+02 0.  0.
        -11    1    4    4    0    0  0.21180560562E+02 -0.35040091640E+02 -0.16563010859E+03  0.17061581708E+03  0.00000000000E+00 0.  1.
         12    1    4    4    0    0  0.75463646116E+02 -0.55994424688E+02 -0.10271785290E+03  0.13921600046E+03  0.00000000000E+00 0. -1.
        -11    1    3    3    0    0  0.43948965202E+01 -0.39991104167E+02 -0.70898222951E+02  0.81517860285E+02  0.00000000000E+00 0.  1.
         11    1    3    3    0    0 -0.10993037884E+03 -0.41013011599E+02 -0.10787657546E+03  0.15938667086E+03  0.00000000000E+00 0. -1.
         21    1    1    2  503  502  0.11090100680E+03  0.30599101999E+02 -0.85461530240E+03  0.86232398404E+03  0.00000000000E+00 0. -1.
          1    1    1    2  501    0 -0.10200973116E+03  0.14143953010E+03 -0.95962439118E+03  0.97534101630E+03  0.00000000000E+00 0. -1.
<scales pt_clust_5="13000.00000" pt_clust_6="13000.00000" pt_clust_7="13000.00000" pt_clust_8="13000.00000" pt_clust_9="115.04494" pt_clust_10="141.82145"></scales>
<clustering>
<clus scale="   79.735">  5  6 -1 -1</clus>
<clus scale="   91.516">  7  8 -1 -1</clus>
<clus scale="  115.045">  2  9  1 -1</clus>
<clus scale="  149.287">  2  7  1 -1</clus>
<clus scale="  141.821">  1 10  2 -1</clus>
<clus scale="  141.821">  1  5  2 -1</clus>
</clustering>
</event>
<event>
10    4  0.3403565E-005  0.1258790E+03  0.7546771E-02  0.1236958E+00
          4   -1    0    0  502    0 -0.00000000000E+00  0.00000000000E+00  0.12453493197E+03  0.12453493197E+03  0.00000000000E+00 0. -1.
         21   -1    0    0  503  502  0.00000000000E+00 -0.00000000000E+00 -0.42143141454E+03  0.42143141454E+03  0.00000000000E+00 0.  1.
         24    2    1    2    0    0 -0.73409607458E+02  0.73621192897E+02  0.26525478415E+02  0.13457853888E+03  0.81232577272E+02 0.  0.
         23    2    1    2    0    0  0.80493938644E+00  0.48219080940E+01 -0.24600227592E+03  0.26290087468E+03  0.92605893028E+02 0.  0.
        -13    1    3    3    0    0 -0.74865873702E+02  0.86160549769E+02  0.34983476887E+02  0.11938334489E+03  0.00000000000E+00 0.  1.
         14    1    3    3    0    0  0.14562662443E+01 -0.12539356873E+02 -0.84579984723E+01  0.15195193987E+02  0.00000000000E+00 0. -1.
        -13    1    4    4    0    0  0.11959939706E+02  0.34774933032E+02 -0.21585028608E+03  0.21896045790E+03  0.00000000000E+00 0.  1.
         13    1    4    4    0    0 -0.11155000320E+02 -0.29953024938E+02 -0.30151989848E+02  0.43940416781E+02  0.00000000000E+00 0. -1.
         21    1    1    2  503  501  0.13366426954E+02 -0.21069369952E+02 -0.58897550093E+02  0.63964842896E+02  0.00000000000E+00 0. -1.
          3    1    1    2  501    0  0.59238241117E+02 -0.57373731038E+02 -0.18522134966E+02  0.84522090057E+02  0.00000000000E+00 0. -1.
<scales pt_clust_5="13000.00000" pt_clust_6="13000.00000" pt_clust_7="13000.00000" pt_clust_8="13000.00000" pt_clust_9="24.95155" pt_clust_10="85.94371"></scales>
<clustering>
<clus scale="   24.952">  2  9  1 -1</clus>
<clus scale="   81.233">  5  6 -1 -1</clus>
<clus scale="   85.944">  2 10  1 -1</clus>
<clus scale="   92.606">  7  8 -1 -1</clus>
<clus scale="  117.764">  1  5  2 -1</clus>
<clus scale="   24.952">  2  5  1 -1</clus>
</clustering>
</event>
<event>
10    4  0.3403565E-005  0.2114571E+03  0.7546771E-02  0.1150124E+00
          2   -1    0    0  502    0 -0.00000000000E+00  0.00000000000E+00  0.11819438436E+04  0.11819438436E+04  0.00000000000E+00 0. -1.
         21   -1    0    0  503  502  0.00000000000E+00 -0.00000000000E+00 -0.12348054259E+03  0.12348054259E+03  0.00000000000E+00 0. -1.
         24    2    1    2    0    0  0.12215969725E+03 -0.22031706043E+01  0.42238546926E+03  0.45270067788E+03  0.10770595864E+03 0.  0.
         23    2    1    2    0    0 -0.97975446489E+02 -0.21313988792E+03  0.41816180702E+03  0.48774396948E+03  0.89482305392E+02 0.  0.
        -11    1    3    3    0    0  0.39998988607E+02  0.16832071345E+02  0.33628761540E+02  0.54901104889E+02  0.00000000000E+00 0.  1.
         12    1    3    3    0    0  0.82160708639E+02 -0.19035241950E+02  0.38875670772E+03  0.39779957299E+03  0.00000000000E+00 0. -1.
        -13    1    4    4    0    0 -0.13391884037E+02 -0.23833513838E+02  0.85506899446E+01  0.28644253149E+02  0.00000000000E+00 0. -1.
         13    1    4    4    0    0 -0.84583562452E+02 -0.18930637408E+03  0.40961111708E+03  0.45909971633E+03  0.00000000000E+00 0.  1.
         21    1    1    2  503  501  0.32790063347E+02  0.43091805371E+02 -0.26741221730E+02  0.60391927308E+02  0.00000000000E+00 0. -1.
          1    1    1    2  501    0 -0.56974314103E+02  0.17225125315E+03  0.24465724647E+03  0.30458781153E+03  0.00000000000E+00 0. -1.
<scales pt_clust_5="13000.00000" pt_clust_6="13000.00000" pt_clust_7="13000.00000" pt_clust_8="13000.00000" pt_clust_9="54.14879" pt_clust_10="191.59081"></scales>
<clustering>
<clus scale="   54.149">  2  9  1 -1</clus>
<clus scale="   89.482">  7  8 -1 -1</clus>
<clus scale="  107.706">  5  6 -1 -1</clus>
<clus scale="  167.682">  1  5  2 -1</clus>
<clus scale="  191.591">  2 10  1 -1</clus>
<clus scale="   54.149">  2  5  1 -1</clus>
</clustering>
</event>
<event>
10    4  0.3403565E-005  0.1385093E+03  0.7546771E-02  0.1236772E+00
         -1   -1    0    0    0  501 -0.00000000000E+00  0.00000000000E+00  0.15078752678E+03  0.15078752678E+03  0.00000000000E+00 0.  1.
         21   -1    0    0  503  502  0.00000000000E+00 -0.00000000000E+00 -0.84211625039E+03  0.84211625039E+03  0.00000000000E+00 0.  1.
         24    2    1    2    0    0  0.30633137464E+02  0.17024662130E+02 -0.52611609111E+02  0.10391899229E+03  0.82479981294E+02 0.  0.
         23    2    1    2    0    0  0.71408934564E+02 -0.56807722366E+02  0.81066498104E+02  0.15127795408E+03  0.89369396430E+02 0.  0.
        -11    1    3    3    0    0  0.26900959027E+02 -0.23795963300E+02 -0.51658922233E+02  0.62917038330E+02  0.00000000000E+00 0.  1.
         12    1    3    3    0    0  0.37321784371E+01  0.40820625430E+02 -0.95268687734E+00  0.41001953962E+02  0.00000000000E+00 0. -1.
        -13    1    4    4    0    0  0.13398672793E+02  0.22424832628E+02  0.39530506397E+01  0.26420146865E+02  0.00000000000E+00 0. -1.
         13    1    4    4    0    0  0.58010261771E+02 -0.79232554994E+02  0.77113447464E+02  0.12485780721E+03  0.00000000000E+00 0.  1.
         21    1    1    2  503  501 -0.80261840286E+02  0.50615258262E+02 -0.69986127228E+03  0.70626458768E+03  0.00000000000E+00 0.  1.
         -2    1    1    2    0  502 -0.21780231742E+02 -0.10832198026E+02 -0.19922340320E+02  0.31442243124E+02  0.00000000000E+00 0.  1.
<scales pt_clust_5="13000.00000" pt_clust_6="13000.00000" pt_clust_7="13000.00000" pt_clust_8="13000.00000" pt_clust_9="105.82029" pt_clust_10="24.32521"></scales>
<clustering>
<clus scale="   24.325">  2 10  1 -1</clus>
<clus scale="   82.480">  5  6 -1 -1</clus>
<clus scale="   88.732">  1  5  2 -1</clus>
<clus scale="   89.369">  7  8 -1 -1</clus>
<clus scale="  105.820">  2  9  1 -1</clus>
<clus scale="   24.325">  2  5  1 -1</clus>
</clustering>
</event>
<event>
10    4  0.3403565E-005  0.9903134E+02  0.7546771E-02  0.1287837E+00
         -3   -1    0    0    0  501 -0.00000000000E+00  0.00000000000E+00  0.13419437423E+03  0.13419437423E+03  0.00000000000E+00 0.  1.
         21   -1    0    0  503  502  0.00000000000E+00 -0.00000000000E+00 -0.29882133607E+03  0.29882133607E+03  0.00000000000E+00 0.  1.
         24    2    1    2    0    0 -0.41704167129E+02 -0.17248091889E+02  0.71499696316E+02  0.11717725055E+03  0.81126858946E+02 0.  0.
         23    2    1    2    0    0 -0.35786644372E+01 -0.16133112600E+02 -0.11879286584E+03  0.15100512002E+03  0.91748117893E+02 0.  0.
        -11    1    3    3    0    0 -0.11795340678E+02 -0.33573620025E+02 -0.25370768040E+01  0.35675688950E+02  0.00000000000E+00 0.  1.
         12    1    3    3    0    0 -0.29908826451E+02  0.16325528136E+02  0.74036773120E+02  0.81501561596E+02  0.00000000000E+00 0. -1.
        -11    1    4    4    0    0 -0.27002642185E+02  0.19919369958E+02 -0.97330253885E+02  0.10295194173E+03  0.00000000000E+00 0.  1.
         11    1    4    4    0    0  0.23423977748E+02 -0.36052482559E+02 -0.21462611959E+02  0.48053178295E+02  0.00000000000E+00 0. -1.
         21    1    1    2  503  501 -0.17336804674E+02  0.44808386065E+02 -0.29568659988E+02  0.56415085851E+02  0.00000000000E+00 0.  1.
         -4    1    1    2    0  502  0.62619636240E+02 -0.11427181575E+02 -0.87765132321E+02  0.10841825387E+03  0.00000000000E+00 0.  1.
<scales pt_clust_5="13000.00000" pt_clust_6="13000.00000" pt_clust_7="13000.00000" pt_clust_8="13000.00000" pt_clust_9="48.04536" pt_clust_10="56.26719"></scales>
<clustering>
<clus scale="   48.045">  2  9  1 -1</clus>
<clus scale="   56.267">  2 10  1 -1</clus>
<clus scale="   81.127">  5  6 -1 -1</clus>
<clus scale="   89.281">  1  5  2 -1</clus>
<clus scale="   91.748">  7  8 -1 -1</clus>
<clus scale="   48.045">  2  5  1 -1</clus>
</clustering>
</event>
<event>
10    4  0.3403565E-005  0.1499179E+03  0.7546771E-02  0.1208544E+00
          2   -1    0    0  503    0 -0.00000000000E+00  0.00000000000E+00  0.82148620381E+03  0.82148620381E+03  0.00000000000E+00 0. -1.
         21   -1    0    0  501  502  0.00000000000E+00 -0.00000000000E+00 -0.21901037705E+03  0.21901037705E+03  0.00000000000E+00 0. -1.
         24    2    1    2    0    0 -0.39656878705E+02 -0.95517054818E+02  0.65697997692E+03  0.66937840238E+03  0.75819388795E+02 0.  0.
         23    2    1    2    0    0  0.72704112416E-01  0.86757087185E+02  0.46745040175E+02  0.14830807072E+03  0.11083044526E+03 0.  0.
        -11    1    3    3    0    0  0.54631212103E+01 -0.75682367455E+02  0.32375669072E+03  0.33252978998E+03  0.00000000000E+00 0.  1.
         12    1    3    3    0    0 -0.45119999915E+02 -0.19834687363E+02  0.33322328620E+03  0.33684861240E+03  0.00000000000E+00 0. -1.
        -11    1    4    4    0    0 -0.47675530684E+02  0.91748054332E+01  0.75422941781E+01  0.49132672248E+02  0.00000000000E+00 0.  1.
         11    1    4    4    0    0  0.47748234796E+02  0.77582281752E+02  0.39202745997E+02  0.99175398470E+02  0.00000000000E+00 0. -1.
         21    1    1    2  503  502  0.58105364605E+02 -0.28860483129E+02 -0.14704212084E+03  0.16071884203E+03  0.00000000000E+00 0. -1.
          1    1    1    2  501    0 -0.18521190013E+02  0.37620450762E+02  0.45792930509E+02  0.62091265728E+02  0.00000000000E+00 0. -1.
<scales pt_clust_5="13000.00000" pt_clust_6="13000.00000" pt_clust_7="13000.00000" pt_clust_8="13000.00000" pt_clust_9="44.61130" pt_clust_10="41.93250"></scales>
<clustering>
<clus scale="   41.932">  2 10  1 -1</clus>
<clus scale="   44.611">  2  9  1 -1</clus>
<clus scale="   75.819">  5  6 -1 -1</clus>
<clus scale="  110.830">  7  8 -1 -1</clus>
<clus scale="  126.256">  1  5  2 -1</clus>
<clus scale="   41.932">  2  5  1 -1</clus>
</clustering>
</event>
<event>
10    4  0.3403565E-005  0.1707158E+03  0.7546771E-02  0.1190826E+00
          2   -1    0    0  502    0 -0.00000000000E+00  0.00000000000E+00  0.38823782893E+03  0.38823782893E+03  0.00000000000E+00 0. -1.
         21   -1    0    0  503  502  0.00000000000E+00 -0.00000000000E+00 -0.22602781717E+03  0.22602781717E+03  0.00000000000E+00 0. -1.
         23    2    1    2    0    0  0.58794622482E+02 -0.34933516537E+02  0.21623202229E+02  0.12246805877E+03  0.99265826615E+02 0.  0.
         24    2    1    2    0    0 -0.12039137936E+03  0.16217496383E+03  0.17906826785E+03  0.28215198957E+03  0.82155325763E+02 0.  0.
        -11    1    4    4    0    0 -0.11139103585E+02  0.18342307344E+02 -0.72540960411E+01  0.22652632888E+02  0.00000000000E+00 0.  1.
         12    1    4    4    0    0 -0.10925227578E+03  0.14383265649E+03  0.18632236389E+03  0.25949935668E+03  0.00000000000E+00 0. -1.
        -13    1    3    3    0    0  0.23077572162E+02  0.47061569227E+01  0.54793270046E+02  0.59640797213E+02  0.00000000000E+00 0.  1.
         13    1    3    3    0    0  0.35717050321E+02 -0.39639673459E+02 -0.33170067818E+02  0.62827261556E+02  0.00000000000E+00 0. -1.
         21    1    1    2  503  501  0.29006724388E+02 -0.18570118035E+01 -0.70448614051E+02  0.76209223682E+02  0.00000000000E+00 0. -1.
          1    1    1    2  501    0  0.32590032490E+02 -0.12538443549E+03  0.31967155740E+02  0.13343637408E+03  0.00000000000E+00 0. -1.
<scales pt_clust_5="13000.00000" pt_clust_6="13000.00000" pt_clust_7="13000.00000" pt_clust_8="13000.00000" pt_clust_9="29.06611" pt_clust_10="149.64754"></scales>
<clustering>
<clus scale="   29.066">  2  9  1 -1</clus>
<clus scale="   82.155">  5  6 -1 -1</clus>
<clus scale="   99.266">  7  8 -1 -1</clus>
<clus scale="  125.667">  1  7  2 -1</clus>
<clus scale="  149.648">  2 10  1 -1</clus>
<clus scale="   29.066">  2  5  1 -1</clus>
</clustering>
</event>
<event>
10    4  0.3403565E-005  0.1125633E+03  0.7546771E-02  0.1260994E+00
          4   -1    0    0  503    0 -0.00000000000E+00  0.00000000000E+00  0.65511013619E+02  0.65511013619E+02  0.00000000000E+00 0. -1.
         21   -1    0    0  501  502  0.00000000000E+00 -0.00000000000E+00 -0.51080760859E+03  0.51080760859E+03  0.00000000000E+00 0. -1.
         24    2    1    2    0    0 -0.61939204637E+02  0.23149860269E+02 -0.57518240627E+02  0.11838637774E+03  0.79590233875E+02 0.  0.
         23    2    1    2    0    0  0.14443367429E+02 -0.86424750346E+02 -0.22587966278E+03  0.25950040914E+03  0.92956936004E+02 0.  0.
        -11    1    3    3    0    0  0.13692897184E+02  0.18462233428E+02 -0.29941901048E+02  0.37747409643E+02  0.00000000000E+00 0.  1.
         12    1    3    3    0    0 -0.75632101821E+02  0.46876268411E+01 -0.27576339579E+02  0.80638968098E+02  0.00000000000E+00 0. -1.
        -13    1    4    4    0    0 -0.15741945524E+02 -0.69634423178E+02 -0.70524364143E+02  0.10035162021E+03  0.00000000000E+00 0.  1.
         13    1    4    4    0    0  0.30185312953E+02 -0.16790327168E+02 -0.15535529864E+03  0.15914878894E+03  0.00000000000E+00 0. -1.
         21    1    1    2  503  502  0.84175586400E+01  0.33443908635E+02 -0.14074917814E+03  0.14491266840E+03  0.00000000000E+00 0. -1.
          3    1    1    2  501    0  0.39078278568E+02  0.29830981443E+02 -0.21149513425E+02  0.53519166920E+02  0.00000000000E+00 0. -1.
<scales pt_clust_5="13000.00000" pt_clust_6="13000.00000" pt_clust_7="13000.00000" pt_clust_8="13000.00000" pt_clust_9="34.48696" pt_clust_10="51.94647"></scales>
<clustering>
<clus scale="   34.487">  2  9  1 -1</clus>
<clus scale="   51.946">  2 10  1 -1</clus>
<clus scale="   79.590">  5  6 -1 -1</clus>
<clus scale="   92.957">  7  8 -1 -1</clus>
<clus scale="  101.804">  1  5  2 -1</clus>
<clus scale="   34.487">  2  5  1 -1</clus>
</clustering>
</event>
<event>
10    4  0.6068047E-005  0.1282602E+03  0.7546771E-02  0.1237081E+00
         21   -1    0    0  501  502  0.00000000000E+00  0.00000000000E+00  0.47856954878E+03  0.47856954878E+03  0.00000000000E+00 0. -1.
          2   -1    0    0  503    0 -0.00000000000E+00 -0.00000000000E+00 -0.19009580111E+04  0.19009580111E+04  0.00000000000E+00 0. -1.
         24    2    1    2    0    0  0.96559274400E+02 -0.56088359953E+02 -0.77106281160E+03  0.78328694518E+03  0.80814487924E+02 0.  0.
         23    2    1    2    0    0 -0.50615497613E+02  0.99826146350E+02 -0.48978882745E+03  0.51054848578E+03  0.90771541463E+02 0.  0.
        -13    1    3    3    0    0  0.90995270331E+02 -0.63695837504E+02 -0.50560096463E+03  0.51765783522E+03  0.00000000000E+00 0.  1.
         14    1    3    3    0    0  0.55640040697E+01  0.76074775516E+01 -0.26546184698E+03  0.26562910996E+03  0.00000000000E+00 0. -1.
        -13    1    4    4    0    0 -0.64900929011E+02  0.36693844390E+02 -0.32636875897E+03  0.33477624711E+03  0.00000000000E+00 0. -1.
         13    1    4    4    0    0  0.14285431398E+02  0.63132301960E+02 -0.16342006848E+03  0.17577223866E+03  0.00000000000E+00 0.  1.
         21    1    1    2  503  502  0.32160936803E+02 -0.16747177641E+03  0.43722815376E+03  0.46930755394E+03  0.00000000000E+00 0. -1.
          1    1    1    2  501    0 -0.78104713590E+02  0.12373399002E+03 -0.59876497701E+03  0.61638457497E+03  0.00000000000E+00 0. -1.
<scales pt_clust_5="13000.00000" pt_clust_6="13000.00000" pt_clust_7="13000.00000" pt_clust_8="13000.00000" pt_clust_9="77.48229" pt_clust_10="96.93395"></scales>
<clustering>
<clus scale="   80.814">  5  6 -1 -1</clus>
<clus scale="   90.772">  7  8 -1 -1</clus>
<clus scale="  137.843">  2  5  1 -1</clus>
<clus scale="   96.934">  1 10  2 -1</clus>
<clus scale="   77.482">  1  9  2 -1</clus>
<clus scale="   96.934">  1  5  2 -1</clus>
</clustering>
</event>
<event>
10    4  0.3403565E-005  0.9542348E+02  0.7546771E-02  0.1296478E+00
          2   -1    0    0  503    0 -0.00000000000E+00  0.00000000000E+00  0.12496545905E+04  0.12496545905E+04  0.00000000000E+00 0. -1.
         21   -1    0    0  501  502  0.00000000000E+00 -0.00000000000E+00 -0.19416295529E+02  0.19416295529E+02  0.00000000000E+00 0. -1.
         24    2    1    2    0    0 -0.61243164465E+01 -0.18363920068E+02  0.51137640837E+03  0.51812145056E+03  0.81051006683E+02 0.  0.
         23    2    1    2    0    0 -0.62264051748E+02  0.42901489068E+02  0.28417614861E+03  0.30811568966E+03  0.91988286595E+02 0.  0.
        -11    1    3    3    0    0 -0.20037913332E+02  0.25438936911E+02  0.12941871345E+03  0.13340862368E+03  0.00000000000E+00 0.  1.
         12    1    3    3    0    0  0.13913596885E+02 -0.43802856980E+02  0.38195769493E+03  0.38471282689E+03  0.00000000000E+00 0. -1.
        -13    1    4    4    0    0 -0.83752733375E+02  0.17679812151E+02  0.19401385645E+03  0.21205771054E+03  0.00000000000E+00 0. -1.
         13    1    4    4    0    0  0.21488681627E+02  0.25221676917E+02  0.90162292157E+02  0.96057979114E+02  0.00000000000E+00 0.  1.
         21    1    1    2  503  502  0.22509636896E+02 -0.13652408566E+02  0.64631970802E+02  0.69787990819E+02  0.00000000000E+00 0. -1.
          1    1    1    2  501    0  0.45878731299E+02 -0.10885160434E+02  0.37005376716E+03  0.37304575496E+03  0.00000000000E+00 0. -1.
<scales pt_clust_5="13000.00000" pt_clust_6="13000.00000" pt_clust_7="13000.00000" pt_clust_8="13000.00000" pt_clust_9="26.32626" pt_clust_10="49.38346"></scales>
<clustering>
<clus scale="   26.326">  2  9  1 -1</clus>
<clus scale="   49.383">  2 10  1 -1</clus>
<clus scale="   81.051">  5  6 -1 -1</clus>
<clus scale="   84.930">  1  5  2 -1</clus>
<clus scale="   91.988">  7  8 -1 -1</clus>
<clus scale="   26.326">  2  5  1 -1</clus>
</clustering>
</event>
<event>
10    4  0.3403565E-005  0.1252285E+03  0.7546771E-02  0.1243715E+00
         21   -1    0    0  501  502  0.00000000000E+00  0.00000000000E+00  0.10995466889E+03  0.10995466889E+03  0.00000000000E+00 0.  1.
         -1   -1    0    0    0  501 -0.00000000000E+00 -0.00000000000E+00 -0.46063802548E+03  0.46063802548E+03  0.00000000000E+00 0.  1.
         23    2    1    2    0    0 -0.19073732162E+02 -0.41567689182E+02 -0.24143740612E+03  0.26263308306E+03  0.92695389324E+02 0.  0.
         24    2    1    2    0    0 -0.77959969084E+02 -0.21637645183E+01 -0.12722995674E+03  0.16938806232E+03  0.80139971978E+02 0.  0.
        -11    1    4    4    0    0  0.19695013776E+01  0.24651937280E+02 -0.46468690965E+02  0.52639682629E+02  0.00000000000E+00 0.  1.
         12    1    4    4    0    0 -0.79929470462E+02 -0.26815701798E+02 -0.80761265771E+02  0.11674837969E+03  0.00000000000E+00 0. -1.
        -13    1    3    3    0    0  0.56179964596E+01 -0.67050057302E+02 -0.17104611140E+03  0.18380436419E+03  0.00000000000E+00 0.  1.
         13    1    3    3    0    0 -0.24691728621E+02  0.25482368120E+02 -0.70391294718E+02  0.78828718874E+02  0.00000000000E+00 0. -1.
         21    1    1    2  503  502  0.14959973871E+02 -0.25791896342E+02  0.29043193136E+01  0.29957600135E+02  0.00000000000E+00 0.  1.
         -2    1    1    2    0  503  0.82073727375E+02  0.69523350043E+02  0.15079686949E+02  0.10861394885E+03  0.00000000000E+00 0.  1.
<scales pt_clust_5="13000.00000" pt_clust_6="13000.00000" pt_clust_7="13000.00000" pt_clust_8="13000.00000" pt_clust_9="29.81648" pt_clust_10="96.22762"></scales>
<clustering>
<clus scale="   29.816">  1  9  2 -1</clus>
<clus scale="   80.140">  5  6 -1 -1</clus>
<clus scale="   92.695">  7  8 -1 -1</clus>
<clus scale="  104.278">  2  7  1 -1</clus>
<clus scale="   96.228">  1 10  2 -1</clus>
<clus scale="   29.816">  1  5  2 -1</clus>
</clustering>
</event>
<event>
10    4  0.3403565E-005  0.1470534E+03  0.7546771E-02  0.1224461E+00
         21   -1    0    0  501  502  0.00000000000E+00  0.00000000000E+00  0.51575888149E+03  0.51575888149E+03  0.00000000000E+00 0.  1.
          2   -1    0    0  503    0 -0.00000000000E+00 -0.00000000000E+00 -0.24739272924E+03  0.24739272924E+03  0.00000000000E+00 0. -1.
         24    2    1    2    0    0 -0.50475531134E+02  0.20431949467E+02  0.77213078078E+01  0.95895284926E+02  0.78555988151E+02 0.  0.
         23    2    1    2    0    0 -0.10099837452E+03  0.69150032235E+02  0.19131320644E+03  0.24490433254E+03  0.91624180891E+02 0.  0.
        -13    1    3    3    0    0 -0.36358078116E+02 -0.25370521888E+02  0.16239542151E+02  0.47215420728E+02  0.00000000000E+00 0.  1.
         14    1    3    3    0    0 -0.14117453018E+02  0.45802471356E+02 -0.85182343434E+01  0.48679864198E+02  0.00000000000E+00 0. -1.
        -11    1    4    4    0    0 -0.69808887652E+02  0.88168841106E+02  0.11807225571E+03  0.16305852602E+03  0.00000000000E+00 0.  1.
         11    1    4    4    0    0 -0.31189486872E+02 -0.19018808871E+02  0.73240950729E+02  0.81845806526E+02  0.00000000000E+00 0. -1.
         21    1    1    2  503  502  0.11648490421E+03  0.22573871754E+01  0.21622392959E+03  0.24561477242E+03  0.00000000000E+00 0.  1.
          1    1    1    2  501    0  0.34989001451E+02 -0.91839368878E+02 -0.14689229160E+03  0.17673722084E+03  0.00000000000E+00 0. -1.
<scales pt_clust_5="13000.00000" pt_clust_6="13000.00000" pt_clust_7="13000.00000" pt_clust_8="13000.00000" pt_clust_9="115.02044" pt_clust_10="75.75492"></scales>
<clustering>
<clus scale="   78.556">  5  6 -1 -1</clus>
<clus scale="   91.624">  7  8 -1 -1</clus>
<clus scale="   95.584">  2  5  1 -1</clus>
<clus scale="   75.755">  1 10  2 -1</clus>
<clus scale="  115.020">  1  9  2 -1</clus>
<clus scale="   75.755">  1  5  2 -1</clus>
</clustering>
</event>
<event>
10    4  0.3403565E-005  0.3029209E+03  0.7546771E-02  0.1128178E+00
         -1   -1    0    0    0  501 -0.00000000000E+00  0.00000000000E+00  0.55487745470E+03  0.55487745470E+03  0.00000000000E+00 0.  1.
         21   -1    0    0  503  502  0.00000000000E+00 -0.00000000000E+00 -0.32331742485E+03  0.32331742485E+03  0.00000000000E+00 0.  1.
         23    2    1    2    0    0  0.41861806804E+02 -0.53426096884E+01  0.17312225337E+03  0.19802382146E+03  0.86378034858E+02 0.  0.
         24    2    1    2    0    0 -0.14848330851E+03 -0.26418032052E+03  0.10881842953E+03  0.33191191653E+03  0.80532819853E+02 0.  0.
        -11    1    4    4    0    0 -0.15433113422E+03 -0.26571091378E+03  0.10482458694E+03  0.32466687962E+03  0.00000000000E+00 0.  1.
         12    1    4    4    0    0  0.58478257080E+01  0.15305932651E+01  0.39938425845E+01  0.72450369111E+01  0.00000000000E+00 0. -1.
        -11    1    3    3    0    0  0.51810195359E+02 -0.29385377479E+02  0.71182012795E+02  0.92815277289E+02  0.00000000000E+00 0.  1.
         11    1    3    3    0    0 -0.99483885545E+01  0.24042767790E+02  0.10194024057E+03  0.10520854417E+03  0.00000000000E+00 0. -1.
         21    1    1    2  503  501  0.37438672449E+02 -0.98852789503E+01 -0.46335341645E+02  0.60384905564E+02  0.00000000000E+00 0. -1.
         -2    1    1    2    0  502  0.69182829256E+02  0.27940820915E+03 -0.40453113990E+01  0.28787423600E+03  0.00000000000E+00 0.  1.
<scales pt_clust_5="13000.00000" pt_clust_6="13000.00000" pt_clust_7="13000.00000" pt_clust_8="13000.00000" pt_clust_9="38.72174" pt_clust_10="292.01980"></scales>
<clustering>
<clus scale="   38.722">  2  9  1 -1</clus>
<clus scale="   80.533">  5  6 -1 -1</clus>
<clus scale="   86.378">  7  8 -1 -1</clus>
<clus scale="   96.927">  1  7  2 -1</clus>
<clus scale="  292.020">  2 10  1 -1</clus>
<clus scale="   38.722">  2  5  1 -1</clus>
</clustering>
</event>
<event>
10    4  0.3403565E-005  0.4465978E+03  0.7546771E-02  0.1088101E+00
          4   -1    0    0  503    0 -0.00000000000E+00  0.00000000000E+00  0.59976674146E+03  0.59976674146E+03  0.00000000000E+00 0. -1.
         21   -1    0    0  501  502  0.00000000000E+00 -0.00000000000E+00 -0.15744783299E+04  0.15744783299E+04  0.00000000000E+00 0. -1.
         24    2    1    2    0    0  0.20801008114E+02 -0.65622025717E+01  0.25016130175E+03  0.26397443658E+03  0.81400748338E+02 0.  0.
         23    2    1    2    0    0  0.87697823299E+02 -0.42403964043E+03 -0.22206218296E+03  0.49492785788E+03  0.90229964731E+02 0.  0.
        -13    1    3    3    0    0  0.44538628151E+02  0.17328785876E+02  0.11205083001E+03  0.12181693119E+03  0.00000000000E+00 0.  1.
         14    1    3    3    0    0 -0.23737620037E+02 -0.23890988447E+02  0.13811047174E+03  0.14215750539E+03  0.00000000000E+00 0. -1.
        -13    1    4    4    0    0  0.80081949918E+02 -0.38243223167E+03 -0.16558116683E+03  0.42436382189E+03  0.00000000000E+00 0. -1.
         13    1    4    4    0    0  0.76158733809E+01 -0.41607408762E+02 -0.56481016138E+02  0.70564035990E+02  0.00000000000E+00 0.  1.
         21    1    1    2  503  502  0.35020864679E+03  0.16089849166E+03 -0.71030539509E+03  0.80812633616E+03  0.00000000000E+00 0. -1.
          3    1    1    2  501    0 -0.45870747821E+03  0.26970335134E+03 -0.29250531215E+03  0.60721644075E+03  0.00000000000E+00 0. -1.
<scales pt_clust_5="13000.00000" pt_clust_6="13000.00000" pt_clust_7="13000.00000" pt_clust_8="13000.00000" pt_clust_9="387.71393" pt_clust_10="437.38786"></scales>
<clustering>
<clus scale="   81.401">  5  6 -1 -1</clus>
<clus scale="   84.272">  1  5  2 -1</clus>
<clus scale="   90.230">  7  8 -1 -1</clus>
<clus scale="  387.714">  2  9  1 -1</clus>
<clus scale="  437.388">  2 10  1 -1</clus>
<clus scale="  387.714">  2  5  1 -1</clus>
</clustering>
</event>
<event>
10    4  0.3403565E-005  0.1436235E+03  0.7546771E-02  0.1235145E+00
         21   -1    0    0  501  502  0.00000000000E+00  0.00000000000E+00  0.18627397628E+03  0.18627397628E+03  0.00000000000E+00 0. -1.
          2   -1    0    0  503    0 -0.00000000000E+00 -0.00000000000E+00 -0.11738197804E+04  0.11738197804E+04  0.00000000000E+00 0. -1.
         24    2    1    2    0    0 -0.66281749622E+01  0.38906710891E+01 -0.76125853470E+03  0.76569207449E+03  0.81919022614E+02 0.  0.
         23    2    1    2    0    0  0.44700216098E+02  0.44807702840E+01 -0.26521922634E+03  0.28399889848E+03  0.91082104167E+02 0.  0.
        -13    1    3    3    0    0 -0.23017164019E+02 -0.29072474906E+02 -0.21336341929E+03  0.21656164787E+03  0.00000000000E+00 0.  1.
         14    1    3    3    0    0  0.16388989057E+02  0.32963145995E+02 -0.54789511541E+03  0.54913042662E+03  0.00000000000E+00 0. -1.
        -11    1    4    4    0    0  0.60057008049E+02 -0.21333571720E+02 -0.22467991916E+03  0.23354449592E+03  0.00000000000E+00 0. -1.
         11    1    4    4    0    0 -0.15356791951E+02  0.25814342004E+02 -0.40539307173E+02  0.50454402566E+02  0.00000000000E+00 0.  1.
         21    1    1    2  503  502 -0.84128472832E+02 -0.12728255284E+03  0.85199805430E+02  0.17474969254E+03  0.00000000000E+00 0. -1.
          1    1    1    2  501    0  0.46056431696E+02  0.11891111147E+03 -0.46267848503E+02  0.13565309114E+03  0.00000000000E+00 0. -1.
<scales pt_clust_5="13000.00000" pt_clust_6="13000.00000" pt_clust_7="13000.00000" pt_clust_8="13000.00000" pt_clust_9="143.62352" pt_clust_10="13000.00000"></scales>
<clustering>
<clus scale="   81.919">  5  6 -1 -1</clus>
<clus scale="   82.279">  2  5  1 -1</clus>
<clus scale="   91.082">  7  8 -1 -1</clus>
<clus scale="   99.837">  2  7  1 -1</clus>
<clus scale="  143.624">  1  9  2 -1</clus>
<clus scale="  143.624">  1  5  2 -1</clus>
</clustering>
</event>
<event>
10    4  0.3403565E-005  0.1844465E+03  0.7546771E-02  0.1196523E+00
         21   -1    0    0  501  502  0.00000000000E+00  0.00000000000E+00  0.94508660086E+02  0.94508660086E+02  0.00000000000E+00 0.  1.
          2   -1    0    0  503    0 -0.00000000000E+00 -0.00000000000E+00 -0.10587274106E+04  0.10587274106E+04  0.00000000000E+00 0. -1.
         24    2    1    2    0    0  0.21392703232E+01  0.43682353633E+02 -0.10775972361E+03  0.14017371005E+03  0.78254625813E+02 0.  0.
         23    2    1    2    0    0  0.12806411890E+03 -0.10907678623E+03 -0.11586567677E+03  0.22322393334E+03  0.90032802469E+02 0.  0.
        -13    1    3    3    0    0 -0.92281097894E+01  0.24836657284E+02  0.35290356798E+01  0.26729602469E+02  0.00000000000E+00 0.  1.
         14    1    3    3    0    0  0.11367380113E+02  0.18845696349E+02 -0.11128875929E+03  0.11344410758E+03  0.00000000000E+00 0. -1.
        -13    1    4    4    0    0  0.13278320541E+03 -0.67535789647E+02 -0.89165669327E+02  0.17361733528E+03  0.00000000000E+00 0.  1.
         13    1    4    4    0    0 -0.47190865063E+01 -0.41540996584E+02 -0.26700007441E+02  0.49606598069E+02  0.00000000000E+00 0. -1.
         21    1    1    2  503  502 -0.19473711849E+02 -0.17138277827E+02  0.91302987830E+01  0.27501061360E+02  0.00000000000E+00 0. -1.
          1    1    1    2  501    0 -0.11072967738E+03  0.82532710425E+02 -0.74972364895E+03  0.76233736596E+03  0.00000000000E+00 0. -1.
<scales pt_clust_5="13000.00000" pt_clust_6="13000.00000" pt_clust_7="13000.00000" pt_clust_8="13000.00000" pt_clust_9="25.94120" pt_clust_10="160.98026"></scales>
<clustering>
<clus scale="   25.941">  1  9  2 -1</clus>
<clus scale="   78.255">  5  6 -1 -1</clus>
<clus scale="   87.925">  2  5  1 -1</clus>
<clus scale="   90.033">  7  8 -1 -1</clus>
<clus scale="  160.980">  1 10  2 -1</clus>
<clus scale="   25.941">  1  5  2 -1</clus>
</clustering>
</event>
<event>
10    4  0.3403565E-005  0.2010238E+03  0.7546771E-02  0.1184672E+00
         21   -1    0    0  501  502  0.00000000000E+00  0.00000000000E+00  0.14316649919E+03  0.14316649919E+03  0.00000000000E+00 0.  1.
          2   -1    0    0  503    0 -0.00000000000E+00 -0.00000000000E+00 -0.64069201170E+03  0.64069201170E+03  0.00000000000E+00 0. -1.
         24    2    1    2    0    0  0.48421144619E+02  0.17713754402E+02  0.41980893473E+02  0.10303981673E+03  0.78717368314E+02 0.  0.
         23    2    1    2    0    0 -0.15980120300E+03 -0.10945783764E+03 -0.26909222003E+03  0.34368068748E+03  0.90489498633E+02 0.  0.
        -11    1    3    3    0    0  0.24664292480E+02  0.47282542693E+02  0.36716125547E+02  0.64745965452E+02  0.00000000000E+00 0.  1.
         12    1    3    3    0    0  0.23756852138E+02 -0.29568788292E+02  0.52647679256E+01  0.38293851280E+02  0.00000000000E+00 0. -1.
        -13    1    4    4    0    0 -0.13499438043E+03 -0.10906980665E+03 -0.17535825322E+03  0.24671891383E+03  0.00000000000E+00 0.  1.
         13    1    4    4    0    0 -0.24806822567E+02 -0.38803099148E+00 -0.93733966816E+02  0.96961773648E+02  0.00000000000E+00 0. -1.
         21    1    1    2  503  502 -0.19046032156E+02 -0.11061337311E+02 -0.28281237281E+01  0.22205918306E+02  0.00000000000E+00 0.  1.
          1    1    1    2  501    0  0.13042609053E+03  0.10280542055E+03 -0.26758606222E+03  0.31493208837E+03  0.00000000000E+00 0. -1.
<scales pt_clust_5="13000.00000" pt_clust_6="13000.00000" pt_clust_7="13000.00000" pt_clust_8="13000.00000" pt_clust_9="22.02509" pt_clust_10="179.50544"></scales>
<clustering>
<clus scale="   22.025">  1  9  2 -1</clus>
<clus scale="   78.717">  5  6 -1 -1</clus>
<clus scale="   88.222">  2  5  1 -1</clus>
<clus scale="   90.489">  7  8 -1 -1</clus>
<clus scale="  179.505">  1 10  2 -1</clus>
<clus scale="   22.025">  1  5  2 -1</clus>
</clustering>
</event>
<event>
10    4  0.3403565E-005  0.3323076E+03  0.7546771E-02  0.1070120E+00
          2   -1    0    0  502    0 -0.00000000000E+00  0.00000000000E+00  0.14242636764E+04  0.14242636764E+04  0.00000000000E+00 0. -1.
         21   -1    0    0  503  502  0.00000000000E+00 -0.00000000000E+00 -0.75423738768E+02  0.75423738768E+02  0.00000000000E+00 0. -1.
         24    2    1    2    0    0 -0.42062905893E+02 -0.99018153269E+02  0.24386796632E+03  0.27841871294E+03  0.80445708315E+02 0.  0.
         23    2    1    2    0    0 -0.15587523922E+02 -0.16818198768E+03  0.64586175565E+03  0.67378831081E+03  0.91242142088E+02 0.  0.
        -13    1    3    3    0    0  0.27557107520E+01 -0.51896612458E+02  0.43535423264E+02  0.67795172432E+02  0.00000000000E+00 0.  1.
         14    1    3    3    0    0 -0.44818616645E+02 -0.47121540811E+02  0.20033254306E+03  0.21062354051E+03  0.00000000000E+00 0. -1.
        -13    1    4    4    0    0 -0.41051655456E+02 -0.12180548616E+03  0.54430861892E+03  0.55927961478E+03  0.00000000000E+00 0.  1.
         13    1    4    4    0    0  0.25464131534E+02 -0.46376501516E+02  0.10155313673E+03  0.11450869604E+03  0.00000000000E+00 0. -1.
         21    1    1    2  503  501 -0.17662341969E+02  0.22689821243E+02  0.96979149750E+01  0.30345277502E+02  0.00000000000E+00 0. -1.
          1    1    1    2  501    0  0.75312771784E+02  0.24451031970E+03  0.44941230064E+03  0.51713511387E+03  0.00000000000E+00 0. -1.
<scales pt_clust_5="13000.00000" pt_clust_6="13000.00000" pt_clust_7="13000.00000" pt_clust_8="13000.00000" pt_clust_9="28.75389" pt_clust_10="264.70477"></scales>
<clustering>
<clus scale="   28.754">  2  9  1 -1</clus>
<clus scale="   80.446">  5  6 -1 -1</clus>
<clus scale="   91.242">  7  8 -1 -1</clus>
<clus scale="  121.261">  5  7 -1 -1</clus>
<clus scale="  264.705">  2 10  1 -1</clus>
<clus scale="   28.754">  2  5  1 -1</clus>
</clustering>
</event>
<event>
10    4  0.3403565E-005  0.4299927E+03  0.7546771E-02  0.1083488E+00
         21   -1    0    0  503  502  0.00000000000E+00  0.00000000000E+00  0.72559745567E+03  0.72559745567E+03  0.00000000000E+00 0. -1.
          2   -1    0    0  502    0 -0.00000000000E+00 -0.00000000000E+00 -0.80111037684E+03  0.80111037684E+03  0.00000000000E+00 0. -1.
         24    2    1    2    0    0  0.62470879895E+02 -0.72803370383E+01 -0.98332604467E+02  0.14514945680E+03  0.86275428512E+02 0.  0.
         23    2    1    2    0    0  0.43302199630E+03  0.62853457595E+02 -0.10838190934E+03  0.46009668565E+03  0.92107086906E+02 0.  0.
        -11    1    3    3    0    0  0.29677170449E+02  0.23911578040E+02 -0.13608035267E+01  0.38135938384E+02  0.00000000000E+00 0.  1.
         12    1    3    3    0    0  0.32793709446E+02 -0.31191915078E+02 -0.96971800940E+02  0.10701351841E+03  0.00000000000E+00 0. -1.
        -11    1    4    4    0    0  0.31049632181E+03  0.34695998571E+02 -0.34633083347E+02  0.31434253392E+03  0.00000000000E+00 0. -1.
         11    1    4    4    0    0  0.12252567450E+03  0.28157459023E+02 -0.73748825991E+02  0.14575415173E+03  0.00000000000E+00 0.  1.
         21    1    1    2  503  501 -0.86322494230E+02 -0.25028328167E+03  0.33300184341E+03  0.42542158127E+03  0.00000000000E+00 0. -1.
          1    1    1    2  501    0 -0.40917038197E+03  0.19471016112E+03 -0.20180025078E+03  0.49604010880E+03  0.00000000000E+00 0. -1.
<scales pt_clust_5="13000.00000" pt_clust_6="13000.00000" pt_clust_7="13000.00000" pt_clust_8="13000.00000" pt_clust_9="263.86715" pt_clust_10="420.01208"></scales>
<clustering>
<clus scale="   86.275">  5  6 -1 -1</clus>
<clus scale="   92.107">  7  8 -1 -1</clus>
<clus scale="  106.766">  2  5  1 -1</clus>
<clus scale="  263.867">  1  9  2 -1</clus>
<clus scale="  420.012">  1 10  2 -1</clus>
<clus scale="  263.867">  1  5  2 -1</clus>
</clustering>
</event>
<event>
10    4  0.3403565E-005  0.1255000E+03  0.7546771E-02  0.1252113E+00
         21   -1    0    0  501  502  0.00000000000E+00  0.00000000000E+00  0.16387047927E+03  0.16387047927E+03  0.00000000000E+00 0. -1.
          2   -1    0    0  503    0 -0.00000000000E+00 -0.00000000000E+00 -0.10755943781E+04  0.10755943781E+04  0.00000000000E+00 0. -1.
         24    2    1    2    0    0 -0.23646609990E+02  0.26433459331E+02 -0.99595717705E+02  0.13260658476E+03  0.80045670717E+02 0.  0.
         23    2    1    2    0    0 -0.64853347503E+02  0.13346585470E+02 -0.41080651744E+03  0.42646331995E+03  0.93407068604E+02 0.  0.
        -11    1    3    3    0    0 -0.24793455332E+01 -0.23000721134E+02 -0.48096462890E+01  0.23628648383E+02  0.00000000000E+00 0.  1.
         12    1    3    3    0    0 -0.21167264457E+02  0.49434180465E+02 -0.94786071416E+02  0.10897793638E+03  0.00000000000E+00 0. -1.
        -13    1    4    4    0    0 -0.80333350069E+02  0.32090217904E+02 -0.26837829952E+03  0.28197542601E+03  0.00000000000E+00 0.  1.
         13    1    4    4    0    0  0.15480002566E+02 -0.18743632434E+02 -0.14242821791E+03  0.14448789394E+03  0.00000000000E+00 0. -1.
         21    1    1    2  503  502  0.13882175312E+03  0.44654581152E+02  0.95256732055E+02  0.17418196163E+03  0.00000000000E+00 0. -1.
          1    1    1    2  501    0 -0.50321795627E+02 -0.84434625954E+02 -0.49657839578E+03  0.50621299107E+03  0.00000000000E+00 0. -1.
<scales pt_clust_5="13000.00000" pt_clust_6="13000.00000" pt_clust_7="13000.00000" pt_clust_8="13000.00000" pt_clust_9="83.81744" pt_clust_10="94.42465"></scales>
<clustering>
<clus scale="   80.046">  5  6 -1 -1</clus>
<clus scale="   87.551">  2  5  1 -1</clus>
<clus scale="   93.407">  7  8 -1 -1</clus>
<clus scale="   94.425">  1 10  2 -1</clus>
<clus scale="   83.817">  1  9  2 -1</clus>
<clus scale="   94.425">  1  5  2 -1</clus>
</clustering>
</event>
<event>
10    4  0.3403565E-005  0.1424643E+03  0.7546771E-02  0.1229687E+00
          2   -1    0    0  503    0 -0.00000000000E+00  0.00000000000E+00  0.98463539120E+03  0.98463539120E+03  0.00000000000E+00 0. -1.
         21   -1    0    0  501  502  0.00000000000E+00 -0.00000000000E+00 -0.10051751090E+03  0.10051751090E+03  0.00000000000E+00 0.  1.
         24    2    1    2    0    0  0.87201992728E+01 -0.48330234086E+02  0.41261609539E+03  0.42299839278E+03  0.79143822959E+02 0.  0.
         23    2    1    2    0    0  0.12125036287E+03  0.70180858132E+02  0.12608159452E+03  0.20981287811E+03  0.92183903141E+02 0.  0.
        -11    1    3    3    0    0 -0.25774999884E+02  0.80622675443E+01  0.11484611520E+03  0.11797873094E+03  0.00000000000E+00 0.  1.
         12    1    3    3    0    0  0.34495199157E+02 -0.56392501630E+02  0.29776998019E+03  0.30501966183E+03  0.00000000000E+00 0. -1.
        -13    1    4    4    0    0  0.11506534766E+03  0.35406020543E+02  0.59154805948E+02  0.13413765911E+03  0.00000000000E+00 0.  1.
         13    1    4    4    0    0  0.61850152111E+01  0.34774837590E+02  0.66926788574E+02  0.75675219004E+02  0.00000000000E+00 0. -1.
         21    1    1    2  503  502 -0.87091128474E+02  0.26445955550E+02 -0.95741934673E+01  0.91520043730E+02  0.00000000000E+00 0.  1.
          1    1    1    2  501    0 -0.42879433674E+02 -0.48296579596E+02  0.35499438385E+03  0.36082158749E+03  0.00000000000E+00 0. -1.
<scales pt_clust_5="13000.00000" pt_clust_6="13000.00000" pt_clust_7="13000.00000" pt_clust_8="13000.00000" pt_clust_9="108.61951" pt_clust_10="64.58490"></scales>
<clustering>
<clus scale="   64.585">  2 10  1 -1</clus>
<clus scale="   79.144">  5  6 -1 -1</clus>
<clus scale="   92.184">  7  8 -1 -1</clus>
<clus scale="   94.318">  1  5  2 -1</clus>
<clus scale="  108.620">  2  9  1 -1</clus>
<clus scale="   64.585">  2  5  1 -1</clus>
</clustering>
</event>
<event>
10    4  0.3403565E-005  0.1265398E+03  0.7546771E-02  0.1238075E+00
          2   -1    0    0  503    0 -0.00000000000E+00  0.00000000000E+00  0.18908529162E+03  0.18908529162E+03  0.00000000000E+00 0. -1.
         21   -1    0    0  501  502  0.00000000000E+00 -0.00000000000E+00 -0.41801827567E+03  0.41801827567E+03  0.00000000000E+00 0. -1.
         24    2    1    2    0    0  0.68708523708E+02 -0.78018327902E+02  0.93217185980E+02  0.16224980985E+03  0.82630722585E+02 0.  0.
         23    2    1    2    0    0  0.82144840335E+01  0.40173210044E+02 -0.21583507228E+02  0.11021250932E+03  0.99997924346E+02 0.  0.
        -11    1    3    3    0    0  0.25204637037E+02  0.14053234222E+02  0.33435563342E+02  0.44166775026E+02  0.00000000000E+00 0.  1.
         12    1    3    3    0    0  0.43503886671E+02 -0.92071562123E+02  0.59781622638E+02  0.11808303482E+03  0.00000000000E+00 0. -1.
        -13    1    4    4    0    0 -0.30385714340E+02 -0.12996752110E+02  0.13534039663E+02  0.35712426842E+02  0.00000000000E+00 0.  1.
         13    1    4    4    0    0  0.38600198373E+02  0.53169962153E+02 -0.35117546891E+02  0.74500082480E+02  0.00000000000E+00 0. -1.
         21    1    1    2  503  502 -0.39045070107E+01 -0.26932612929E+02 -0.16703277537E+03  0.16923521756E+03  0.00000000000E+00 0. -1.
          1    1    1    2  501    0 -0.73018500731E+02  0.64777730787E+02 -0.13353388742E+03  0.16540603056E+03  0.00000000000E+00 0. -1.
<scales pt_clust_5="13000.00000" pt_clust_6="13000.00000" pt_clust_7="13000.00000" pt_clust_8="13000.00000" pt_clust_9="27.21417" pt_clust_10="89.70386"></scales>
<clustering>
<clus scale="   27.214">  2  9  1 -1</clus>
<clus scale="   82.631">  5  6 -1 -1</clus>
<clus scale="   89.704">  2 10  1 -1</clus>
<clus scale="   99.998">  7  8 -1 -1</clus>
<clus scale="  113.316">  1  5  2 -1</clus>
<clus scale="   27.214">  2  5  1 -1</clus>
</clustering>
</event>
<event>
10    4  0.3403565E-005  0.2173594E+03  0.7546771E-02  0.1174621E+00
          2   -1    0    0  503    0 -0.00000000000E+00  0.00000000000E+00  0.14108138433E+04  0.14108138433E+04  0.00000000000E+00 0. -1.
         21   -1    0    0  501  502  0.00000000000E+00 -0.00000000000E+00 -0.53704250067E+03  0.53704250067E+03  0.00000000000E+00 0. -1.
         23    2    1    2    0    0 -0.10700686955E+03  0.16572467344E+03  0.10517958900E+04  0.10740771991E+04  0.91935291605E+02 0.  0.
         24    2    1    2    0    0 -0.29849517911E+02  0.27138155763E+02 -0.34208167413E+02  0.96047286249E+02  0.80171124853E+02 0.  0.
        -13    1    4    4    0    0 -0.23977105783E+02  0.47386454067E+02 -0.47394759110E+02  0.71180340136E+02  0.00000000000E+00 0.  1.
         14    1    4    4    0    0 -0.58724121281E+01 -0.20248298304E+02  0.13186591697E+02  0.24866946113E+02  0.00000000000E+00 0. -1.
        -13    1    3    3    0    0 -0.66159165616E+01  0.90223160413E+02  0.37821375375E+03  0.38888254339E+03  0.00000000000E+00 0.  1.
         13    1    3    3    0    0 -0.10039095299E+03  0.75501513032E+02  0.67358213627E+03  0.68519465571E+03  0.00000000000E+00 0. -1.
         21    1    1    2  503  502  0.12496376430E+03 -0.13853329919E+03 -0.43918664597E+03  0.47717117198E+03  0.00000000000E+00 0. -1.
          1    1    1    2  501    0  0.11892623162E+02 -0.54329530017E+02  0.29537026597E+03  0.30056068661E+03  0.00000000000E+00 0. -1.
<scales pt_clust_5="13000.00000" pt_clust_6="13000.00000" pt_clust_7="13000.00000" pt_clust_8="13000.00000" pt_clust_9="196.95944" pt_clust_10="55.61596"></scales>
<clustering>
<clus scale="   55.616">  2 10  1 -1</clus>
<clus scale="   80.171">  5  6 -1 -1</clus>
<clus scale="   87.493">  2  5  1 -1</clus>
<clus scale="   91.935">  7  8 -1 -1</clus>
<clus scale="  196.959">  2  9  1 -1</clus>
<clus scale="   55.616">  2  5  1 -1</clus>
</clustering>
</event>
<event>
10    4  0.3403565E-005  0.3251856E+03  0.7546771E-02  0.1103955E+00
         21   -1    0    0  501  502  0.00000000000E+00  0.00000000000E+00  0.16575827919E+03  0.16575827919E+03  0.00000000000E+00 0.  1.
         -1   -1    0    0    0  501 -0.00000000000E+00 -0.00000000000E+00 -0.24593651324E+04  0.24593651324E+04  0.00000000000E+00 0.  1.
         24    2    1    2    0    0 -0.10845072904E+02  0.11440988030E+03 -0.21524093120E+03  0.25721441157E+03  0.81384020186E+02 0.  0.
         23    2    1    2    0    0  0.25385404829E+03 -0.30186676993E+03 -0.19808383705E+04  0.20218291612E+04  0.92233847619E+02 0.  0.
        -11    1    3    3    0    0  0.32191232525E+02  0.30886599181E+02 -0.49064598779E+02  0.66314344706E+02  0.00000000000E+00 0.  1.
         12    1    3    3    0    0 -0.43036305428E+02  0.83523281115E+02 -0.16617633242E+03  0.19090006687E+03  0.00000000000E+00 0. -1.
        -11    1    4    4    0    0  0.14388865717E+03 -0.22656028567E+03 -0.11950067913E+04  0.12247753835E+04  0.00000000000E+00 0. -1.
         11    1    4    4    0    0  0.10996539113E+03 -0.75306484260E+02 -0.78583157918E+03  0.79705377776E+03  0.00000000000E+00 0.  1.
         21    1    1    2  503  502  0.74866839490E+01  0.29631933022E+02  0.82927044417E+01  0.31668136007E+02  0.00000000000E+00 0. -1.
         -2    1    1    2    0  503 -0.25049565934E+03  0.15782495661E+03 -0.10582025599E+03  0.31441170279E+03  0.00000000000E+00 0.  1.
<scales pt_clust_5="13000.00000" pt_clust_6="13000.00000" pt_clust_7="13000.00000" pt_clust_8="13000.00000" pt_clust_9="30.56308" pt_clust_10="311.83108"></scales>
<clustering>
<clus scale="   30.563">  1  9  2 -1</clus>
<clus scale="   81.384">  5  6 -1 -1</clus>
<clus scale="   92.234">  7  8 -1 -1</clus>
<clus scale="  144.232">  2  5  1 -1</clus>
<clus scale="  311.831">  1 10  2 -1</clus>
<clus scale="   30.563">  1  5  2 -1</clus>
</clustering>
</event>
<event>
10    4  0.3403565E-005  0.1024064E+03  0.7546771E-02  0.1279594E+00
         -1   -1    0    0    0  501 -0.00000000000E+00  0.00000000000E+00  0.51962046698E+03  0.51962046698E+03  0.00000000000E+00 0.  1.
         21   -1    0    0  501  502  0.00000000000E+00 -0.00000000000E+00 -0.63513107541E+03  0.63513107541E+03  0.00000000000E+00 0.  1.
         24    2    1    2    0    0  0.14499764628E+02  0.46747078659E+02  0.20275658054E+03  0.22364155322E+03  0.80683212871E+02 0.  0.
         23    2    1    2    0    0  0.30282063802E+02 -0.24362366776E+02  0.18091520525E+03  0.20632206829E+03  0.91257635686E+02 0.  0.
        -13    1    3    3    0    0  0.22798820879E+02 -0.14272291443E+02  0.30281277896E+02  0.40502349655E+02  0.00000000000E+00 0.  1.
         14    1    3    3    0    0 -0.82990562514E+01  0.61019370103E+02  0.17247530264E+03  0.18313920357E+03  0.00000000000E+00 0. -1.
        -11    1    4    4    0    0 -0.32464413256E+02 -0.29697380839E+01  0.67314409691E+02  0.74792962399E+02  0.00000000000E+00 0. -1.
         11    1    4    4    0    0  0.62746477058E+02 -0.21392628692E+02  0.11360079556E+03  0.13152910590E+03  0.00000000000E+00 0.  1.
         21    1    1    2  503  502  0.41327274756E+01 -0.10312869720E+03 -0.58690906278E+03  0.59591514128E+03  0.00000000000E+00 0.  1.
         -2    1    1    2    0  503 -0.48914555905E+02  0.80743985316E+02  0.87726668562E+02  0.12887277960E+03  0.00000000000E+00 0.  1.
<scales pt_clust_5="13000.00000" pt_clust_6="13000.00000" pt_clust_7="13000.00000" pt_clust_8="13000.00000" pt_clust_9="102.40639" pt_clust_10="13000.00000"></scales>
<clustering>
<clus scale="   80.683">  5  6 -1 -1</clus>
<clus scale="   91.258">  7  8 -1 -1</clus>
<clus scale="   94.368">  1  5  2 -1</clus>
<clus scale="   99.552">  1  7  2 -1</clus>
<clus scale="  102.406">  2  9  1 -1</clus>
<clus scale="  102.406">  2  5  1 -1</clus>
</clustering>
</event>
<event>
10    4  0.3403565E-005  0.2515575E+03  0.7546771E-02  0.1140803E+00
         21   -1    0    0  501  502  0.00000000000E+00  0.00000000000E+00  0.22170118156E+03  0.22170118156E+03  0.00000000000E+00 0.  1.
          2   -1    0    0  503    0 -0.00000000000E+00 -0.00000000000E+00 -0.86354155808E+03  0.86354155808E+03  0.00000000000E+00 0. -1.
         24    2    1    2    0    0  0.22844950349E+02  0.95969726306E+02 -0.89118054501E+02  0.15660752651E+03  0.82775658237E+02 0.  0.
         23    2    1    2    0    0 -0.15280320819E+03 -0.18883274566E+03 -0.71831456999E+02  0.26866008782E+03  0.89508984501E+02 0.  0.
        -13    1    3    3    0    0  0.35002145207E+02  0.10619178291E+03 -0.70710488689E+02  0.13229443729E+03  0.00000000000E+00 0.  1.
         14    1    3    3    0    0 -0.12157194858E+02 -0.10222056607E+02 -0.18407565812E+02  0.24313089216E+02  0.00000000000E+00 0. -1.
        -11    1    4    4    0    0 -0.43177690848E+02 -0.11487231605E+03 -0.11346967523E+02  0.12324250749E+03  0.00000000000E+00 0.  1.
         11    1    4    4    0    0 -0.10962551734E+03 -0.73960429608E+02 -0.60484489475E+02  0.14541758032E+03  0.00000000000E+00 0. -1.
         21    1    1    2  503  502 -0.50096074088E+00 -0.25427074158E+02  0.73769281244E+02  0.78030083411E+02  0.00000000000E+00 0.  1.
          1    1    1    2  501    0  0.13045921858E+03  0.11829009351E+03 -0.55466014627E+03  0.58194504190E+03  0.00000000000E+00 0. -1.
<scales pt_clust_5="13000.00000" pt_clust_6="13000.00000" pt_clust_7="13000.00000" pt_clust_8="13000.00000" pt_clust_9="25.43201" pt_clust_10="235.09435"></scales>
<clustering>
<clus scale="   25.432">  1  9  2 -1</clus>
<clus scale="   82.776">  5  6 -1 -1</clus>
<clus scale="   89.509">  7  8 -1 -1</clus>
<clus scale="  124.434">  2  5  1 -1</clus>
<clus scale="  235.094">  1 10  2 -1</clus>
<clus scale="   25.432">  1  5  2 -1</clus>
</clustering>
</event>
<event>
10    4  0.3403565E-005  0.2708059E+03  0.7546771E-02  0.1138720E+00
          2   -1    0    0  503    0 -0.00000000000E+00  0.00000000000E+00  0.73801429784E+03  0.73801429784E+03  0.00000000000E+00 0. -1.
         21   -1    0    0  501  502  0.00000000000E+00 -0.00000000000E+00 -0.44195140997E+03  0.44195140997E+03  0.00000000000E+00 0.  1.
         24    2    1    2    0    0  0.20920738181E+03 -0.15713375554E+03  0.53852388886E+03  0.60766244235E+03  0.10386009450E+03 0.  0.
         23    2    1    2    0    0 -0.26324501809E+02  0.39332944972E+02  0.17060523331E+02  0.10283839648E+03  0.89691774305E+02 0.  0.
        -13    1    3    3    0    0  0.55881062434E+02 -0.19477432760E+02  0.22374811496E+03  0.23144174748E+03  0.00000000000E+00 0.  1.
         14    1    3    3    0    0  0.15332631937E+03 -0.13765632278E+03  0.31477577390E+03  0.37622069487E+03  0.00000000000E+00 0. -1.
        -13    1    4    4    0    0 -0.69011182005E+00 -0.28404356602E+02  0.97754621853E+01  0.30047352450E+02  0.00000000000E+00 0.  1.
         13    1    4    4    0    0 -0.25634389989E+02  0.67737301574E+02  0.72850611452E+01  0.72791044027E+02  0.00000000000E+00 0. -1.
         21    1    1    2  503  502 -0.97228127599E+02  0.96027025076E+02 -0.32951429392E+03  0.35672702202E+03  0.00000000000E+00 0.  1.
          1    1    1    2  501    0 -0.85654752397E+02  0.21773785495E+02  0.69992769598E+02  0.11273784697E+03  0.00000000000E+00 0. -1.
<scales pt_clust_5="13000.00000" pt_clust_6="13000.00000" pt_clust_7="13000.00000" pt_clust_8="13000.00000" pt_clust_9="250.09786" pt_clust_10="88.37897"></scales>
<clustering>
<clus scale="   88.379">  2 10  1 -1</clus>
<clus scale="   89.692">  7  8 -1 -1</clus>
<clus scale="  103.860">  5  6 -1 -1</clus>
<clus scale="  104.883">  2  7  1 -1</clus>
<clus scale="  250.098">  2  9  1 -1</clus>
<clus scale="   88.379">  2  5  1 -1</clus>
</clustering>
</event>
<event>
10    4  0.3403565E-005  0.1092807E+03  0.7546771E-02  0.1265857E+00
         21   -1    0    0  503  502  0.00000000000E+00  0.00000000000E+00  0.34742115239E+03  0.34742115239E+03  0.00000000000E+00 0.  1.
         -1   -1    0    0    0  501 -0.00000000000E+00 -0.00000000000E+00 -0.47878143148E+03  0.47878143148E+03  0.00000000000E+00 0.  1.
         23    2    1    2    0    0 -0.25552516696E+01  0.86590132897E+02 -0.27407563516E+03  0.30160112430E+03  0.91331286904E+02 0.  0.
         24    2    1    2    0    0  0.43109368821E+02 -0.24801718524E+02 -0.15492312019E+03  0.18195858133E+03  0.81450655176E+02 0.  0.
        -13    1    4    4    0    0  0.61539462896E+02 -0.25745994646E+01 -0.12984978780E+03  0.14371743613E+03  0.00000000000E+00 0.  1.
         14    1    4    4    0    0 -0.18430094075E+02 -0.22227119060E+02 -0.25073332399E+02  0.38241145209E+02  0.00000000000E+00 0. -1.
        -13    1    3    3    0    0  0.41392030671E+02  0.19855508763E+02 -0.95321589297E+02  0.10580050481E+03  0.00000000000E+00 0. -1.
         13    1    3    3    0    0 -0.43947282341E+02  0.66734624134E+02 -0.17875404586E+03  0.19580061950E+03  0.00000000000E+00 0.  1.
         21    1    1    2  503  501  0.34136257794E+02 -0.57417372233E+02  0.23730998619E+03  0.24653208367E+03  0.00000000000E+00 0.  1.
         -2    1    1    2    0  502 -0.74690374945E+02 -0.43710421397E+01  0.60328490062E+02  0.96110794565E+02  0.00000000000E+00 0.  1.
<scales pt_clust_5="13000.00000" pt_clust_6="13000.00000" pt_clust_7="13000.00000" pt_clust_8="13000.00000" pt_clust_9="66.79849" pt_clust_10="68.13210"></scales>
<clustering>
<clus scale="   66.798">  1  9  2 -1</clus>
<clus scale="   68.132">  1 10  2 -1</clus>
<clus scale="   81.451">  5  6 -1 -1</clus>
<clus scale="   91.331">  7  8 -1 -1</clus>
<clus scale="  101.169">  1  5  2 -1</clus>
<clus scale="   66.798">  1  5  2 -1</clus>
</clustering>
</event>
<event>
10    4  0.3403565E-005  0.9859357E+02  0.7546771E-02  0.1296675E+00
          2   -1    0    0  502    0 -0.00000000000E+00  0.00000000000E+00  0.87771356051E+03  0.87771356051E+03  0.00000000000E+00 0. -1.
         21   -1    0    0  503  502  0.00000000000E+00 -0.00000000000E+00 -0.46325293182E+02  0.46325293182E+02  0.00000000000E+00 0. -1.
         23    2    1    2    0    0  0.25168090331E+02  0.17859242686E+02  0.44816301739E+03  0.45796500515E+03  0.89047574205E+02 0.  0.
         24    2    1    2    0    0 -0.94241754276E+02  0.23748698114E+02  0.19920751414E+03  0.23070229496E+03  0.63987547998E+02 0.  0.
        -13    1    4    4    0    0 -0.40609767958E+02  0.11932022494E+02  0.15357059298E+03  0.15929674650E+03  0.00000000000E+00 0.  1.
         14    1    4    4    0    0 -0.53631986318E+02  0.11816675620E+02  0.45636921160E+02  0.71405548469E+02  0.00000000000E+00 0. -1.
        -13    1    3    3    0    0 -0.33470695009E+02  0.36908296174E+01  0.17666245205E+03  0.17984307496E+03  0.00000000000E+00 0. -1.
         13    1    3    3    0    0  0.58638785340E+02  0.14168413068E+02  0.27150056534E+03  0.27812193019E+03  0.00000000000E+00 0.  1.
         21    1    1    2  503  501  0.66259999215E+00 -0.26889945143E+02 -0.10327203698E+02  0.28812485571E+02  0.00000000000E+00 0. -1.
          1    1    1    2  501    0  0.68411063952E+02 -0.14717995657E+02  0.19434493949E+03  0.20655906800E+03  0.00000000000E+00 0. -1.
<scales pt_clust_5="13000.00000" pt_clust_6="13000.00000" pt_clust_7="13000.00000" pt_clust_8="13000.00000" pt_clust_9="26.89811" pt_clust_10="71.66420"></scales>
<clustering>
<clus scale="   26.898">  2  9  1 -1</clus>
<clus scale="   63.988">  5  6 -1 -1</clus>
<clus scale="   71.664">  2 10  1 -1</clus>
<clus scale="   76.718">  2  5  1 -1</clus>
<clus scale="   89.048">  7  8 -1 -1</clus>
<clus scale="   26.898">  2  5  1 -1</clus>
</clustering>
</event>
<event>
10    4  0.3403565E-005  0.1894979E+03  0.7546771E-02  0.1164574E+00
         -3   -1    0    0    0  501 -0.00000000000E+00  0.00000000000E+00  0.21624125120E+03  0.21624125120E+03  0.00000000000E+00 0.  1.
         21   -1    0    0  501  502  0.00000000000E+00 -0.00000000000E+00 -0.79436396489E+03  0.79436396489E+03  0.00000000000E+00 0.  1.
         23    2    1    2    0    0  0.41474799188E+01 -0.14486134593E+03 -0.11817877035E+02  0.17548376916E+03  0.98249070668E+02 0.  0.
         24    2    1    2    0    0 -0.12922896356E+03  0.69045519318E+02 -0.71867740477E+02  0.18240000764E+03  0.81470128906E+02 0.  0.
        -13    1    4    4    0    0 -0.10942586105E+03  0.15781962177E+02 -0.42614781151E+02  0.11848674596E+03  0.00000000000E+00 0.  1.
         14    1    4    4    0    0 -0.19803102510E+02  0.53263557141E+02 -0.29252959327E+02  0.63913261673E+02  0.00000000000E+00 0. -1.
        -13    1    3    3    0    0 -0.22472523571E+02 -0.12581336580E+03  0.20554130300E+02  0.12944686015E+03  0.00000000000E+00 0.  1.
         13    1    3    3    0    0  0.26620003490E+02 -0.19047980134E+02 -0.32372007335E+02  0.46036909018E+02  0.00000000000E+00 0. -1.
         21    1    1    2  503  502 -0.94249666506E+02  0.50470276104E+02 -0.39743136140E+03  0.41156036669E+03  0.00000000000E+00 0.  1.
         -4    1    1    2    0  503  0.21933115015E+03  0.25345550511E+02 -0.97005734775E+02  0.24116107259E+03  0.00000000000E+00 0.  1.
<scales pt_clust_5="13000.00000" pt_clust_6="13000.00000" pt_clust_7="13000.00000" pt_clust_8="13000.00000" pt_clust_9="106.91234" pt_clust_10="171.09085"></scales>
<clustering>
<clus scale="   81.470">  5  6 -1 -1</clus>
<clus scale="   98.249">  7  8 -1 -1</clus>
<clus scale="  106.912">  2  9  1 -1</clus>
<clus scale="  166.175">  1  7  2 -1</clus>
<clus scale="  171.091">  2 10  1 -1</clus>
<clus scale="  106.912">  2  5  1 -1</clus>
</clustering>
</event>
<event>
10    4  0.3403565E-005  0.3104360E+03  0.7546771E-02  0.1102304E+00
          2   -1    0    0  503    0 -0.00000000000E+00  0.00000000000E+00  0.15062385199E+04  0.15062385199E+04  0.00000000000E+00 0. -1.
         21   -1    0    0  501  502  0.00000000000E+00 -0.00000000000E+00 -0.13974976515E+03  0.13974976515E+03  0.00000000000E+00 0. -1.
         24    2    1    2    0    0 -0.15973409082E+03  0.16196713042E+02  0.31283927853E+03  0.36080415747E+03  0.80832620711E+02 0.  0.
         23    2    1    2    0    0  0.30895201739E+03 -0.18657797308E+03  0.70543881816E+03  0.79733054537E+03  0.88483802659E+02 0.  0.
        -11    1    3    3    0    0 -0.10005697537E+03  0.17393598560E+02  0.11156808036E+03  0.15086872488E+03  0.00000000000E+00 0.  1.
         12    1    3    3    0    0 -0.59677115450E+02 -0.11968855179E+01  0.20127119817E+03  0.20993543259E+03  0.00000000000E+00 0. -1.
        -11    1    4    4    0    0  0.41952335479E+01 -0.25883031346E+02  0.65265548731E+02  0.70335788525E+02  0.00000000000E+00 0.  1.
         11    1    4    4    0    0  0.30475678385E+03 -0.16069494173E+03  0.64017326942E+03  0.72699475685E+03  0.00000000000E+00 0. -1.
         21    1    1    2  503  502  0.28406951036E+02 -0.42849436578E+02  0.11269611982E+03  0.12386865828E+03  0.00000000000E+00 0. -1.
          1    1    1    2  501    0 -0.17762487761E+03  0.21323069661E+03  0.23551453824E+03  0.36398492392E+03  0.00000000000E+00 0. -1.
<scales pt_clust_5="13000.00000" pt_clust_6="13000.00000" pt_clust_7="13000.00000" pt_clust_8="13000.00000" pt_clust_9="51.41040" pt_clust_10="297.55857"></scales>
<clustering>
<clus scale="   51.410">  1  9  2 -1</clus>
<clus scale="   80.833">  5  6 -1 -1</clus>
<clus scale="   88.484">  7  8 -1 -1</clus>
<clus scale="  172.996">  1  5  2 -1</clus>
<clus scale="  297.559">  2 10  1 -1</clus>
<clus scale="  297.559">  2  5  1 -1</clus>
</clustering>
</event>
<event>
10    4  0.3403565E-005  0.1276822E+03  0.7546771E-02  0.1248475E+00
         21   -1    0    0  503  502  0.00000000000E+00  0.00000000000E+00  0.22180307344E+03  0.22180307344E+03  0.00000000000E+00 0. -1.
          2   -1    0    0  502    0 -0.00000000000E+00 -0.00000000000E+00 -0.61763164881E+03  0.61763164881E+03  0.00000000000E+00 0. -1.
         24    2    1    2    0    0  0.34450386369E+02 -0.21923654038E+02 -0.96613188418E+02  0.13163211711E+03  0.79532574154E+02 0.  0.
         23    2    1    2    0    0  0.41098727724E+02 -0.24703492345E+02 -0.48559087949E+03  0.49668497341E+03  0.92725900397E+02 0.  0.
        -11    1    3    3    0    0 -0.16271178237E+02 -0.19929836612E+02 -0.40237429290E+01  0.26041123935E+02  0.00000000000E+00 0.  1.
         12    1    3    3    0    0  0.50721564607E+02 -0.19938174252E+01 -0.92589445489E+02  0.10559099318E+03  0.00000000000E+00 0. -1.
        -13    1    4    4    0    0  0.22444138618E+02 -0.59841956317E+02 -0.27070301190E+03  0.27814550104E+03  0.00000000000E+00 0.  1.
         13    1    4    4    0    0  0.18654589106E+02  0.35138463972E+02 -0.21488786759E+03  0.21853947237E+03  0.00000000000E+00 0. -1.
         21    1    1    2  503  501 -0.40573622443E+02  0.98593383776E+01  0.47404030654E+02  0.63170938838E+02  0.00000000000E+00 0. -1.
          1    1    1    2  501    0 -0.34975491650E+02  0.36767808005E+02  0.13897146188E+03  0.14794669290E+03  0.00000000000E+00 0. -1.
<scales pt_clust_5="13000.00000" pt_clust_6="13000.00000" pt_clust_7="13000.00000" pt_clust_8="13000.00000" pt_clust_9="40.08749" pt_clust_10="98.27365"></scales>
<clustering>
<clus scale="   40.087">  9 10 -1 -1</clus>
<clus scale="   79.533">  5  6 -1 -1</clus>
<clus scale="   89.403">  2  5  1 -1</clus>
<clus scale="   92.726">  7  8 -1 -1</clus>
<clus scale="   98.274">  1  9  2 -1</clus>
<clus scale="   98.274">  1  5  2 -1</clus>
</clustering>
</event>
<event>
10    4  0.3403565E-005  0.1588380E+03  0.7546771E-02  0.1213248E+00
         21   -1    0    0  501  502  0.00000000000E+00  0.00000000000E+00  0.34216229479E+03  0.34216229479E+03  0.00000000000E+00 0. -1.
          2   -1    0    0  503    0 -0.00000000000E+00 -0.00000000000E+00 -0.40099846186E+03  0.40099846186E+03  0.00000000000E+00 0. -1.
         23    2    1    2    0    0  0.75712311650E+01 -0.29880699987E+02 -0.48873868302E+02  0.10681930959E+03  0.89841694801E+02 0.  0.
         24    2    1    2    0    0 -0.11957232119E+03  0.90509601338E+02  0.97246281167E+02  0.19777370895E+03  0.84664472016E+02 0.  0.
        -13    1    4    4    0    0 -0.75850785834E+02  0.52694057770E+01  0.49586837941E+02  0.90774241092E+02  0.00000000000E+00 0.  1.
         14    1    4    4    0    0 -0.43721535356E+02  0.85240195561E+02  0.47659443226E+02  0.10699946786E+03  0.00000000000E+00 0. -1.
        -11    1    3    3    0    0 -0.36547544033E+02 -0.28954499270E+02 -0.93005809356E+01  0.47545628701E+02  0.00000000000E+00 0. -1.
         11    1    3    3    0    0  0.44118775198E+02 -0.92620071648E+00 -0.39573287367E+02  0.59273680886E+02  0.00000000000E+00 0.  1.
         21    1    1    2  503  502  0.52555112758E+01 -0.19370413708E+02  0.15299686504E+03  0.15430772514E+03  0.00000000000E+00 0. -1.
          1    1    1    2  501    0  0.10674557875E+03 -0.41258487643E+02 -0.26020544497E+03  0.28426001298E+03  0.00000000000E+00 0. -1.
<scales pt_clust_5="13000.00000" pt_clust_6="13000.00000" pt_clust_7="13000.00000" pt_clust_8="13000.00000" pt_clust_9="20.07071" pt_clust_10="134.39286"></scales>
<clustering>
<clus scale="   20.071">  1  9  2 -1</clus>
<clus scale="   84.664">  5  6 -1 -1</clus>
<clus scale="   89.842">  7  8 -1 -1</clus>
<clus scale="   96.028">  2  7  1 -1</clus>
<clus scale="  134.393">  1 10  2 -1</clus>
<clus scale="   20.071">  1  5  2 -1</clus>
</clustering>
</event>
<event>
10    4  0.3403565E-005  0.2116890E+03  0.7546771E-02  0.1177136E+00
          2   -1    0    0  503    0 -0.00000000000E+00  0.00000000000E+00  0.18914504960E+04  0.18914504960E+04  0.00000000000E+00 0. -1.
         21   -1    0    0  501  502  0.00000000000E+00 -0.00000000000E+00 -0.14754818630E+03  0.14754818630E+03  0.00000000000E+00 0. -1.
         24    2    1    2    0    0  0.37847372933E+02  0.14519789626E+01  0.26073064976E+03  0.27550534962E+03  0.80549326895E+02 0.  0.
         23    2    1    2    0    0  0.93406726406E+02 -0.12642194517E+03 -0.24865516837E+02  0.18332249998E+03  0.91002858826E+02 0.  0.
        -13    1    3    3    0    0 -0.21889109277E+02 -0.10981186712E+02  0.44073771580E+02  0.50420401703E+02  0.00000000000E+00 0.  1.
         14    1    3    3    0    0  0.59736482211E+02  0.12433165675E+02  0.21665687818E+03  0.22508494791E+03  0.00000000000E+00 0. -1.
        -11    1    4    4    0    0  0.24233097551E+02  0.17130788227E+01  0.19442952270E+02  0.31116009528E+02  0.00000000000E+00 0.  1.
         11    1    4    4    0    0  0.69173628855E+02 -0.12813502399E+03 -0.44308469107E+02  0.15220649046E+03  0.00000000000E+00 0. -1.
         21    1    1    2  503  502  0.17622392784E+02 -0.32794125119E+02 -0.16181877119E+02  0.40593798995E+02  0.00000000000E+00 0. -1.
          1    1    1    2  501    0 -0.14887649212E+03  0.15776409133E+03  0.15242190539E+04  0.15395770337E+04  0.00000000000E+00 0. -1.
<scales pt_clust_5="13000.00000" pt_clust_6="13000.00000" pt_clust_7="13000.00000" pt_clust_8="13000.00000" pt_clust_9="37.22907" pt_clust_10="191.13020"></scales>
<clustering>
<clus scale="   37.229">  2  9  1 -1</clus>
<clus scale="   80.549">  5  6 -1 -1</clus>
<clus scale="   89.470">  1  5  2 -1</clus>
<clus scale="   91.003">  7  8 -1 -1</clus>
<clus scale="  191.130">  2 10  1 -1</clus>
<clus scale="   37.229">  2  5  1 -1</clus>
</clustering>
</event>
<event>
10    4  0.3403565E-005  0.2724047E+03  0.7546771E-02  0.1139035E+00
          2   -1    0    0  502    0 -0.00000000000E+00  0.00000000000E+00  0.89098297713E+03  0.89098297713E+03  0.00000000000E+00 0. -1.
         21   -1    0    0  503  502  0.00000000000E+00 -0.00000000000E+00 -0.19569179666E+03  0.19569179666E+03  0.00000000000E+00 0. -1.
         23    2    1    2    0    0  0.19498957087E+02  0.46512654686E+02  0.17551577770E+03  0.20322061395E+03  0.89158248857E+02 0.  0.
         24    2    1    2    0    0 -0.13457802028E+03 -0.23428757041E+03  0.17383813361E+03  0.33130017354E+03  0.80859131203E+02 0.  0.
        -11    1    4    4    0    0 -0.65474094762E+02 -0.54927629230E+02  0.81365409694E+02  0.11800098064E+03  0.00000000000E+00 0.  1.
         12    1    4    4    0    0 -0.69103925521E+02 -0.17935994118E+03  0.92472723913E+02  0.21329919290E+03  0.00000000000E+00 0. -1.
        -11    1    3    3    0    0  0.50535124689E+02  0.43193083995E+02  0.87880724022E+02  0.11019284454E+03  0.00000000000E+00 0.  1.
         11    1    3    3    0    0 -0.31036167602E+02  0.33195706912E+01  0.87635053682E+02  0.93027769418E+02  0.00000000000E+00 0. -1.
         21    1    1    2  503  501 -0.43960837704E+02  0.12580439223E+02 -0.64103507113E+02  0.78740601515E+02  0.00000000000E+00 0.  1.
          1    1    1    2  501    0  0.15903990090E+03  0.17519447650E+03  0.41004077628E+03  0.47341338478E+03  0.00000000000E+00 0. -1.
<scales pt_clust_5="13000.00000" pt_clust_6="13000.00000" pt_clust_7="13000.00000" pt_clust_8="13000.00000" pt_clust_9="45.72551" pt_clust_10="260.12727"></scales>
<clustering>
<clus scale="   45.726">  2  9  1 -1</clus>
<clus scale="   80.859">  5  6 -1 -1</clus>
<clus scale="   89.158">  7  8 -1 -1</clus>
<clus scale="  102.265">  1  7  2 -1</clus>
<clus scale="  260.127">  2 10  1 -1</clus>
<clus scale="   45.726">  2  5  1 -1</clus>
</clustering>
</event>
<event>
10    4  0.3403565E-005  0.1446044E+03  0.7546771E-02  0.1234769E+00
          2   -1    0    0  502    0 -0.00000000000E+00  0.00000000000E+00  0.38523344568E+03  0.38523344568E+03  0.00000000000E+00 0. -1.
         21   -1    0    0  503  502  0.00000000000E+00 -0.00000000000E+00 -0.21624358710E+03  0.21624358710E+03  0.00000000000E+00 0.  1.
         24    2    1    2    0    0 -0.21140841516E+02  0.13312380704E+02  0.24779337839E+03  0.26069853266E+03  0.77058496578E+02 0.  0.
         23    2    1    2    0    0 -0.81034093125E+02  0.24866870019E+02  0.17734305146E+02  0.12653244847E+03  0.92255457633E+02 0.  0.
        -13    1    3    3    0    0  0.28810693628E+02  0.77747823274E+01  0.74183889394E+02  0.79960945175E+02  0.00000000000E+00 0.  1.
         14    1    3    3    0    0 -0.49951535144E+02  0.55375983769E+01  0.17360948900E+03  0.18073758749E+03  0.00000000000E+00 0. -1.
        -11    1    4    4    0    0 -0.25109668932E+01  0.21794405678E+02  0.39330759651E+02  0.45035649527E+02  0.00000000000E+00 0. -1.
         11    1    4    4    0    0 -0.78523126232E+02  0.30724643408E+01 -0.21596454505E+02  0.81496798940E+02  0.00000000000E+00 0.  1.
         21    1    1    2  503  501 -0.37624804598E+02 -0.27749246587E+02 -0.44985405781E+02  0.64879375309E+02  0.00000000000E+00 0.  1.
          1    1    1    2  501    0  0.13979973924E+03 -0.10430004136E+02 -0.51552419178E+02  0.14936667634E+03  0.00000000000E+00 0. -1.
<scales pt_clust_5="13000.00000" pt_clust_6="13000.00000" pt_clust_7="13000.00000" pt_clust_8="13000.00000" pt_clust_9="46.75090" pt_clust_10="111.35241"></scales>
<clustering>
<clus scale="   46.751">  2  9  1 -1</clus>
<clus scale="   77.058">  5  6 -1 -1</clus>
<clus scale="   81.239">  1  5  2 -1</clus>
<clus scale="   92.255">  7  8 -1 -1</clus>
<clus scale="  111.352">  2 10  1 -1</clus>
<clus scale="   46.751">  2  5  1 -1</clus>
</clustering>
</event>
<event>
10    4  0.3403565E-005  0.3015161E+03  0.7546771E-02  0.1084579E+00
         21   -1    0    0  501  502  0.00000000000E+00  0.00000000000E+00  0.88110121131E+03  0.88110121131E+03  0.00000000000E+00 0. -1.
          2   -1    0    0  503    0 -0.00000000000E+00 -0.00000000000E+00 -0.20424854410E+03  0.20424854410E+03  0.00000000000E+00 0. -1.
         24    2    1    2    0    0 -0.27822759129E+03  0.12690947725E+03  0.79283364758E+02  0.32773208942E+03  0.87211596347E+02 0.  0.
         23    2    1    2    0    0  0.24326897021E+03 -0.52209239383E+02  0.45577151588E+03  0.52696794935E+03  0.89788353426E+02 0.  0.
        -13    1    3    3    0    0 -0.45086430589E+02  0.43104512116E+02  0.46554000825E+02  0.77833541490E+02  0.00000000000E+00 0.  1.
         14    1    3    3    0    0 -0.23314116070E+03  0.83804965130E+02  0.32729363933E+02  0.24989854793E+03  0.00000000000E+00 0. -1.
        -13    1    4    4    0    0  0.14993151113E+03  0.47414924508E+01  0.31344549774E+03  0.34749103561E+03  0.00000000000E+00 0. -1.
         13    1    4    4    0    0  0.93337459081E+02 -0.56950731834E+02  0.14232601814E+03  0.17947691374E+03  0.00000000000E+00 0.  1.
         21    1    1    2  503  502 -0.47779654060E+02  0.16797861689E+02  0.74621569659E+02  0.90185598395E+02  0.00000000000E+00 0.  1.
          1    1    1    2  501    0  0.82738275141E+02 -0.91498099552E+02  0.67176216915E+02  0.14046411824E+03  0.00000000000E+00 0. -1.
<scales pt_clust_5="13000.00000" pt_clust_6="13000.00000" pt_clust_7="13000.00000" pt_clust_8="13000.00000" pt_clust_9="50.64646" pt_clust_10="117.61623"></scales>
<clustering>
<clus scale="   50.646">  1  9  2 -1</clus>
<clus scale="   87.212">  5  6 -1 -1</clus>
<clus scale="   89.788">  7  8 -1 -1</clus>
<clus scale="  117.616">  1 10  2 -1</clus>
<clus scale="  300.759">  2  5  1 -1</clus>
<clus scale="   50.646">  1  5  2 -1</clus>
</clustering>
</event>
<event>
10    4  0.3403565E-005  0.3402373E+03  0.7546771E-02  0.1121717E+00
         21   -1    0    0  501  502  0.00000000000E+00  0.00000000000E+00  0.24931418085E+03  0.24931418085E+03  0.00000000000E+00 0.  1.
          2   -1    0    0  503    0 -0.00000000000E+00 -0.00000000000E+00 -0.23395291469E+04  0.23395291469E+04  0.00000000000E+00 0. -1.
         24    2    1    2    0    0  0.53438914383E+01  0.25782937123E+01 -0.15753698417E+03  0.17685520599E+03  0.80153962662E+02 0.  0.
         23    2    1    2    0    0 -0.14072774451E+03  0.32567623679E+03 -0.38609872615E+03  0.53294479768E+03  0.95334263263E+02 0.  0.
        -11    1    3    3    0    0  0.28567541106E+02  0.26242326397E+02 -0.12303047818E+03  0.12900101806E+03  0.00000000000E+00 0.  1.
         12    1    3    3    0    0 -0.23223649668E+02 -0.23664032685E+02 -0.34506505990E+02  0.47854187929E+02  0.00000000000E+00 0. -1.
        -11    1    4    4    0    0 -0.97188301716E+02  0.25839584709E+03 -0.34801472156E+03  0.44421641821E+03  0.00000000000E+00 0.  1.
         11    1    4    4    0    0 -0.43539442796E+02  0.67280389702E+02 -0.38084004584E+02  0.88728379466E+02  0.00000000000E+00 0. -1.
         21    1    1    2  503  502 -0.12819074457E+02 -0.46615940101E+02  0.14755608141E+03  0.15527450435E+03  0.00000000000E+00 0.  1.
          1    1    1    2  501    0  0.14820292753E+03 -0.28163859041E+03 -0.16941353372E+04  0.17237688198E+04  0.00000000000E+00 0. -1.
<scales pt_clust_5="13000.00000" pt_clust_6="13000.00000" pt_clust_7="13000.00000" pt_clust_8="13000.00000" pt_clust_9="48.34640" pt_clust_10="326.60824"></scales>
<clustering>
<clus scale="   48.346">  1  9  2 -1</clus>
<clus scale="   80.154">  5  6 -1 -1</clus>
<clus scale="   80.283">  2  5  1 -1</clus>
<clus scale="   95.334">  7  8 -1 -1</clus>
<clus scale="  326.608">  1 10  2 -1</clus>
<clus scale="   48.346">  1  5  2 -1</clus>
</clustering>
</event>
<event>
10    4  0.3403565E-005  0.7216613E+03  0.7546771E-02  0.1028303E+00
         21   -1    0    0  501  502  0.00000000000E+00  0.00000000000E+00  0.13501333623E+04  0.13501333623E+04  0.00000000000E+00 0.  1.
          2   -1    0    0  503    0 -0.00000000000E+00 -0.00000000000E+00 -0.17279071787E+04  0.17279071787E+04  0.00000000000E+00 0. -1.
         24    2    1    2    0    0  0.69598711785E+02 -0.23012409468E+02 -0.52299986086E+02  0.11930887699E+03  0.78267285065E+02 0.  0.
         23    2    1    2    0    0  0.27026577956E+03 -0.54472356787E+02 -0.47589154136E+03  0.56070269634E+03  0.10910511117E+03 0.  0.
        -13    1    3    3    0    0  0.53745119074E+02  0.81141774978E+01  0.23995239303E+01  0.54407126517E+02  0.00000000000E+00 0.  1.
         14    1    3    3    0    0  0.15853592711E+02 -0.31126586965E+02 -0.54699510017E+02  0.64901750470E+02  0.00000000000E+00 0. -1.
        -11    1    4    4    0    0  0.61213094817E+02  0.31714086481E+02 -0.13583293974E+03  0.15232666798E+03  0.00000000000E+00 0.  1.
         11    1    4    4    0    0  0.20905268474E+03 -0.86186443268E+02 -0.34005860162E+03  0.40837602836E+03  0.00000000000E+00 0. -1.
         21    1    1    2  503  502  0.68159890932E+03 -0.75421932553E+02  0.89301247792E+03  0.11259381985E+04  0.00000000000E+00 0.  1.
          1    1    1    2  501    0 -0.10214634007E+04  0.15290669881E+03 -0.74259476677E+03  0.12720907692E+04  0.00000000000E+00 0. -1.
<scales pt_clust_5="13000.00000" pt_clust_6="13000.00000" pt_clust_7="13000.00000" pt_clust_8="13000.00000" pt_clust_9="13000.00000" pt_clust_10="721.66131"></scales>
<clustering>
<clus scale="   78.267">  5  6 -1 -1</clus>
<clus scale="  107.235">  2  5  1 -1</clus>
<clus scale="  109.105">  7  8 -1 -1</clus>
<clus scale="  317.987">  2  7  1 -1</clus>
<clus scale="  721.661">  2 10  1 -1</clus>
<clus scale="  721.661">  1  5  2 -1</clus>
</clustering>
</event>
<event>
10    4  0.3403565E-005  0.1320616E+03  0.7546771E-02  0.1241401E+00
         21   -1    0    0  503  502  0.00000000000E+00  0.00000000000E+00  0.63486974334E+02  0.63486974334E+02  0.00000000000E+00 0.  1.
         -1   -1    0    0    0  501 -0.00000000000E+00 -0.00000000000E+00 -0.85505342395E+03  0.85505342395E+03  0.00000000000E+00 0.  1.
         23    2    1    2    0    0 -0.81703635166E+01  0.60023152244E+01 -0.40689394164E+03  0.41740641814E+03  0.92534618022E+02 0.  0.
         24    2    1    2    0    0  0.11128888657E+03 -0.30387129211E+02 -0.28449436681E+03  0.31737079295E+03  0.80489636463E+02 0.  0.
        -11    1    4    4    0    0  0.99651700453E+02 -0.54724533144E+02 -0.23043959767E+03  0.25695844821E+03  0.00000000000E+00 0.  1.
         12    1    4    4    0    0  0.11637186114E+02  0.24337403933E+02 -0.54054769144E+02  0.60412344749E+02  0.00000000000E+00 0. -1.
        -13    1    3    3    0    0 -0.83732460418E+01 -0.41968504481E+02 -0.23866414924E+03  0.24247070493E+03  0.00000000000E+00 0.  1.
         13    1    3    3    0    0  0.20288252520E+00  0.47970819705E+02 -0.16822979240E+03  0.17493571321E+03  0.00000000000E+00 0. -1.
         21    1    1    2  503  501 -0.20332886179E+02 -0.32309545086E+02  0.48825501260E+01  0.38486000829E+02  0.00000000000E+00 0.  1.
         -2    1    1    2    0  502 -0.82785636872E+02  0.56694359072E+02 -0.10506069129E+03  0.14527718636E+03  0.00000000000E+00 0.  1.
<scales pt_clust_5="13000.00000" pt_clust_6="13000.00000" pt_clust_7="13000.00000" pt_clust_8="13000.00000" pt_clust_9="38.17503" pt_clust_10="104.69809"></scales>
<clustering>
<clus scale="   38.175">  1  9  2 -1</clus>
<clus scale="   80.490">  5  6 -1 -1</clus>
<clus scale="   92.535">  7  8 -1 -1</clus>
<clus scale="   93.174">  2  7  1 -1</clus>
<clus scale="  104.698">  1 10  2 -1</clus>
<clus scale="   38.175">  1  5  2 -1</clus>
</clustering>
</event>
<event>
10    4  0.3403565E-005  0.1532076E+03  0.7546771E-02  0.1211402E+00
         21   -1    0    0  501  502  0.00000000000E+00  0.00000000000E+00  0.81551409040E+03  0.81551409040E+03  0.00000000000E+00 0.  1.
          2   -1    0    0  503    0 -0.00000000000E+00 -0.00000000000E+00 -0.44222476363E+03  0.44222476363E+03  0.00000000000E+00 0. -1.
         24    2    1    2    0    0  0.70110234890E+02  0.37784521714E+02 -0.24662062471E+03  0.27083266800E+03  0.78647863316E+02 0.  0.
         23    2    1    2    0    0 -0.12304413343E+03  0.77089571205E+02 -0.78108081678E+02  0.18795724856E+03  0.90246296905E+02 0.  0.
        -13    1    3    3    0    0  0.38062459726E+02  0.29466887347E+02 -0.22762924311E+03  0.23266310539E+03  0.00000000000E+00 0.  1.
         14    1    3    3    0    0  0.32047775164E+02  0.83176343678E+01 -0.18991381596E+02  0.38169562604E+02  0.00000000000E+00 0. -1.
        -11    1    4    4    0    0  0.72024115621E+01  0.29091811172E+02 -0.26044792720E+02  0.39705660017E+02  0.00000000000E+00 0.  1.
         11    1    4    4    0    0 -0.13024654499E+03  0.47997760033E+02 -0.52063288958E+02  0.14825158855E+03  0.00000000000E+00 0. -1.
         21    1    1    2  503  502  0.82095157923E+02 -0.45704438495E+02  0.71568991268E+03  0.72183139428E+03  0.00000000000E+00 0.  1.
          1    1    1    2  501    0 -0.29161259388E+02 -0.69169654424E+02 -0.17671879521E+02  0.77117543193E+02  0.00000000000E+00 0. -1.
<scales pt_clust_5="13000.00000" pt_clust_6="13000.00000" pt_clust_7="13000.00000" pt_clust_8="13000.00000" pt_clust_9="123.80697" pt_clust_10="75.06548"></scales>
<clustering>
<clus scale="   75.065">  1 10  2 -1</clus>
<clus scale="   78.648">  5  6 -1 -1</clus>
<clus scale="   90.246">  7  8 -1 -1</clus>
<clus scale="  111.294">  2  5  1 -1</clus>
<clus scale="  123.807">  1  9  2 -1</clus>
<clus scale="   75.065">  1  5  2 -1</clus>
</clustering>
</event>
<event>
10    4  0.3403565E-005  0.4032359E+03  0.7546771E-02  0.1094432E+00
          2   -1    0    0  503    0 -0.00000000000E+00  0.00000000000E+00  0.53854086943E+03  0.53854086943E+03  0.00000000000E+00 0. -1.
         21   -1    0    0  501  502  0.00000000000E+00 -0.00000000000E+00 -0.49914456755E+03  0.49914456755E+03  0.00000000000E+00 0. -1.
         23    2    1    2    0    0 -0.29539983388E+02 -0.11106443761E+01 -0.64455448697E+02  0.11579593628E+03  0.91544250740E+02 0.  0.
         24    2    1    2    0    0  0.41002730190E+03 -0.41177741804E+02  0.11797156726E+03  0.43734707833E+03  0.86816942606E+02 0.  0.
        -13    1    4    4    0    0  0.23664164133E+03  0.10635463532E+02  0.39704917527E+02  0.24018505359E+03  0.00000000000E+00 0.  1.
         14    1    4    4    0    0  0.17338566057E+03 -0.51813205337E+02  0.78266649730E+02  0.19716202474E+03  0.00000000000E+00 0. -1.
        -13    1    3    3    0    0 -0.29982333325E+02 -0.42535194890E+02 -0.22066705117E+02  0.56525415440E+02  0.00000000000E+00 0.  1.
         13    1    3    3    0    0  0.44234993732E+00  0.41424550514E+02 -0.42388743580E+02  0.59270520843E+02  0.00000000000E+00 0. -1.
         21    1    1    2  503  502 -0.74446406715E+01 -0.20461718337E+02 -0.95207538652E+02  0.97665654189E+02  0.00000000000E+00 0.  1.
          1    1    1    2  501    0 -0.37304267784E+03  0.62750104517E+02  0.81087721968E+02  0.38687676818E+03  0.00000000000E+00 0. -1.
<scales pt_clust_5="13000.00000" pt_clust_6="13000.00000" pt_clust_7="13000.00000" pt_clust_8="13000.00000" pt_clust_9="21.77394" pt_clust_10="393.77911"></scales>
<clustering>
<clus scale="   21.774">  2  9  1 -1</clus>
<clus scale="   86.817">  5  6 -1 -1</clus>
<clus scale="   91.544">  7  8 -1 -1</clus>
<clus scale="   96.884">  1  7  2 -1</clus>
<clus scale="  393.779">  2 10  1 -1</clus>
<clus scale="   21.774">  2  5  1 -1</clus>
</clustering>
</event>
<event>
10    4  0.3403565E-005  0.2246956E+03  0.7546771E-02  0.1146419E+00
          2   -1    0    0  503    0 -0.00000000000E+00  0.00000000000E+00  0.10469316256E+04  0.10469316256E+04  0.00000000000E+00 0. -1.
         21   -1    0    0  501  502  0.00000000000E+00 -0.00000000000E+00 -0.10452093775E+03  0.10452093775E+03  0.00000000000E+00 0.  1.
         24    2    1    2    0    0  0.99867880256E+02 -0.57278452553E+02  0.10343307815E+03  0.17555967739E+03  0.82875714400E+02 0.  0.
         23    2    1    2    0    0  0.62372827984E+02  0.19012656474E+03  0.45370264304E+03  0.50424957675E+03  0.91559090540E+02 0.  0.
        -11    1    3    3    0    0  0.10222388608E+03 -0.45712580793E+02  0.11394159889E+03  0.15975622331E+03  0.00000000000E+00 0.  1.
         12    1    3    3    0    0 -0.23560058197E+01 -0.11565871760E+02 -0.10508520739E+02  0.15803454089E+02  0.00000000000E+00 0. -1.
        -13    1    4    4    0    0  0.56505728472E+02  0.10183480108E+03  0.34475687015E+03  0.36389630883E+03  0.00000000000E+00 0. -1.
         13    1    4    4    0    0  0.58670995117E+01  0.88291763655E+02  0.10894577289E+03  0.14035326792E+03  0.00000000000E+00 0.  1.
         21    1    1    2  503  502  0.35292181884E+02 -0.82703347638E+01  0.33192162241E+02  0.49149325260E+02  0.00000000000E+00 0.  1.
          1    1    1    2  501    0 -0.19753289012E+03 -0.12457777742E+03  0.35208280441E+03  0.42249398394E+03  0.00000000000E+00 0. -1.
<scales pt_clust_5="13000.00000" pt_clust_6="13000.00000" pt_clust_7="13000.00000" pt_clust_8="13000.00000" pt_clust_9="36.24826" pt_clust_10="205.19518"></scales>
<clustering>
<clus scale="   36.248">  2  9  1 -1</clus>
<clus scale="   82.876">  5  6 -1 -1</clus>
<clus scale="   91.559">  7  8 -1 -1</clus>
<clus scale="  152.621">  1  5  2 -1</clus>
<clus scale="  205.195">  2 10  1 -1</clus>
<clus scale="   36.248">  2  5  1 -1</clus>
</clustering>
</event>
<event>
10    4  0.3403565E-005  0.1514145E+03  0.7546771E-02  0.1201172E+00
          2   -1    0    0  503    0 -0.00000000000E+00  0.00000000000E+00  0.69336026188E+03  0.69336026188E+03  0.00000000000E+00 0. -1.
         21   -1    0    0  501  502  0.00000000000E+00 -0.00000000000E+00 -0.98808305025E+02  0.98808305025E+02  0.00000000000E+00 0.  1.
         23    2    1    2    0    0 -0.85212698847E+02  0.91489891067E+02  0.41097644822E+03  0.43941831846E+03  0.92494396540E+02 0.  0.
         24    2    1    2    0    0  0.12584764391E+03 -0.17996192808E+02  0.11206212424E+03  0.18703266107E+03  0.79131562489E+02 0.  0.
        -11    1    4    4    0    0  0.11595963742E+03  0.44009691524E+00  0.59234703296E+02  0.13021359864E+03  0.00000000000E+00 0.  1.
         12    1    4    4    0    0  0.98880064900E+01 -0.18436289723E+02  0.52827420945E+02  0.56819062425E+02  0.00000000000E+00 0. -1.
        -11    1    3    3    0    0 -0.47024748957E+02 -0.50676995654E+01  0.84610690449E+02  0.96932850632E+02  0.00000000000E+00 0. -1.
         11    1    3    3    0    0 -0.38187949890E+02  0.96557590632E+02  0.32636575777E+03  0.34248546783E+03  0.00000000000E+00 0.  1.
         21    1    1    2  503  502 -0.60022384465E+02 -0.17671548414E+02 -0.11702341426E+02  0.63654654622E+02  0.00000000000E+00 0.  1.
          1    1    1    2  501    0  0.19387439399E+02 -0.55822149845E+02  0.83215725818E+02  0.10206293276E+03  0.00000000000E+00 0. -1.
<scales pt_clust_5="13000.00000" pt_clust_6="13000.00000" pt_clust_7="13000.00000" pt_clust_8="13000.00000" pt_clust_9="66.22728" pt_clust_10="59.09305"></scales>
<clustering>
<clus scale="   59.093">  2 10  1 -1</clus>
<clus scale="   66.227">  2  9  1 -1</clus>
<clus scale="   79.132">  5  6 -1 -1</clus>
<clus scale="   92.494">  7  8 -1 -1</clus>
<clus scale="  143.642">  2  5  1 -1</clus>
<clus scale="   59.093">  2  5  1 -1</clus>
</clustering>
</event>
<event>
10    4  0.3403565E-005  0.1055045E+03  0.7546771E-02  0.1271200E+00
          4   -1    0    0  503    0 -0.00000000000E+00  0.00000000000E+00  0.20232086889E+03  0.20232086889E+03  0.00000000000E+00 0. -1.
         21   -1    0    0  501  502  0.00000000000E+00 -0.00000000000E+00 -0.41043089660E+03  0.41043089660E+03  0.00000000000E+00 0.  1.
         24    2    1    2    0    0  0.40835689446E+02  0.43670654324E+02  0.12759045797E+03  0.16259507231E+03  0.81136631632E+02 0.  0.
         23    2    1    2    0    0 -0.61940089288E+02 -0.27957237114E+02 -0.76971925335E+01  0.11007789930E+03  0.86253784696E+02 0.  0.
        -13    1    3    3    0    0  0.29796188078E+02 -0.77651194150E+01  0.78027742674E+01  0.31764653150E+02  0.00000000000E+00 0.  1.
         14    1    3    3    0    0  0.11039501368E+02  0.51435773739E+02  0.11978768370E+03  0.13083041916E+03  0.00000000000E+00 0. -1.
        -11    1    4    4    0    0 -0.36258564138E+02 -0.59088048252E+02 -0.74031678932E+01  0.69720067516E+02  0.00000000000E+00 0.  1.
         11    1    4    4    0    0 -0.25681525150E+02  0.31130811138E+02 -0.29402464025E+00  0.40357831788E+02  0.00000000000E+00 0. -1.
         21    1    1    2  503  502  0.20292529344E+02  0.28256544489E+02 -0.23058004124E+03  0.23318956767E+03  0.00000000000E+00 0.  1.
          3    1    1    2  501    0  0.81187049767E+00 -0.43969961699E+02 -0.97423251913E+02  0.10688922621E+03  0.00000000000E+00 0. -1.
<scales pt_clust_5="13000.00000" pt_clust_6="13000.00000" pt_clust_7="13000.00000" pt_clust_8="13000.00000" pt_clust_9="34.78820" pt_clust_10="30.45179"></scales>
<clustering>
<clus scale="   34.788">  2  9  1 -1</clus>
<clus scale="   30.452">  2 10  1 -1</clus>
<clus scale="   81.137">  5  6 -1 -1</clus>
<clus scale="   86.254">  7  8 -1 -1</clus>
<clus scale="  101.364">  1  5  2 -1</clus>
<clus scale="   34.788">  2  5  1 -1</clus>
</clustering>
</event>
<event>
10    4  0.3403565E-005  0.1537479E+03  0.7546771E-02  0.1209376E+00
         21   -1    0    0  501  502  0.00000000000E+00  0.00000000000E+00  0.81098225873E+02  0.81098225873E+02  0.00000000000E+00 0. -1.
          2   -1    0    0  503    0 -0.00000000000E+00 -0.00000000000E+00 -0.22894764326E+04  0.22894764326E+04  0.00000000000E+00 0. -1.
         24    2    1    2    0    0  0.68885406344E+02  0.41419975589E+02 -0.17995995700E+04  0.18032107399E+04  0.80929270983E+02 0.  0.
         23    2    1    2    0    0  0.62148873490E+02  0.16266484794E+01 -0.25220571067E+03  0.27527173867E+03  0.91113561876E+02 0.  0.
        -13    1    3    3    0    0 -0.19132356576E+01  0.20928713825E+02 -0.10913015420E+03  0.11113533231E+03  0.00000000000E+00 0.  1.
         14    1    3    3    0    0  0.70798642001E+02  0.20491261763E+02 -0.16904694158E+04  0.16920754076E+04  0.00000000000E+00 0. -1.
        -13    1    4    4    0    0 -0.34492403054E+01 -0.34181468935E+02 -0.99390099555E+02  0.10516017291E+03  0.00000000000E+00 0. -1.
         13    1    4    4    0    0  0.65598113796E+02  0.35808117415E+02 -0.15281561111E+03  0.17011156576E+03  0.00000000000E+00 0.  1.
         21    1    1    2  503  502  0.55197197264E+02 -0.25851442010E+01 -0.25951084581E+02  0.61048115019E+02  0.00000000000E+00 0. -1.
          1    1    1    2  501    0 -0.18623147710E+03 -0.40461479867E+02 -0.13062184155E+03  0.23104406485E+03  0.00000000000E+00 0. -1.
<scales pt_clust_5="13000.00000" pt_clust_6="13000.00000" pt_clust_7="13000.00000" pt_clust_8="13000.00000" pt_clust_9="55.25770" pt_clust_10="123.84163"></scales>
<clustering>
<clus scale="   55.258">  1  9  2 -1</clus>
<clus scale="   80.929">  5  6 -1 -1</clus>
<clus scale="   91.114">  7  8 -1 -1</clus>
<clus scale="  114.990">  2  5  1 -1</clus>
<clus scale="  123.842">  1 10  2 -1</clus>
<clus scale="   55.258">  1  5  2 -1</clus>
</clustering>
</event>
<event>
10    4  0.3403565E-005  0.1010282E+03  0.7546771E-02  0.1278838E+00
          2   -1    0    0  503    0 -0.00000000000E+00  0.00000000000E+00  0.37768013021E+03  0.37768013021E+03  0.00000000000E+00 0. -1.
         21   -1    0    0  501  502  0.00000000000E+00 -0.00000000000E+00 -0.26802391334E+03  0.26802391334E+03  0.00000000000E+00 0.  1.
         23    2    1    2    0    0 -0.69859475003E+02  0.41965688966E+02  0.15912262013E+03  0.20016564757E+03  0.90026734541E+02 0.  0.
         24    2    1    2    0    0 -0.18904308897E+02  0.98963890962E+00  0.21364606080E+02  0.93030481747E+02  0.88543050891E+02 0.  0.
        -13    1    4    4    0    0 -0.52133519080E+02 -0.13362888675E+02  0.78252474389E+01  0.54384787422E+02  0.00000000000E+00 0.  1.
         14    1    4    4    0    0  0.33229210183E+02  0.14352527584E+02  0.13539358641E+02  0.38645694325E+02  0.00000000000E+00 0. -1.
        -13    1    3    3    0    0 -0.16585808881E+02  0.16217029541E+02 -0.66653258149E+01  0.24135195702E+02  0.00000000000E+00 0.  1.
         13    1    3    3    0    0 -0.53273666123E+02  0.25748659425E+02  0.16578794594E+03  0.17603045187E+03  0.00000000000E+00 0. -1.
         21    1    1    2  503  502  0.11803477960E+02 -0.31560184201E+02 -0.19940298785E+03  0.20222986644E+03  0.00000000000E+00 0.  1.
          1    1    1    2  501    0  0.76960305941E+02 -0.11395143674E+02  0.12857197851E+03  0.15027804779E+03  0.00000000000E+00 0. -1.
<scales pt_clust_5="13000.00000" pt_clust_6="13000.00000" pt_clust_7="13000.00000" pt_clust_8="13000.00000" pt_clust_9="33.69521" pt_clust_10="80.57226"></scales>
<clustering>
<clus scale="   33.695">  2  9  1 -1</clus>
<clus scale="   80.572">  2 10  1 -1</clus>
<clus scale="   88.543">  5  6 -1 -1</clus>
<clus scale="   90.027">  7  8 -1 -1</clus>
<clus scale="   99.708">  2  5  1 -1</clus>
<clus scale="   33.695">  2  5  1 -1</clus>
</clustering>
</event>
<event>
10    4  0.3403565E-005  0.9507212E+02  0.7546771E-02  0.1297515E+00
          2   -1    0    0  503    0 -0.00000000000E+00  0.00000000000E+00  0.26676434251E+03  0.26676434251E+03  0.00000000000E+00 0. -1.
         21   -1    0    0  501  502  0.00000000000E+00 -0.00000000000E+00 -0.34087870676E+03  0.34087870676E+03  0.00000000000E+00 0. -1.
         23    2    1    2    0    0 -0.79783944685E+00 -0.15021639385E+02  0.10685604523E+03  0.14139246828E+03  0.91363720840E+02 0.  0.
         24    2    1    2    0    0 -0.63383935804E+02 -0.13372879075E+02  0.86867511467E+02  0.13471333383E+03  0.80033496434E+02 0.  0.
        -13    1    4    4    0    0 -0.12837020690E+02  0.19709946912E+02 -0.56765285954E+01  0.24196985026E+02  0.00000000000E+00 0.  1.
         14    1    4    4    0    0 -0.50546915113E+02 -0.33082825987E+02  0.92544040062E+02  0.11051634881E+03  0.00000000000E+00 0. -1.
        -13    1    3    3    0    0  0.29008714462E+02 -0.34318718943E+02  0.23328691124E+02  0.50631095329E+02  0.00000000000E+00 0.  1.
         13    1    3    3    0    0 -0.29806553909E+02  0.19297079559E+02  0.83527354106E+02  0.90761372948E+02  0.00000000000E+00 0. -1.
         21    1    1    2  503  502 -0.24303689680E+02 -0.39598429834E+02 -0.59194901809E+01  0.46837435256E+02  0.00000000000E+00 0.  1.
          1    1    1    2  501    0  0.88485464930E+02  0.67992948294E+02 -0.26191843076E+03  0.28469981190E+03  0.00000000000E+00 0. -1.
<scales pt_clust_5="13000.00000" pt_clust_6="13000.00000" pt_clust_7="13000.00000" pt_clust_8="13000.00000" pt_clust_9="46.46187" pt_clust_10="75.27088"></scales>
<clustering>
<clus scale="   46.462">  2  9  1 -1</clus>
<clus scale="   75.271">  2 10  1 -1</clus>
<clus scale="   80.033">  5  6 -1 -1</clus>
<clus scale="   84.242">  2  5  1 -1</clus>
<clus scale="   91.364">  7  8 -1 -1</clus>
<clus scale="   46.462">  2  5  1 -1</clus>
</clustering>
</event>
<event>
10    4  0.3403565E-005  0.2191914E+03  0.7546771E-02  0.1171010E+00
         21   -1    0    0  503  502  0.00000000000E+00  0.00000000000E+00  0.67143114276E+02  0.67143114276E+02  0.00000000000E+00 0. -1.
          2   -1    0    0  502    0 -0.00000000000E+00 -0.00000000000E+00 -0.23229964217E+04  0.23229964217E+04  0.00000000000E+00 0. -1.
         24    2    1    2    0    0  0.47003264230E+02 -0.32807486572E+02 -0.10826816871E+04  0.10867634525E+04  0.74629271315E+02 0.  0.
         23    2    1    2    0    0  0.19069073053E+03 -0.87416662761E+01 -0.68611746759E+03  0.71793960195E+03  0.90778418593E+02 0.  0.
        -11    1    3    3    0    0  0.18901215575E+02 -0.14552900549E+02 -0.79011406643E+02  0.82533903605E+02  0.00000000000E+00 0.  1.
         12    1    3    3    0    0  0.28102048656E+02 -0.18254586023E+02 -0.10036702804E+04  0.10042295489E+04  0.00000000000E+00 0. -1.
        -13    1    4    4    0    0  0.53299769547E+02 -0.16664060386E+02 -0.88227075474E+02  0.10441538770E+03  0.00000000000E+00 0. -1.
         13    1    4    4    0    0  0.13739096098E+03  0.79223941104E+01 -0.59789039211E+03  0.61352421425E+03  0.00000000000E+00 0.  1.
         21    1    1    2  503  501 -0.33804232175E+02  0.31745539469E+02  0.10578940856E+02  0.47564896497E+02  0.00000000000E+00 0. -1.
          1    1    1    2  501    0 -0.20388976258E+03  0.98036133787E+01 -0.49763309365E+03  0.53787158507E+03  0.00000000000E+00 0. -1.
<scales pt_clust_5="13000.00000" pt_clust_6="13000.00000" pt_clust_7="13000.00000" pt_clust_8="13000.00000" pt_clust_9="46.37354" pt_clust_10="199.50985"></scales>
<clustering>
<clus scale="   46.374">  1  9  2 -1</clus>
<clus scale="   74.629">  5  6 -1 -1</clus>
<clus scale="   90.778">  7  8 -1 -1</clus>
<clus scale="   92.625">  2  5  1 -1</clus>
<clus scale="  199.510">  1 10  2 -1</clus>
<clus scale="   46.374">  1  5  2 -1</clus>
</clustering>
</event>
<event>
10    4  0.3403565E-005  0.2711741E+03  0.7546771E-02  0.1101158E+00
          2   -1    0    0  502    0 -0.00000000000E+00  0.00000000000E+00  0.64967429270E+03  0.64967429270E+03  0.00000000000E+00 0. -1.
         21   -1    0    0  503  502  0.00000000000E+00 -0.00000000000E+00 -0.23015247552E+03  0.23015247552E+03  0.00000000000E+00 0. -1.
         24    2    1    2    0    0 -0.18561535558E+03  0.23974824826E+03  0.28065531485E+03  0.42096307027E+03  0.80685922011E+02 0.  0.
         23    2    1    2    0    0  0.10133474597E+03 -0.15915741124E+03  0.17050430529E+02  0.21086011047E+03  0.92582161955E+02 0.  0.
        -13    1    3    3    0    0 -0.69196422715E+02  0.91830331387E+02  0.16125786137E+03  0.19805315583E+03  0.00000000000E+00 0.  1.
         14    1    3    3    0    0 -0.11641893286E+03  0.14791791687E+03  0.11939745347E+03  0.22290991444E+03  0.00000000000E+00 0. -1.
        -13    1    4    4    0    0  0.77836163912E+02 -0.39291516202E+02 -0.21227996192E+01  0.87216958994E+02  0.00000000000E+00 0. -1.
         13    1    4    4    0    0  0.23498582057E+02 -0.11986589504E+03  0.19173230148E+02  0.12364315148E+03  0.00000000000E+00 0.  1.
         21    1    1    2  503  501 -0.23719302626E+02 -0.34720064964E+01 -0.35093485147E+02  0.42499562891E+02  0.00000000000E+00 0. -1.
          1    1    1    2  501    0  0.10799991223E+03 -0.77118830517E+02  0.15690955695E+03  0.20550402459E+03  0.00000000000E+00 0. -1.
<scales pt_clust_5="13000.00000" pt_clust_6="13000.00000" pt_clust_7="13000.00000" pt_clust_8="13000.00000" pt_clust_9="23.97207" pt_clust_10="130.52984"></scales>
<clustering>
<clus scale="   23.972">  2  9  1 -1</clus>
<clus scale="   80.686">  5  6 -1 -1</clus>
<clus scale="   92.582">  7  8 -1 -1</clus>
<clus scale="  130.530">  2 10  1 -1</clus>
<clus scale="  267.346">  1  5  2 -1</clus>
<clus scale="   23.972">  2  5  1 -1</clus>
</clustering>
</event>
<event>
10    4  0.3403565E-005  0.1845427E+03  0.7546771E-02  0.1165142E+00
         21   -1    0    0  501  502  0.00000000000E+00  0.00000000000E+00  0.74203304015E+03  0.74203304015E+03  0.00000000000E+00 0.  1.
          4   -1    0    0  503    0 -0.00000000000E+00 -0.00000000000E+00 -0.68577198027E+02  0.68577198027E+02  0.00000000000E+00 0. -1.
         23    2    1    2    0    0 -0.32358487049E+02  0.16756414916E+03  0.22334721903E+03  0.29675340186E+03  0.95151382040E+02 0.  0.
         24    2    1    2    0    0 -0.13186818260E+02 -0.14597451104E+03  0.28638466642E+03  0.33171026749E+03  0.80827435604E+02 0.  0.
        -13    1    4    4    0    0 -0.16030339392E+02 -0.13172425460E+03  0.28799000671E+03  0.31709067315E+03  0.00000000000E+00 0.  1.
         14    1    4    4    0    0  0.28435211316E+01 -0.14250256444E+02 -0.16053402957E+01  0.14619594338E+02  0.00000000000E+00 0. -1.
        -11    1    3    3    0    0 -0.52874502110E+02  0.15371631762E+03  0.21712053578E+03  0.27123006163E+03  0.00000000000E+00 0.  1.
         11    1    3    3    0    0  0.20516015061E+02  0.13847831539E+02  0.62266832454E+01  0.25523340232E+02  0.00000000000E+00 0. -1.
         21    1    1    2  503  502  0.36933034003E+02  0.16580788903E+02  0.76652014518E+02  0.86686232419E+02  0.00000000000E+00 0.  1.
          3    1    1    2  501    0  0.86122713061E+01 -0.38170427018E+02  0.87071942162E+02  0.95460336411E+02  0.00000000000E+00 0. -1.
<scales pt_clust_5="13000.00000" pt_clust_6="13000.00000" pt_clust_7="13000.00000" pt_clust_8="13000.00000" pt_clust_9="39.80036" pt_clust_10="39.12995"></scales>
<clustering>
<clus scale="   39.130">  1 10  2 -1</clus>
<clus scale="   39.800">  1  9  2 -1</clus>
<clus scale="   80.827">  5  6 -1 -1</clus>
<clus scale="   95.151">  7  8 -1 -1</clus>
<clus scale="  177.582">  1  5  2 -1</clus>
<clus scale="   39.130">  1  5  2 -1</clus>
</clustering>
</event>
<event>
10    4  0.3403565E-005  0.1029797E+03  0.7546771E-02  0.1276988E+00
         21   -1    0    0  503  502  0.00000000000E+00  0.00000000000E+00  0.12253237202E+03  0.12253237202E+03  0.00000000000E+00 0. -1.
          2   -1    0    0  502    0 -0.00000000000E+00 -0.00000000000E+00 -0.35041828691E+03  0.35041828691E+03  0.00000000000E+00 0. -1.
         24    2    1    2    0    0 -0.47739895410E+02 -0.47489799233E+02 -0.25595318077E+03  0.27677146855E+03  0.80969354772E+02 0.  0.
         23    2    1    2    0    0  0.26273084042E+02 -0.14447332820E+02 -0.24719978356E+02  0.95699834392E+02  0.87455020451E+02 0.  0.
        -13    1    3    3    0    0 -0.22315866836E+02 -0.22042747821E+01 -0.85870607861E+01  0.24012379159E+02  0.00000000000E+00 0.  1.
         14    1    3    3    0    0 -0.25424028574E+02 -0.45285524451E+02 -0.24736611999E+03  0.25275908939E+03  0.00000000000E+00 0. -1.
        -13    1    4    4    0    0  0.52447093013E+02  0.12620230619E+02 -0.20909350406E+02  0.57854720817E+02  0.00000000000E+00 0.  1.
         13    1    4    4    0    0 -0.26174008971E+02 -0.27067563440E+02 -0.38106279496E+01  0.37845113576E+02  0.00000000000E+00 0. -1.
         21    1    1    2  503  501 -0.29229253554E+01  0.28072983378E+02  0.51499212784E+02  0.58726525572E+02  0.00000000000E+00 0. -1.
          1    1    1    2  501    0  0.24389736724E+02  0.33864148676E+02  0.12880314529E+01  0.41752830419E+02  0.00000000000E+00 0. -1.
<scales pt_clust_5="13000.00000" pt_clust_6="13000.00000" pt_clust_7="13000.00000" pt_clust_8="13000.00000" pt_clust_9="28.22474" pt_clust_10="48.82835"></scales>
<clustering>
<clus scale="   28.225">  1  9  2 -1</clus>
<clus scale="   48.828">  1 10  2 -1</clus>
<clus scale="   80.969">  5  6 -1 -1</clus>
<clus scale="   87.455">  7  8 -1 -1</clus>
<clus scale="   97.532">  2  5  1 -1</clus>
<clus scale="   28.225">  1  5  2 -1</clus>
</clustering>
</event>
<event>
10    4  0.3403565E-005  0.4940380E+03  0.7546771E-02  0.1015571E+00
         21   -1    0    0  503  502  0.00000000000E+00  0.00000000000E+00  0.40914688168E+03  0.40914688168E+03  0.00000000000E+00 0.  1.
          2   -1    0    0  502    0 -0.00000000000E+00 -0.00000000000E+00 -0.20963621053E+04  0.20963621053E+04  0.00000000000E+00 0. -1.
         23    2    1    2    0    0  0.49542969992E+03 -0.18145827817E+03 -0.16953576484E+04  0.17781686386E+04  0.96272824944E+02 0.  0.
         24    2    1    2    0    0 -0.32069819553E+03  0.16128636548E+03 -0.15211111599E+03  0.39742025843E+03  0.77100232763E+02 0.  0.
        -11    1    4    4    0    0 -0.28267280053E+03  0.14013112816E+03 -0.15910397977E+03  0.35334787620E+03  0.00000000000E+00 0.  1.
         12    1    4    4    0    0 -0.38025395001E+02  0.21155237324E+02  0.69928637751E+01  0.44072382225E+02  0.00000000000E+00 0. -1.
        -13    1    3    3    0    0  0.20011718109E+02  0.90837434568E+01 -0.10844461572E+03  0.11064907562E+03  0.00000000000E+00 0.  1.
         13    1    3    3    0    0  0.47541798181E+03 -0.19054202163E+03 -0.15869130327E+04  0.16675195629E+04  0.00000000000E+00 0. -1.
         21    1    1    2  503  501 -0.10868128971E+02 -0.40677000906E+02  0.14891894485E+03  0.15475654030E+03  0.00000000000E+00 0.  1.
          1    1    1    2  501    0 -0.16386337541E+03  0.60848913593E+02  0.11334595906E+02  0.17516354972E+03  0.00000000000E+00 0. -1.
<scales pt_clust_5="13000.00000" pt_clust_6="13000.00000" pt_clust_7="13000.00000" pt_clust_8="13000.00000" pt_clust_9="42.10386" pt_clust_10="174.02130"></scales>
<clustering>
<clus scale="   42.104">  1  9  2 -1</clus>
<clus scale="   77.100">  5  6 -1 -1</clus>
<clus scale="   96.273">  7  8 -1 -1</clus>
<clus scale="  174.021">  1 10  2 -1</clus>
<clus scale="  490.662">  1  5  2 -1</clus>
<clus scale="   42.104">  1  5  2 -1</clus>
</clustering>
</event>
<event>
10    4  0.3403565E-005  0.1180164E+03  0.7546771E-02  0.1259952E+00
         21   -1    0    0  503  502  0.00000000000E+00  0.00000000000E+00  0.76817567608E+02  0.76817567608E+02  0.00000000000E+00 0.  1.
          2   -1    0    0  502    0 -0.00000000000E+00 -0.00000000000E+00 -0.52831483960E+03  0.52831483960E+03  0.00000000000E+00 0. -1.
         24    2    1    2    0    0  0.62434134096E+01 -0.37689260920E+02 -0.14816883533E+03  0.17319134062E+03  0.81128146178E+02 0.  0.
         23    2    1    2    0    0 -0.19085803681E+01 -0.56234666215E+02 -0.59749797242E+02  0.12214629091E+03  0.90463792474E+02 0.  0.
        -11    1    3    3    0    0  0.38914418664E+02 -0.11368453144E+02 -0.10695249989E+03  0.11437836744E+03  0.00000000000E+00 0.  1.
         12    1    3    3    0    0 -0.32671005254E+02 -0.26320807777E+02 -0.41216335442E+02  0.58812973174E+02  0.00000000000E+00 0. -1.
        -11    1    4    4    0    0  0.35785570185E+02  0.34403326318E+01 -0.19873140751E+02  0.41077787737E+02  0.00000000000E+00 0. -1.
         11    1    4    4    0    0 -0.37694150553E+02 -0.59674998847E+02 -0.39876656491E+02  0.81068503170E+02  0.00000000000E+00 0.  1.
         21    1    1    2  503  501 -0.34954846848E+02 -0.69603717994E+01  0.84275000631E+01  0.36623910920E+02  0.00000000000E+00 0. -1.
          1    1    1    2  501    0  0.30620013807E+02  0.10088429894E+03 -0.25200613948E+03  0.27317086476E+03  0.00000000000E+00 0. -1.
<scales pt_clust_5="13000.00000" pt_clust_6="13000.00000" pt_clust_7="13000.00000" pt_clust_8="13000.00000" pt_clust_9="35.64110" pt_clust_10="75.79033"></scales>
<clustering>
<clus scale="   35.641">  1  9  2 -1</clus>
<clus scale="   81.128">  5  6 -1 -1</clus>
<clus scale="   90.161">  2  5  1 -1</clus>
<clus scale="   75.790">  1 10  2 -1</clus>
<clus scale="   90.464">  7  8 -1 -1</clus>
<clus scale="   35.641">  1  5  2 -1</clus>
</clustering>
</event>
<event>
10    4  0.3403565E-005  0.2000136E+03  0.7546771E-02  0.1185061E+00
         21   -1    0    0  501  502  0.00000000000E+00  0.00000000000E+00  0.13286901063E+03  0.13286901063E+03  0.00000000000E+00 0.  1.
          2   -1    0    0  503    0 -0.00000000000E+00 -0.00000000000E+00 -0.53114193481E+03  0.53114193481E+03  0.00000000000E+00 0. -1.
         24    2    1    2    0    0 -0.19600476178E+02 -0.33027770122E+02 -0.10961286259E+03  0.14099262289E+03  0.79930768790E+02 0.  0.
         23    2    1    2    0    0  0.17163776286E+03  0.40928375696E+02 -0.18287539643E+03  0.27285562494E+03  0.99358582241E+02 0.  0.
        -13    1    3    3    0    0  0.26023713419E+02 -0.11632441587E+02 -0.73962015403E+02  0.79264917081E+02  0.00000000000E+00 0.  1.
         14    1    3    3    0    0 -0.45624189597E+02 -0.21395328536E+02 -0.35650847185E+02  0.61727705810E+02  0.00000000000E+00 0. -1.
        -13    1    4    4    0    0  0.12760856164E+03  0.41648434809E+02 -0.69350460935E+02  0.15108945548E+03  0.00000000000E+00 0.  1.
         13    1    4    4    0    0  0.44029201219E+02 -0.72005911362E+00 -0.11352493549E+03  0.12176616946E+03  0.00000000000E+00 0. -1.
         21    1    1    2  503  502 -0.18484660215E+03  0.11255142024E+02 -0.70017397926E+02  0.19798328354E+03  0.00000000000E+00 0. -1.
          1    1    1    2  501    0  0.32809315473E+02 -0.19155747597E+02 -0.35767267234E+02  0.52179414074E+02  0.00000000000E+00 0. -1.
<scales pt_clust_5="13000.00000" pt_clust_6="13000.00000" pt_clust_7="13000.00000" pt_clust_8="13000.00000" pt_clust_9="173.58951" pt_clust_10="37.99204"></scales>
<clustering>
<clus scale="   37.992">  1 10  2 -1</clus>
<clus scale="   79.931">  5  6 -1 -1</clus>
<clus scale="   88.793">  2  5  1 -1</clus>
<clus scale="   99.359">  7  8 -1 -1</clus>
<clus scale="  173.590">  1  9  2 -1</clus>
<clus scale="   37.992">  1  5  2 -1</clus>
</clustering>
</event>
<event>
10    4  0.3403565E-005  0.1455629E+03  0.7546771E-02  0.1222930E+00
         21   -1    0    0  501  502  0.00000000000E+00  0.00000000000E+00  0.78538745273E+03  0.78538745273E+03  0.00000000000E+00 0. -1.
          2   -1    0    0  503    0 -0.00000000000E+00 -0.00000000000E+00 -0.19784051054E+03  0.19784051054E+03  0.00000000000E+00 0. -1.
         24    2    1    2    0    0 -0.53446776365E+00 -0.65577726938E+02 -0.14096077701E+02  0.10272156320E+03  0.77796505151E+02 0.  0.
         23    2    1    2    0    0  0.55049201478E+02 -0.99422936981E+01  0.12285824438E+02  0.10656264084E+03  0.89863180187E+02 0.  0.
        -11    1    3    3    0    0  0.19339904674E+02 -0.55228047254E+02 -0.38144930384E+02  0.69851305144E+02  0.00000000000E+00 0.  1.
         12    1    3    3    0    0 -0.19874372438E+02 -0.10349679684E+02  0.24048852683E+02  0.32870258057E+02  0.00000000000E+00 0. -1.
        -11    1    4    4    0    0  0.74702424066E+01  0.35496586137E+02 -0.90728016226E+01  0.37391548220E+02  0.00000000000E+00 0.  1.
         11    1    4    4    0    0  0.47578959071E+02 -0.45438879835E+02  0.21358626061E+02  0.69171092620E+02  0.00000000000E+00 0. -1.
         21    1    1    2  503  502  0.10189173245E+03 -0.36268446696E+02  0.57062529142E+03  0.58078442522E+03  0.00000000000E+00 0. -1.
          1    1    1    2  501    0 -0.15640646617E+03  0.11178846733E+03  0.18731904028E+02  0.19315933401E+03  0.00000000000E+00 0. -1.
<scales pt_clust_5="13000.00000" pt_clust_6="13000.00000" pt_clust_7="13000.00000" pt_clust_8="13000.00000" pt_clust_9="108.96035" pt_clust_10="114.51279"></scales>
<clustering>
<clus scale="   77.797">  5  6 -1 -1</clus>
<clus scale="   89.863">  7  8 -1 -1</clus>
<clus scale="  101.750">  2  5  1 -1</clus>
<clus scale="  108.960">  1  9  2 -1</clus>
<clus scale="  114.513">  1 10  2 -1</clus>
<clus scale="  108.960">  1  5  2 -1</clus>
</clustering>
</event>
<event>
10    4  0.3403565E-005  0.2312849E+03  0.7546771E-02  0.1161767E+00
         -1   -1    0    0    0  501 -0.00000000000E+00  0.00000000000E+00  0.53196643327E+03  0.53196643327E+03  0.00000000000E+00 0.  1.
         21   -1    0    0  501  502  0.00000000000E+00 -0.00000000000E+00 -0.27948968367E+03  0.27948968367E+03  0.00000000000E+00 0.  1.
         23    2    1    2    0    0 -0.37651276266E+02  0.17574225514E+01  0.16823508241E+03  0.19465569510E+03  0.90371951076E+02 0.  0.
         24    2    1    2    0    0 -0.19050683465E+03 -0.13379423738E+02  0.24932608801E+03  0.32420760216E+03  0.80468677796E+02 0.  0.
        -11    1    4    4    0    0 -0.26123685360E+02  0.23362920065E+02  0.22377480232E+02  0.41581541485E+02  0.00000000000E+00 0.  1.
         12    1    4    4    0    0 -0.16438314929E+03 -0.36742343803E+02  0.22694860778E+03  0.28262606068E+03  0.00000000000E+00 0. -1.
        -13    1    3    3    0    0 -0.20493342528E+02 -0.30986095131E+02  0.20633468432E+02  0.42495355029E+02  0.00000000000E+00 0. -1.
         13    1    3    3    0    0 -0.17157933738E+02  0.32743517683E+02  0.14760161398E+03  0.15216034007E+03  0.00000000000E+00 0.  1.
         21    1    1    2  503  502  0.18265040445E+02  0.12363289236E+02 -0.46622803116E+02  0.51576626428E+02  0.00000000000E+00 0.  1.
         -2    1    1    2    0  503  0.20989307047E+03 -0.74128804936E+00 -0.11846161771E+03  0.24101619325E+03  0.00000000000E+00 0.  1.
<scales pt_clust_5="13000.00000" pt_clust_6="13000.00000" pt_clust_7="13000.00000" pt_clust_8="13000.00000" pt_clust_9="22.05590" pt_clust_10="216.83519"></scales>
<clustering>
<clus scale="   22.056">  2  9  1 -1</clus>
<clus scale="   80.469">  5  6 -1 -1</clus>
<clus scale="   90.372">  7  8 -1 -1</clus>
<clus scale="   97.535">  1  7  2 -1</clus>
<clus scale="  216.835">  2 10  1 -1</clus>
<clus scale="   22.056">  2  5  1 -1</clus>
</clustering>
</event>
<event>
10    4  0.3403565E-005  0.1343932E+03  0.7546771E-02  0.1223386E+00
         21   -1    0    0  503  502  0.00000000000E+00  0.00000000000E+00  0.99794132465E+02  0.99794132465E+02  0.00000000000E+00 0. -1.
          2   -1    0    0  502    0 -0.00000000000E+00 -0.00000000000E+00 -0.94066071996E+03  0.94066071996E+03  0.00000000000E+00 0. -1.
         23    2    1    2    0    0  0.73414388140E+02 -0.56086358869E+02 -0.58463188811E+03  0.59877474576E+03  0.90561578606E+02 0.  0.
         24    2    1    2    0    0 -0.19832960151E+02  0.17088486943E+03 -0.22898077525E+03  0.29760146485E+03  0.80866875418E+02 0.  0.
        -11    1    4    4    0    0 -0.44604493363E+02  0.76162331248E+02 -0.78776128715E+02  0.11830443772E+03  0.00000000000E+00 0.  1.
         12    1    4    4    0    0  0.24771533212E+02  0.94722538180E+02 -0.15020464653E+03  0.17929702713E+03  0.00000000000E+00 0. -1.
        -11    1    3    3    0    0 -0.16827270794E+02 -0.31704071033E+02 -0.16191110951E+03  0.16584182990E+03  0.00000000000E+00 0.  1.
         11    1    3    3    0    0  0.90241658934E+02 -0.24382287836E+02 -0.42272077860E+03  0.43293291585E+03  0.00000000000E+00 0. -1.
         21    1    1    2  503  501  0.11247325507E+02 -0.17135232555E+02  0.74805900818E+01  0.21819206075E+02  0.00000000000E+00 0.  1.
          1    1    1    2  501    0 -0.64828753496E+02 -0.97663278005E+02 -0.34734514216E+02  0.12225943574E+03  0.00000000000E+00 0. -1.
<scales pt_clust_5="13000.00000" pt_clust_6="13000.00000" pt_clust_7="13000.00000" pt_clust_8="13000.00000" pt_clust_9="20.49679" pt_clust_10="121.74812"></scales>
<clustering>
<clus scale="   20.497">  1  9  2 -1</clus>
<clus scale="   80.867">  5  6 -1 -1</clus>
<clus scale="   90.562">  7  8 -1 -1</clus>
<clus scale="  121.748">  1 10  2 -1</clus>
<clus scale="  128.061">  1  5  2 -1</clus>
<clus scale="   20.497">  1  5  2 -1</clus>
</clustering>
</event>
<event>
10    4  0.3403565E-005  0.2341258E+03  0.7546771E-02  0.1164862E+00
          2   -1    0    0  503    0 -0.00000000000E+00  0.00000000000E+00  0.41856361992E+03  0.41856361992E+03  0.00000000000E+00 0. -1.
         21   -1    0    0  501  502  0.00000000000E+00 -0.00000000000E+00 -0.48902162672E+03  0.48902162672E+03  0.00000000000E+00 0. -1.
         24    2    1    2    0    0  0.24684499777E+02 -0.26977014563E+01  0.26190163507E+03  0.27610988920E+03  0.83830795863E+02 0.  0.
         23    2    1    2    0    0 -0.20144489491E+03  0.10584144859E+03 -0.25415579433E+03  0.35307497080E+03  0.91018181086E+02 0.  0.
        -13    1    3    3    0    0  0.32321626675E+02 -0.38787277014E+02  0.14654558118E+03  0.15499918636E+03  0.00000000000E+00 0.  1.
         14    1    3    3    0    0 -0.76371268984E+01  0.36089575558E+02  0.11535605390E+03  0.12111070284E+03  0.00000000000E+00 0. -1.
        -13    1    4    4    0    0 -0.12175807411E+03  0.65505644747E+02 -0.21485444003E+03  0.25549647455E+03  0.00000000000E+00 0.  1.
         13    1    4    4    0    0 -0.79686820803E+02  0.40335803840E+02 -0.39301354297E+02  0.97578496251E+02  0.00000000000E+00 0. -1.
         21    1    1    2  503  502  0.22706066784E+02  0.26451531213E+02 -0.68489957350E+02  0.76851305976E+02  0.00000000000E+00 0. -1.
          1    1    1    2  501    0  0.15405432835E+03 -0.12959527834E+03 -0.97138901925E+01  0.20154908066E+03  0.00000000000E+00 0. -1.
<scales pt_clust_5="13000.00000" pt_clust_6="13000.00000" pt_clust_7="13000.00000" pt_clust_8="13000.00000" pt_clust_9="34.86042" pt_clust_10="215.70955"></scales>
<clustering>
<clus scale="   34.860">  2  9  1 -1</clus>
<clus scale="   83.831">  5  6 -1 -1</clus>
<clus scale="   87.529">  1  5  2 -1</clus>
<clus scale="   91.018">  7  8 -1 -1</clus>
<clus scale="  215.710">  2 10  1 -1</clus>
<clus scale="   34.860">  2  5  1 -1</clus>
</clustering>
</event>
<event>
10    4  0.3403565E-005  0.1084432E+03  0.7546771E-02  0.1263682E+00
          2   -1    0    0  502    0 -0.00000000000E+00  0.00000000000E+00  0.10240380143E+03  0.10240380143E+03  0.00000000000E+00 0. -1.
         21   -1    0    0  503  502  0.00000000000E+00 -0.00000000000E+00 -0.26702701482E+03  0.26702701482E+03  0.00000000000E+00 0.  1.
         23    2    1    2    0    0  0.33567255773E+02  0.41159176636E+01 -0.39246947484E+02  0.10245328423E+03  0.88389202538E+02 0.  0.
         24    2    1    2    0    0 -0.10797527425E+03  0.22276600369E+02 -0.66518441313E+02  0.15588422453E+03  0.87865133299E+02 0.  0.
        -11    1    4    4    0    0 -0.12215126100E+03  0.16429918877E+02 -0.67489032700E+02  0.14051918849E+03  0.00000000000E+00 0.  1.
         12    1    4    4    0    0  0.14175986754E+02  0.58466814921E+01  0.97059138739E+00  0.15365036042E+02  0.00000000000E+00 0. -1.
        -13    1    3    3    0    0 -0.24430409863E+02  0.16148258939E+02  0.33763056200E+01  0.29478986286E+02  0.00000000000E+00 0. -1.
         13    1    3    3    0    0  0.57997665636E+02 -0.12032341275E+02 -0.42623253104E+02  0.72974297948E+02  0.00000000000E+00 0.  1.
         21    1    1    2  503  501  0.26989956878E+02 -0.26243189704E+02 -0.50430936733E+02  0.62932043967E+02  0.00000000000E+00 0. -1.
          1    1    1    2  501    0  0.47418061598E+02 -0.14932832834E+00 -0.84268878611E+01  0.48161263518E+02  0.00000000000E+00 0. -1.
<scales pt_clust_5="13000.00000" pt_clust_6="13000.00000" pt_clust_7="13000.00000" pt_clust_8="13000.00000" pt_clust_9="37.64522" pt_clust_10="51.18099"></scales>
<clustering>
<clus scale="   37.645">  2  9  1 -1</clus>
<clus scale="   51.181">  2 10  1 -1</clus>
<clus scale="   87.865">  5  6 -1 -1</clus>
<clus scale="   88.389">  7  8 -1 -1</clus>
<clus scale="  108.016">  2  5  1 -1</clus>
<clus scale="   37.645">  2  5  1 -1</clus>
</clustering>
</event>
<event>
10    4  0.3403565E-005  0.4064470E+03  0.7546771E-02  0.1067560E+00
          2   -1    0    0  503    0 -0.00000000000E+00  0.00000000000E+00  0.17823808467E+04  0.17823808467E+04  0.00000000000E+00 0. -1.
         21   -1    0    0  501  502  0.00000000000E+00 -0.00000000000E+00 -0.17612221395E+03  0.17612221395E+03  0.00000000000E+00 0. -1.
         24    2    1    2    0    0 -0.77388883006E+02  0.15280230080E+03  0.19074649263E+03  0.26821842747E+03  0.78862653019E+02 0.  0.
         23    2    1    2    0    0 -0.14662838437E+03 -0.43784868463E+03  0.88988670575E+03  0.10068899471E+04  0.93368424320E+02 0.  0.
        -11    1    3    3    0    0 -0.23139355647E+02  0.46705992904E+02  0.11699328806E+03  0.12807930748E+03  0.00000000000E+00 0.  1.
         12    1    3    3    0    0 -0.54249527359E+02  0.10609630790E+03  0.73753204571E+02  0.14013912000E+03  0.00000000000E+00 0. -1.
        -13    1    4    4    0    0 -0.10310335228E+03 -0.31640957774E+03  0.54383674555E+03  0.63757644871E+03  0.00000000000E+00 0.  1.
         13    1    4    4    0    0 -0.43525032095E+02 -0.12143910689E+03  0.34604996021E+03  0.36931349834E+03  0.00000000000E+00 0. -1.
         21    1    1    2  503  502 -0.29449625301E+02  0.15843624929E+02 -0.78113741274E+01  0.34341206254E+02  0.00000000000E+00 0. -1.
          1    1    1    2  501    0  0.25346689268E+03  0.26920275890E+03  0.53343680848E+03  0.64905347986E+03  0.00000000000E+00 0. -1.
<scales pt_clust_5="13000.00000" pt_clust_6="13000.00000" pt_clust_7="13000.00000" pt_clust_8="13000.00000" pt_clust_9="33.44101" pt_clust_10="395.57748"></scales>
<clustering>
<clus scale="   33.441">  2  9  1 -1</clus>
<clus scale="   78.863">  5  6 -1 -1</clus>
<clus scale="   93.368">  7  8 -1 -1</clus>
<clus scale="  194.872">  1  5  2 -1</clus>
<clus scale="  395.577">  2 10  1 -1</clus>
<clus scale="   33.441">  2  5  1 -1</clus>
</clustering>
</event>
<event>
10    4  0.3403565E-005  0.2224188E+03  0.7546771E-02  0.1170251E+00
         21   -1    0    0  501  502  0.00000000000E+00  0.00000000000E+00  0.60842677505E+02  0.60842677505E+02  0.00000000000E+00 0. -1.
          2   -1    0    0  503    0 -0.00000000000E+00 -0.00000000000E+00 -0.24129806720E+04  0.24129806720E+04  0.00000000000E+00 0. -1.
         23    2    1    2    0    0 -0.16329131726E+02 -0.46691421387E+01 -0.66359995357E+02  0.11135039731E+03  0.87788499048E+02 0.  0.
         24    2    1    2    0    0  0.16482907396E+03 -0.11395602312E+03 -0.17622025576E+04  0.17753570653E+04  0.79876508190E+02 0.  0.
        -13    1    4    4    0    0  0.45689195329E+02 -0.49868430484E+01 -0.22152886649E+03  0.22624634773E+03  0.00000000000E+00 0.  1.
         14    1    4    4    0    0  0.11913987863E+03 -0.10896918007E+03 -0.15406736911E+04  0.15491107176E+04  0.00000000000E+00 0. -1.
        -13    1    3    3    0    0  0.18485281973E+02 -0.33146887356E+02 -0.10009857174E+02  0.39250720142E+02  0.00000000000E+00 0. -1.
         13    1    3    3    0    0 -0.34814413699E+02  0.28477745217E+02 -0.56350138183E+02  0.72099677163E+02  0.00000000000E+00 0.  1.
         21    1    1    2  503  502  0.17753174485E+02 -0.34885376137E+02 -0.86157717475E+02  0.94632536440E+02  0.00000000000E+00 0. -1.
          1    1    1    2  501    0 -0.16625311672E+03  0.15351054140E+03 -0.43741772412E+03  0.49248335050E+03  0.00000000000E+00 0. -1.
<scales pt_clust_5="13000.00000" pt_clust_6="13000.00000" pt_clust_7="13000.00000" pt_clust_8="13000.00000" pt_clust_9="39.14288" pt_clust_10="207.58095"></scales>
<clustering>
<clus scale="   39.143">  1  9  2 -1</clus>
<clus scale="   79.877">  5  6 -1 -1</clus>
<clus scale="   87.788">  7  8 -1 -1</clus>
<clus scale="   90.201">  2  7  1 -1</clus>
<clus scale="  207.581">  1 10  2 -1</clus>
<clus scale="   39.143">  1  5  2 -1</clus>
</clustering>
</event>
<event>
10    4  0.3403565E-005  0.3066700E+03  0.7546771E-02  0.1108389E+00
         21   -1    0    0  501  502  0.00000000000E+00  0.00000000000E+00  0.52015101969E+03  0.52015101969E+03  0.00000000000E+00 0. -1.
          2   -1    0    0  503    0 -0.00000000000E+00 -0.00000000000E+00 -0.97340765889E+03  0.97340765889E+03  0.00000000000E+00 0. -1.
         23    2    1    2    0    0  0.74824070468E-01 -0.14182034141E+03  0.38786614792E+02  0.17309662398E+03  0.91351107863E+02 0.  0.
         24    2    1    2    0    0  0.14524278714E+03  0.35377621504E+03 -0.72500496855E+03  0.82358453085E+03  0.80038724882E+02 0.  0.
        -13    1    4    4    0    0  0.73431708096E+02  0.88564743357E+02 -0.18906999352E+03  0.22132191931E+03  0.00000000000E+00 0.  1.
         14    1    4    4    0    0  0.71811079043E+02  0.26521147169E+03 -0.53593497503E+03  0.60226261153E+03  0.00000000000E+00 0. -1.
        -11    1    3    3    0    0  0.34090133848E+02 -0.15358654096E+02  0.40327538286E+01  0.37607028397E+02  0.00000000000E+00 0.  1.
         11    1    3    3    0    0 -0.34015309778E+02 -0.12646168732E+03  0.34753860963E+02  0.13548959558E+03  0.00000000000E+00 0. -1.
         21    1    1    2  503  502  0.31655457499E+02  0.82639717458E+02  0.14558424009E+02  0.89684662014E+02  0.00000000000E+00 0. -1.
          1    1    1    2  501    0 -0.17697306871E+03 -0.29459559109E+03  0.21840329055E+03  0.40719286175E+03  0.00000000000E+00 0. -1.
<scales pt_clust_5="13000.00000" pt_clust_6="13000.00000" pt_clust_7="13000.00000" pt_clust_8="13000.00000" pt_clust_9="88.49515" pt_clust_10="296.04103"></scales>
<clustering>
<clus scale="   80.039">  5  6 -1 -1</clus>
<clus scale="   88.495">  1  9  2 -1</clus>
<clus scale="   91.351">  7  8 -1 -1</clus>
<clus scale="  153.475">  2  7  1 -1</clus>
<clus scale="  296.041">  1 10  2 -1</clus>
<clus scale="   88.495">  1  5  2 -1</clus>
</clustering>
</event>
<event>
10    4  0.3403565E-005  0.5684414E+03  0.7546771E-02  0.1012446E+00
         21   -1    0    0  501  502  0.00000000000E+00  0.00000000000E+00  0.22700698837E+03  0.22700698837E+03  0.00000000000E+00 0. -1.
          2   -1    0    0  503    0 -0.00000000000E+00 -0.00000000000E+00 -0.31875386047E+04  0.31875386047E+04  0.00000000000E+00 0. -1.
         23    2    1    2    0    0  0.31870267394E+03 -0.11277863349E+03 -0.11498900684E+04  0.12018160815E+04  0.88455128807E+02 0.  0.
         24    2    1    2    0    0 -0.66877252898E+03 -0.16869184361E+03 -0.78885633794E+03  0.10527161118E+04  0.10101117019E+03 0.  0.
        -11    1    4    4    0    0 -0.15366152057E+03 -0.73252642915E+02 -0.15334270856E+03  0.22911088771E+03  0.00000000000E+00 0.  1.
         12    1    4    4    0    0 -0.51511100841E+03 -0.95439200698E+02 -0.63551362938E+03  0.82360522408E+03  0.00000000000E+00 0. -1.
        -11    1    3    3    0    0  0.76440794351E+02 -0.27972770889E+02 -0.42750178380E+03  0.43518208385E+03  0.00000000000E+00 0.  1.
         11    1    3    3    0    0  0.24226187959E+03 -0.84805862602E+02 -0.72238828461E+03  0.76663399766E+03  0.00000000000E+00 0. -1.
         21    1    1    2  503  502  0.29970003960E+02 -0.38593475027E+02 -0.76759550163E+01  0.49462892530E+02  0.00000000000E+00 0.  1.
          1    1    1    2  501    0  0.32009985107E+03  0.32006395213E+03 -0.10141092550E+04  0.11105505072E+04  0.00000000000E+00 0. -1.
<scales pt_clust_5="13000.00000" pt_clust_6="13000.00000" pt_clust_7="13000.00000" pt_clust_8="13000.00000" pt_clust_9="48.86366" pt_clust_10="559.39497"></scales>
<clustering>
<clus scale="   48.864">  1  9  2 -1</clus>
<clus scale="   88.455">  7  8 -1 -1</clus>
<clus scale="  101.011">  5  6 -1 -1</clus>
<clus scale="  354.479">  2  7  1 -1</clus>
<clus scale="  559.395">  1 10  2 -1</clus>
<clus scale="   48.864">  1  5  2 -1</clus>
</clustering>
</event>
<event>
10    4  0.3403565E-005  0.1979353E+03  0.7546771E-02  0.1152958E+00
          2   -1    0    0  503    0 -0.00000000000E+00  0.00000000000E+00  0.35159199773E+03  0.35159199773E+03  0.00000000000E+00 0. -1.
         21   -1    0    0  501  502  0.00000000000E+00 -0.00000000000E+00 -0.29909412149E+03  0.29909412149E+03  0.00000000000E+00 0. -1.
         23    2    1    2    0    0 -0.72746266581E+02  0.18471002975E+03  0.13298490041E+03  0.25694198899E+03  0.94468976790E+02 0.  0.
         24    2    1    2    0    0  0.74647936482E+01 -0.14923392221E+03  0.22735185786E+02  0.17073440413E+03  0.79415750306E+02 0.  0.
        -11    1    4    4    0    0 -0.42271643620E+01 -0.15554282065E+03  0.23784433531E+02  0.15740755145E+03  0.00000000000E+00 0.  1.
         12    1    4    4    0    0  0.11691958010E+02  0.63088984349E+01 -0.10492477445E+01  0.13326852682E+02  0.00000000000E+00 0. -1.
        -13    1    3    3    0    0 -0.25714733791E+02  0.12340173134E+03  0.32485284158E+02  0.13017115087E+03  0.00000000000E+00 0.  1.
         13    1    3    3    0    0 -0.47031532790E+02  0.61308298410E+02  0.10049961625E+03  0.12677083812E+03  0.00000000000E+00 0. -1.
         21    1    1    2  503  502 -0.59600988494E+02 -0.23015053359E+01 -0.65093590421E+02  0.88287882919E+02  0.00000000000E+00 0. -1.
          1    1    1    2  501    0  0.12488246143E+03 -0.33174602204E+02 -0.38128619528E+02  0.13472184318E+03  0.00000000000E+00 0. -1.
<scales pt_clust_5="13000.00000" pt_clust_6="13000.00000" pt_clust_7="13000.00000" pt_clust_8="13000.00000" pt_clust_9="59.64541" pt_clust_10="107.27535"></scales>
<clustering>
<clus scale="   59.645">  2  9  1 -1</clus>
<clus scale="   79.416">  5  6 -1 -1</clus>
<clus scale="   94.469">  7  8 -1 -1</clus>
<clus scale="  107.275">  2 10  1 -1</clus>
<clus scale="  191.209">  2  5  1 -1</clus>
<clus scale="   59.645">  2  5  1 -1</clus>
</clustering>
</event>
<event>
10    4  0.3403565E-005  0.9503372E+02  0.7546771E-02  0.1299340E+00
          2   -1    0    0  503    0 -0.00000000000E+00  0.00000000000E+00  0.56379303100E+03  0.56379303100E+03  0.00000000000E+00 0. -1.
         21   -1    0    0  501  502  0.00000000000E+00 -0.00000000000E+00 -0.34439192231E+03  0.34439192231E+03  0.00000000000E+00 0. -1.
         24    2    1    2    0    0 -0.14869002545E+02 -0.73047737811E+01  0.34308801515E+03  0.35286765271E+03  0.80819225627E+02 0.  0.
         23    2    1    2    0    0 -0.22243246878E+02  0.15791571293E+02  0.15845096420E+03  0.18645181109E+03  0.94410984779E+02 0.  0.
        -13    1    3    3    0    0  0.13024400772E+02  0.25300850112E+02  0.58399057733E+02  0.64963204785E+02  0.00000000000E+00 0.  1.
         14    1    3    3    0    0 -0.27893403318E+02 -0.32605623893E+02  0.28468895742E+03  0.28790444792E+03  0.00000000000E+00 0. -1.
        -13    1    4    4    0    0 -0.49473153658E+02  0.36425257860E+01  0.14589626891E+03  0.15409926090E+03  0.00000000000E+00 0. -1.
         13    1    4    4    0    0  0.27229906780E+02  0.12149045507E+02  0.12554695284E+02  0.32352550188E+02  0.00000000000E+00 0.  1.
         21    1    1    2  503  502 -0.54683888628E+02 -0.14232703109E+02 -0.27028585986E+03  0.27612921532E+03  0.00000000000E+00 0. -1.
          1    1    1    2  501    0  0.91796138051E+02  0.57459055963E+01 -0.11852010800E+02  0.92736274199E+02  0.00000000000E+00 0. -1.
<scales pt_clust_5="13000.00000" pt_clust_6="13000.00000" pt_clust_7="13000.00000" pt_clust_8="13000.00000" pt_clust_9="56.50573" pt_clust_10="51.83815"></scales>
<clustering>
<clus scale="   56.506">  2  9  1 -1</clus>
<clus scale="   51.838">  2 10  1 -1</clus>
<clus scale="   80.819">  5  6 -1 -1</clus>
<clus scale="   81.546">  1  5  2 -1</clus>
<clus scale="   94.411">  7  8 -1 -1</clus>
<clus scale="   56.506">  2  5  1 -1</clus>
</clustering>
</event>
<event>
10    4  0.3403565E-005  0.1408244E+03  0.7546771E-02  0.1214733E+00
         21   -1    0    0  501  502  0.00000000000E+00  0.00000000000E+00  0.66322192230E+03  0.66322192230E+03  0.00000000000E+00 0. -1.
          2   -1    0    0  503    0 -0.00000000000E+00 -0.00000000000E+00 -0.19102505168E+03  0.19102505168E+03  0.00000000000E+00 0. -1.
         24    2    1    2    0    0  0.97352597050E+02  0.34306038760E+02  0.36076896435E+02  0.13392022246E+03  0.77321737436E+02 0.  0.
         23    2    1    2    0    0 -0.68629348967E+02 -0.10987707326E+03  0.37839592052E+02  0.16185554926E+03  0.89344419700E+02 0.  0.
        -13    1    3    3    0    0  0.43454667994E+02  0.10523545214E+02  0.56064870321E+02  0.71709991343E+02  0.00000000000E+00 0.  1.
         14    1    3    3    0    0  0.53897929056E+02  0.23782493546E+02 -0.19987973886E+02  0.62210231119E+02  0.00000000000E+00 0. -1.
        -11    1    4    4    0    0 -0.26142357498E+02  0.71165111384E+01  0.24755728761E+02  0.36700322789E+02  0.00000000000E+00 0.  1.
         11    1    4    4    0    0 -0.42486991470E+02 -0.11699358439E+03  0.13083863290E+02  0.12515522647E+03  0.00000000000E+00 0. -1.
         21    1    1    2  503  502 -0.13519004297E+03  0.95492927039E+02  0.41691242046E+03  0.44856572893E+03  0.00000000000E+00 0. -1.
          1    1    1    2  501    0  0.10646679488E+03 -0.19921892543E+02 -0.18632038333E+02  0.10990547333E+03  0.00000000000E+00 0. -1.
<scales pt_clust_5="13000.00000" pt_clust_6="13000.00000" pt_clust_7="13000.00000" pt_clust_8="13000.00000" pt_clust_9="101.58155" pt_clust_10="108.31469"></scales>
<clustering>
<clus scale="   77.322">  5  6 -1 -1</clus>
<clus scale="   89.344">  7  8 -1 -1</clus>
<clus scale="  108.315">  1 10  2 -1</clus>
<clus scale="  101.582">  1  9  2 -1</clus>
<clus scale="  133.521">  2  5  1 -1</clus>
<clus scale="  108.315">  1  5  2 -1</clus>
</clustering>
</event>
<event>
10    4  0.3403565E-005  0.2562039E+03  0.7546771E-02  0.1109446E+00
          2   -1    0    0  502    0 -0.00000000000E+00  0.00000000000E+00  0.18285822224E+04  0.18285822224E+04  0.00000000000E+00 0. -1.
         21   -1    0    0  503  502  0.00000000000E+00 -0.00000000000E+00 -0.54386590299E+02  0.54386590299E+02  0.00000000000E+00 0. -1.
         24    2    1    2    0    0  0.48336488453E+01  0.90780351663E+02  0.34205574025E+03  0.36245418883E+03  0.78143925860E+02 0.  0.
         23    2    1    2    0    0 -0.73641048061E+01  0.11797549521E+03  0.26332600035E+03  0.30157555712E+03  0.87377266381E+02 0.  0.
        -11    1    3    3    0    0  0.35591172348E+02  0.63532330681E+02  0.26848786420E+03  0.27818846456E+03  0.00000000000E+00 0.  1.
         12    1    3    3    0    0 -0.30757523503E+02  0.27248020983E+02  0.73567876054E+02  0.84265724269E+02  0.00000000000E+00 0. -1.
        -13    1    4    4    0    0  0.13317601731E+02  0.11679262758E+03  0.25175836489E+03  0.27784915092E+03  0.00000000000E+00 0. -1.
         13    1    4    4    0    0 -0.20681706537E+02  0.11828676356E+01  0.11567635460E+02  0.23726406202E+02  0.00000000000E+00 0.  1.
         21    1    1    2  503  501  0.17897365765E+02 -0.28040301181E+02 -0.27882751191E+01  0.33381861389E+02  0.00000000000E+00 0. -1.
          1    1    1    2  501    0 -0.15366909804E+02 -0.18071554570E+03  0.11716021666E+04  0.11855572054E+04  0.00000000000E+00 0. -1.
<scales pt_clust_5="13000.00000" pt_clust_6="13000.00000" pt_clust_7="13000.00000" pt_clust_8="13000.00000" pt_clust_9="33.26521" pt_clust_10="186.48705"></scales>
<clustering>
<clus scale="   33.265">  2  9  1 -1</clus>
<clus scale="   78.144">  5  6 -1 -1</clus>
<clus scale="   87.377">  7  8 -1 -1</clus>
<clus scale="   99.474">  5  7 -1 -1</clus>
<clus scale="  186.487">  2 10  1 -1</clus>
<clus scale="   33.265">  2  5  1 -1</clus>
</clustering>
</event>
<event>
10    4  0.3403565E-005  0.9745903E+02  0.7546771E-02  0.1286994E+00
         21   -1    0    0  503  502  0.00000000000E+00  0.00000000000E+00  0.82959854801E+02  0.82959854801E+02  0.00000000000E+00 0. -1.
          2   -1    0    0  502    0 -0.00000000000E+00 -0.00000000000E+00 -0.46097677231E+03  0.46097677231E+03  0.00000000000E+00 0. -1.
         23    2    1    2    0    0 -0.36306776476E+02 -0.41445503197E+02 -0.20439975499E+03  0.22753521850E+03  0.83409256470E+02 0.  0.
         24    2    1    2    0    0  0.74099059950E+01  0.49347415651E+02 -0.17930547567E+03  0.20287106668E+03  0.80722623537E+02 0.  0.
        -11    1    4    4    0    0 -0.22876612761E+02  0.46691521563E+02 -0.15636898548E+03  0.16478682356E+03  0.00000000000E+00 0.  1.
         12    1    4    4    0    0  0.30286518756E+02  0.26558940882E+01 -0.22936490186E+02  0.38084243117E+02  0.00000000000E+00 0. -1.
        -13    1    3    3    0    0 -0.30427556820E+02 -0.49536573275E+00 -0.15487008814E+02  0.34145703145E+02  0.00000000000E+00 0.  1.
         13    1    3    3    0    0 -0.58792196569E+01 -0.40950137464E+02 -0.18891274618E+03  0.19338951536E+03  0.00000000000E+00 0. -1.
         21    1    1    2  503  501 -0.35146018867E+02 -0.28467258561E+02  0.92793591822E+01  0.46170704554E+02  0.00000000000E+00 0.  1.
          1    1    1    2  501    0  0.64042889348E+02  0.20565346106E+02 -0.35910460328E+01  0.67359637381E+02  0.00000000000E+00 0. -1.
<scales pt_clust_5="13000.00000" pt_clust_6="13000.00000" pt_clust_7="13000.00000" pt_clust_8="13000.00000" pt_clust_9="45.22861" pt_clust_10="43.94958"></scales>
<clustering>
<clus scale="   45.229">  1  9  2 -1</clus>
<clus scale="   43.950">  1 10  2 -1</clus>
<clus scale="   80.723">  5  6 -1 -1</clus>
<clus scale="   83.409">  7  8 -1 -1</clus>
<clus scale="   95.170">  1  5  2 -1</clus>
<clus scale="   45.229">  1  5  2 -1</clus>
</clustering>
</event>
<event>
10    4  0.3403565E-005  0.1167207E+03  0.7546771E-02  0.1250811E+00
         21   -1    0    0  503  502  0.00000000000E+00  0.00000000000E+00  0.79737072068E+02  0.79737072068E+02  0.00000000000E+00 0. -1.
         -3   -1    0    0    0  501 -0.00000000000E+00 -0.00000000000E+00 -0.40216570699E+03  0.40216570699E+03  0.00000000000E+00 0.  1.
         23    2    1    2    0    0 -0.98337949557E+01  0.78011157616E+02 -0.22607794373E+03  0.25631862188E+03  0.91681814149E+02 0.  0.
         24    2    1    2    0    0 -0.14587907844E+02 -0.63987732232E+02 -0.11225323847E+03  0.15545043259E+03  0.85186915152E+02 0.  0.
        -13    1    4    4    0    0  0.32607674079E+02 -0.45051537567E+02 -0.69511620554E+02  0.89021159496E+02  0.00000000000E+00 0.  1.
         14    1    4    4    0    0 -0.47195581923E+02 -0.18936194665E+02 -0.42741617921E+02  0.66429273095E+02  0.00000000000E+00 0. -1.
        -13    1    3    3    0    0  0.38508783659E+02  0.38305895349E+02 -0.13783007446E+03  0.14814654050E+03  0.00000000000E+00 0.  1.
         13    1    3    3    0    0 -0.48342578614E+02  0.39705262267E+02 -0.88247869269E+02  0.10817208138E+03  0.00000000000E+00 0. -1.
         21    1    1    2  503  501 -0.31471858081E+01 -0.30994879452E+02  0.20702828094E+02  0.37405807328E+02  0.00000000000E+00 0.  1.
         -4    1    1    2    0  502  0.27568888608E+02  0.16971454068E+02 -0.48002808115E+01  0.32727917259E+02  0.00000000000E+00 0.  1.
<scales pt_clust_5="13000.00000" pt_clust_6="13000.00000" pt_clust_7="13000.00000" pt_clust_8="13000.00000" pt_clust_9="31.15425" pt_clust_10="28.00149"></scales>
<clustering>
<clus scale="   31.154">  1  9  2 -1</clus>
<clus scale="   28.001">  1 10  2 -1</clus>
<clus scale="   85.187">  5  6 -1 -1</clus>
<clus scale="   91.682">  7  8 -1 -1</clus>
<clus scale="  111.691">  1  5  2 -1</clus>
<clus scale="   31.154">  1  5  2 -1</clus>
</clustering>
</event>
<event>
10    4  0.3403565E-005  0.1184350E+03  0.7546771E-02  0.1251221E+00
         21   -1    0    0  503  502  0.00000000000E+00  0.00000000000E+00  0.93192413059E+02  0.93192413059E+02  0.00000000000E+00 0. -1.
         -1   -1    0    0    0  501 -0.00000000000E+00 -0.00000000000E+00 -0.81913871858E+03  0.81913871858E+03  0.00000000000E+00 0.  1.
         23    2    1    2    0    0  0.32438894910E+02  0.50359621983E+02 -0.83640133052E+02  0.12199998534E+03  0.65574012668E+02 0.  0.
         24    2    1    2    0    0 -0.13086667027E+03 -0.54004558926E+02 -0.14041977550E+03  0.21643142416E+03  0.84156225198E+02 0.  0.
        -13    1    4    4    0    0 -0.93833179650E+01  0.19054686782E+02 -0.88023588966E+01  0.22991504225E+02  0.00000000000E+00 0.  1.
         14    1    4    4    0    0 -0.12148335231E+03 -0.73059245708E+02 -0.13161741660E+03  0.19343991993E+03  0.00000000000E+00 0. -1.
        -11    1    3    3    0    0  0.21868702521E+02 -0.46076047650E+01 -0.54479293466E+02  0.58885172906E+02  0.00000000000E+00 0.  1.
         11    1    3    3    0    0  0.10570192389E+02  0.54967226748E+02 -0.29160839585E+02  0.63114812436E+02  0.00000000000E+00 0. -1.
         21    1    1    2  503  501  0.19067999564E+02  0.12679673909E+02  0.29049431570E+02  0.36989623036E+02  0.00000000000E+00 0. -1.
         -2    1    1    2    0  502  0.79359775800E+02 -0.90347369660E+01 -0.53093582854E+03  0.53691009910E+03  0.00000000000E+00 0.  1.
<scales pt_clust_5="13000.00000" pt_clust_6="13000.00000" pt_clust_7="13000.00000" pt_clust_8="13000.00000" pt_clust_9="22.89897" pt_clust_10="80.74507"></scales>
<clustering>
<clus scale="   22.899">  1  9  2 -1</clus>
<clus scale="   65.574">  7  8 -1 -1</clus>
<clus scale="   80.745">  1 10  2 -1</clus>
<clus scale="   84.156">  5  6 -1 -1</clus>
<clus scale="  106.040">  2  7  1 -1</clus>
<clus scale="   22.899">  1  5  2 -1</clus>
</clustering>
</event>
<event>
10    4  0.3403565E-005  0.1068816E+03  0.7546771E-02  0.1274810E+00
          4   -1    0    0  503    0 -0.00000000000E+00  0.00000000000E+00  0.15020412721E+03  0.15020412721E+03  0.00000000000E+00 0. -1.
         21   -1    0    0  501  502  0.00000000000E+00 -0.00000000000E+00 -0.22037794551E+03  0.22037794551E+03  0.00000000000E+00 0. -1.
         24    2    1    2    0    0  0.40449260501E+02 -0.30151486513E+02  0.62610292152E+02  0.11154938823E+03  0.77317284726E+02 0.  0.
         23    2    1    2    0    0 -0.52260809720E+02 -0.80778763966E+01 -0.17327328681E+02  0.11057146363E+03  0.95547725929E+02 0.  0.
        -13    1    3    3    0    0  0.59140368366E+02 -0.37613117079E+02  0.37895238282E+02  0.79676714486E+02  0.00000000000E+00 0.  1.
         14    1    3    3    0    0 -0.18691107865E+02  0.74616305657E+01  0.24715053869E+02  0.31872673745E+02  0.00000000000E+00 0. -1.
        -11    1    4    4    0    0 -0.62391064120E+02 -0.31842213134E+02  0.12455609697E+02  0.71145721109E+02  0.00000000000E+00 0. -1.
         11    1    4    4    0    0  0.10130254400E+02  0.23764336737E+02 -0.29782938378E+02  0.39425742519E+02  0.00000000000E+00 0.  1.
         21    1    1    2  503  502  0.23084800356E+02  0.19160888643E+02 -0.12178309883E+03  0.12542396431E+03  0.00000000000E+00 0. -1.
          3    1    1    2  501    0 -0.11273251138E+02  0.19068474267E+02  0.63263170621E+01  0.23037256557E+02  0.00000000000E+00 0. -1.
<scales pt_clust_5="13000.00000" pt_clust_6="13000.00000" pt_clust_7="13000.00000" pt_clust_8="13000.00000" pt_clust_9="34.48750" pt_clust_10="22.15160"></scales>
<clustering>
<clus scale="   22.152">  2 10  1 -1</clus>
<clus scale="   34.487">  2  9  1 -1</clus>
<clus scale="   77.317">  5  6 -1 -1</clus>
<clus scale="   90.952">  1  5  2 -1</clus>
<clus scale="   95.548">  7  8 -1 -1</clus>
<clus scale="   22.152">  2  5  1 -1</clus>
</clustering>
</event>
<event>
10    4  0.3403565E-005  0.1548300E+03  0.7546771E-02  0.1222538E+00
         21   -1    0    0  501  502  0.00000000000E+00  0.00000000000E+00  0.61678148712E+02  0.61678148712E+02  0.00000000000E+00 0. -1.
          2   -1    0    0  503    0 -0.00000000000E+00 -0.00000000000E+00 -0.10164620590E+04  0.10164620590E+04  0.00000000000E+00 0. -1.
         24    2    1    2    0    0  0.14875369872E+02  0.27032180847E+02 -0.33357713798E+03  0.34485960971E+03  0.81868357721E+02 0.  0.
         23    2    1    2    0    0 -0.68305240985E+02  0.13809792747E+03 -0.33553890206E+03  0.38045550564E+03  0.91779046958E+02 0.  0.
        -13    1    3    3    0    0  0.28904924128E+02  0.47023347302E+02 -0.15327236044E+03  0.16290827574E+03  0.00000000000E+00 0.  1.
         14    1    3    3    0    0 -0.14029554256E+02 -0.19991166455E+02 -0.18030477754E+03  0.18195133397E+03  0.00000000000E+00 0. -1.
        -11    1    4    4    0    0  0.34846283979E+01  0.57649537197E+02 -0.54365072713E+02  0.79316914370E+02  0.00000000000E+00 0.  1.
         11    1    4    4    0    0 -0.71789869383E+02  0.80448390268E+02 -0.28117382935E+03  0.30113859127E+03  0.00000000000E+00 0. -1.
         21    1    1    2  503  502  0.46748391833E+01 -0.63719002958E+02 -0.24460751535E+02  0.68412672985E+02  0.00000000000E+00 0. -1.
          1    1    1    2  501    0  0.48755031930E+02 -0.10141110535E+03 -0.26120711867E+03  0.28441241934E+03  0.00000000000E+00 0. -1.
<scales pt_clust_5="13000.00000" pt_clust_6="13000.00000" pt_clust_7="13000.00000" pt_clust_8="13000.00000" pt_clust_9="63.89026" pt_clust_10="124.69545"></scales>
<clustering>
<clus scale="   63.890">  1  9  2 -1</clus>
<clus scale="   81.868">  5  6 -1 -1</clus>
<clus scale="   85.247">  2  5  1 -1</clus>
<clus scale="   91.779">  7  8 -1 -1</clus>
<clus scale="  124.695">  1 10  2 -1</clus>
<clus scale="   63.890">  1  5  2 -1</clus>
</clustering>
</event>
<event>
10    4  0.3403565E-005  0.1392993E+03  0.7546771E-02  0.1227891E+00
          2   -1    0    0  503    0 -0.00000000000E+00  0.00000000000E+00  0.33366798710E+03  0.33366798710E+03  0.00000000000E+00 0. -1.
         21   -1    0    0  501  502  0.00000000000E+00 -0.00000000000E+00 -0.20476662412E+03  0.20476662412E+03  0.00000000000E+00 0.  1.
         23    2    1    2    0    0 -0.32699608235E+02  0.18879905891E+02  0.11965367133E+02  0.10051601825E+03  0.92382815984E+02 0.  0.
         24    2    1    2    0    0 -0.85480153774E+02  0.79567234199E+00  0.11762547356E+03  0.16442584776E+03  0.76763387090E+02 0.  0.
        -13    1    4    4    0    0 -0.90457279118E+02  0.21971526042E+02  0.97239975272E+02  0.13461381836E+03  0.00000000000E+00 0.  1.
         14    1    4    4    0    0  0.49771253434E+01 -0.21175853700E+02  0.20385498287E+02  0.29812029401E+02  0.00000000000E+00 0. -1.
        -11    1    3    3    0    0 -0.38173831487E+02 -0.27069609504E+02 -0.12130107215E+02  0.48344024141E+02  0.00000000000E+00 0.  1.
         11    1    3    3    0    0  0.54742232520E+01  0.45949515395E+02  0.24095474348E+02  0.52171994109E+02  0.00000000000E+00 0. -1.
         21    1    1    2  503  502  0.14149577821E+03 -0.74641881095E+02 -0.76225785277E+02  0.17720845354E+03  0.00000000000E+00 0.  1.
          1    1    1    2  501    0 -0.23316016196E+02  0.54966302862E+02  0.75536307569E+02  0.96284291672E+02  0.00000000000E+00 0. -1.
<scales pt_clust_5="13000.00000" pt_clust_6="13000.00000" pt_clust_7="13000.00000" pt_clust_8="13000.00000" pt_clust_9="116.23971" pt_clust_10="59.70707"></scales>
<clustering>
<clus scale="   59.707">  2 10  1 -1</clus>
<clus scale="   76.763">  5  6 -1 -1</clus>
<clus scale="   92.383">  7  8 -1 -1</clus>
<clus scale="  104.715">  1  7  2 -1</clus>
<clus scale="  116.240">  2  9  1 -1</clus>
<clus scale="   59.707">  2  5  1 -1</clus>
</clustering>
</event>
<event>
10    4  0.3403565E-005  0.2960898E+03  0.7546771E-02  0.1112438E+00
         21   -1    0    0  503  502  0.00000000000E+00  0.00000000000E+00  0.56490085408E+03  0.56490085408E+03  0.00000000000E+00 0. -1.
          2   -1    0    0  502    0 -0.00000000000E+00 -0.00000000000E+00 -0.14168718566E+04  0.14168718566E+04  0.00000000000E+00 0. -1.
         23    2    1    2    0    0  0.60025494991E+01 -0.13396321923E+03 -0.69130260858E+03  0.70963207958E+03  0.87728085738E+02 0.  0.
         24    2    1    2    0    0  0.20360036790E+03 -0.15208983733E+03 -0.43965337729E+03  0.51581981802E+03  0.90501735163E+02 0.  0.
        -13    1    4    4    0    0  0.20005114100E+03 -0.11968497169E+03 -0.41055514098E+03  0.47212336867E+03  0.00000000000E+00 0.  1.
         14    1    4    4    0    0  0.35492269027E+01 -0.32404865642E+02 -0.29098236313E+02  0.43696449346E+02  0.00000000000E+00 0. -1.
        -11    1    3    3    0    0 -0.38989934484E+02 -0.83787996451E+02 -0.42530544374E+03  0.43523024231E+03  0.00000000000E+00 0. -1.
         11    1    3    3    0    0  0.44992483984E+02 -0.50175222784E+02 -0.26599716484E+03  0.27440183728E+03  0.00000000000E+00 0.  1.
         21    1    1    2  503  501  0.10245732024E+01  0.10900889343E+03  0.42920509127E+03  0.44283292444E+03  0.00000000000E+00 0. -1.
          1    1    1    2  501    0 -0.21062749060E+03  0.17704416314E+03 -0.15022010788E+03  0.31348788862E+03  0.00000000000E+00 0. -1.
<scales pt_clust_5="13000.00000" pt_clust_6="13000.00000" pt_clust_7="13000.00000" pt_clust_8="13000.00000" pt_clust_9="109.01371" pt_clust_10="281.91950"></scales>
<clustering>
<clus scale="   87.728">  7  8 -1 -1</clus>
<clus scale="   90.502">  5  6 -1 -1</clus>
<clus scale="  109.014">  1  9  2 -1</clus>
<clus scale="  153.826">  2  7  1 -1</clus>
<clus scale="  281.919">  1 10  2 -1</clus>
<clus scale="  109.014">  1  5  2 -1</clus>
</clustering>
</event>
<event>
10    4  0.3403565E-005  0.1727983E+03  0.7546771E-02  0.1207780E+00
         21   -1    0    0  501  502  0.00000000000E+00  0.00000000000E+00  0.29774747211E+03  0.29774747211E+03  0.00000000000E+00 0. -1.
          4   -1    0    0  503    0 -0.00000000000E+00 -0.00000000000E+00 -0.21745317560E+03  0.21745317560E+03  0.00000000000E+00 0. -1.
         24    2    1    2    0    0  0.58634734388E+01 -0.72910660333E+01  0.52419933390E+00  0.81863119325E+02  0.81324999575E+02 0.  0.
         23    2    1    2    0    0  0.51498397459E+02 -0.98977851412E+02 -0.65460436667E+02  0.16069199217E+03  0.95331776273E+02 0.  0.
        -11    1    3    3    0    0  0.19879219310E+02  0.53522828092E+01  0.36118386557E+02  0.41573647172E+02  0.00000000000E+00 0.  1.
         12    1    3    3    0    0 -0.14015745871E+02 -0.12643348842E+02 -0.35594187224E+02  0.40289472153E+02  0.00000000000E+00 0. -1.
        -11    1    4    4    0    0 -0.16209744033E+02 -0.15428686539E+02  0.14514938509E+02  0.26673650104E+02  0.00000000000E+00 0.  1.
         11    1    4    4    0    0  0.67708141491E+02 -0.83549164872E+02 -0.79975375176E+02  0.13401834206E+03  0.00000000000E+00 0. -1.
         21    1    1    2  503  502  0.62610966334E+02  0.59276850494E+01  0.58733791282E+01  0.63164603519E+02  0.00000000000E+00 0. -1.
          3    1    1    2  501    0 -0.11997283723E+03  0.10034123240E+03  0.13935715472E+03  0.20948093270E+03  0.00000000000E+00 0. -1.
<scales pt_clust_5="13000.00000" pt_clust_6="13000.00000" pt_clust_7="13000.00000" pt_clust_8="13000.00000" pt_clust_9="62.89094" pt_clust_10="144.12183"></scales>
<clustering>
<clus scale="   62.891">  2  9  1 -1</clus>
<clus scale="   81.325">  5  6 -1 -1</clus>
<clus scale="   83.811">  2  5  1 -1</clus>
<clus scale="   95.332">  7  8 -1 -1</clus>
<clus scale="  144.122">  1 10  2 -1</clus>
<clus scale="  144.122">  1  5  2 -1</clus>
</clustering>
</event>
<event>
10    4  0.3403565E-005  0.9230675E+02  0.7546771E-02  0.1297631E+00
         21   -1    0    0  501  502  0.00000000000E+00  0.00000000000E+00  0.13177810593E+03  0.13177810593E+03  0.00000000000E+00 0. -1.
          2   -1    0    0  503    0 -0.00000000000E+00 -0.00000000000E+00 -0.28745080525E+03  0.28745080525E+03  0.00000000000E+00 0. -1.
         23    2    1    2    0    0 -0.64859009231E+02 -0.15937775111E+02 -0.75169261204E+02  0.12799404610E+03  0.79191882489E+02 0.  0.
         24    2    1    2    0    0 -0.81023369610E+01  0.27821341337E+02  0.34785779847E+02  0.90752029865E+02  0.78652435099E+02 0.  0.
        -13    1    4    4    0    0  0.21550907785E+02 -0.70756960948E+01 -0.11679360758E+02  0.25513027443E+02  0.00000000000E+00 0.  1.
         14    1    4    4    0    0 -0.29653244746E+02  0.34897037432E+02  0.46465140605E+02  0.65239002422E+02  0.00000000000E+00 0. -1.
        -11    1    3    3    0    0  0.98448083572E+01 -0.18770659515E+02  0.10639386265E+01  0.21222390903E+02  0.00000000000E+00 0.  1.
         11    1    3    3    0    0 -0.74703817588E+02  0.28328844045E+01 -0.76233199830E+02  0.10677165519E+03  0.00000000000E+00 0. -1.
         21    1    1    2  503  502  0.52320906368E+02 -0.34885035873E+02  0.16585922996E+02  0.65034881507E+02  0.00000000000E+00 0. -1.
          1    1    1    2  501    0  0.20640439824E+02  0.23001469646E+02 -0.13187514096E+03  0.13544795371E+03  0.00000000000E+00 0. -1.
<scales pt_clust_5="13000.00000" pt_clust_6="13000.00000" pt_clust_7="13000.00000" pt_clust_8="13000.00000" pt_clust_9="64.98332" pt_clust_10="30.90463"></scales>
<clustering>
<clus scale="   30.905">  1 10  2 -1</clus>
<clus scale="   64.983">  1  9  2 -1</clus>
<clus scale="   78.652">  5  6 -1 -1</clus>
<clus scale="   79.192">  7  8 -1 -1</clus>
<clus scale="   91.844">  1  5  2 -1</clus>
<clus scale="   30.905">  1  5  2 -1</clus>
</clustering>
</event>
<event>
10    4  0.3403565E-005  0.1257568E+03  0.7546771E-02  0.1249831E+00
          2   -1    0    0  503    0 -0.00000000000E+00  0.00000000000E+00  0.14835804060E+04  0.14835804060E+04  0.00000000000E+00 0. -1.
         21   -1    0    0  501  502  0.00000000000E+00 -0.00000000000E+00 -0.43527449868E+02  0.43527449868E+02  0.00000000000E+00 0. -1.
         23    2    1    2    0    0  0.91314933408E+01 -0.18116844438E+02  0.44783084654E+03  0.45665534452E+03  0.87005932816E+02 0.  0.
         24    2    1    2    0    0  0.47171341922E+02 -0.54844054273E+02  0.28595857422E+03  0.30545947500E+03  0.79373666340E+02 0.  0.
        -11    1    4    4    0    0  0.30037042480E+02  0.12397092529E+02  0.14172308008E+03  0.14540063016E+03  0.00000000000E+00 0.  1.
         12    1    4    4    0    0  0.17134299442E+02 -0.67241146802E+02  0.14423549415E+03  0.16005884484E+03  0.00000000000E+00 0. -1.
        -13    1    3    3    0    0  0.39662641522E+02 -0.35930508436E+02  0.29222307450E+03  0.29708324059E+03  0.00000000000E+00 0.  1.
         13    1    3    3    0    0 -0.30531148181E+02  0.17813663998E+02  0.15560777204E+03  0.15957210394E+03  0.00000000000E+00 0. -1.
         21    1    1    2  503  502  0.24025906415E+02 -0.19538631042E+02 -0.14285066085E+02  0.34103744591E+02  0.00000000000E+00 0. -1.
          1    1    1    2  501    0 -0.80328741678E+02  0.92499529753E+02  0.72054860150E+03  0.73088929180E+03  0.00000000000E+00 0. -1.
<scales pt_clust_5="13000.00000" pt_clust_6="13000.00000" pt_clust_7="13000.00000" pt_clust_8="13000.00000" pt_clust_9="30.96776" pt_clust_10="97.54286"></scales>
<clustering>
<clus scale="   30.968">  2  9  1 -1</clus>
<clus scale="   79.374">  5  6 -1 -1</clus>
<clus scale="   87.006">  7  8 -1 -1</clus>
<clus scale="   91.068">  1  7  2 -1</clus>
<clus scale="   97.543">  2 10  1 -1</clus>
<clus scale="   30.968">  2  5  1 -1</clus>
</clustering>
</event>
<event>
10    4  0.3403565E-005  0.9465200E+02  0.7546771E-02  0.1297759E+00
         21   -1    0    0  501  502  0.00000000000E+00  0.00000000000E+00  0.28541930720E+03  0.28541930720E+03  0.00000000000E+00 0. -1.
          2   -1    0    0  503    0 -0.00000000000E+00 -0.00000000000E+00 -0.16179437258E+03  0.16179437258E+03  0.00000000000E+00 0. -1.
         24    2    1    2    0    0 -0.34736004411E+00  0.29823141706E+02 -0.35499265665E+02  0.93279674601E+02  0.80940468189E+02 0.  0.
         23    2    1    2    0    0 -0.28252195769E+02 -0.10051300748E+02  0.65798096505E+02  0.11626178507E+03  0.91039540587E+02 0.  0.
        -11    1    3    3    0    0  0.32025268444E+02  0.33753866058E+02 -0.20639794639E+01  0.46574685227E+02  0.00000000000E+00 0.  1.
         12    1    3    3    0    0 -0.32372628488E+02 -0.39307243520E+01 -0.33435286201E+02  0.46704989374E+02  0.00000000000E+00 0. -1.
        -13    1    4    4    0    0  0.41396156557E+01  0.33592684917E+02  0.48657852674E+02  0.59272181709E+02  0.00000000000E+00 0. -1.
         13    1    4    4    0    0 -0.32391811425E+02 -0.43643985665E+02  0.17140243831E+02  0.56989603356E+02  0.00000000000E+00 0.  1.
         21    1    1    2  503  502  0.45474860725E+02 -0.33202193082E+02  0.15893254973E+03  0.16861169576E+03  0.00000000000E+00 0. -1.
          1    1    1    2  501    0 -0.16875304912E+02  0.13430352125E+02 -0.65606445950E+02  0.69060524355E+02  0.00000000000E+00 0. -1.
<scales pt_clust_5="13000.00000" pt_clust_6="13000.00000" pt_clust_7="13000.00000" pt_clust_8="13000.00000" pt_clust_9="43.86908" pt_clust_10="21.56735"></scales>
<clustering>
<clus scale="   21.567">  1 10  2 -1</clus>
<clus scale="   43.869">  1  9  2 -1</clus>
<clus scale="   80.940">  5  6 -1 -1</clus>
<clus scale="   84.983">  2  5  1 -1</clus>
<clus scale="   91.040">  7  8 -1 -1</clus>
<clus scale="   21.567">  1  5  2 -1</clus>
</clustering>
</event>
<event>
10    4  0.3403565E-005  0.1468832E+03  0.7546771E-02  0.1207969E+00
          2   -1    0    0  502    0 -0.00000000000E+00  0.00000000000E+00  0.23570058033E+04  0.23570058033E+04  0.00000000000E+00 0. -1.
         21   -1    0    0  503  502  0.00000000000E+00 -0.00000000000E+00 -0.31563452276E+02  0.31563452276E+02  0.00000000000E+00 0. -1.
         23    2    1    2    0    0  0.10378673005E+03  0.39354341272E+01  0.60323553712E+03  0.61875825844E+03  0.90451623360E+02 0.  0.
         24    2    1    2    0    0  0.50367075834E+02  0.92322150596E+02  0.25223253567E+03  0.28523024660E+03  0.81699569801E+02 0.  0.
        -13    1    4    4    0    0  0.34741552931E+02  0.90735005134E+02  0.25137826265E+03  0.26950110870E+03  0.00000000000E+00 0.  1.
         14    1    4    4    0    0  0.15625522903E+02  0.15871454618E+01  0.85427302002E+00  0.15729137900E+02  0.00000000000E+00 0. -1.
        -13    1    3    3    0    0  0.88951933328E+01 -0.34055484119E+02  0.13692839931E+03  0.14137993847E+03  0.00000000000E+00 0.  1.
         13    1    3    3    0    0  0.94891536720E+02  0.37990918246E+02  0.46630713781E+03  0.47737831998E+03  0.00000000000E+00 0. -1.
         21    1    1    2  503  501 -0.10544571159E+02  0.17700529592E+02  0.81886636727E+02  0.84438841792E+02  0.00000000000E+00 0. -1.
          1    1    1    2  501    0 -0.14360923473E+03 -0.11395811431E+03  0.13880876416E+04  0.14001419088E+04  0.00000000000E+00 0. -1.
<scales pt_clust_5="13000.00000" pt_clust_6="13000.00000" pt_clust_7="13000.00000" pt_clust_8="13000.00000" pt_clust_9="20.60332" pt_clust_10="122.06504"></scales>
<clustering>
<clus scale="   20.603">  2  9  1 -1</clus>
<clus scale="   81.700">  5  6 -1 -1</clus>
<clus scale="   90.452">  7  8 -1 -1</clus>
<clus scale="  135.909">  1  7  2 -1</clus>
<clus scale="  122.065">  2 10  1 -1</clus>
<clus scale="   20.603">  2  5  1 -1</clus>
</clustering>
</event>
<event>
10    4  0.3403565E-005  0.1949895E+03  0.7546771E-02  0.1154889E+00
         21   -1    0    0  503  502  0.00000000000E+00  0.00000000000E+00  0.88343891815E+03  0.88343891815E+03  0.00000000000E+00 0.  1.
          2   -1    0    0  502    0 -0.00000000000E+00 -0.00000000000E+00 -0.20574141957E+03  0.20574141957E+03  0.00000000000E+00 0. -1.
         23    2    1    2    0    0 -0.13846361590E+03  0.73743551757E+02 -0.23600632614E+02  0.18407765835E+03  0.93366536252E+02 0.  0.
         24    2    1    2    0    0  0.24754934542E+03 -0.11414030343E+03  0.53080752258E+03  0.60273440851E+03  0.84990904720E+02 0.  0.
        -11    1    4    4    0    0  0.24449069637E+03 -0.11213819322E+03  0.53397571323E+03  0.59789692866E+03  0.00000000000E+00 0.  1.
         12    1    4    4    0    0  0.30586490513E+01 -0.20021102102E+01 -0.31681906429E+01  0.48374798462E+01  0.00000000000E+00 0. -1.
        -11    1    3    3    0    0 -0.66887043276E+02 -0.81157243437E+00  0.22958724633E+02  0.70722261310E+02  0.00000000000E+00 0.  1.
         11    1    3    3    0    0 -0.71576572620E+02  0.74555124191E+02 -0.46559357247E+02  0.11335539704E+03  0.00000000000E+00 0. -1.
         21    1    1    2  503  501  0.23441664673E+02 -0.26923868687E+02  0.14773963558E+03  0.15199146775E+03  0.00000000000E+00 0.  1.
          1    1    1    2  501    0 -0.13252739420E+03  0.67320620362E+02  0.22750973027E+02  0.15037680311E+03  0.00000000000E+00 0. -1.
<scales pt_clust_5="13000.00000" pt_clust_6="13000.00000" pt_clust_7="13000.00000" pt_clust_8="13000.00000" pt_clust_9="35.69883" pt_clust_10="144.74938"></scales>
<clustering>
<clus scale="   35.699">  1  9  2 -1</clus>
<clus scale="   84.991">  5  6 -1 -1</clus>
<clus scale="   93.367">  7  8 -1 -1</clus>
<clus scale="  144.749">  1 10  2 -1</clus>
<clus scale="  191.121">  1  5  2 -1</clus>
<clus scale="   35.699">  1  5  2 -1</clus>
</clustering>
</event>
<event>
10    4  0.3403565E-005  0.1181598E+03  0.7546771E-02  0.1250365E+00
         21   -1    0    0  501  502  0.00000000000E+00  0.00000000000E+00  0.23923794874E+03  0.23923794874E+03  0.00000000000E+00 0. -1.
          2   -1    0    0  503    0 -0.00000000000E+00 -0.00000000000E+00 -0.40008524118E+03  0.40008524118E+03  0.00000000000E+00 0. -1.
         24    2    1    2    0    0  0.17134828097E+02  0.69546459659E+02 -0.26948893206E+03  0.29040321678E+03  0.81113694468E+02 0.  0.
         23    2    1    2    0    0  0.68830516889E+02 -0.93597581903E+02  0.66229706443E+02  0.16317770223E+03  0.93501021901E+02 0.  0.
        -13    1    3    3    0    0 -0.30309579257E+02  0.32583336915E+02 -0.15249380281E+03  0.15885434944E+03  0.00000000000E+00 0.  1.
         14    1    3    3    0    0  0.47444407353E+02  0.36963122744E+02 -0.11699512924E+03  0.13154886734E+03  0.00000000000E+00 0. -1.
        -13    1    4    4    0    0  0.45133594139E+02 -0.85219499430E+02  0.87528226670E+02  0.13023284865E+03  0.00000000000E+00 0. -1.
         13    1    4    4    0    0  0.23696922749E+02 -0.83780824723E+01 -0.21298520227E+02  0.32944853582E+02  0.00000000000E+00 0.  1.
         21    1    1    2  503  502 -0.29772203028E+02 -0.12843514538E+02  0.95008108058E+02  0.10038864744E+03  0.00000000000E+00 0. -1.
          1    1    1    2  501    0 -0.56193141958E+02  0.36894636781E+02 -0.52596174884E+02  0.85353623466E+02  0.00000000000E+00 0. -1.
<scales pt_clust_5="13000.00000" pt_clust_6="13000.00000" pt_clust_7="13000.00000" pt_clust_8="13000.00000" pt_clust_9="32.42437" pt_clust_10="69.35770"></scales>
<clustering>
<clus scale="   32.424">  1  9  2 -1</clus>
<clus scale="   69.358">  1 10  2 -1</clus>
<clus scale="   81.114">  5  6 -1 -1</clus>
<clus scale="   93.501">  7  8 -1 -1</clus>
<clus scale="  108.622">  2  5  1 -1</clus>
<clus scale="   32.424">  1  5  2 -1</clus>
</clustering>
</event>
<event>
10    4  0.3403565E-005  0.2450294E+03  0.7546771E-02  0.1147124E+00
          2   -1    0    0  502    0 -0.00000000000E+00  0.00000000000E+00  0.12257944326E+04  0.12257944326E+04  0.00000000000E+00 0. -1.
         21   -1    0    0  503  502  0.00000000000E+00 -0.00000000000E+00 -0.17498313609E+03  0.17498313609E+03  0.00000000000E+00 0. -1.
         23    2    1    2    0    0  0.46912786179E+02  0.48871958214E+02  0.31419281968E+03  0.33446863822E+03  0.92535745572E+02 0.  0.
         24    2    1    2    0    0  0.16641425419E+03  0.54969016401E+02 -0.32257794431E+02  0.19554111544E+03  0.80501340153E+02 0.  0.
        -11    1    4    4    0    0  0.47469091869E+02  0.44882975441E+00  0.23906886785E+02  0.53151249908E+02  0.00000000000E+00 0.  1.
         12    1    4    4    0    0  0.11894516232E+03  0.54520186646E+02 -0.56164681217E+02  0.14238986553E+03  0.00000000000E+00 0. -1.
        -11    1    3    3    0    0  0.21534818346E+02 -0.22103016088E+02  0.42551380977E+02  0.52563406895E+02  0.00000000000E+00 0.  1.
         11    1    3    3    0    0  0.25377967833E+02  0.70974974302E+02  0.27164143870E+03  0.28190523132E+03  0.00000000000E+00 0. -1.
         21    1    1    2  503  501  0.68407848616E+02 -0.32594675676E+02  0.39121786792E+02  0.85279310718E+02  0.00000000000E+00 0. -1.
          1    1    1    2  501    0 -0.28173488898E+03 -0.71246298939E+02  0.72975448447E+03  0.78548850430E+03  0.00000000000E+00 0. -1.
<scales pt_clust_5="13000.00000" pt_clust_6="13000.00000" pt_clust_7="13000.00000" pt_clust_8="13000.00000" pt_clust_9="75.77629" pt_clust_10="231.42819"></scales>
<clustering>
<clus scale="   75.776">  2  9  1 -1</clus>
<clus scale="   80.501">  5  6 -1 -1</clus>
<clus scale="   92.536">  7  8 -1 -1</clus>
<clus scale="  115.730">  1  7  2 -1</clus>
<clus scale="  231.428">  2 10  1 -1</clus>
<clus scale="   75.776">  2  5  1 -1</clus>
</clustering>
</event>
<event>
10    4  0.3403565E-005  0.2308921E+03  0.7546771E-02  0.1150817E+00
         21   -1    0    0  503  502  0.00000000000E+00  0.00000000000E+00  0.22375327995E+03  0.22375327995E+03  0.00000000000E+00 0. -1.
          4   -1    0    0  502    0 -0.00000000000E+00 -0.00000000000E+00 -0.65596944430E+03  0.65596944430E+03  0.00000000000E+00 0. -1.
         23    2    1    2    0    0  0.89238397194E+02  0.33196720001E+02  0.18584532582E+02  0.12893580617E+03  0.84932582143E+02 0.  0.
         24    2    1    2    0    0 -0.21276802678E+03 -0.92849732877E+02  0.13635213251E+02  0.24636575720E+03  0.81356383658E+02 0.  0.
        -11    1    4    4    0    0 -0.66713479166E+02 -0.40068161280E+02 -0.32535335063E+02  0.84348644793E+02  0.00000000000E+00 0.  1.
         12    1    4    4    0    0 -0.14605454762E+03 -0.52781571596E+02  0.46170548313E+02  0.16201711240E+03  0.00000000000E+00 0. -1.
        -13    1    3    3    0    0  0.72365642803E+02 -0.14596175186E+02 -0.29150746147E+01  0.73880526855E+02  0.00000000000E+00 0. -1.
         13    1    3    3    0    0  0.16872754391E+02  0.47792895187E+02  0.21499607197E+02  0.55055279317E+02  0.00000000000E+00 0.  1.
         21    1    1    2  503  501  0.45528910881E+01 -0.25559249640E+02 -0.11435267928E+02  0.28368458048E+02  0.00000000000E+00 0.  1.
          3    1    1    2  501    0  0.11897673850E+03  0.85212262516E+02 -0.45300064225E+03  0.47605270283E+03  0.00000000000E+00 0. -1.
<scales pt_clust_5="13000.00000" pt_clust_6="13000.00000" pt_clust_7="13000.00000" pt_clust_8="13000.00000" pt_clust_9="25.96159" pt_clust_10="216.08415"></scales>
<clustering>
<clus scale="   25.962">  1  9  2 -1</clus>
<clus scale="   81.356">  5  6 -1 -1</clus>
<clus scale="   84.933">  7  8 -1 -1</clus>
<clus scale="  126.709">  2  7  1 -1</clus>
<clus scale="  216.084">  1 10  2 -1</clus>
<clus scale="   25.962">  1  5  2 -1</clus>
</clustering>
</event>
<event>
10    4  0.3403565E-005  0.1300111E+03  0.7546771E-02  0.1246335E+00
         21   -1    0    0  503  502  0.00000000000E+00  0.00000000000E+00  0.71440797090E+03  0.71440797090E+03  0.00000000000E+00 0.  1.
         -1   -1    0    0    0  501 -0.00000000000E+00 -0.00000000000E+00 -0.88551146474E+02  0.88551146474E+02  0.00000000000E+00 0.  1.
         24    2    1    2    0    0  0.34866081809E+02  0.92504074949E+01 -0.52173221762E+01  0.88222467993E+02  0.80341581442E+02 0.  0.
         23    2    1    2    0    0  0.63728274917E+02  0.81742082649E+01  0.89727889141E+02  0.14365724698E+03  0.91968471849E+02 0.  0.
        -11    1    3    3    0    0  0.31512887907E+02 -0.11426340224E+02 -0.37146916960E+02  0.50035155589E+02  0.00000000000E+00 0.  1.
         12    1    3    3    0    0  0.33531939019E+01  0.20676747719E+02  0.31929594784E+02  0.38187312404E+02  0.00000000000E+00 0. -1.
        -11    1    4    4    0    0  0.86506146404E+02  0.17882630395E+01  0.80760096406E+02  0.11835837284E+03  0.00000000000E+00 0.  1.
         11    1    4    4    0    0 -0.22777871487E+02  0.63859452254E+01  0.89677927356E+01  0.25298874134E+02  0.00000000000E+00 0. -1.
         21    1    1    2  503  501 -0.68575124601E+01  0.57662292288E+02  0.11901877544E+03  0.13242897846E+03  0.00000000000E+00 0.  1.
         -2    1    1    2    0  502 -0.91736844266E+02 -0.75086908048E+02  0.42232748202E+03  0.43865042394E+03  0.00000000000E+00 0.  1.
<scales pt_clust_5="13000.00000" pt_clust_6="13000.00000" pt_clust_7="13000.00000" pt_clust_8="13000.00000" pt_clust_9="58.06863" pt_clust_10="91.89502"></scales>
<clustering>
<clus scale="   58.069">  1  9  2 -1</clus>
<clus scale="   80.342">  5  6 -1 -1</clus>
<clus scale="   88.398">  2  5  1 -1</clus>
<clus scale="   91.895">  1 10  2 -1</clus>
<clus scale="   91.968">  7  8 -1 -1</clus>
<clus scale="   58.069">  1  5  2 -1</clus>
</clustering>
</event>
<event>
10    4  0.3403565E-005  0.1586921E+03  0.7546771E-02  0.1192062E+00
          2   -1    0    0  503    0 -0.00000000000E+00  0.00000000000E+00  0.63024521362E+03  0.63024521362E+03  0.00000000000E+00 0. -1.
         21   -1    0    0  501  502  0.00000000000E+00 -0.00000000000E+00 -0.67141938111E+02  0.67141938111E+02  0.00000000000E+00 0. -1.
         23    2    1    2    0    0 -0.92190531642E+02 -0.86483705388E+02  0.25658640278E+03  0.30070739481E+03  0.92789168430E+02 0.  0.
         24    2    1    2    0    0  0.70356197350E+02  0.11467494435E+03  0.17898341787E+03  0.23820219622E+03  0.81270443835E+02 0.  0.
        -13    1    4    4    0    0  0.70337307492E+02  0.38886564291E+02  0.10562170711E+03  0.13272319587E+03  0.00000000000E+00 0.  1.
         14    1    4    4    0    0  0.18889857532E-01  0.75788380062E+02  0.73361710761E+02  0.10547900035E+03  0.00000000000E+00 0. -1.
        -11    1    3    3    0    0 -0.16532749427E+02 -0.67193098852E+02  0.17300600160E+03  0.18633121297E+03  0.00000000000E+00 0. -1.
         11    1    3    3    0    0 -0.75657782215E+02 -0.19290606536E+02  0.83580401179E+02  0.11437618184E+03  0.00000000000E+00 0.  1.
         21    1    1    2  503  502 -0.89186141556E+01 -0.28918681738E+02  0.32418422973E+01  0.30435856706E+02  0.00000000000E+00 0. -1.
          1    1    1    2  501    0  0.30752948448E+02  0.72744277245E+00  0.12429161256E+03  0.12804170400E+03  0.00000000000E+00 0. -1.
<scales pt_clust_5="13000.00000" pt_clust_6="13000.00000" pt_clust_7="13000.00000" pt_clust_8="13000.00000" pt_clust_9="30.26271" pt_clust_10="30.44199"></scales>
<clustering>
<clus scale="   30.263">  2  9  1 -1</clus>
<clus scale="   30.442">  2 10  1 -1</clus>
<clus scale="   81.270">  5  6 -1 -1</clus>
<clus scale="   92.789">  7  8 -1 -1</clus>
<clus scale="  152.244">  2  5  1 -1</clus>
<clus scale="   30.263">  2  5  1 -1</clus>
</clustering>
</event>
<event>
10    4  0.3403565E-005  0.1286970E+03  0.7546771E-02  0.1231647E+00
          2   -1    0    0  503    0 -0.00000000000E+00  0.00000000000E+00  0.19751833744E+03  0.19751833744E+03  0.00000000000E+00 0. -1.
         21   -1    0    0  501  502  0.00000000000E+00 -0.00000000000E+00 -0.73065718480E+03  0.73065718480E+03  0.00000000000E+00 0.  1.
         23    2    1    2    0    0 -0.29176889649E+02 -0.64258370647E+02  0.36478061975E+01  0.11469170980E+03  0.90335224130E+02 0.  0.
         24    2    1    2    0    0  0.37249435897E+02  0.11176983939E+03  0.74069777759E+01  0.14363265944E+03  0.81825790962E+02 0.  0.
        -11    1    4    4    0    0  0.36591062552E+02  0.35649045377E+02 -0.29545242333E+02  0.59014249461E+02  0.00000000000E+00 0.  1.
         12    1    4    4    0    0  0.65837334570E+00  0.76120794014E+02  0.36952220109E+02  0.84618409981E+02  0.00000000000E+00 0. -1.
        -11    1    3    3    0    0 -0.55408466849E+01  0.21925019328E+02  0.10759449535E+02  0.25043426459E+02  0.00000000000E+00 0.  1.
         11    1    3    3    0    0 -0.23636042964E+02 -0.86183389975E+02 -0.71116433371E+01  0.89648283339E+02  0.00000000000E+00 0. -1.
         21    1    1    2  503  502 -0.84958832538E+02 -0.86834457511E+02 -0.56753692004E+03  0.58039329928E+03  0.00000000000E+00 0.  1.
          1    1    1    2  501    0  0.76886286289E+02  0.39322988767E+02  0.23343288708E+02  0.89457853722E+02  0.00000000000E+00 0. -1.
<scales pt_clust_5="13000.00000" pt_clust_6="13000.00000" pt_clust_7="13000.00000" pt_clust_8="13000.00000" pt_clust_9="58.64287" pt_clust_10="86.35859"></scales>
<clustering>
<clus scale="   81.826">  5  6 -1 -1</clus>
<clus scale="   86.359">  2 10  1 -1</clus>
<clus scale="   58.643">  2  9  1 -1</clus>
<clus scale="   90.335">  7  8 -1 -1</clus>
<clus scale="  122.874">  2  5  1 -1</clus>
<clus scale="   86.359">  2  5  1 -1</clus>
</clustering>
</event>
<event>
10    4  0.3403565E-005  0.1359643E+03  0.7546771E-02  0.1225037E+00
         21   -1    0    0  501  502  0.00000000000E+00  0.00000000000E+00  0.45046975180E+03  0.45046975180E+03  0.00000000000E+00 0.  1.
          2   -1    0    0  503    0 -0.00000000000E+00 -0.00000000000E+00 -0.14626192061E+03  0.14626192061E+03  0.00000000000E+00 0. -1.
         23    2    1    2    0    0 -0.56593135795E+02  0.28087252069E+02  0.19819380935E+03  0.23202153956E+03  0.10276931453E+03 0.  0.
         24    2    1    2    0    0  0.22899145357E+02 -0.12760362149E+03  0.16786841545E+03  0.22658279898E+03  0.79705111575E+02 0.  0.
        -11    1    4    4    0    0  0.28327934144E+02 -0.13313315937E+03  0.17070759822E+03  0.21833001183E+03  0.00000000000E+00 0.  1.
         12    1    4    4    0    0 -0.54287887874E+01  0.55295378809E+01 -0.28391827682E+01  0.82527871453E+01  0.00000000000E+00 0. -1.
        -11    1    3    3    0    0 -0.26273882855E+02 -0.12947879879E+02  0.20635207969E+01  0.29363627700E+02  0.00000000000E+00 0. -1.
         11    1    3    3    0    0 -0.30319252940E+02  0.41035131948E+02  0.19613028855E+03  0.20265791186E+03  0.00000000000E+00 0.  1.
         21    1    1    2  503  502  0.21151844696E+02  0.94082747114E+01  0.68280998466E+01  0.24135847087E+02  0.00000000000E+00 0. -1.
          1    1    1    2  501    0  0.12542145743E+02  0.90108094712E+02 -0.68682493455E+02  0.11399148679E+03  0.00000000000E+00 0. -1.
<scales pt_clust_5="13000.00000" pt_clust_6="13000.00000" pt_clust_7="13000.00000" pt_clust_8="13000.00000" pt_clust_9="23.14986" pt_clust_10="99.95228"></scales>
<clustering>
<clus scale="   23.150">  2  9  1 -1</clus>
<clus scale="   79.705">  5  6 -1 -1</clus>
<clus scale="   99.952">  1 10  2 -1</clus>
<clus scale="  102.769">  7  8 -1 -1</clus>
<clus scale="  119.489">  1  5  2 -1</clus>
<clus scale="   99.952">  1  5  2 -1</clus>
</clustering>
</event>
<event>
10    4  0.3403565E-005  0.1494596E+03  0.7546771E-02  0.1212655E+00
         21   -1    0    0  503  502  0.00000000000E+00  0.00000000000E+00  0.68484685376E+02  0.68484685376E+02  0.00000000000E+00 0. -1.
          2   -1    0    0  502    0 -0.00000000000E+00 -0.00000000000E+00 -0.85328829467E+03  0.85328829467E+03  0.00000000000E+00 0. -1.
         23    2    1    2    0    0 -0.65075205429E+02  0.20507177980E+02 -0.20795910944E+03  0.23760712371E+03  0.92492309578E+02 0.  0.
         24    2    1    2    0    0 -0.68026436329E+02 -0.10020256065E+03 -0.36030228823E+03  0.38720554520E+03  0.73771580774E+02 0.  0.
        -11    1    4    4    0    0 -0.79045733408E+02 -0.57889427693E+02 -0.24197038173E+03  0.26105378649E+03  0.00000000000E+00 0.  1.
         12    1    4    4    0    0  0.11019297079E+02 -0.42313132955E+02 -0.11833190650E+03  0.12615175871E+03  0.00000000000E+00 0. -1.
        -11    1    3    3    0    0  0.20910617810E+02  0.63980609292E+01 -0.78991155921E+02  0.81962136592E+02  0.00000000000E+00 0.  1.
         11    1    3    3    0    0 -0.85985823239E+02  0.14109117051E+02 -0.12896795352E+03  0.15564498712E+03  0.00000000000E+00 0. -1.
         21    1    1    2  503  501 -0.27892592400E+00  0.27117919833E+02  0.99653402407E+01  0.28892341232E+02  0.00000000000E+00 0.  1.
          1    1    1    2  501    0  0.13338056768E+03  0.52577462834E+02 -0.22650755186E+03  0.26806796990E+03  0.00000000000E+00 0. -1.
<scales pt_clust_5="13000.00000" pt_clust_6="13000.00000" pt_clust_7="13000.00000" pt_clust_8="13000.00000" pt_clust_9="27.11935" pt_clust_10="129.98433"></scales>
<clustering>
<clus scale="   27.119">  1  9  2 -1</clus>
<clus scale="   73.772">  5  6 -1 -1</clus>
<clus scale="   92.492">  7  8 -1 -1</clus>
<clus scale="  116.724">  2  7  1 -1</clus>
<clus scale="  129.984">  1 10  2 -1</clus>
<clus scale="   27.119">  1  5  2 -1</clus>
</clustering>
</event>
<event>
10    4  0.3403565E-005  0.1180621E+03  0.7546771E-02  0.1250106E+00
         -3   -1    0    0    0  501 -0.00000000000E+00  0.00000000000E+00  0.65364045143E+03  0.65364045143E+03  0.00000000000E+00 0.  1.
         21   -1    0    0  501  502  0.00000000000E+00 -0.00000000000E+00 -0.14291261429E+03  0.14291261429E+03  0.00000000000E+00 0.  1.
         23    2    1    2    0    0 -0.63413557901E+02  0.19196974131E+02  0.22980847195E+03  0.25599764845E+03  0.91285590822E+02 0.  0.
         24    2    1    2    0    0  0.89216685167E+02  0.79335179877E+02  0.20664084447E+03  0.25165285049E+03  0.79843790495E+02 0.  0.
        -11    1    4    4    0    0  0.37269592178E+02  0.62635996243E+02  0.57476304866E+02  0.92821420737E+02  0.00000000000E+00 0.  1.
         12    1    4    4    0    0  0.51947092989E+02  0.16699183634E+02  0.14916453960E+03  0.15883142976E+03  0.00000000000E+00 0. -1.
        -11    1    3    3    0    0 -0.41407497503E+02  0.62361821937E+01  0.22639071481E+03  0.23023081152E+03  0.00000000000E+00 0.  1.
         11    1    3    3    0    0 -0.22006060398E+02  0.12960791938E+02  0.34177571379E+01  0.25766836937E+02  0.00000000000E+00 0. -1.
         21    1    1    2  503  502  0.18713591207E+02 -0.32490188423E+02 -0.94832340814E+02  0.10197540735E+03  0.00000000000E+00 0.  1.
         -4    1    1    2    0  503 -0.44516718473E+02 -0.66041965585E+02  0.16911086153E+03  0.18692715942E+03  0.00000000000E+00 0.  1.
<scales pt_clust_5="13000.00000" pt_clust_6="13000.00000" pt_clust_7="13000.00000" pt_clust_8="13000.00000" pt_clust_9="37.49414" pt_clust_10="83.21680"></scales>
<clustering>
<clus scale="   37.494">  2  9  1 -1</clus>
<clus scale="   79.844">  5  6 -1 -1</clus>
<clus scale="   83.217">  2 10  1 -1</clus>
<clus scale="   91.286">  7  8 -1 -1</clus>
<clus scale="  109.456">  2  5  1 -1</clus>
<clus scale="   37.494">  2  5  1 -1</clus>
</clustering>
</event>
<event>
10    4  0.4487167E-005  0.1734450E+03  0.7546771E-02  0.1188184E+00
         21   -1    0    0  501  502  0.00000000000E+00  0.00000000000E+00  0.64620102437E+03  0.64620102437E+03  0.00000000000E+00 0. -1.
          2   -1    0    0  503    0 -0.00000000000E+00 -0.00000000000E+00 -0.77538497663E+03  0.77538497663E+03  0.00000000000E+00 0. -1.
         23    2    1    2    0    0 -0.71122507747E+02 -0.11661658828E+02 -0.35605567047E+02  0.12900156814E+03  0.10089223351E+03 0.  0.
         24    2    1    2    0    0 -0.73500723671E+02  0.86123368587E+02 -0.54793904768E+03  0.56528718432E+03  0.80577973315E+02 0.  0.
        -13    1    4    4    0    0 -0.61072477645E+01  0.61275296301E+02 -0.17562593417E+03  0.18610864882E+03  0.00000000000E+00 0.  1.
         14    1    4    4    0    0 -0.67393475907E+02  0.24848072286E+02 -0.37231311351E+03  0.37917853550E+03  0.00000000000E+00 0. -1.
        -11    1    3    3    0    0 -0.16882849821E+02 -0.47951223618E+02 -0.38356813957E+02  0.63683558643E+02  0.00000000000E+00 0.  1.
         11    1    3    3    0    0 -0.54239657926E+02  0.36289564790E+02  0.27512469098E+01  0.65318009493E+02  0.00000000000E+00 0. -1.
         21    1    1    2  503  502  0.20095099382E+03 -0.30450140341E+01  0.55581848092E+03  0.59103701895E+03  0.00000000000E+00 0. -1.
          1    1    1    2  501    0 -0.56327762405E+02 -0.71416695725E+02 -0.10145781846E+03  0.13626022960E+03  0.00000000000E+00 0. -1.
<scales pt_clust_5="13000.00000" pt_clust_6="13000.00000" pt_clust_7="13000.00000" pt_clust_8="13000.00000" pt_clust_9="153.59153" pt_clust_10="90.95697"></scales>
<clustering>
<clus scale="   80.578">  5  6 -1 -1</clus>
<clus scale="   90.957">  1 10  2 -1</clus>
<clus scale="  100.892">  7  8 -1 -1</clus>
<clus scale="  127.035">  2  7  1 -1</clus>
<clus scale="  153.592">  1  9  2 -1</clus>
<clus scale="   90.957">  1  5  2 -1</clus>
</clustering>
</event>
<event>
10    4  0.3403565E-005  0.1630733E+03  0.7546771E-02  0.1200260E+00
         21   -1    0    0  503  502  0.00000000000E+00  0.00000000000E+00  0.11652700743E+04  0.11652700743E+04  0.00000000000E+00 0.  1.
          2   -1    0    0  502    0 -0.00000000000E+00 -0.00000000000E+00 -0.48188332700E+02  0.48188332700E+02  0.00000000000E+00 0. -1.
         23    2    1    2    0    0 -0.49719602402E+02 -0.50564090319E+02  0.54225263240E+03  0.55479035644E+03  0.93411220725E+02 0.  0.
         24    2    1    2    0    0  0.15174082377E+03 -0.38346321656E+02  0.32716016962E+03  0.37170364877E+03  0.81450033417E+02 0.  0.
        -13    1    4    4    0    0  0.66028664942E+02  0.20860855837E+02  0.98203070234E+02  0.12016156999E+03  0.00000000000E+00 0.  1.
         14    1    4    4    0    0  0.85712158828E+02 -0.59207177493E+02  0.22895709938E+03  0.25154207878E+03  0.00000000000E+00 0. -1.
        -13    1    3    3    0    0 -0.67027523045E+02 -0.63723957959E+02  0.48055605581E+03  0.48937465652E+03  0.00000000000E+00 0.  1.
         13    1    3    3    0    0  0.17307920643E+02  0.13159867640E+02  0.61696576590E+02  0.65415699921E+02  0.00000000000E+00 0. -1.
         21    1    1    2  503  501 -0.23902396101E+02  0.30963361893E+02  0.12159479799E+03  0.12773155138E+03  0.00000000000E+00 0. -1.
          1    1    1    2  501    0 -0.78118825267E+02  0.57947050082E+02  0.12607414162E+03  0.15923285044E+03  0.00000000000E+00 0. -1.
<scales pt_clust_5="13000.00000" pt_clust_6="13000.00000" pt_clust_7="13000.00000" pt_clust_8="13000.00000" pt_clust_9="32.92309" pt_clust_10="150.51268"></scales>
<clustering>
<clus scale="   32.923">  9 10 -1 -1</clus>
<clus scale="   81.450">  5  6 -1 -1</clus>
<clus scale="   93.411">  7  8 -1 -1</clus>
<clus scale="  117.279">  2  7  1 -1</clus>
<clus scale="  150.513">  1  9  2 -1</clus>
<clus scale="  150.513">  1  5  2 -1</clus>
</clustering>
</event>
<event>
10    4  0.3403565E-005  0.2797527E+03  0.7546771E-02  0.1134135E+00
          4   -1    0    0  503    0 -0.00000000000E+00  0.00000000000E+00  0.20887021111E+04  0.20887021111E+04  0.00000000000E+00 0. -1.
         21   -1    0    0  501  502  0.00000000000E+00 -0.00000000000E+00 -0.12445833558E+03  0.12445833558E+03  0.00000000000E+00 0. -1.
         23    2    1    2    0    0  0.28383168703E+02 -0.45913795291E+02  0.12267716577E+03  0.16042643582E+03  0.88166169513E+02 0.  0.
         24    2    1    2    0    0 -0.24107079084E+03 -0.10038231306E+03  0.11587446131E+04  0.11904586211E+04  0.79441268096E+02 0.  0.
        -11    1    4    4    0    0 -0.48985597518E+02 -0.57422948909E+02  0.35896743268E+03  0.36681685015E+03  0.00000000000E+00 0.  1.
         12    1    4    4    0    0 -0.19208519332E+03 -0.42959364155E+02  0.79977718042E+03  0.82364177090E+03  0.00000000000E+00 0. -1.
        -13    1    3    3    0    0  0.69460742380E+01  0.23008469047E+02  0.60717018536E+02  0.65300795823E+02  0.00000000000E+00 0.  1.
         13    1    3    3    0    0  0.21437094465E+02 -0.68922264338E+02  0.61960147232E+02  0.95125640001E+02  0.00000000000E+00 0. -1.
         21    1    1    2  503  502 -0.10779518239E+02 -0.25740990516E+02 -0.60839573616E+02  0.66934672061E+02  0.00000000000E+00 0. -1.
          3    1    1    2  501    0  0.22346714037E+03  0.17203709887E+03  0.74366157022E+03  0.79534071771E+03  0.00000000000E+00 0. -1.
<scales pt_clust_5="13000.00000" pt_clust_6="13000.00000" pt_clust_7="13000.00000" pt_clust_8="13000.00000" pt_clust_9="27.90693" pt_clust_10="268.23624"></scales>
<clustering>
<clus scale="   27.907">  2  9  1 -1</clus>
<clus scale="   79.441">  5  6 -1 -1</clus>
<clus scale="   88.166">  7  8 -1 -1</clus>
<clus scale="  106.341">  1  7  2 -1</clus>
<clus scale="  268.236">  2 10  1 -1</clus>
<clus scale="   27.907">  2  5  1 -1</clus>
</clustering>
</event>
<event>
10    4  0.3403565E-005  0.1363286E+03  0.7546771E-02  0.1220443E+00
         21   -1    0    0  501  502  0.00000000000E+00  0.00000000000E+00  0.15293267617E+03  0.15293267617E+03  0.00000000000E+00 0.  1.
          2   -1    0    0  503    0 -0.00000000000E+00 -0.00000000000E+00 -0.64676627226E+03  0.64676627226E+03  0.00000000000E+00 0. -1.
         24    2    1    2    0    0  0.91177220160E+02 -0.30059065342E+02 -0.25034088417E+03  0.27986346545E+03  0.80225732277E+02 0.  0.
         23    2    1    2    0    0 -0.14663782846E+03 -0.35838643835E+02 -0.50561689683E+02  0.18259319024E+03  0.89424423567E+02 0.  0.
        -13    1    3    3    0    0  0.53433656467E+02  0.20205781568E+02 -0.80063231597E+02  0.98354208379E+02  0.00000000000E+00 0.  1.
         14    1    3    3    0    0  0.37743563693E+02 -0.50264846911E+02 -0.17027765257E+03  0.18150925707E+03  0.00000000000E+00 0. -1.
        -13    1    4    4    0    0 -0.89216498036E+02  0.96524541779E+00  0.12021051119E+02  0.90027889515E+02  0.00000000000E+00 0.  1.
         13    1    4    4    0    0 -0.57421330427E+02 -0.36803889253E+02 -0.62582740801E+02  0.92565300725E+02  0.00000000000E+00 0. -1.
         21    1    1    2  503  502  0.56087366744E+01  0.19533710886E+02  0.66235447959E+02  0.69283175117E+02  0.00000000000E+00 0.  1.
          1    1    1    2  501    0  0.49851871629E+02  0.46363998292E+02 -0.25916647020E+03  0.26795911762E+03  0.00000000000E+00 0. -1.
<scales pt_clust_5="13000.00000" pt_clust_6="13000.00000" pt_clust_7="13000.00000" pt_clust_8="13000.00000" pt_clust_9="20.32299" pt_clust_10="68.98038"></scales>
<clustering>
<clus scale="   20.323">  1  9  2 -1</clus>
<clus scale="   68.980">  1 10  2 -1</clus>
<clus scale="   80.226">  5  6 -1 -1</clus>
<clus scale="   89.424">  7  8 -1 -1</clus>
<clus scale="  130.480">  2  5  1 -1</clus>
<clus scale="   20.323">  1  5  2 -1</clus>
</clustering>
</event>
<event>
10    4  0.3403565E-005  0.1152585E+03  0.7546771E-02  0.1254838E+00
         21   -1    0    0  501  502  0.00000000000E+00  0.00000000000E+00  0.14426726152E+03  0.14426726152E+03  0.00000000000E+00 0.  1.
          2   -1    0    0  503    0 -0.00000000000E+00 -0.00000000000E+00 -0.70246950948E+03  0.70246950948E+03  0.00000000000E+00 0. -1.
         24    2    1    2    0    0  0.21103377238E+01  0.95092754591E+02 -0.43890160688E+03  0.45617155791E+03  0.80067373038E+02 0.  0.
         23    2    1    2    0    0 -0.38942708667E+02 -0.16928171686E+02 -0.12208791508E+03  0.15792446065E+03  0.90728048088E+02 0.  0.
        -11    1    3    3    0    0  0.17332489468E+02  0.12311572534E+02 -0.21017773850E+02  0.29895431541E+02  0.00000000000E+00 0.  1.
         12    1    3    3    0    0 -0.15222151744E+02  0.82781182058E+02 -0.41788383302E+03  0.42627612637E+03  0.00000000000E+00 0. -1.
        -11    1    4    4    0    0 -0.27736994706E+02  0.27904381156E+02 -0.16495384635E+02  0.42662548884E+02  0.00000000000E+00 0.  1.
         11    1    4    4    0    0 -0.11205713961E+02 -0.44832552842E+02 -0.10559253044E+03  0.11526191177E+03  0.00000000000E+00 0. -1.
         21    1    1    2  503  502  0.93036204569E+01 -0.58449003461E+02  0.10743101874E+03  0.12265507387E+03  0.00000000000E+00 0.  1.
          1    1    1    2  501    0  0.27528750486E+02 -0.19715579445E+02 -0.10464374475E+03  0.10998567857E+03  0.00000000000E+00 0. -1.
<scales pt_clust_5="13000.00000" pt_clust_6="13000.00000" pt_clust_7="13000.00000" pt_clust_8="13000.00000" pt_clust_9="80.92203" pt_clust_10="33.86056"></scales>
<clustering>
<clus scale="   33.861">  1 10  2 -1</clus>
<clus scale="   80.067">  5  6 -1 -1</clus>
<clus scale="   80.922">  1  9  2 -1</clus>
<clus scale="   90.728">  7  8 -1 -1</clus>
<clus scale="  107.069">  2  5  1 -1</clus>
<clus scale="   33.861">  1  5  2 -1</clus>
</clustering>
</event>
<event>
10    4  0.3403565E-005  0.1022271E+03  0.7546771E-02  0.1281031E+00
         21   -1    0    0  503  502  0.00000000000E+00  0.00000000000E+00  0.76713999603E+02  0.76713999603E+02  0.00000000000E+00 0.  1.
          2   -1    0    0  502    0 -0.00000000000E+00 -0.00000000000E+00 -0.42264199913E+03  0.42264199913E+03  0.00000000000E+00 0. -1.
         23    2    1    2    0    0  0.37352039258E+02  0.18853917166E+02 -0.95226059745E+02  0.13832520921E+03  0.91187806301E+02 0.  0.
         24    2    1    2    0    0  0.15851133773E+01 -0.81509795662E+02 -0.25724576480E+02  0.11701985341E+03  0.79909529372E+02 0.  0.
        -13    1    4    4    0    0  0.12107981354E+02 -0.27009148766E+02  0.27292515084E+02  0.40261379872E+02  0.00000000000E+00 0.  1.
         14    1    4    4    0    0 -0.10522867977E+02 -0.54500646895E+02 -0.53017091564E+02  0.76758473541E+02  0.00000000000E+00 0. -1.
        -13    1    3    3    0    0  0.61950001262E+02  0.17103585334E+02 -0.93694211889E+02  0.11361751902E+03  0.00000000000E+00 0.  1.
         13    1    3    3    0    0 -0.24597962004E+02  0.17503318312E+01 -0.15318478559E+01  0.24707690182E+02  0.00000000000E+00 0. -1.
         21    1    1    2  503  501 -0.86372102366E+01  0.26312503427E+02 -0.21377295637E+02  0.34984825368E+02  0.00000000000E+00 0.  1.
          1    1    1    2  501    0 -0.30299942399E+02  0.36343375069E+02 -0.20360006767E+03  0.20902611075E+03  0.00000000000E+00 0. -1.
<scales pt_clust_5="13000.00000" pt_clust_6="13000.00000" pt_clust_7="13000.00000" pt_clust_8="13000.00000" pt_clust_9="27.69385" pt_clust_10="48.31789"></scales>
<clustering>
<clus scale="   27.694">  1  9  2 -1</clus>
<clus scale="   48.318">  1 10  2 -1</clus>
<clus scale="   79.910">  5  6 -1 -1</clus>
<clus scale="   91.188">  7  8 -1 -1</clus>
<clus scale="   92.308">  1  5  2 -1</clus>
<clus scale="   27.694">  1  5  2 -1</clus>
</clustering>
</event>
<event>
10    4  0.3403565E-005  0.2406128E+03  0.7546771E-02  0.1120061E+00
          2   -1    0    0  502    0 -0.00000000000E+00  0.00000000000E+00  0.10345294218E+04  0.10345294218E+04  0.00000000000E+00 0. -1.
         21   -1    0    0  503  502  0.00000000000E+00 -0.00000000000E+00 -0.11572816915E+03  0.11572816915E+03  0.00000000000E+00 0. -1.
         24    2    1    2    0    0  0.54124758959E+02 -0.20800597883E+03  0.44082841421E+03  0.49690341747E+03  0.79920828033E+02 0.  0.
         23    2    1    2    0    0  0.42300967290E+02  0.24407886347E+03  0.35229138703E+03  0.44021026009E+03  0.91170106345E+02 0.  0.
        -11    1    3    3    0    0  0.72560560507E+02 -0.12793443486E+03  0.27711911852E+03  0.31373119133E+03  0.00000000000E+00 0.  1.
         12    1    3    3    0    0 -0.18435801548E+02 -0.80071543972E+02  0.16370929569E+03  0.18317222614E+03  0.00000000000E+00 0. -1.
        -11    1    4    4    0    0 -0.12881295161E+02  0.73901867604E+02  0.54170512387E+02  0.92530309697E+02  0.00000000000E+00 0.  1.
         11    1    4    4    0    0  0.55182262451E+02  0.17017699587E+03  0.29812087464E+03  0.34767995040E+03  0.00000000000E+00 0. -1.
         21    1    1    2  503  501 -0.32182100204E+01 -0.35271145224E+02 -0.19639521828E+02  0.40498412053E+02  0.00000000000E+00 0. -1.
          1    1    1    2  501    0 -0.93207516229E+02 -0.80173941932E+00  0.14532097320E+03  0.17264550130E+03  0.00000000000E+00 0. -1.
<scales pt_clust_5="13000.00000" pt_clust_6="13000.00000" pt_clust_7="13000.00000" pt_clust_8="13000.00000" pt_clust_9="35.41766" pt_clust_10="93.94094"></scales>
<clustering>
<clus scale="   35.418">  2  9  1 -1</clus>
<clus scale="   79.921">  5  6 -1 -1</clus>
<clus scale="   91.170">  7  8 -1 -1</clus>
<clus scale="   93.941">  2 10  1 -1</clus>
<clus scale="  236.580">  1  5  2 -1</clus>
<clus scale="   35.418">  2  5  1 -1</clus>
</clustering>
</event>
<event>
10    4  0.3403565E-005  0.3940946E+03  0.7546771E-02  0.1100347E+00
         -3   -1    0    0    0  501 -0.00000000000E+00  0.00000000000E+00  0.89803951730E+03  0.89803951730E+03  0.00000000000E+00 0.  1.
         21   -1    0    0  503  502  0.00000000000E+00 -0.00000000000E+00 -0.27979812485E+03  0.27979812485E+03  0.00000000000E+00 0.  1.
         24    2    1    2    0    0  0.31024275055E+02  0.20641493928E+02  0.13577038807E+03  0.16219743218E+03  0.80534662187E+02 0.  0.
         23    2    1    2    0    0  0.98973941282E+02 -0.37319411007E+03  0.45117034079E+03  0.60087748851E+03  0.91811736398E+02 0.  0.
        -11    1    3    3    0    0  0.28948575837E+02  0.34311431066E+02  0.14056778298E+03  0.14756217658E+03  0.00000000000E+00 0.  1.
         12    1    3    3    0    0  0.20756992178E+01 -0.13669937137E+02 -0.47973949068E+01  0.14635255600E+02  0.00000000000E+00 0. -1.
        -11    1    4    4    0    0  0.71631953694E+02 -0.35375692406E+03  0.39200284620E+03  0.53286145436E+03  0.00000000000E+00 0.  1.
         11    1    4    4    0    0  0.27341987588E+02 -0.19437186010E+02  0.59167494592E+02  0.68016034151E+02  0.00000000000E+00 0. -1.
         21    1    1    2  503  501  0.18810027837E+02 -0.10244140801E+02  0.47963947808E+00  0.21424043083E+02  0.00000000000E+00 0. -1.
         -4    1    1    2    0  502 -0.14880824417E+03  0.36279675694E+03  0.30821024098E+02  0.39333867838E+03  0.00000000000E+00 0.  1.
<scales pt_clust_5="13000.00000" pt_clust_6="13000.00000" pt_clust_7="13000.00000" pt_clust_8="13000.00000" pt_clust_9="21.41867" pt_clust_10="383.25077"></scales>
<clustering>
<clus scale="   21.419">  2  9  1 -1</clus>
<clus scale="   80.535">  5  6 -1 -1</clus>
<clus scale="   88.950">  1  5  2 -1</clus>
<clus scale="   91.812">  7  8 -1 -1</clus>
<clus scale="  383.251">  2 10  1 -1</clus>
<clus scale="   21.419">  2  5  1 -1</clus>
</clustering>
</event>
<event>
10    4  0.3403565E-005  0.1007758E+03  0.7546771E-02  0.1282781E+00
         -3   -1    0    0    0  501 -0.00000000000E+00  0.00000000000E+00  0.41500974290E+03  0.41500974290E+03  0.00000000000E+00 0.  1.
         21   -1    0    0  503  502  0.00000000000E+00 -0.00000000000E+00 -0.80677926021E+02  0.80677926021E+02  0.00000000000E+00 0. -1.
         24    2    1    2    0    0  0.48723981001E+01 -0.32377380504E+02  0.15167759052E+03  0.17510485884E+03  0.81139294376E+02 0.  0.
         23    2    1    2    0    0 -0.72839465901E+02  0.29330337187E+02  0.20797856095E+03  0.23973530046E+03  0.89733360575E+02 0.  0.
        -11    1    3    3    0    0 -0.85272198428E+01 -0.55491847974E+02  0.12647454425E+03  0.13837582525E+03  0.00000000000E+00 0.  1.
         12    1    3    3    0    0  0.13399617943E+02  0.23114467469E+02  0.25203046276E+02  0.36729033597E+02  0.00000000000E+00 0. -1.
        -13    1    4    4    0    0 -0.30092507085E+02  0.59575836971E+02  0.11097423726E+03  0.12949950065E+03  0.00000000000E+00 0.  1.
         13    1    4    4    0    0 -0.42746958816E+02 -0.30245499784E+02  0.97004323690E+02  0.11023579981E+03  0.00000000000E+00 0. -1.
         21    1    1    2  503  501  0.35838437398E+02  0.36231328389E+01 -0.31821108293E+02  0.48063537320E+02  0.00000000000E+00 0. -1.
         -4    1    1    2    0  502  0.32128630403E+02 -0.57608952187E+00  0.64967736901E+01  0.32783972290E+02  0.00000000000E+00 0.  1.
<scales pt_clust_5="13000.00000" pt_clust_6="13000.00000" pt_clust_7="13000.00000" pt_clust_8="13000.00000" pt_clust_9="54.93865" pt_clust_10="32.13379"></scales>
<clustering>
<clus scale="   32.134">  2 10  1 -1</clus>
<clus scale="   54.939">  2  9  1 -1</clus>
<clus scale="   81.139">  5  6 -1 -1</clus>
<clus scale="   89.733">  7  8 -1 -1</clus>
<clus scale="   93.205">  1  5  2 -1</clus>
<clus scale="   32.134">  2  5  1 -1</clus>
</clustering>
</event>
<event>
10    4  0.3403565E-005  0.1293647E+03  0.7546771E-02  0.1232392E+00
         21   -1    0    0  503  502  0.00000000000E+00  0.00000000000E+00  0.17532167067E+03  0.17532167067E+03  0.00000000000E+00 0.  1.
          2   -1    0    0  502    0 -0.00000000000E+00 -0.00000000000E+00 -0.14278244601E+04  0.14278244601E+04  0.00000000000E+00 0. -1.
         23    2    1    2    0    0 -0.34925658386E+02 -0.59701204438E+02 -0.64714393739E+02  0.13196652240E+03  0.91886750141E+02 0.  0.
         24    2    1    2    0    0 -0.79411763345E+02 -0.40886068809E+02  0.98553027013E+02  0.15305706148E+03  0.75735501277E+02 0.  0.
        -13    1    4    4    0    0 -0.51922488128E+02 -0.61519261865E+02  0.81986947037E+02  0.11490180085E+03  0.00000000000E+00 0.  1.
         14    1    4    4    0    0 -0.27489275218E+02  0.20633193057E+02  0.16566079976E+02  0.38155260627E+02  0.00000000000E+00 0. -1.
        -13    1    3    3    0    0 -0.49161470152E+02 -0.32948596045E+02 -0.78799606613E+02  0.98548658698E+02  0.00000000000E+00 0. -1.
         13    1    3    3    0    0  0.14235811766E+02 -0.26752608393E+02  0.14085212874E+02  0.33417863699E+02  0.00000000000E+00 0.  1.
         21    1    1    2  503  501  0.20040951487E+02 -0.47148375596E+02 -0.58190410219E+02  0.77528916536E+02  0.00000000000E+00 0. -1.
          1    1    1    2  501    0  0.94296470244E+02  0.14773564884E+03 -0.12281510125E+04  0.12405936304E+04  0.00000000000E+00 0. -1.
<scales pt_clust_5="13000.00000" pt_clust_6="13000.00000" pt_clust_7="13000.00000" pt_clust_8="13000.00000" pt_clust_9="51.23094" pt_clust_10="104.87788"></scales>
<clustering>
<clus scale="   51.231">  1  9  2 -1</clus>
<clus scale="   75.736">  5  6 -1 -1</clus>
<clus scale="   91.887">  7  8 -1 -1</clus>
<clus scale="  119.138">  2  7  1 -1</clus>
<clus scale="  104.878">  1 10  2 -1</clus>
<clus scale="   51.231">  1  5  2 -1</clus>
</clustering>
</event>
<event>
10    4  0.3403565E-005  0.2972945E+03  0.7546771E-02  0.1106878E+00
         21   -1    0    0  501  502  0.00000000000E+00  0.00000000000E+00  0.41309438322E+03  0.41309438322E+03  0.00000000000E+00 0.  1.
         -3   -1    0    0    0  501 -0.00000000000E+00 -0.00000000000E+00 -0.61765905824E+03  0.61765905824E+03  0.00000000000E+00 0.  1.
         24    2    1    2    0    0 -0.16612476834E+03  0.22816000915E+02  0.17337757755E+02  0.18677511601E+03  0.80413540920E+02 0.  0.
         23    2    1    2    0    0  0.37716529164E+03  0.85857697934E+01 -0.23714974007E+03  0.45241151996E+03  0.78158886376E+02 0.  0.
        -11    1    3    3    0    0 -0.39658437554E+02  0.26117225760E+01 -0.30462184804E+02  0.50075517641E+02  0.00000000000E+00 0.  1.
         12    1    3    3    0    0 -0.12646633079E+03  0.20204278339E+02  0.47799942559E+02  0.13669959837E+03  0.00000000000E+00 0. -1.
        -13    1    4    4    0    0  0.15786622972E+03  0.24790123174E+02 -0.62469016197E+02  0.17157702258E+03  0.00000000000E+00 0. -1.
         13    1    4    4    0    0  0.21929906192E+03 -0.16204353381E+02 -0.17468072388E+03  0.28083449739E+03  0.00000000000E+00 0.  1.
         21    1    1    2  503  502  0.36045378191E+02  0.48348708006E+01  0.11653563186E+03  0.12207865807E+03  0.00000000000E+00 0. -1.
         -4    1    1    2    0  503 -0.24708590149E+03 -0.36236641509E+02 -0.10128832456E+03  0.26948814741E+03  0.00000000000E+00 0.  1.
<scales pt_clust_5="13000.00000" pt_clust_6="13000.00000" pt_clust_7="13000.00000" pt_clust_8="13000.00000" pt_clust_9="36.36819" pt_clust_10="286.83652"></scales>
<clustering>
<clus scale="   36.368">  1  9  2 -1</clus>
<clus scale="   78.159">  7  8 -1 -1</clus>
<clus scale="   80.414">  5  6 -1 -1</clus>
<clus scale="  175.101">  2  5  1 -1</clus>
<clus scale="  286.837">  1 10  2 -1</clus>
<clus scale="   36.368">  1  5  2 -1</clus>
</clustering>
</event>
<event>
10    4  0.3403565E-005  0.2659539E+03  0.7546771E-02  0.1104098E+00
          2   -1    0    0  502    0 -0.00000000000E+00  0.00000000000E+00  0.53774334041E+03  0.53774334041E+03  0.00000000000E+00 0. -1.
         21   -1    0    0  503  502  0.00000000000E+00 -0.00000000000E+00 -0.78671459145E+03  0.78671459145E+03  0.00000000000E+00 0.  1.
         24    2    1    2    0    0  0.18198751941E+03  0.17136108231E+03  0.30925099870E+03  0.40513180575E+03  0.77534005992E+02 0.  0.
         23    2    1    2    0    0 -0.22056800358E+03 -0.15352400421E+03 -0.68233220165E+03  0.73860411953E+03  0.87971290225E+02 0.  0.
        -11    1    3    3    0    0  0.43025946634E+02  0.49865094858E+02  0.13990768845E+03  0.15463479898E+03  0.00000000000E+00 0.  1.
         12    1    3    3    0    0  0.13896157278E+03  0.12149598745E+03  0.16934331025E+03  0.25049700677E+03  0.00000000000E+00 0. -1.
        -11    1    4    4    0    0 -0.15289951930E+03 -0.89633567840E+02 -0.33469810998E+03  0.37872848362E+03  0.00000000000E+00 0.  1.
         11    1    4    4    0    0 -0.67668484282E+02 -0.63890436365E+02 -0.34763409167E+03  0.35987563591E+03  0.00000000000E+00 0. -1.
         21    1    1    2  503  501 -0.30552647935E+02 -0.61480109597E+01 -0.70908206229E+01  0.31961571797E+02  0.00000000000E+00 0.  1.
          1    1    1    2  501    0  0.69133132107E+02 -0.11689067142E+02  0.13120077252E+03  0.14876043478E+03  0.00000000000E+00 0. -1.
<scales pt_clust_5="13000.00000" pt_clust_6="13000.00000" pt_clust_7="13000.00000" pt_clust_8="13000.00000" pt_clust_9="31.16508" pt_clust_10="69.78149"></scales>
<clustering>
<clus scale="   31.165">  2  9  1 -1</clus>
<clus scale="   69.781">  2 10  1 -1</clus>
<clus scale="   77.534">  5  6 -1 -1</clus>
<clus scale="   87.971">  7  8 -1 -1</clus>
<clus scale="  262.686">  1  5  2 -1</clus>
<clus scale="   31.165">  2  5  1 -1</clus>
</clustering>
</event>
<event>
10    4  0.5712379E-005  0.5482156E+03  0.7546771E-02  0.1045245E+00
          2   -1    0    0  503    0 -0.00000000000E+00  0.00000000000E+00  0.16814852499E+04  0.16814852499E+04  0.00000000000E+00 0. -1.
         21   -1    0    0  501  502  0.00000000000E+00 -0.00000000000E+00 -0.24513703025E+03  0.24513703025E+03  0.00000000000E+00 0. -1.
         23    2    1    2    0    0  0.10187036864E+03  0.53461269590E+02  0.21548298982E+03  0.26094573896E+03  0.91782789392E+02 0.  0.
         24    2    1    2    0    0 -0.64559989919E+02  0.50373209649E+03  0.67141170286E+03  0.84577350204E+03  0.81394868879E+02 0.  0.
        -13    1    4    4    0    0 -0.30905459237E+02  0.65104769932E+02  0.68490041740E+02  0.99421649032E+02  0.00000000000E+00 0.  1.
         14    1    4    4    0    0 -0.33654530682E+02  0.43862732656E+03  0.60292166112E+03  0.74635185300E+03  0.00000000000E+00 0. -1.
        -13    1    3    3    0    0  0.11682816083E+03  0.39548514574E+02  0.16139473384E+03  0.20312844281E+03  0.00000000000E+00 0.  1.
         13    1    3    3    0    0 -0.14957792192E+02  0.13912755017E+02  0.54088255976E+02  0.57817296148E+02  0.00000000000E+00 0. -1.
         21    1    1    2  503  502  0.15348558815E+02  0.21461970737E+02  0.14541506668E+02  0.30127227914E+02  0.00000000000E+00 0.  1.
          1    1    1    2  501    0 -0.52658937532E+02 -0.57865533681E+03  0.53491202028E+03  0.78977581120E+03  0.00000000000E+00 0. -1.
<scales pt_clust_5="13000.00000" pt_clust_6="13000.00000" pt_clust_7="13000.00000" pt_clust_8="13000.00000" pt_clust_9="26.38550" pt_clust_10="542.13951"></scales>
<clustering>
<clus scale="   26.385">  2  9  1 -1</clus>
<clus scale="   81.395">  5  6 -1 -1</clus>
<clus scale="   91.783">  7  8 -1 -1</clus>
<clus scale="  148.948">  1  7  2 -1</clus>
<clus scale="  542.140">  2 10  1 -1</clus>
<clus scale="   26.385">  2  5  1 -1</clus>
</clustering>
</event>
<event>
10    4  0.3403565E-005  0.2228605E+03  0.7546771E-02  0.1164334E+00
          2   -1    0    0  503    0 -0.00000000000E+00  0.00000000000E+00  0.11644849438E+04  0.11644849438E+04  0.00000000000E+00 0. -1.
         21   -1    0    0  501  502  0.00000000000E+00 -0.00000000000E+00 -0.90099737105E+02  0.90099737105E+02  0.00000000000E+00 0.  1.
         24    2    1    2    0    0  0.15107929529E+02 -0.57175320338E+02  0.67686256000E+02  0.12002167699E+03  0.79539341870E+02 0.  0.
         23    2    1    2    0    0 -0.14368759724E+03 -0.13092582573E+03  0.26790257097E+03  0.34317419744E+03  0.90603779266E+02 0.  0.
        -13    1    3    3    0    0 -0.57766853068E+01 -0.63121078751E+02  0.18145599255E+02  0.65931050713E+02  0.00000000000E+00 0.  1.
         14    1    3    3    0    0  0.20884614836E+02  0.59457584127E+01  0.49540656746E+02  0.54090626274E+02  0.00000000000E+00 0. -1.
        -11    1    4    4    0    0 -0.15457579365E+03 -0.10691284894E+03  0.23050227072E+03  0.29741440795E+03  0.00000000000E+00 0.  1.
         11    1    4    4    0    0  0.10888196415E+02 -0.24012976791E+02  0.37400300252E+02  0.45759789493E+02  0.00000000000E+00 0. -1.
         21    1    1    2  503  502  0.15001112733E+02 -0.14729642337E+02  0.49445459065E+01  0.21597321149E+02  0.00000000000E+00 0.  1.
          1    1    1    2  501    0  0.11357855497E+03  0.20283078840E+03  0.73385183377E+03  0.76979148528E+03  0.00000000000E+00 0. -1.
<scales pt_clust_5="13000.00000" pt_clust_6="13000.00000" pt_clust_7="13000.00000" pt_clust_8="13000.00000" pt_clust_9="21.02369" pt_clust_10="203.61185"></scales>
<clustering>
<clus scale="   21.024">  2  9  1 -1</clus>
<clus scale="   79.539">  5  6 -1 -1</clus>
<clus scale="   90.604">  7  8 -1 -1</clus>
<clus scale="  102.728">  1  5  2 -1</clus>
<clus scale="  203.612">  2 10  1 -1</clus>
<clus scale="   21.024">  2  5  1 -1</clus>
</clustering>
</event>
<event>
10    4  0.3403565E-005  0.2019396E+03  0.7546771E-02  0.1180096E+00
          2   -1    0    0  503    0 -0.00000000000E+00  0.00000000000E+00  0.47415931972E+03  0.47415931972E+03  0.00000000000E+00 0. -1.
         21   -1    0    0  501  502  0.00000000000E+00 -0.00000000000E+00 -0.10038072770E+04  0.10038072770E+04  0.00000000000E+00 0.  1.
         23    2    1    2    0    0  0.23004758829E+02  0.18600264583E+02 -0.48390479952E+02  0.10787697927E+03  0.91763910851E+02 0.  0.
         24    2    1    2    0    0  0.20981523816E+02 -0.14747120853E+03  0.29081697168E+03  0.33642818998E+03  0.80133852457E+02 0.  0.
        -11    1    4    4    0    0 -0.21557901583E+02 -0.75290847864E+01  0.41934254622E+02  0.47748423524E+02  0.00000000000E+00 0.  1.
         12    1    4    4    0    0  0.42539425399E+02 -0.13994212374E+03  0.24888271706E+03  0.28867976646E+03  0.00000000000E+00 0. -1.
        -13    1    3    3    0    0  0.38092781130E+02  0.47680638615E+02 -0.19145572830E+02  0.63961365150E+02  0.00000000000E+00 0.  1.
         13    1    3    3    0    0 -0.15088022301E+02 -0.29080374032E+02 -0.29244907122E+02  0.43915614118E+02  0.00000000000E+00 0. -1.
         21    1    1    2  503  502  0.92365824428E+02 -0.11683018129E+03 -0.73534025417E+03  0.75027063530E+03  0.00000000000E+00 0.  1.
          1    1    1    2  501    0 -0.13635210707E+03  0.24570112523E+03 -0.36734194886E+02  0.28339079222E+03  0.00000000000E+00 0. -1.
<scales pt_clust_5="13000.00000" pt_clust_6="13000.00000" pt_clust_7="13000.00000" pt_clust_8="13000.00000" pt_clust_9="148.92738" pt_clust_10="185.35958"></scales>
<clustering>
<clus scale="   80.134">  5  6 -1 -1</clus>
<clus scale="   91.764">  7  8 -1 -1</clus>
<clus scale="   96.415">  1  7  2 -1</clus>
<clus scale="  148.927">  2  9  1 -1</clus>
<clus scale="  185.360">  2 10  1 -1</clus>
<clus scale="  148.927">  2  5  1 -1</clus>
</clustering>
</event>
<event>
10    4  0.3403565E-005  0.1439232E+03  0.7546771E-02  0.1218749E+00
          2   -1    0    0  503    0 -0.00000000000E+00  0.00000000000E+00  0.52649781501E+03  0.52649781501E+03  0.00000000000E+00 0. -1.
         21   -1    0    0  501  502  0.00000000000E+00 -0.00000000000E+00 -0.10023330428E+03  0.10023330428E+03  0.00000000000E+00 0. -1.
         23    2    1    2    0    0 -0.10414072092E+02 -0.54001715594E+02  0.33521549953E+02  0.11241605967E+03  0.92135975473E+02 0.  0.
         24    2    1    2    0    0 -0.54553853417E+02 -0.62757116606E+02  0.21663238492E+03  0.24543805545E+03  0.79972934556E+02 0.  0.
        -11    1    4    4    0    0 -0.17764016503E+02  0.15339759437E+02  0.20560233018E+02  0.31202430734E+02  0.00000000000E+00 0.  1.
         12    1    4    4    0    0 -0.36789836914E+02 -0.78096876043E+02  0.19607215190E+03  0.21423562472E+03  0.00000000000E+00 0. -1.
        -11    1    3    3    0    0 -0.30540025792E+02 -0.71674134966E+02  0.35383036177E+02  0.85567716153E+02  0.00000000000E+00 0. -1.
         11    1    3    3    0    0  0.20125953700E+02  0.17672419372E+02 -0.18614862239E+01  0.26848343519E+02  0.00000000000E+00 0.  1.
         21    1    1    2  503  502  0.14600435061E+02 -0.30862622519E+02  0.70199516695E+00  0.34149186958E+02  0.00000000000E+00 0. -1.
          1    1    1    2  501    0  0.50367490449E+02  0.14762145472E+03  0.17540858069E+03  0.23472781720E+03  0.00000000000E+00 0. -1.
<scales pt_clust_5="13000.00000" pt_clust_6="13000.00000" pt_clust_7="13000.00000" pt_clust_8="13000.00000" pt_clust_9="34.14197" pt_clust_10="119.65872"></scales>
<clustering>
<clus scale="   34.142">  2  9  1 -1</clus>
<clus scale="   79.973">  5  6 -1 -1</clus>
<clus scale="   92.136">  7  8 -1 -1</clus>
<clus scale="  114.912">  1  7  2 -1</clus>
<clus scale="  119.659">  2 10  1 -1</clus>
<clus scale="   34.142">  2  5  1 -1</clus>
</clustering>
</event>
<event>
10    4  0.3403565E-005  0.2181991E+03  0.7546771E-02  0.1160883E+00
          2   -1    0    0  502    0 -0.00000000000E+00  0.00000000000E+00  0.14471559664E+04  0.14471559664E+04  0.00000000000E+00 0. -1.
         21   -1    0    0  503  502  0.00000000000E+00 -0.00000000000E+00 -0.21320639429E+03  0.21320639429E+03  0.00000000000E+00 0.  1.
         23    2    1    2    0    0  0.72899491924E+02 -0.24149856265E+02  0.42711811306E+03  0.44293291963E+03  0.88668694097E+02 0.  0.
         24    2    1    2    0    0 -0.25934725562E+03 -0.12845771817E+02  0.67394035370E+03  0.72675346392E+03  0.80925793962E+02 0.  0.
        -11    1    4    4    0    0 -0.16688834065E+03 -0.13469193825E+02  0.32273284555E+03  0.36357891444E+03  0.00000000000E+00 0.  1.
         12    1    4    4    0    0 -0.92458914965E+02  0.62342200768E+00  0.35120750815E+03  0.36317454948E+03  0.00000000000E+00 0. -1.
        -11    1    3    3    0    0  0.17511072605E+02 -0.44329474606E+02  0.28681986423E+03  0.29075311607E+03  0.00000000000E+00 0. -1.
         11    1    3    3    0    0  0.55388419319E+02  0.20179618341E+02  0.14029824882E+03  0.15217980357E+03  0.00000000000E+00 0.  1.
         21    1    1    2  503  501  0.18175686461E+02  0.11183382199E+02 -0.15486735272E+03  0.15633080488E+03  0.00000000000E+00 0.  1.
          1    1    1    2  501    0  0.16827207723E+03  0.25812245884E+02  0.28775845803E+03  0.33434517221E+03  0.00000000000E+00 0. -1.
<scales pt_clust_5="13000.00000" pt_clust_6="13000.00000" pt_clust_7="13000.00000" pt_clust_8="13000.00000" pt_clust_9="21.34066" pt_clust_10="202.63731"></scales>
<clustering>
<clus scale="   21.341">  2  9  1 -1</clus>
<clus scale="   80.926">  5  6 -1 -1</clus>
<clus scale="   88.669">  7  8 -1 -1</clus>
<clus scale="  118.566">  1  7  2 -1</clus>
<clus scale="  202.637">  2 10  1 -1</clus>
<clus scale="   21.341">  2  5  1 -1</clus>
</clustering>
</event>
<event>
10    4  0.3403565E-005  0.1539045E+03  0.7546771E-02  0.1197901E+00
         21   -1    0    0  501  502  0.00000000000E+00  0.00000000000E+00  0.18335549015E+03  0.18335549015E+03  0.00000000000E+00 0.  1.
          2   -1    0    0  503    0 -0.00000000000E+00 -0.00000000000E+00 -0.60433014219E+03  0.60433014219E+03  0.00000000000E+00 0. -1.
         23    2    1    2    0    0  0.69241810856E+02  0.11447338697E+03 -0.13032312558E+03  0.20745050126E+03  0.90294012630E+02 0.  0.
         24    2    1    2    0    0 -0.66600404561E+02 -0.70945510181E+02  0.90827772262E+02  0.15412094761E+03  0.77683350697E+02 0.  0.
        -11    1    4    4    0    0 -0.79778279265E+02 -0.75725694491E+02  0.84674440142E+02  0.13881179871E+03  0.00000000000E+00 0.  1.
         12    1    4    4    0    0  0.13177874704E+02  0.47801843102E+01  0.61533321197E+01  0.15309148896E+02  0.00000000000E+00 0. -1.
        -11    1    3    3    0    0 -0.10907038794E+02  0.57903468687E+02 -0.73058993720E+02  0.93858360015E+02  0.00000000000E+00 0.  1.
         11    1    3    3    0    0  0.80148849651E+02  0.56569918284E+02 -0.57264131856E+02  0.11359214124E+03  0.00000000000E+00 0. -1.
         21    1    1    2  503  502  0.19909391921E+02  0.50524164424E+02 -0.30991297123E+02  0.62526279074E+02  0.00000000000E+00 0.  1.
          1    1    1    2  501    0 -0.22550798216E+02 -0.94052041215E+02 -0.35048800160E+03  0.36358790439E+03  0.00000000000E+00 0. -1.
<scales pt_clust_5="13000.00000" pt_clust_6="13000.00000" pt_clust_7="13000.00000" pt_clust_8="13000.00000" pt_clust_9="54.30539" pt_clust_10="94.61660"></scales>
<clustering>
<clus scale="   54.305">  1  9  2 -1</clus>
<clus scale="   77.683">  5  6 -1 -1</clus>
<clus scale="   90.294">  7  8 -1 -1</clus>
<clus scale="   94.617">  1 10  2 -1</clus>
<clus scale="  146.861">  1  5  2 -1</clus>
<clus scale="   54.305">  1  5  2 -1</clus>
</clustering>
</event>
<event>
10    4  0.3403565E-005  0.1049087E+03  0.7546771E-02  0.1278492E+00
         -1   -1    0    0    0  501 -0.00000000000E+00  0.00000000000E+00  0.80865623795E+02  0.80865623795E+02  0.00000000000E+00 0.  1.
         21   -1    0    0  501  502  0.00000000000E+00 -0.00000000000E+00 -0.28251701079E+03  0.28251701079E+03  0.00000000000E+00 0. -1.
         24    2    1    2    0    0  0.43725133578E+02 -0.47950550729E+02 -0.35494764311E+02  0.10374134035E+03  0.72740942957E+02 0.  0.
         23    2    1    2    0    0 -0.40694614423E+02 -0.88862578580E+01 -0.13733476637E+03  0.16987654868E+03  0.90896570422E+02 0.  0.
        -13    1    3    3    0    0  0.36573549845E+02  0.86733731584E+01 -0.21692525131E+01  0.37650466222E+02  0.00000000000E+00 0.  1.
         14    1    3    3    0    0  0.71515837326E+01 -0.56623923887E+02 -0.33325511798E+02  0.66090874127E+02  0.00000000000E+00 0. -1.
        -11    1    4    4    0    0 -0.42591910936E+02  0.14497779279E+02 -0.18331818284E+02  0.48583042749E+02  0.00000000000E+00 0.  1.
         11    1    4    4    0    0  0.18972965131E+01 -0.23384037137E+02 -0.11900294809E+03  0.12129350593E+03  0.00000000000E+00 0. -1.
         21    1    1    2  503  502  0.14368336065E+02  0.16805312140E+02 -0.39103028300E+02  0.44921202340E+02  0.00000000000E+00 0.  1.
         -2    1    1    2    0  503 -0.17398855221E+02  0.40031496446E+02  0.10281171990E+02  0.44843543217E+02  0.00000000000E+00 0.  1.
<scales pt_clust_5="13000.00000" pt_clust_6="13000.00000" pt_clust_7="13000.00000" pt_clust_8="13000.00000" pt_clust_9="22.11035" pt_clust_10="44.36800"></scales>
<clustering>
<clus scale="   22.110">  2  9  1 -1</clus>
<clus scale="   44.368">  2 10  1 -1</clus>
<clus scale="   72.741">  5  6 -1 -1</clus>
<clus scale="   89.638">  1  5  2 -1</clus>
<clus scale="   90.897">  7  8 -1 -1</clus>
<clus scale="   22.110">  2  5  1 -1</clus>
</clustering>
</event>
<event>
10    4  0.3403565E-005  0.1656971E+03  0.7546771E-02  0.1199974E+00
         21   -1    0    0  503  502  0.00000000000E+00  0.00000000000E+00  0.13175090583E+03  0.13175090583E+03  0.00000000000E+00 0.  1.
          2   -1    0    0  502    0 -0.00000000000E+00 -0.00000000000E+00 -0.48103079218E+03  0.48103079218E+03  0.00000000000E+00 0. -1.
         24    2    1    2    0    0  0.74059410004E+02  0.23928710462E+02 -0.18645560741E+03  0.21776202646E+03  0.81223317105E+02 0.  0.
         23    2    1    2    0    0 -0.58978656971E+02  0.12013476392E+03 -0.17568419190E+03  0.23914779245E+03  0.91738148393E+02 0.  0.
        -13    1    3    3    0    0 -0.15317735986E+02  0.16726475932E+02 -0.33340973598E+02  0.40324044357E+02  0.00000000000E+00 0.  1.
         14    1    3    3    0    0  0.89377145990E+02  0.72022345299E+01 -0.15311463381E+03  0.17743798211E+03  0.00000000000E+00 0. -1.
        -13    1    4    4    0    0 -0.69230258611E+02  0.64822761146E+02 -0.64965871867E+02  0.11495818186E+03  0.00000000000E+00 0.  1.
         13    1    4    4    0    0  0.10251601640E+02  0.55312002769E+02 -0.11071832003E+03  0.12418961058E+03  0.00000000000E+00 0. -1.
         21    1    1    2  503  501  0.13339504295E+02 -0.10860459265E+03  0.35088640728E+01  0.10947699323E+03  0.00000000000E+00 0. -1.
          1    1    1    2  501    0 -0.28420257328E+02 -0.35458881727E+02  0.93510488839E+01  0.46394885873E+02  0.00000000000E+00 0. -1.
<scales pt_clust_5="13000.00000" pt_clust_6="13000.00000" pt_clust_7="13000.00000" pt_clust_8="13000.00000" pt_clust_9="36.16308" pt_clust_10="148.95841"></scales>
<clustering>
<clus scale="   36.163">  9 10 -1 -1</clus>
<clus scale="   81.223">  5  6 -1 -1</clus>
<clus scale="   91.738">  7  8 -1 -1</clus>
<clus scale="  112.493">  2  5  1 -1</clus>
<clus scale="  148.958">  1  9  2 -1</clus>
<clus scale="  148.958">  1  5  2 -1</clus>
</clustering>
</event>
<event>
10    4  0.3403565E-005  0.2986266E+03  0.7546771E-02  0.1116388E+00
         21   -1    0    0  501  502  0.00000000000E+00  0.00000000000E+00  0.85731459216E+03  0.85731459216E+03  0.00000000000E+00 0.  1.
          2   -1    0    0  503    0 -0.00000000000E+00 -0.00000000000E+00 -0.40146052071E+03  0.40146052071E+03  0.00000000000E+00 0. -1.
         24    2    1    2    0    0  0.28290975954E+02  0.10107843574E+03 -0.11211739524E+03  0.17345514760E+03  0.80617296034E+02 0.  0.
         23    2    1    2    0    0  0.42347857774E+02  0.21396053672E+03  0.17140890279E+03  0.29263287335E+03  0.93169384888E+02 0.  0.
        -11    1    3    3    0    0 -0.17705593584E+02  0.53070825855E+02 -0.84762976159E+02  0.10156162035E+03  0.00000000000E+00 0.  1.
         12    1    3    3    0    0  0.45996569538E+02  0.48007609887E+02 -0.27354419078E+02  0.71893527243E+02  0.00000000000E+00 0. -1.
        -11    1    4    4    0    0 -0.29686080269E+02  0.70196366233E+02  0.60187655655E+02  0.97115122856E+02  0.00000000000E+00 0.  1.
         11    1    4    4    0    0  0.72033938042E+02  0.14376417049E+03  0.11122124713E+03  0.19551775050E+03  0.00000000000E+00 0. -1.
         21    1    1    2  503  502  0.34015928483E+02  0.54385160854E+02  0.40359478096E+03  0.40866071053E+03  0.00000000000E+00 0.  1.
          1    1    1    2  501    0 -0.10465476221E+03 -0.36942413332E+03 -0.70322170616E+01  0.38402638139E+03  0.00000000000E+00 0. -1.
<scales pt_clust_5="13000.00000" pt_clust_6="13000.00000" pt_clust_7="13000.00000" pt_clust_8="13000.00000" pt_clust_9="64.14693" pt_clust_10="283.72064"></scales>
<clustering>
<clus scale="   64.147">  1  9  2 -1</clus>
<clus scale="   80.617">  5  6 -1 -1</clus>
<clus scale="   93.169">  7  8 -1 -1</clus>
<clus scale="  135.697">  2  5  1 -1</clus>
<clus scale="  283.721">  1 10  2 -1</clus>
<clus scale="   64.147">  1  5  2 -1</clus>
</clustering>
</event>
<event>
10    4  0.3403565E-005  0.1271634E+03  0.7546771E-02  0.1236390E+00
          2   -1    0    0  503    0 -0.00000000000E+00  0.00000000000E+00  0.65759353278E+03  0.65759353278E+03  0.00000000000E+00 0. -1.
         21   -1    0    0  501  502  0.00000000000E+00 -0.00000000000E+00 -0.48457823690E+03  0.48457823690E+03  0.00000000000E+00 0. -1.
         24    2    1    2    0    0  0.17925876095E+02  0.86874962153E+02  0.76828381181E+01  0.11514911545E+03  0.73018468236E+02 0.  0.
         23    2    1    2    0    0  0.26585355325E+02  0.73927837425E+02 -0.95945713487E+02  0.15228179688E+03  0.88385855540E+02 0.  0.
        -11    1    3    3    0    0  0.43308109453E+02  0.74803851419E+02  0.96544250129E+01  0.86973653791E+02  0.00000000000E+00 0.  1.
         12    1    3    3    0    0 -0.25382233357E+02  0.12071110734E+02 -0.19715868948E+01  0.28175461654E+02  0.00000000000E+00 0. -1.
        -11    1    4    4    0    0  0.12686036129E+02  0.91930693702E+02 -0.88796181061E+02  0.12844045207E+03  0.00000000000E+00 0. -1.
         11    1    4    4    0    0  0.13899319197E+02 -0.18002856277E+02 -0.71495324257E+01  0.23841344806E+02  0.00000000000E+00 0.  1.
         21    1    1    2  503  502  0.40050097235E+02 -0.77810706117E+01 -0.29182532508E+03  0.29466349571E+03  0.00000000000E+00 0. -1.
          1    1    1    2  501    0 -0.84561328656E+02 -0.15302172897E+03  0.55310349632E+03  0.58007736164E+03  0.00000000000E+00 0. -1.
<scales pt_clust_5="13000.00000" pt_clust_6="13000.00000" pt_clust_7="13000.00000" pt_clust_8="13000.00000" pt_clust_9="40.79896" pt_clust_10="91.42473"></scales>
<clustering>
<clus scale="   40.799">  2  9  1 -1</clus>
<clus scale="   73.018">  5  6 -1 -1</clus>
<clus scale="   88.386">  7  8 -1 -1</clus>
<clus scale="  115.564">  1  5  2 -1</clus>
<clus scale="   91.425">  2 10  1 -1</clus>
<clus scale="   40.799">  2  5  1 -1</clus>
</clustering>
</event>
<event>
10    4  0.3403565E-005  0.1997616E+03  0.7546771E-02  0.1177808E+00
         21   -1    0    0  501  502  0.00000000000E+00  0.00000000000E+00  0.14450690292E+03  0.14450690292E+03  0.00000000000E+00 0. -1.
          2   -1    0    0  503    0 -0.00000000000E+00 -0.00000000000E+00 -0.14593030053E+04  0.14593030053E+04  0.00000000000E+00 0. -1.
         24    2    1    2    0    0  0.36783487194E+01 -0.76122570179E+02  0.27413290178E+02  0.11468189108E+03  0.81192805861E+02 0.  0.
         23    2    1    2    0    0  0.37140287054E+02  0.18375621652E+03 -0.10068122198E+04  0.10308736114E+04  0.11782957415E+03 0.  0.
        -11    1    3    3    0    0 -0.29576196662E+02 -0.90428518950E+01 -0.78715130583E+01  0.31913716443E+02  0.00000000000E+00 0.  1.
         12    1    3    3    0    0  0.33254545381E+02 -0.67079718284E+02  0.35284803236E+02  0.82768174639E+02  0.00000000000E+00 0. -1.
        -11    1    4    4    0    0  0.61065587502E+02  0.13960832942E+03 -0.90047102207E+03  0.91327298942E+03  0.00000000000E+00 0. -1.
         11    1    4    4    0    0 -0.23925300448E+02  0.44147887094E+02 -0.10634119777E+03  0.11760062194E+03  0.00000000000E+00 0.  1.
         21    1    1    2  503  502  0.45982511501E+02  0.28971467746E+02  0.27493627389E+02  0.60906788245E+02  0.00000000000E+00 0. -1.
          1    1    1    2  501    0 -0.86801147275E+02 -0.13660511408E+03 -0.36289080010E+03  0.39734761754E+03  0.00000000000E+00 0. -1.
<scales pt_clust_5="13000.00000" pt_clust_6="13000.00000" pt_clust_7="13000.00000" pt_clust_8="13000.00000" pt_clust_9="54.34830" pt_clust_10="161.30991"></scales>
<clustering>
<clus scale="   54.348">  1  9  2 -1</clus>
<clus scale="   81.193">  5  6 -1 -1</clus>
<clus scale="  104.870">  2  5  1 -1</clus>
<clus scale="  117.830">  7  8 -1 -1</clus>
<clus scale="  161.310">  1 10  2 -1</clus>
<clus scale="   54.348">  1  5  2 -1</clus>
</clustering>
</event>
<event>
10    4  0.3403565E-005  0.3861888E+03  0.7546771E-02  0.1068333E+00
          2   -1    0    0  503    0 -0.00000000000E+00  0.00000000000E+00  0.78501073321E+03  0.78501073321E+03  0.00000000000E+00 0. -1.
         21   -1    0    0  501  502  0.00000000000E+00 -0.00000000000E+00 -0.38964916468E+03  0.38964916468E+03  0.00000000000E+00 0. -1.
         24    2    1    2    0    0  0.16670858194E+03 -0.12785761567E+03 -0.53342016940E+02  0.23132083201E+03  0.80775215074E+02 0.  0.
         23    2    1    2    0    0 -0.45217396547E+03  0.46109029608E+02  0.23010188170E+03  0.51783825631E+03  0.92856050309E+02 0.  0.
        -11    1    3    3    0    0  0.82298530429E+02 -0.53543162311E+02 -0.65767089302E+02  0.11817456738E+03  0.00000000000E+00 0.  1.
         12    1    3    3    0    0  0.84410051514E+02 -0.74314453363E+02  0.12425072362E+02  0.11314626462E+03  0.00000000000E+00 0. -1.
        -13    1    4    4    0    0 -0.40730370434E+03  0.66722235031E+02  0.21896532741E+03  0.46721941186E+03  0.00000000000E+00 0. -1.
         13    1    4    4    0    0 -0.44870261134E+02 -0.20613205422E+02  0.11136554289E+02  0.50618844450E+02  0.00000000000E+00 0.  1.
         21    1    1    2  503  502 -0.26869175968E+02 -0.20822141666E+02  0.74943575597E+01  0.34809188385E+02  0.00000000000E+00 0.  1.
          1    1    1    2  501    0  0.31233455949E+03  0.10257072773E+03  0.21110734621E+03  0.39069162119E+03  0.00000000000E+00 0. -1.
<scales pt_clust_5="13000.00000" pt_clust_6="13000.00000" pt_clust_7="13000.00000" pt_clust_8="13000.00000" pt_clust_9="33.99286" pt_clust_10="374.85934"></scales>
<clustering>
<clus scale="   33.993">  2  9  1 -1</clus>
<clus scale="   80.775">  5  6 -1 -1</clus>
<clus scale="   92.856">  7  8 -1 -1</clus>
<clus scale="  222.382">  1  5  2 -1</clus>
<clus scale="  374.859">  2 10  1 -1</clus>
<clus scale="   33.993">  2  5  1 -1</clus>
</clustering>
</event>
<event>
10    4  0.3403565E-005  0.1821863E+03  0.7546771E-02  0.1167211E+00
          2   -1    0    0  503    0 -0.00000000000E+00  0.00000000000E+00  0.53587546855E+03  0.53587546855E+03  0.00000000000E+00 0. -1.
         21   -1    0    0  501  502  0.00000000000E+00 -0.00000000000E+00 -0.51497420237E+03  0.51497420237E+03  0.00000000000E+00 0. -1.
         24    2    1    2    0    0 -0.41330347724E+02  0.14325850622E+03  0.32804115273E+03  0.36919489819E+03  0.80390781331E+02 0.  0.
         23    2    1    2    0    0 -0.88943990275E+02 -0.21045730242E+03  0.73934225330E+02  0.25759856463E+03  0.93206444399E+02 0.  0.
        -11    1    3    3    0    0  0.17290204898E+02  0.66251090710E+02  0.97277595777E+02  0.11895834921E+03  0.00000000000E+00 0.  1.
         12    1    3    3    0    0 -0.58620552621E+02  0.77007415506E+02  0.23076355695E+03  0.25023654899E+03  0.00000000000E+00 0. -1.
        -13    1    4    4    0    0 -0.82137368732E+02 -0.11431114224E+03  0.78375314513E+02  0.16110951092E+03  0.00000000000E+00 0. -1.
         13    1    4    4    0    0 -0.68066215433E+01 -0.96146160177E+02 -0.44410891822E+01  0.96489053715E+02  0.00000000000E+00 0.  1.
         21    1    1    2  503  502  0.18836801109E+02 -0.27861943492E+02 -0.12082549516E+03  0.12541895093E+03  0.00000000000E+00 0. -1.
          1    1    1    2  501    0  0.11143753689E+03  0.95060739695E+02 -0.26024861673E+03  0.29863725717E+03  0.00000000000E+00 0. -1.
<scales pt_clust_5="13000.00000" pt_clust_6="13000.00000" pt_clust_7="13000.00000" pt_clust_8="13000.00000" pt_clust_9="33.63202" pt_clust_10="145.76160"></scales>
<clustering>
<clus scale="   33.632">  2  9  1 -1</clus>
<clus scale="   80.391">  5  6 -1 -1</clus>
<clus scale="   93.206">  7  8 -1 -1</clus>
<clus scale="  145.762">  2 10  1 -1</clus>
<clus scale="  175.975">  1  5  2 -1</clus>
<clus scale="   33.632">  2  5  1 -1</clus>
</clustering>
</event>
<event>
10    4  0.3403565E-005  0.1849386E+03  0.7546771E-02  0.1184796E+00
          2   -1    0    0  503    0 -0.00000000000E+00  0.00000000000E+00  0.75376061349E+02  0.75376061349E+02  0.00000000000E+00 0. -1.
         21   -1    0    0  501  502  0.00000000000E+00 -0.00000000000E+00 -0.98195278928E+03  0.98195278928E+03  0.00000000000E+00 0.  1.
         23    2    1    2    0    0  0.70928188553E+02  0.83376826492E+01 -0.16310188082E+03  0.19943923969E+03  0.89852445254E+02 0.  0.
         24    2    1    2    0    0 -0.17483879440E+03  0.19872596743E+02 -0.53920835508E+03  0.57281291368E+03  0.80034116214E+02 0.  0.
        -11    1    4    4    0    0 -0.14943793772E+03  0.36935388049E+01 -0.50760573549E+03  0.52915869279E+03  0.00000000000E+00 0.  1.
         12    1    4    4    0    0 -0.25400856681E+02  0.16179057938E+02 -0.31602619593E+02  0.43654220885E+02  0.00000000000E+00 0. -1.
        -13    1    3    3    0    0  0.27686613746E+02  0.52550681454E+00  0.27849062660E+01  0.27831285292E+02  0.00000000000E+00 0.  1.
         13    1    3    3    0    0  0.43241574808E+02  0.78121758347E+01 -0.16588678709E+03  0.17160795440E+03  0.00000000000E+00 0. -1.
         21    1    1    2  503  502 -0.16418105906E+02  0.18316888658E+02 -0.13774760377E+03  0.13992664134E+03  0.00000000000E+00 0.  1.
          1    1    1    2  501    0  0.12032871175E+03 -0.46527168050E+02 -0.66518888260E+02  0.14515005592E+03  0.00000000000E+00 0. -1.
<scales pt_clust_5="13000.00000" pt_clust_6="13000.00000" pt_clust_7="13000.00000" pt_clust_8="13000.00000" pt_clust_9="24.59802" pt_clust_10="166.72390"></scales>
<clustering>
<clus scale="   24.598">  2  9  1 -1</clus>
<clus scale="   80.034">  5  6 -1 -1</clus>
<clus scale="   89.852">  7  8 -1 -1</clus>
<clus scale="  112.990">  1  7  2 -1</clus>
<clus scale="  166.724">  2 10  1 -1</clus>
<clus scale="   24.598">  2  5  1 -1</clus>
</clustering>
</event>
<event>
10    4  0.3403565E-005  0.2653053E+03  0.7546771E-02  0.1126569E+00
         21   -1    0    0  501  502  0.00000000000E+00  0.00000000000E+00  0.13683005060E+04  0.13683005060E+04  0.00000000000E+00 0. -1.
          2   -1    0    0  503    0 -0.00000000000E+00 -0.00000000000E+00 -0.71030474520E+03  0.71030474520E+03  0.00000000000E+00 0. -1.
         24    2    1    2    0    0  0.93076984271E+02 -0.79755209714E+02 -0.17671535683E+03  0.23123783594E+03  0.84961173226E+02 0.  0.
         23    2    1    2    0    0  0.15000779423E+03  0.15871794421E+02 -0.46718767491E+03  0.49942052591E+03  0.91663983788E+02 0.  0.
        -13    1    3    3    0    0  0.47331385890E+02  0.74043075974E+01 -0.38012965864E+02  0.61156107095E+02  0.00000000000E+00 0.  1.
         14    1    3    3    0    0  0.45745598380E+02 -0.87159517311E+02 -0.13870239096E+03  0.17008172885E+03  0.00000000000E+00 0. -1.
        -11    1    4    4    0    0  0.69336999508E+02  0.12953528751E+02 -0.35053174034E+03  0.35755826713E+03  0.00000000000E+00 0. -1.
         11    1    4    4    0    0  0.80670794717E+02  0.29182656703E+01 -0.11665593457E+03  0.14186225878E+03  0.00000000000E+00 0.  1.
         21    1    1    2  503  502  0.35872934985E+02 -0.37826046752E+02  0.17652142276E+03  0.18405838740E+03  0.00000000000E+00 0. -1.
          1    1    1    2  501    0 -0.27895771348E+03  0.10170946204E+03  0.11253773698E+04  0.11638885019E+04  0.00000000000E+00 0. -1.
<scales pt_clust_5="13000.00000" pt_clust_6="13000.00000" pt_clust_7="13000.00000" pt_clust_8="13000.00000" pt_clust_9="52.13135" pt_clust_10="248.96705"></scales>
<clustering>
<clus scale="   52.131">  1  9  2 -1</clus>
<clus scale="   84.961">  5  6 -1 -1</clus>
<clus scale="   91.664">  7  8 -1 -1</clus>
<clus scale="  150.119">  2  5  1 -1</clus>
<clus scale="  248.967">  1 10  2 -1</clus>
<clus scale="   52.131">  1  5  2 -1</clus>
</clustering>
</event>
<event>
10    4  0.3403565E-005  0.2314888E+03  0.7546771E-02  0.1160902E+00
         21   -1    0    0  501  502  0.00000000000E+00  0.00000000000E+00  0.25944271391E+03  0.25944271391E+03  0.00000000000E+00 0. -1.
          2   -1    0    0  503    0 -0.00000000000E+00 -0.00000000000E+00 -0.13366260704E+04  0.13366260704E+04  0.00000000000E+00 0. -1.
         24    2    1    2    0    0  0.89792397550E+02 -0.17684344975E+02 -0.16746252256E+02  0.12511000591E+03  0.83646075213E+02 0.  0.
         23    2    1    2    0    0 -0.80347482955E+02 -0.21067890938E+03 -0.11022592776E+04  0.11287093519E+04  0.90376795795E+02 0.  0.
        -13    1    3    3    0    0  0.16178402656E+01 -0.29726456183E+02 -0.20321737593E+02  0.36045147012E+02  0.00000000000E+00 0.  1.
         14    1    3    3    0    0  0.88174557284E+02  0.12042111208E+02  0.35754853368E+01  0.89064858895E+02  0.00000000000E+00 0. -1.
        -13    1    4    4    0    0 -0.30682702747E+01 -0.12560080695E+03 -0.65330485565E+03  0.66527604150E+03  0.00000000000E+00 0.  1.
         13    1    4    4    0    0 -0.77279212680E+02 -0.85078102432E+02 -0.44895442192E+03  0.46343331040E+03  0.00000000000E+00 0. -1.
         21    1    1    2  503  502 -0.10794686267E+03  0.45787536363E+02  0.64050527862E+02  0.13360948232E+03  0.00000000000E+00 0. -1.
          1    1    1    2  501    0  0.98501948076E+02  0.18257571799E+03 -0.22228354569E+02  0.20863994421E+03  0.00000000000E+00 0. -1.
<scales pt_clust_5="13000.00000" pt_clust_6="13000.00000" pt_clust_7="13000.00000" pt_clust_8="13000.00000" pt_clust_9="117.25623" pt_clust_10="213.11755"></scales>
<clustering>
<clus scale="   83.646">  5  6 -1 -1</clus>
<clus scale="   90.377">  7  8 -1 -1</clus>
<clus scale="  117.256">  1  9  2 -1</clus>
<clus scale="   99.251">  2  5  1 -1</clus>
<clus scale="  213.118">  1 10  2 -1</clus>
<clus scale="  117.256">  1  5  2 -1</clus>
</clustering>
</event>
<event>
10    4  0.3403565E-005  0.1391080E+03  0.7546771E-02  0.1231970E+00
         21   -1    0    0  503  502  0.00000000000E+00  0.00000000000E+00  0.29247346824E+03  0.29247346824E+03  0.00000000000E+00 0.  1.
          2   -1    0    0  502    0 -0.00000000000E+00 -0.00000000000E+00 -0.47813661701E+03  0.47813661701E+03  0.00000000000E+00 0. -1.
         23    2    1    2    0    0 -0.58321289397E+01  0.16206281067E+02 -0.23759245895E+03  0.25624436418E+03  0.94415784435E+02 0.  0.
         24    2    1    2    0    0 -0.27845024072E+02  0.84368752768E+02 -0.14585196839E+03  0.18862593771E+03  0.80084429719E+02 0.  0.
        -13    1    4    4    0    0 -0.10174376266E+02  0.92398542817E+02 -0.14054336183E+03  0.16850354656E+03  0.00000000000E+00 0.  1.
         14    1    4    4    0    0 -0.17670647806E+02 -0.80297900486E+01 -0.53086065612E+01  0.20122391153E+02  0.00000000000E+00 0. -1.
        -11    1    3    3    0    0 -0.35414634740E+02  0.42926570623E+02 -0.12587379252E+03  0.13762666334E+03  0.00000000000E+00 0.  1.
         11    1    3    3    0    0  0.29582505801E+02 -0.26720289556E+02 -0.11171866643E+03  0.11861770084E+03  0.00000000000E+00 0. -1.
         21    1    1    2  503  501  0.46579196411E+01  0.53471804350E+02  0.15384981850E+03  0.16294384532E+03  0.00000000000E+00 0.  1.
          1    1    1    2  501    0  0.29019233370E+02 -0.15404683819E+03  0.43931460076E+02  0.16279593805E+03  0.00000000000E+00 0. -1.
<scales pt_clust_5="13000.00000" pt_clust_6="13000.00000" pt_clust_7="13000.00000" pt_clust_8="13000.00000" pt_clust_9="53.67430" pt_clust_10="113.74317"></scales>
<clustering>
<clus scale="   53.674">  1  9  2 -1</clus>
<clus scale="   80.084">  5  6 -1 -1</clus>
<clus scale="   94.416">  7  8 -1 -1</clus>
<clus scale="   96.653">  2  7  1 -1</clus>
<clus scale="  113.743">  1 10  2 -1</clus>
<clus scale="   53.674">  1  5  2 -1</clus>
</clustering>
</event>
<event>
10    4  0.3403565E-005  0.1444562E+03  0.7546771E-02  0.1229279E+00
         21   -1    0    0  501  502  0.00000000000E+00  0.00000000000E+00  0.14151368401E+03  0.14151368401E+03  0.00000000000E+00 0.  1.
         -1   -1    0    0    0  501 -0.00000000000E+00 -0.00000000000E+00 -0.33227518933E+03  0.33227518933E+03  0.00000000000E+00 0.  1.
         23    2    1    2    0    0  0.72839118497E+01 -0.16489489497E+02 -0.10359304366E+03  0.13742331991E+03  0.88479893330E+02 0.  0.
         24    2    1    2    0    0 -0.10464631612E+03  0.10759086052E+03 -0.49735697399E+02  0.17733303172E+03  0.80291467787E+02 0.  0.
        -13    1    4    4    0    0 -0.65600647440E+02  0.11253998935E+03 -0.44357672258E+02  0.13760921930E+03  0.00000000000E+00 0.  1.
         14    1    4    4    0    0 -0.39045668682E+02 -0.49491288345E+01 -0.53780251410E+01  0.39723812423E+02  0.00000000000E+00 0. -1.
        -11    1    3    3    0    0  0.56366016823E+01  0.29902467983E+02 -0.79495261826E+02  0.85120065336E+02  0.00000000000E+00 0.  1.
         11    1    3    3    0    0  0.16473101674E+01 -0.46391957479E+02 -0.24097781839E+02  0.52303254575E+02  0.00000000000E+00 0. -1.
         21    1    1    2  503  502  0.42876800744E+02 -0.64283504429E+01  0.14530248072E+02  0.45726052099E+02  0.00000000000E+00 0. -1.
         -2    1    1    2    0  503  0.54485603528E+02 -0.84673020580E+02 -0.51963012327E+02  0.11330646961E+03  0.00000000000E+00 0.  1.
<scales pt_clust_5="13000.00000" pt_clust_6="13000.00000" pt_clust_7="13000.00000" pt_clust_8="13000.00000" pt_clust_9="43.35601" pt_clust_10="120.08705"></scales>
<clustering>
<clus scale="   43.356">  1  9  2 -1</clus>
<clus scale="   80.291">  5  6 -1 -1</clus>
<clus scale="   88.480">  7  8 -1 -1</clus>
<clus scale="   91.236">  2  7  1 -1</clus>
<clus scale="  120.087">  1 10  2 -1</clus>
<clus scale="   43.356">  1  5  2 -1</clus>
</clustering>
</event>
<event>
10    4  0.3403565E-005  0.1286060E+03  0.7546771E-02  0.1251678E+00
         21   -1    0    0  503  502  0.00000000000E+00  0.00000000000E+00  0.33313223411E+03  0.33313223411E+03  0.00000000000E+00 0. -1.
          2   -1    0    0  502    0 -0.00000000000E+00 -0.00000000000E+00 -0.24633865597E+03  0.24633865597E+03  0.00000000000E+00 0. -1.
         24    2    1    2    0    0 -0.16469808131E+01  0.17261103922E+02 -0.14031395501E+03  0.16266001845E+03  0.80433931748E+02 0.  0.
         23    2    1    2    0    0  0.31105450620E+02 -0.93311364573E+02 -0.20110105932E+02  0.13624372568E+03  0.92105247464E+02 0.  0.
        -11    1    3    3    0    0 -0.40588636415E+02  0.34033597437E+01 -0.75543351195E+02  0.85824344875E+02  0.00000000000E+00 0.  1.
         12    1    3    3    0    0  0.38941655602E+02  0.13857744178E+02 -0.64770603816E+02  0.76835673573E+02  0.00000000000E+00 0. -1.
        -13    1    4    4    0    0 -0.16127549727E+02 -0.65504027222E+02  0.17594325411E+02  0.69716825295E+02  0.00000000000E+00 0.  1.
         13    1    4    4    0    0  0.47233000347E+02 -0.27807337351E+02 -0.37704431343E+02  0.66526900388E+02  0.00000000000E+00 0. -1.
         21    1    1    2  503  501  0.19075631441E+00 -0.23462697972E+02  0.83191978764E+02  0.86437491372E+02  0.00000000000E+00 0. -1.
          1    1    1    2  501    0 -0.29649226122E+02  0.99512958623E+02  0.16402566032E+03  0.19412965458E+03  0.00000000000E+00 0. -1.
<scales pt_clust_5="13000.00000" pt_clust_6="13000.00000" pt_clust_7="13000.00000" pt_clust_8="13000.00000" pt_clust_9="23.46347" pt_clust_10="89.75591"></scales>
<clustering>
<clus scale="   23.463">  1  9  2 -1</clus>
<clus scale="   80.434">  5  6 -1 -1</clus>
<clus scale="   82.067">  2  5  1 -1</clus>
<clus scale="   89.756">  1 10  2 -1</clus>
<clus scale="   92.105">  7  8 -1 -1</clus>
<clus scale="   23.463">  1  5  2 -1</clus>
</clustering>
</event>
<event>
10    4  0.3403565E-005  0.1968186E+03  0.7546771E-02  0.1160481E+00
         21   -1    0    0  501  502  0.00000000000E+00  0.00000000000E+00  0.69443300896E+02  0.69443300896E+02  0.00000000000E+00 0. -1.
          2   -1    0    0  503    0 -0.00000000000E+00 -0.00000000000E+00 -0.14872397840E+04  0.14872397840E+04  0.00000000000E+00 0. -1.
         23    2    1    2    0    0  0.32042174000E+01  0.15041003067E+03 -0.47466317295E+03  0.50595981995E+03  0.89759497098E+02 0.  0.
         24    2    1    2    0    0 -0.16801537600E+03 -0.62972934117E+02 -0.36085920993E+03  0.41115671268E+03  0.81459904196E+02 0.  0.
        -13    1    4    4    0    0 -0.86245113813E+02 -0.38311703627E+01 -0.10386501334E+03  0.13505864844E+03  0.00000000000E+00 0.  1.
         14    1    4    4    0    0 -0.81770262191E+02 -0.59141763754E+02 -0.25699419659E+03  0.27609806424E+03  0.00000000000E+00 0. -1.
        -11    1    3    3    0    0  0.27238889162E+02  0.56997632333E+01 -0.93087310072E+02  0.97158075733E+02  0.00000000000E+00 0.  1.
         11    1    3    3    0    0 -0.24034671762E+02  0.14471026744E+03 -0.38157586288E+03  0.40880174422E+03  0.00000000000E+00 0. -1.
         21    1    1    2  503  502 -0.19548130337E+02 -0.51853034946E+02 -0.48186566917E+02  0.73435766926E+02  0.00000000000E+00 0. -1.
          1    1    1    2  501    0  0.18435928894E+03 -0.35584061608E+02 -0.53408753329E+03  0.56613078531E+03  0.00000000000E+00 0. -1.
<scales pt_clust_5="13000.00000" pt_clust_6="13000.00000" pt_clust_7="13000.00000" pt_clust_8="13000.00000" pt_clust_9="55.41540" pt_clust_10="179.16994"></scales>
<clustering>
<clus scale="   55.415">  1  9  2 -1</clus>
<clus scale="   81.460">  5  6 -1 -1</clus>
<clus scale="   89.759">  7  8 -1 -1</clus>
<clus scale="  163.073">  2  7  1 -1</clus>
<clus scale="  179.170">  1 10  2 -1</clus>
<clus scale="   55.415">  1  5  2 -1</clus>
</clustering>
</event>
<event>
10    4  0.3403565E-005  0.1117247E+03  0.7546771E-02  0.1260748E+00
         21   -1    0    0  501  502  0.00000000000E+00  0.00000000000E+00  0.19803145999E+03  0.19803145999E+03  0.00000000000E+00 0.  1.
         -1   -1    0    0    0  501 -0.00000000000E+00 -0.00000000000E+00 -0.50194333828E+03  0.50194333828E+03  0.00000000000E+00 0.  1.
         23    2    1    2    0    0  0.15626240225E+02 -0.65092459286E+02 -0.41426853495E+03  0.42943137039E+03  0.91168389193E+02 0.  0.
         24    2    1    2    0    0  0.24515141311E+02  0.48154596091E+02  0.39085723877E+02  0.10593251181E+03  0.82305200130E+02 0.  0.
        -11    1    4    4    0    0  0.33045387832E+02  0.19954132208E+02  0.58903036111E+02  0.70425369805E+02  0.00000000000E+00 0.  1.
         12    1    4    4    0    0 -0.85302465210E+01  0.28200463882E+02 -0.19817312234E+02  0.35507142001E+02  0.00000000000E+00 0. -1.
        -13    1    3    3    0    0  0.40081306815E+02 -0.64731650270E+02 -0.37862180275E+03  0.38620094151E+03  0.00000000000E+00 0.  1.
         13    1    3    3    0    0 -0.24455066590E+02 -0.36080901588E+00 -0.35646732194E+02  0.43230428881E+02  0.00000000000E+00 0. -1.
         21    1    1    2  503  502 -0.30869872566E+02 -0.25085030786E+02  0.10347799044E+03  0.11085983180E+03  0.00000000000E+00 0.  1.
         -2    1    1    2    0  503 -0.92715089692E+01  0.42022893981E+02 -0.32207057659E+02  0.53751084269E+02  0.00000000000E+00 0.  1.
<scales pt_clust_5="13000.00000" pt_clust_6="13000.00000" pt_clust_7="13000.00000" pt_clust_8="13000.00000" pt_clust_9="39.77698" pt_clust_10="41.13442"></scales>
<clustering>
<clus scale="   39.777">  1  9  2 -1</clus>
<clus scale="   41.134">  1 10  2 -1</clus>
<clus scale="   82.305">  5  6 -1 -1</clus>
<clus scale="   91.168">  7  8 -1 -1</clus>
<clus scale="  104.618">  1  5  2 -1</clus>
<clus scale="   39.777">  1  5  2 -1</clus>
</clustering>
</event>
<event>
10    4  0.3403565E-005  0.2453050E+03  0.7546771E-02  0.1158765E+00
         21   -1    0    0  501  502  0.00000000000E+00  0.00000000000E+00  0.40644219757E+03  0.40644219757E+03  0.00000000000E+00 0. -1.
          2   -1    0    0  503    0 -0.00000000000E+00 -0.00000000000E+00 -0.51866667495E+03  0.51866667495E+03  0.00000000000E+00 0. -1.
         24    2    1    2    0    0 -0.24307146639E+02 -0.24818107830E+02 -0.18996876267E+03  0.20922035301E+03  0.80487573373E+02 0.  0.
         23    2    1    2    0    0  0.34103796595E+02  0.13495682933E+03 -0.77493491405E+02  0.18315116593E+03  0.90347626677E+02 0.  0.
        -11    1    3    3    0    0 -0.53558995209E+02 -0.18174669330E+02 -0.10759426007E+03  0.12155414174E+03  0.00000000000E+00 0.  1.
         12    1    3    3    0    0  0.29251848570E+02 -0.66434384995E+01 -0.82374502600E+02  0.87666211270E+02  0.00000000000E+00 0. -1.
        -13    1    4    4    0    0  0.24455140264E+02 -0.19620331745E+01  0.18617270394E+01  0.24604257499E+02  0.00000000000E+00 0.  1.
         13    1    4    4    0    0  0.96486563317E+01  0.13691886251E+03 -0.79355218445E+02  0.15854690843E+03  0.00000000000E+00 0. -1.
         21    1    1    2  503  502  0.22067274539E+03 -0.14422311938E+03  0.14188332395E+03  0.29937876734E+03  0.00000000000E+00 0. -1.
          1    1    1    2  501    0 -0.23046939534E+03  0.34084397875E+02  0.13354452739E+02  0.23335858625E+03  0.00000000000E+00 0. -1.
<scales pt_clust_5="13000.00000" pt_clust_6="13000.00000" pt_clust_7="13000.00000" pt_clust_8="13000.00000" pt_clust_9="13000.00000" pt_clust_10="245.30497"></scales>
<clustering>
<clus scale="   80.488">  5  6 -1 -1</clus>
<clus scale="   87.664">  2  5  1 -1</clus>
<clus scale="   90.348">  7  8 -1 -1</clus>
<clus scale="  155.972">  2  7  1 -1</clus>
<clus scale="  245.305">  2 10  1 -1</clus>
<clus scale="  245.305">  1  5  2 -1</clus>
</clustering>
</event>
<event>
10    4  0.3403565E-005  0.2254801E+03  0.7546771E-02  0.1162951E+00
          2   -1    0    0  503    0 -0.00000000000E+00  0.00000000000E+00  0.80645228147E+03  0.80645228147E+03  0.00000000000E+00 0. -1.
         21   -1    0    0  501  502  0.00000000000E+00 -0.00000000000E+00 -0.20190872463E+03  0.20190872463E+03  0.00000000000E+00 0. -1.
         24    2    1    2    0    0  0.22715210293E+03 -0.16420327467E+02  0.53293477994E+03  0.58511006109E+03  0.80415165857E+02 0.  0.
         23    2    1    2    0    0 -0.29918472134E+02  0.20365551868E+02  0.15438742511E+02  0.99357081158E+02  0.91233788303E+02 0.  0.
        -13    1    3    3    0    0  0.64999823278E+02 -0.30041549268E+02  0.10329577957E+03  0.12568806541E+03  0.00000000000E+00 0.  1.
         14    1    3    3    0    0  0.16215227965E+03  0.13621221800E+02  0.42963900037E+03  0.45942199568E+03  0.00000000000E+00 0. -1.
        -11    1    4    4    0    0  0.12212763882E+02 -0.28163501426E+02 -0.66342347942E+01  0.31406169546E+02  0.00000000000E+00 0.  1.
         11    1    4    4    0    0 -0.42131236016E+02  0.48529053294E+02  0.22072977305E+02  0.67950911612E+02  0.00000000000E+00 0. -1.
         21    1    1    2  503  502 -0.12727736737E+03  0.40504229235E+02 -0.86333583198E+02  0.15903964417E+03  0.00000000000E+00 0. -1.
          1    1    1    2  501    0 -0.69956263432E+02 -0.44449453635E+02  0.14250361759E+03  0.16485421968E+03  0.00000000000E+00 0. -1.
<scales pt_clust_5="13000.00000" pt_clust_6="13000.00000" pt_clust_7="13000.00000" pt_clust_8="13000.00000" pt_clust_9="210.65296" pt_clust_10="82.88329"></scales>
<clustering>
<clus scale="   80.415">  5  6 -1 -1</clus>
<clus scale="   82.883">  2 10  1 -1</clus>
<clus scale="   91.234">  7  8 -1 -1</clus>
<clus scale="  102.413">  2  7  1 -1</clus>
<clus scale="  210.653">  2  9  1 -1</clus>
<clus scale="   82.883">  2  5  1 -1</clus>
</clustering>
</event>
<event>
10    4  0.3403565E-005  0.8840014E+02  0.7546771E-02  0.1311541E+00
          2   -1    0    0  502    0 -0.00000000000E+00  0.00000000000E+00  0.62966082434E+03  0.62966082434E+03  0.00000000000E+00 0. -1.
         21   -1    0    0  503  502  0.00000000000E+00 -0.00000000000E+00 -0.11739744870E+03  0.11739744870E+03  0.00000000000E+00 0.  1.
         24    2    1    2    0    0  0.18134892876E+02 -0.20114397069E+02  0.36922055047E+03  0.37870997569E+03  0.79774478922E+02 0.  0.
         23    2    1    2    0    0  0.53858852844E+02 -0.10940583032E+01  0.19599963994E+03  0.22119032157E+03  0.87219989144E+02 0.  0.
        -11    1    3    3    0    0  0.40170865672E+02 -0.25246729171E+02  0.12939156192E+03  0.13781608062E+03  0.00000000000E+00 0.  1.
         12    1    3    3    0    0 -0.22035972796E+02  0.51323321021E+01  0.23982898856E+03  0.24089389507E+03  0.00000000000E+00 0. -1.
        -11    1    4    4    0    0  0.15590416190E+02 -0.27083444294E+02  0.15875376317E+03  0.16180028230E+03  0.00000000000E+00 0. -1.
         11    1    4    4    0    0  0.38268436654E+02  0.25989385991E+02  0.37245876771E+02  0.59390039270E+02  0.00000000000E+00 0.  1.
         21    1    1    2  503  501  0.17636060107E+02  0.26265981124E+02 -0.47691634642E+02  0.57231323550E+02  0.00000000000E+00 0.  1.
          1    1    1    2  501    0 -0.89629805827E+02 -0.50575257523E+01 -0.52651801371E+01  0.89926652229E+02  0.00000000000E+00 0. -1.
<scales pt_clust_5="13000.00000" pt_clust_6="13000.00000" pt_clust_7="13000.00000" pt_clust_8="13000.00000" pt_clust_9="31.63752" pt_clust_10="78.00551"></scales>
<clustering>
<clus scale="   31.638">  2  9  1 -1</clus>
<clus scale="   78.006">  2 10  1 -1</clus>
<clus scale="   79.774">  5  6 -1 -1</clus>
<clus scale="   81.063">  1  5  2 -1</clus>
<clus scale="   87.220">  7  8 -1 -1</clus>
<clus scale="   31.638">  2  5  1 -1</clus>
</clustering>
</event>
<event>
10    4  0.3403565E-005  0.1878565E+03  0.7546771E-02  0.1182311E+00
          2   -1    0    0  502    0 -0.00000000000E+00  0.00000000000E+00  0.11048377399E+04  0.11048377399E+04  0.00000000000E+00 0. -1.
         21   -1    0    0  503  502  0.00000000000E+00 -0.00000000000E+00 -0.13295080250E+03  0.13295080250E+03  0.00000000000E+00 0. -1.
         23    2    1    2    0    0 -0.56560367224E+02  0.59047061847E+02  0.21670734748E+03  0.24669381032E+03  0.84912489935E+02 0.  0.
         24    2    1    2    0    0 -0.11783687707E+03  0.14302129531E+03  0.31446151286E+02  0.20457871774E+03  0.80764910765E+02 0.  0.
        -11    1    4    4    0    0 -0.46699125948E+02  0.80125853826E+02  0.53541425119E+02  0.10708709082E+03  0.00000000000E+00 0.  1.
         12    1    4    4    0    0 -0.71137751122E+02  0.62895441484E+02 -0.22095273834E+02  0.97491626922E+02  0.00000000000E+00 0. -1.
        -11    1    3    3    0    0  0.79305228148E+01  0.25206573743E+02  0.13360802823E+03  0.13619607101E+03  0.00000000000E+00 0. -1.
         11    1    3    3    0    0 -0.64490890039E+02  0.33840488105E+02  0.83099319255E+02  0.11049773932E+03  0.00000000000E+00 0.  1.
         21    1    1    2  503  501  0.61638413380E+02 -0.67762691027E+01  0.63164311203E+02  0.88515207940E+02  0.00000000000E+00 0. -1.
          1    1    1    2  501    0  0.11275883091E+03 -0.19529208805E+03  0.66056912746E+03  0.69800080642E+03  0.00000000000E+00 0. -1.
<scales pt_clust_5="13000.00000" pt_clust_6="13000.00000" pt_clust_7="13000.00000" pt_clust_8="13000.00000" pt_clust_9="62.00977" pt_clust_10="169.60877"></scales>
<clustering>
<clus scale="   62.010">  2  9  1 -1</clus>
<clus scale="   80.765">  5  6 -1 -1</clus>
<clus scale="   84.912">  7  8 -1 -1</clus>
<clus scale="  113.959">  1  7  2 -1</clus>
<clus scale="  169.609">  2 10  1 -1</clus>
<clus scale="   62.010">  2  5  1 -1</clus>
</clustering>
</event>
<event>
10    4  0.3403565E-005  0.1100498E+03  0.7546771E-02  0.1264011E+00
          2   -1    0    0  502    0 -0.00000000000E+00  0.00000000000E+00  0.46710051896E+03  0.46710051896E+03  0.00000000000E+00 0. -1.
         21   -1    0    0  503  502  0.00000000000E+00 -0.00000000000E+00 -0.46279636379E+02  0.46279636379E+02  0.00000000000E+00 0.  1.
         24    2    1    2    0    0 -0.30719524125E+02 -0.47358541019E+02  0.14733054592E+03  0.17777611328E+03  0.81923965484E+02 0.  0.
         23    2    1    2    0    0 -0.72833050539E+01  0.78959850817E+02  0.13471753338E+03  0.18086829404E+03  0.90977037844E+02 0.  0.
        -13    1    3    3    0    0 -0.44221159243E+02 -0.14156437428E+02  0.30456068871E+02  0.55529161497E+02  0.00000000000E+00 0.  1.
         14    1    3    3    0    0  0.13501635118E+02 -0.33202103591E+02  0.11687447705E+03  0.12224695178E+03  0.00000000000E+00 0. -1.
        -11    1    4    4    0    0 -0.22095718189E+02  0.17225885081E+01 -0.29124050705E+01  0.22353303486E+02  0.00000000000E+00 0. -1.
         11    1    4    4    0    0  0.14812413135E+02  0.77237262309E+02  0.13762993845E+03  0.15851499055E+03  0.00000000000E+00 0.  1.
         21    1    1    2  503  501  0.25571415731E+02  0.71943673881E+00  0.24842728821E+02  0.35659165259E+02  0.00000000000E+00 0.  1.
          1    1    1    2  501    0  0.12431413448E+02 -0.32320746537E+02  0.11393007446E+03  0.11907658277E+03  0.00000000000E+00 0. -1.
<scales pt_clust_5="13000.00000" pt_clust_6="13000.00000" pt_clust_7="13000.00000" pt_clust_8="13000.00000" pt_clust_9="25.58153" pt_clust_10="35.19753"></scales>
<clustering>
<clus scale="   25.582">  2  9  1 -1</clus>
<clus scale="   35.198">  2 10  1 -1</clus>
<clus scale="   81.924">  5  6 -1 -1</clus>
<clus scale="   90.977">  7  8 -1 -1</clus>
<clus scale="  102.692">  1  5  2 -1</clus>
<clus scale="   25.582">  2  5  1 -1</clus>
</clustering>
</event>
<event>
10    4  0.3403565E-005  0.1342635E+03  0.7546771E-02  0.1235767E+00
         -1   -1    0    0    0  501 -0.00000000000E+00  0.00000000000E+00  0.39239885456E+03  0.39239885456E+03  0.00000000000E+00 0.  1.
         21   -1    0    0  503  502  0.00000000000E+00 -0.00000000000E+00 -0.16843106736E+03  0.16843106736E+03  0.00000000000E+00 0.  1.
         23    2    1    2    0    0  0.28607699022E+02  0.23631881942E+02  0.21440154647E+03  0.23586292071E+03  0.91029819015E+02 0.  0.
         24    2    1    2    0    0  0.81129300299E+02 -0.15429818928E+02  0.60872255662E+02  0.13037031665E+03  0.80442185916E+02 0.  0.
        -13    1    4    4    0    0  0.83597951844E+02 -0.37977990396E+02  0.54635559641E+02  0.10684563484E+03  0.00000000000E+00 0.  1.
         14    1    4    4    0    0 -0.24686515455E+01  0.22548171468E+02  0.62366960210E+01  0.23524681810E+02  0.00000000000E+00 0. -1.
        -13    1    3    3    0    0 -0.15345535034E+02  0.42556304735E+02  0.66631661637E+02  0.80537586571E+02  0.00000000000E+00 0. -1.
         13    1    3    3    0    0  0.43953234055E+02 -0.18924422793E+02  0.14776988484E+03  0.15532533414E+03  0.00000000000E+00 0.  1.
         21    1    1    2  503  501  0.20066794378E+02  0.23305214387E+02 -0.52699147391E+02  0.61016468186E+02  0.00000000000E+00 0.  1.
         -2    1    1    2    0  502 -0.12980379370E+03 -0.31507277402E+02  0.13931324528E+01  0.13358021637E+03  0.00000000000E+00 0.  1.
<scales pt_clust_5="13000.00000" pt_clust_6="13000.00000" pt_clust_7="13000.00000" pt_clust_8="13000.00000" pt_clust_9="30.75401" pt_clust_10="107.49763"></scales>
<clustering>
<clus scale="   30.754">  2  9  1 -1</clus>
<clus scale="   80.442">  5  6 -1 -1</clus>
<clus scale="   91.030">  7  8 -1 -1</clus>
<clus scale="   99.440">  1  7  2 -1</clus>
<clus scale="  107.498">  2 10  1 -1</clus>
<clus scale="   30.754">  2  5  1 -1</clus>
</clustering>
</event>
<event>
10    4  0.3403565E-005  0.1326924E+03  0.7546771E-02  0.1229732E+00
         21   -1    0    0  501  502  0.00000000000E+00  0.00000000000E+00  0.31170182359E+03  0.31170182359E+03  0.00000000000E+00 0. -1.
          4   -1    0    0  503    0 -0.00000000000E+00 -0.00000000000E+00 -0.25318096691E+03  0.25318096691E+03  0.00000000000E+00 0. -1.
         24    2    1    2    0    0 -0.15060506845E+02  0.11089590660E+03 -0.12586965762E+03  0.18098473460E+03  0.66238829113E+02 0.  0.
         23    2    1    2    0    0 -0.57621065510E+02 -0.65571411245E+02 -0.21191530820E+02  0.12831023068E+03  0.91622252513E+02 0.  0.
        -11    1    3    3    0    0  0.14390884560E+02  0.86664109356E+02 -0.65516391585E+02  0.10959088911E+03  0.00000000000E+00 0.  1.
         12    1    3    3    0    0 -0.29451391404E+02  0.24231797242E+02 -0.60353266036E+02  0.71393845494E+02  0.00000000000E+00 0. -1.
        -11    1    4    4    0    0 -0.16680930649E+02 -0.56675451879E+02 -0.50056328426E+02  0.77433818894E+02  0.00000000000E+00 0.  1.
         11    1    4    4    0    0 -0.40940134860E+02 -0.88959593665E+01  0.28864797606E+02  0.50876411787E+02  0.00000000000E+00 0. -1.
         21    1    1    2  503  502  0.27216415282E+02  0.28670375826E+02  0.14346850910E+03  0.14881510949E+03  0.00000000000E+00 0. -1.
          3    1    1    2  501    0  0.45465157072E+02 -0.73994871178E+02  0.62113536025E+02  0.10677271574E+03  0.00000000000E+00 0. -1.
<scales pt_clust_5="13000.00000" pt_clust_6="13000.00000" pt_clust_7="13000.00000" pt_clust_8="13000.00000" pt_clust_9="39.53130" pt_clust_10="83.94662"></scales>
<clustering>
<clus scale="   39.531">  1  9  2 -1</clus>
<clus scale="   66.239">  5  6 -1 -1</clus>
<clus scale="   83.947">  1 10  2 -1</clus>
<clus scale="   91.622">  7  8 -1 -1</clus>
<clus scale="  116.620">  2  5  1 -1</clus>
<clus scale="   39.531">  1  5  2 -1</clus>
</clustering>
</event>
<event>
10    4  0.3403565E-005  0.5289617E+03  0.7546771E-02  0.1006484E+00
         21   -1    0    0  501  502  0.00000000000E+00  0.00000000000E+00  0.30468676573E+03  0.30468676573E+03  0.00000000000E+00 0.  1.
          2   -1    0    0  503    0 -0.00000000000E+00 -0.00000000000E+00 -0.13077025202E+04  0.13077025202E+04  0.00000000000E+00 0. -1.
         24    2    1    2    0    0 -0.15534315956E+03  0.34940249922E+02 -0.30663940738E+02  0.18150845040E+03  0.81564220217E+02 0.  0.
         23    2    1    2    0    0 -0.30207604755E+03  0.16982001605E+03 -0.56615063736E+02  0.36239335383E+03  0.89637609867E+02 0.  0.
        -11    1    3    3    0    0 -0.11246101926E+03  0.10434901471E+02  0.15378051151E+02  0.11398619425E+03  0.00000000000E+00 0.  1.
         12    1    3    3    0    0 -0.42882140299E+02  0.24505348451E+02 -0.46041991888E+02  0.67522256156E+02  0.00000000000E+00 0. -1.
        -11    1    4    4    0    0 -0.23012988035E+03  0.16018061961E+03 -0.20021629693E+02  0.28110222052E+03  0.00000000000E+00 0.  1.
         11    1    4    4    0    0 -0.71946167207E+02  0.96393964374E+01 -0.36593434043E+02  0.81291133308E+02  0.00000000000E+00 0. -1.
         21    1    1    2  503  502 -0.53440327154E+01 -0.41466524931E+02 -0.18288135654E+02  0.45634277481E+02  0.00000000000E+00 0.  1.
          1    1    1    2  501    0  0.46276323983E+03 -0.16329374104E+03 -0.89744861432E+03  0.10228532042E+04  0.00000000000E+00 0. -1.
<scales pt_clust_5="13000.00000" pt_clust_6="13000.00000" pt_clust_7="13000.00000" pt_clust_8="13000.00000" pt_clust_9="41.80947" pt_clust_10="492.69489"></scales>
<clustering>
<clus scale="   41.809">  1  9  2 -1</clus>
<clus scale="   81.564">  5  6 -1 -1</clus>
<clus scale="   89.638">  7  8 -1 -1</clus>
<clus scale="  101.339">  5  7 -1 -1</clus>
<clus scale="  492.695">  1 10  2 -1</clus>
<clus scale="   41.809">  1  5  2 -1</clus>
</clustering>
</event>
<event>
10    4  0.3403565E-005  0.1781277E+03  0.7546771E-02  0.1182613E+00
          2   -1    0    0  503    0 -0.00000000000E+00  0.00000000000E+00  0.94468166474E+03  0.94468166474E+03  0.00000000000E+00 0. -1.
         21   -1    0    0  501  502  0.00000000000E+00 -0.00000000000E+00 -0.11876581326E+03  0.11876581326E+03  0.00000000000E+00 0.  1.
         24    2    1    2    0    0  0.95005101303E+01 -0.10323662215E+03  0.16642019309E+03  0.21289342385E+03  0.82944978175E+02 0.  0.
         23    2    1    2    0    0  0.15277466194E+03  0.76205426879E+02  0.26977974452E+03  0.33193472095E+03  0.90841532359E+02 0.  0.
        -13    1    3    3    0    0 -0.36490730719E+02 -0.47708101595E+02  0.85810441127E+02  0.10474286703E+03  0.00000000000E+00 0.  1.
         14    1    3    3    0    0  0.45991240849E+02 -0.55528520559E+02  0.80609751965E+02  0.10815055683E+03  0.00000000000E+00 0. -1.
        -13    1    4    4    0    0  0.87915052318E+02  0.85977765423E+02  0.13871138010E+03  0.18537011502E+03  0.00000000000E+00 0.  1.
         13    1    4    4    0    0  0.64859609621E+02 -0.97723385441E+01  0.13106836442E+03  0.14656460593E+03  0.00000000000E+00 0. -1.
         21    1    1    2  503  502 -0.72929174056E+02  0.13120558671E+03  0.60322127061E+02  0.16177864329E+03  0.00000000000E+00 0.  1.
          1    1    1    2  501    0 -0.89345998013E+02 -0.10417439143E+03  0.32939378680E+03  0.35684068991E+03  0.00000000000E+00 0. -1.
<scales pt_clust_5="13000.00000" pt_clust_6="13000.00000" pt_clust_7="13000.00000" pt_clust_8="13000.00000" pt_clust_9="136.30025" pt_clust_10="153.22315"></scales>
<clustering>
<clus scale="   82.945">  5  6 -1 -1</clus>
<clus scale="   90.842">  7  8 -1 -1</clus>
<clus scale="  132.770">  1  5  2 -1</clus>
<clus scale="  136.300">  2  9  1 -1</clus>
<clus scale="  153.223">  2 10  1 -1</clus>
<clus scale="  136.300">  2  5  1 -1</clus>
</clustering>
</event>
<event>
10    4  0.3403565E-005  0.2487453E+03  0.7546771E-02  0.1114735E+00
         21   -1    0    0  501  502  0.00000000000E+00  0.00000000000E+00  0.27093478636E+03  0.27093478636E+03  0.00000000000E+00 0. -1.
          2   -1    0    0  503    0 -0.00000000000E+00 -0.00000000000E+00 -0.41707307204E+03  0.41707307204E+03  0.00000000000E+00 0. -1.
         23    2    1    2    0    0 -0.58407139695E+02 -0.25332344308E+03 -0.15872357394E+03  0.31785293018E+03  0.90846857487E+02 0.  0.
         24    2    1    2    0    0 -0.10801189707E+02  0.20151036183E+03 -0.24465641780E+02  0.21822725570E+03  0.79381835942E+02 0.  0.
        -11    1    4    4    0    0  0.17949529275E+02  0.98561288052E+01 -0.12647731927E+02  0.24068527148E+02  0.00000000000E+00 0.  1.
         12    1    4    4    0    0 -0.28750718982E+02  0.19165423303E+03 -0.11817909853E+02  0.19415872855E+03  0.00000000000E+00 0. -1.
        -13    1    3    3    0    0 -0.78125626563E+02 -0.14039545380E+03 -0.96406175848E+02  0.18737301758E+03  0.00000000000E+00 0. -1.
         13    1    3    3    0    0  0.19718486868E+02 -0.11292798928E+03 -0.62317398093E+02  0.13047991260E+03  0.00000000000E+00 0.  1.
         21    1    1    2  503  502 -0.70921594355E+01  0.19472061502E+02  0.62008282512E+02  0.65379561062E+02  0.00000000000E+00 0. -1.
          1    1    1    2  501    0  0.76300488838E+02  0.32341019747E+02 -0.24957352474E+02  0.86548111462E+02  0.00000000000E+00 0. -1.
<scales pt_clust_5="13000.00000" pt_clust_6="13000.00000" pt_clust_7="13000.00000" pt_clust_8="13000.00000" pt_clust_9="20.72341" pt_clust_10="83.08745"></scales>
<clustering>
<clus scale="   20.723">  1  9  2 -1</clus>
<clus scale="   79.382">  5  6 -1 -1</clus>
<clus scale="   83.087">  1 10  2 -1</clus>
<clus scale="   90.847">  7  8 -1 -1</clus>
<clus scale="  244.791">  1  5  2 -1</clus>
<clus scale="   20.723">  1  5  2 -1</clus>
</clustering>
</event>
<event>
10    4  0.3403565E-005  0.3100696E+03  0.7546771E-02  0.1129434E+00
         21   -1    0    0  503  502  0.00000000000E+00  0.00000000000E+00  0.15266200288E+03  0.15266200288E+03  0.00000000000E+00 0.  1.
          2   -1    0    0  502    0 -0.00000000000E+00 -0.00000000000E+00 -0.10042926342E+04  0.10042926342E+04  0.00000000000E+00 0. -1.
         24    2    1    2    0    0 -0.42834047393E+02 -0.29975109597E+02 -0.33979021861E+03  0.35090631727E+03  0.70317764668E+02 0.  0.
         23    2    1    2    0    0 -0.25871070931E+03  0.10460171496E+03 -0.32421329433E+03  0.43722180816E+03  0.90420680280E+02 0.  0.
        -11    1    3    3    0    0 -0.30405672647E+02 -0.98073718407E+01 -0.45121545814E+02  0.55286918599E+02  0.00000000000E+00 0.  1.
         12    1    3    3    0    0 -0.12428374746E+02 -0.20167737757E+02 -0.29466867280E+03  0.29561939867E+03  0.00000000000E+00 0. -1.
        -11    1    4    4    0    0 -0.61968906444E+02  0.44344039483E+02 -0.14737745216E+03  0.16591158069E+03  0.00000000000E+00 0. -1.
         11    1    4    4    0    0 -0.19674180287E+03  0.60257675479E+02 -0.17683584217E+03  0.27131022747E+03  0.00000000000E+00 0.  1.
         21    1    1    2  503  501  0.68379061066E+02 -0.31322953785E+02 -0.18236856016E+02  0.77391254954E+02  0.00000000000E+00 0. -1.
          1    1    1    2  501    0  0.23316569564E+03 -0.43303651580E+02 -0.16939026238E+03  0.29143525671E+03  0.00000000000E+00 0. -1.
<scales pt_clust_5="13000.00000" pt_clust_6="13000.00000" pt_clust_7="13000.00000" pt_clust_8="13000.00000" pt_clust_9="37.06018" pt_clust_10="303.80579"></scales>
<clustering>
<clus scale="   37.060">  9 10 -1 -1</clus>
<clus scale="   70.318">  5  6 -1 -1</clus>
<clus scale="   87.623">  2  5  1 -1</clus>
<clus scale="   90.421">  7  8 -1 -1</clus>
<clus scale="  303.806">  1  9  2 -1</clus>
<clus scale="  303.806">  1  5  2 -1</clus>
</clustering>
</event>
<event>
10    4  0.3403565E-005  0.4158558E+03  0.7546771E-02  0.1092325E+00
          2   -1    0    0  503    0 -0.00000000000E+00  0.00000000000E+00  0.88781677159E+03  0.88781677159E+03  0.00000000000E+00 0. -1.
         21   -1    0    0  501  502  0.00000000000E+00 -0.00000000000E+00 -0.29816021910E+03  0.29816021910E+03  0.00000000000E+00 0.  1.
         24    2    1    2    0    0 -0.44112135088E+02  0.58488200958E+01  0.23577184175E+02  0.95053429905E+02  0.80617502842E+02 0.  0.
         23    2    1    2    0    0 -0.36781034262E+03 -0.61494074842E+02  0.35821368544E+03  0.52502566363E+03  0.90933677222E+02 0.  0.
        -13    1    3    3    0    0 -0.14427112464E+02 -0.31940905678E+02  0.30552080858E+02  0.46495082260E+02  0.00000000000E+00 0.  1.
         14    1    3    3    0    0 -0.29685022624E+02  0.37789725774E+02 -0.69748966832E+01  0.48558347645E+02  0.00000000000E+00 0. -1.
        -13    1    4    4    0    0 -0.65232156137E+02 -0.43389252057E+02  0.51221126839E+02  0.93602698802E+02  0.00000000000E+00 0. -1.
         13    1    4    4    0    0 -0.30257818649E+03 -0.18104822785E+02  0.30699255860E+03  0.43142296483E+03  0.00000000000E+00 0.  1.
         21    1    1    2  503  502 -0.19288533333E+02 -0.16158824440E+02 -0.51697996184E+02  0.57496416713E+02  0.00000000000E+00 0. -1.
          1    1    1    2  501    0  0.43121101104E+03  0.71804079187E+02  0.25956367906E+03  0.50840148045E+03  0.00000000000E+00 0. -1.
<scales pt_clust_5="13000.00000" pt_clust_6="13000.00000" pt_clust_7="13000.00000" pt_clust_8="13000.00000" pt_clust_9="25.16257" pt_clust_10="405.79198"></scales>
<clustering>
<clus scale="   25.163">  2  9  1 -1</clus>
<clus scale="   80.618">  5  6 -1 -1</clus>
<clus scale="   90.934">  7  8 -1 -1</clus>
<clus scale="   93.353">  1  5  2 -1</clus>
<clus scale="  405.792">  2 10  1 -1</clus>
<clus scale="   25.163">  2  5  1 -1</clus>
</clustering>
</event>
<event>
10    4  0.3403565E-005  0.1223324E+03  0.7546771E-02  0.1249161E+00
         21   -1    0    0  503  502  0.00000000000E+00  0.00000000000E+00  0.51999751272E+03  0.51999751272E+03  0.00000000000E+00 0.  1.
         -1   -1    0    0    0  501 -0.00000000000E+00 -0.00000000000E+00 -0.10382114756E+03  0.10382114756E+03  0.00000000000E+00 0.  1.
         23    2    1    2    0    0 -0.30821302593E+02 -0.20678316424E+02 -0.67587967878E+01  0.98904622484E+02  0.91427006683E+02 0.  0.
         24    2    1    2    0    0 -0.63746614077E+02  0.20027634683E+02  0.87113035028E+02  0.13579142816E+03  0.79911789696E+02 0.  0.
        -13    1    4    4    0    0 -0.59317347773E+02  0.14952923418E+01  0.14999011784E+02  0.61202565310E+02  0.00000000000E+00 0.  1.
         14    1    4    4    0    0 -0.44292663038E+01  0.18532342341E+02  0.72114023244E+02  0.74588862849E+02  0.00000000000E+00 0. -1.
        -11    1    3    3    0    0 -0.25893430972E+02  0.32171310032E+02 -0.17325250461E+02  0.44784230039E+02  0.00000000000E+00 0. -1.
         11    1    3    3    0    0 -0.49278716219E+01 -0.52849626455E+02  0.10566453673E+02  0.54120392445E+02  0.00000000000E+00 0.  1.
         21    1    1    2  503  501  0.12655917841E+03  0.29552130107E+02  0.31597848431E+03  0.34166205025E+03  0.00000000000E+00 0.  1.
         -2    1    1    2    0  502 -0.31991261737E+02 -0.28901448366E+02  0.19843642611E+02  0.47460559386E+02  0.00000000000E+00 0.  1.
<scales pt_clust_5="13000.00000" pt_clust_6="13000.00000" pt_clust_7="13000.00000" pt_clust_8="13000.00000" pt_clust_9="92.62467" pt_clust_10="43.11307"></scales>
<clustering>
<clus scale="   43.113">  1 10  2 -1</clus>
<clus scale="   79.912">  5  6 -1 -1</clus>
<clus scale="   91.427">  7  8 -1 -1</clus>
<clus scale="  100.266">  2  7  1 -1</clus>
<clus scale="   92.625">  1  9  2 -1</clus>
<clus scale="   43.113">  1  5  2 -1</clus>
</clustering>
</event>
<event>
10    4  0.3403565E-005  0.9650353E+02  0.7546771E-02  0.1293877E+00
         21   -1    0    0  501  502  0.00000000000E+00  0.00000000000E+00  0.64178743041E+02  0.64178743041E+02  0.00000000000E+00 0. -1.
          2   -1    0    0  503    0 -0.00000000000E+00 -0.00000000000E+00 -0.45163486725E+03  0.45163486725E+03  0.00000000000E+00 0. -1.
         23    2    1    2    0    0 -0.50148710074E+00 -0.51699645388E+02 -0.13996253397E+03  0.16908830041E+03  0.79550220608E+02 0.  0.
         24    2    1    2    0    0 -0.81742146032E+02  0.30141873194E+02 -0.13080581401E+03  0.17070981578E+03  0.66643598850E+02 0.  0.
        -13    1    4    4    0    0 -0.55580944186E+01  0.31597378929E+02 -0.26952998534E+02  0.41901681336E+02  0.00000000000E+00 0.  1.
         14    1    4    4    0    0 -0.76184051613E+02 -0.14555057349E+01 -0.10385281547E+03  0.12880813444E+03  0.00000000000E+00 0. -1.
        -11    1    3    3    0    0  0.26820348232E+02 -0.27749547720E+02 -0.19447380799E+02  0.43215380340E+02  0.00000000000E+00 0. -1.
         11    1    3    3    0    0 -0.27321835333E+02 -0.23950097669E+02 -0.12051515317E+03  0.12587292007E+03  0.00000000000E+00 0.  1.
         21    1    1    2  503  502  0.66256507210E+01  0.30108158913E+02  0.62257250286E+01  0.31450916246E+02  0.00000000000E+00 0. -1.
          1    1    1    2  501    0  0.75617982412E+02 -0.85503867189E+01 -0.12291350126E+03  0.14456457785E+03  0.00000000000E+00 0. -1.
<scales pt_clust_5="13000.00000" pt_clust_6="13000.00000" pt_clust_7="13000.00000" pt_clust_8="13000.00000" pt_clust_9="30.82857" pt_clust_10="77.21198"></scales>
<clustering>
<clus scale="   30.829">  1  9  2 -1</clus>
<clus scale="   66.644">  5  6 -1 -1</clus>
<clus scale="   77.212">  1 10  2 -1</clus>
<clus scale="   79.550">  7  8 -1 -1</clus>
<clus scale="   86.175">  1  5  2 -1</clus>
<clus scale="   30.829">  1  5  2 -1</clus>
</clustering>
</event>
<event>
10    4  0.3403565E-005  0.3506963E+03  0.7546771E-02  0.1087720E+00
          2   -1    0    0  503    0 -0.00000000000E+00  0.00000000000E+00  0.13844821584E+04  0.13844821584E+04  0.00000000000E+00 0. -1.
         21   -1    0    0  501  502  0.00000000000E+00 -0.00000000000E+00 -0.19568530952E+03  0.19568530952E+03  0.00000000000E+00 0. -1.
         23    2    1    2    0    0  0.11640345847E+03 -0.93403029675E+02  0.34873500191E+02  0.18287493123E+03  0.99765667249E+02 0.  0.
         24    2    1    2    0    0  0.15086534727E+03 -0.24196806790E+03  0.53492493470E+03  0.61153124281E+03  0.80727171855E+02 0.  0.
        -11    1    4    4    0    0  0.61430380123E+02 -0.16442994233E+03  0.28007393567E+03  0.33053336742E+03  0.00000000000E+00 0.  1.
         12    1    4    4    0    0  0.89434967147E+02 -0.77538125569E+02  0.25485099903E+03  0.28099787539E+03  0.00000000000E+00 0. -1.
        -11    1    3    3    0    0 -0.44515947026E+01 -0.38948339872E+02 -0.13954098992E+02  0.41611377685E+02  0.00000000000E+00 0.  1.
         11    1    3    3    0    0  0.12085505317E+03 -0.54454689803E+02  0.48827599183E+02  0.14126355355E+03  0.00000000000E+00 0. -1.
         21    1    1    2  503  502  0.36651536059E+01  0.22322329442E+02 -0.16008127641E+02  0.27712450149E+02  0.00000000000E+00 0.  1.
          1    1    1    2  501    0 -0.27093395935E+03  0.31304876813E+03  0.63500654162E+03  0.75804884371E+03  0.00000000000E+00 0. -1.
<scales pt_clust_5="13000.00000" pt_clust_6="13000.00000" pt_clust_7="13000.00000" pt_clust_8="13000.00000" pt_clust_9="22.62122" pt_clust_10="341.27871"></scales>
<clustering>
<clus scale="   22.621">  2  9  1 -1</clus>
<clus scale="   80.727">  5  6 -1 -1</clus>
<clus scale="   99.766">  7  8 -1 -1</clus>
<clus scale="  175.806">  1  7  2 -1</clus>
<clus scale="  341.279">  2 10  1 -1</clus>
<clus scale="   22.621">  2  5  1 -1</clus>
</clustering>
</event>
<event>
10    4  0.3403565E-005  0.1488168E+03  0.7546771E-02  0.1225095E+00
         21   -1    0    0  501  502  0.00000000000E+00  0.00000000000E+00  0.78181064764E+02  0.78181064764E+02  0.00000000000E+00 0.  1.
          2   -1    0    0  503    0 -0.00000000000E+00 -0.00000000000E+00 -0.78219461759E+03  0.78219461759E+03  0.00000000000E+00 0. -1.
         24    2    1    2    0    0  0.24252250659E+02 -0.26286795369E+02 -0.30379322737E+03  0.31686085019E+03  0.82651715771E+02 0.  0.
         23    2    1    2    0    0  0.50808640052E+02  0.99728565502E+02 -0.46464228092E+02  0.15091181795E+03  0.89934129368E+02 0.  0.
        -11    1    3    3    0    0 -0.31386309039E+01 -0.52188708030E+02 -0.17002109748E+03  0.17787828939E+03  0.00000000000E+00 0.  1.
         12    1    3    3    0    0  0.27390881563E+02  0.25901912660E+02 -0.13377212989E+03  0.13898256080E+03  0.00000000000E+00 0. -1.
        -13    1    4    4    0    0  0.51763419061E+02  0.45119784071E+02  0.13306817062E+02  0.69945105961E+02  0.00000000000E+00 0.  1.
         13    1    4    4    0    0 -0.95477900901E+00  0.54608781430E+02 -0.59771045154E+02  0.80966711994E+02  0.00000000000E+00 0. -1.
         21    1    1    2  503  502  0.29312842933E+02 -0.66090429364E+01 -0.18780675129E+02  0.35434954038E+02  0.00000000000E+00 0.  1.
          1    1    1    2  501    0 -0.10437373364E+03 -0.66832727196E+02 -0.33497542224E+03  0.35716806016E+03  0.00000000000E+00 0. -1.
<scales pt_clust_5="13000.00000" pt_clust_6="13000.00000" pt_clust_7="13000.00000" pt_clust_8="13000.00000" pt_clust_9="30.04866" pt_clust_10="118.56776"></scales>
<clustering>
<clus scale="   30.049">  1  9  2 -1</clus>
<clus scale="   82.652">  5  6 -1 -1</clus>
<clus scale="   89.934">  7  8 -1 -1</clus>
<clus scale="   91.016">  2  5  1 -1</clus>
<clus scale="  118.568">  1 10  2 -1</clus>
<clus scale="   30.049">  1  5  2 -1</clus>
</clustering>
</event>
<event>
10    4  0.3403565E-005  0.3466275E+03  0.7546771E-02  0.1064262E+00
         -3   -1    0    0    0  501 -0.00000000000E+00  0.00000000000E+00  0.26881759610E+03  0.26881759610E+03  0.00000000000E+00 0.  1.
         21   -1    0    0  503  502  0.00000000000E+00 -0.00000000000E+00 -0.88857824780E+03  0.88857824780E+03  0.00000000000E+00 0. -1.
         24    2    1    2    0    0 -0.20538162129E+03  0.18276716196E+03 -0.23581901711E+03  0.37106070589E+03  0.80560491377E+02 0.  0.
         23    2    1    2    0    0  0.25341178513E+03 -0.31845570541E+03 -0.21440807427E+03  0.46880089166E+03  0.90398476549E+02 0.  0.
        -11    1    3    3    0    0 -0.15363301641E+03  0.11800501688E+03 -0.11743373358E+03  0.22653690543E+03  0.00000000000E+00 0.  1.
         12    1    3    3    0    0 -0.51748604877E+02  0.64762145078E+02 -0.11838528353E+03  0.14452380046E+03  0.00000000000E+00 0. -1.
        -13    1    4    4    0    0  0.20939273302E+03 -0.25122590722E+03 -0.20928670257E+03  0.38827914825E+03  0.00000000000E+00 0. -1.
         13    1    4    4    0    0  0.44019052109E+02 -0.67229798192E+02 -0.51213717058E+01  0.80521743409E+02  0.00000000000E+00 0.  1.
         21    1    1    2  503  501  0.83748008623E+02  0.33047096663E+02 -0.17599873734E+02  0.91736552702E+02  0.00000000000E+00 0.  1.
         -4    1    1    2    0  502 -0.13177817247E+03  0.10264144679E+03 -0.15193368658E+03  0.22579769364E+03  0.00000000000E+00 0.  1.
<scales pt_clust_5="13000.00000" pt_clust_6="13000.00000" pt_clust_7="13000.00000" pt_clust_8="13000.00000" pt_clust_9="90.03244" pt_clust_10="160.21934"></scales>
<clustering>
<clus scale="   80.560">  5  6 -1 -1</clus>
<clus scale="   90.032">  1  9  2 -1</clus>
<clus scale="   90.398">  7  8 -1 -1</clus>
<clus scale="  160.219">  2 10  1 -1</clus>
<clus scale="  344.193">  1  5  2 -1</clus>
<clus scale="  160.219">  2  5  1 -1</clus>
</clustering>
</event>
<event>
10    4  0.3403565E-005  0.2279211E+03  0.7546771E-02  0.1164851E+00
          2   -1    0    0  502    0 -0.00000000000E+00  0.00000000000E+00  0.10252130313E+04  0.10252130313E+04  0.00000000000E+00 0. -1.
         21   -1    0    0  503  502  0.00000000000E+00 -0.00000000000E+00 -0.13953428987E+03  0.13953428987E+03  0.00000000000E+00 0. -1.
         24    2    1    2    0    0 -0.52043566106E+02 -0.56918006870E+00  0.45684470711E+03  0.46693935762E+03  0.81341382734E+02 0.  0.
         23    2    1    2    0    0  0.14508693043E+03 -0.11343953675E+03  0.14503111604E+03  0.25246781410E+03  0.93740208319E+02 0.  0.
        -13    1    3    3    0    0 -0.26825347557E+02  0.23843324364E+02  0.71526762496E+02  0.80026127867E+02  0.00000000000E+00 0.  1.
         14    1    3    3    0    0 -0.25218218549E+02 -0.24412504432E+02  0.38531794461E+03  0.38691322975E+03  0.00000000000E+00 0. -1.
        -11    1    4    4    0    0  0.11686116822E+03 -0.80706137423E+02  0.54447047832E+02  0.15210027703E+03  0.00000000000E+00 0. -1.
         11    1    4    4    0    0  0.28225762216E+02 -0.32733399331E+02  0.90584068212E+02  0.10036753707E+03  0.00000000000E+00 0.  1.
         21    1    1    2  503  501  0.61358867999E+02 -0.43378050150E+02 -0.12325955702E+02  0.76147850271E+02  0.00000000000E+00 0. -1.
          1    1    1    2  501    0 -0.15440223233E+03  0.15738676697E+03  0.29612887402E+03  0.36919229921E+03  0.00000000000E+00 0. -1.
<scales pt_clust_5="13000.00000" pt_clust_6="13000.00000" pt_clust_7="13000.00000" pt_clust_8="13000.00000" pt_clust_9="75.14364" pt_clust_10="207.75187"></scales>
<clustering>
<clus scale="   75.144">  2  9  1 -1</clus>
<clus scale="   81.341">  5  6 -1 -1</clus>
<clus scale="   93.740">  7  8 -1 -1</clus>
<clus scale="   94.897">  1  5  2 -1</clus>
<clus scale="  207.752">  2 10  1 -1</clus>
<clus scale="   75.144">  2  5  1 -1</clus>
</clustering>
</event>
<event>
10    4  0.3403565E-005  0.1607079E+03  0.7546771E-02  0.1207995E+00
         21   -1    0    0  501  502  0.00000000000E+00  0.00000000000E+00  0.38826128207E+03  0.38826128207E+03  0.00000000000E+00 0.  1.
         -3   -1    0    0    0  501 -0.00000000000E+00 -0.00000000000E+00 -0.30973768851E+03  0.30973768851E+03  0.00000000000E+00 0.  1.
         23    2    1    2    0    0 -0.42169805332E+02  0.30624872152E+01 -0.14595406673E+02  0.10651986176E+03  0.96673593829E+02 0.  0.
         24    2    1    2    0    0  0.71986208138E+01 -0.14538505617E+03 -0.19162007248E+03  0.25416173469E+03  0.81800369817E+02 0.  0.
        -13    1    4    4    0    0 -0.48544393983E+01 -0.15249276240E+03 -0.18009706650E+03  0.23603508538E+03  0.00000000000E+00 0.  1.
         14    1    4    4    0    0  0.12053060212E+02  0.71077062321E+01 -0.11523005979E+02  0.18126649308E+02  0.00000000000E+00 0. -1.
        -11    1    3    3    0    0  0.29187338642E+02 -0.11611879051E+02 -0.11990128459E+02  0.33622903690E+02  0.00000000000E+00 0. -1.
         11    1    3    3    0    0 -0.71357143973E+02  0.14674366267E+02 -0.26052782141E+01  0.72896958070E+02  0.00000000000E+00 0.  1.
         21    1    1    2  503  502  0.26564651722E+02  0.19607438798E+02  0.15524104459E+03  0.15871330852E+03  0.00000000000E+00 0.  1.
         -4    1    1    2    0  503  0.84065327954E+01  0.12271513016E+03  0.12949802813E+03  0.17860406561E+03  0.00000000000E+00 0.  1.
<scales pt_clust_5="13000.00000" pt_clust_6="13000.00000" pt_clust_7="13000.00000" pt_clust_8="13000.00000" pt_clust_9="33.01715" pt_clust_10="138.33197"></scales>
<clustering>
<clus scale="   33.017">  1  9  2 -1</clus>
<clus scale="   81.800">  5  6 -1 -1</clus>
<clus scale="   96.674">  7  8 -1 -1</clus>
<clus scale="  103.707">  2  7  1 -1</clus>
<clus scale="  138.332">  1 10  2 -1</clus>
<clus scale="   33.017">  1  5  2 -1</clus>
</clustering>
</event>
<event>
10    4  0.3403565E-005  0.1257868E+03  0.7546771E-02  0.1242510E+00
         21   -1    0    0  503  502  0.00000000000E+00  0.00000000000E+00  0.38807857184E+02  0.38807857184E+02  0.00000000000E+00 0. -1.
          2   -1    0    0  502    0 -0.00000000000E+00 -0.00000000000E+00 -0.16629105443E+04  0.16629105443E+04  0.00000000000E+00 0. -1.
         24    2    1    2    0    0  0.34009883227E+02  0.47039440693E+02 -0.67169724652E+03  0.67910382818E+03  0.81458193772E+02 0.  0.
         23    2    1    2    0    0  0.58828978540E+02 -0.21341520388E+02 -0.54367828479E+03  0.55500334005E+03  0.92338079388E+02 0.  0.
        -13    1    3    3    0    0 -0.96042449493E+01  0.43962680267E+02 -0.18287456828E+03  0.18832967504E+03  0.00000000000E+00 0.  1.
         14    1    3    3    0    0  0.43614128176E+02  0.30767604270E+01 -0.48882267824E+03  0.49077415314E+03  0.00000000000E+00 0. -1.
        -11    1    4    4    0    0  0.60455131748E+02  0.24615164219E+02 -0.29913700544E+03  0.30617589272E+03  0.00000000000E+00 0. -1.
         11    1    4    4    0    0 -0.16261532074E+01 -0.45956684607E+02 -0.24454127935E+03  0.24882744732E+03  0.00000000000E+00 0.  1.
         21    1    1    2  503  501 -0.14134055902E+01  0.53783135267E+02 -0.15270416855E+02  0.55926818124E+02  0.00000000000E+00 0. -1.
          1    1    1    2  501    0 -0.91425456177E+02 -0.79481055573E+02 -0.39345673894E+03  0.41168441511E+03  0.00000000000E+00 0. -1.
<scales pt_clust_5="13000.00000" pt_clust_6="13000.00000" pt_clust_7="13000.00000" pt_clust_8="13000.00000" pt_clust_9="53.80170" pt_clust_10="85.41655"></scales>
<clustering>
<clus scale="   53.802">  1  9  2 -1</clus>
<clus scale="   81.458">  5  6 -1 -1</clus>
<clus scale="   92.338">  7  8 -1 -1</clus>
<clus scale="  105.431">  2  5  1 -1</clus>
<clus scale="   85.417">  1 10  2 -1</clus>
<clus scale="   53.802">  1  5  2 -1</clus>
</clustering>
</event>
<event>
10    4  0.3403565E-005  0.2439006E+03  0.7546771E-02  0.1138716E+00
         21   -1    0    0  501  502  0.00000000000E+00  0.00000000000E+00  0.45235210318E+03  0.45235210318E+03  0.00000000000E+00 0. -1.
          2   -1    0    0  503    0 -0.00000000000E+00 -0.00000000000E+00 -0.70505037440E+03  0.70505037440E+03  0.00000000000E+00 0. -1.
         23    2    1    2    0    0 -0.27470586510E+02 -0.13447326928E+03  0.14872920131E+03  0.22261374740E+03  0.92729779122E+02 0.  0.
         24    2    1    2    0    0 -0.34851036856E+02 -0.17779026219E+03 -0.31765953730E+03  0.37436300861E+03  0.80100614720E+02 0.  0.
        -13    1    4    4    0    0 -0.58118632423E+02 -0.97160515687E+02 -0.20036179514E+03  0.23013645995E+03  0.00000000000E+00 0.  1.
         14    1    4    4    0    0  0.23267595567E+02 -0.80629746504E+02 -0.11729774215E+03  0.14422654866E+03  0.00000000000E+00 0. -1.
        -13    1    3    3    0    0  0.28462863500E+02 -0.89320847763E+02  0.82990428100E+02  0.12520287377E+03  0.00000000000E+00 0. -1.
         13    1    3    3    0    0 -0.55933450011E+02 -0.45152421519E+02  0.65738773208E+02  0.97410873634E+02  0.00000000000E+00 0.  1.
         21    1    1    2  503  502  0.39386711667E+02  0.36706689309E+02  0.17416052758E+03  0.18229257654E+03  0.00000000000E+00 0. -1.
          1    1    1    2  501    0  0.22934911700E+02  0.27555684216E+03 -0.25792846281E+03  0.37813314502E+03  0.00000000000E+00 0. -1.
<scales pt_clust_5="13000.00000" pt_clust_6="13000.00000" pt_clust_7="13000.00000" pt_clust_8="13000.00000" pt_clust_9="53.83952" pt_clust_10="230.37242"></scales>
<clustering>
<clus scale="   53.840">  1  9  2 -1</clus>
<clus scale="   80.101">  5  6 -1 -1</clus>
<clus scale="   92.730">  7  8 -1 -1</clus>
<clus scale="  143.576">  2  7  1 -1</clus>
<clus scale="  230.372">  1 10  2 -1</clus>
<clus scale="   53.840">  1  5  2 -1</clus>
</clustering>
</event>
<event>
10    4  0.3403565E-005  0.1343747E+03  0.7546771E-02  0.1242534E+00
         21   -1    0    0  501  502  0.00000000000E+00  0.00000000000E+00  0.90322712176E+03  0.90322712176E+03  0.00000000000E+00 0.  1.
         -3   -1    0    0    0  501 -0.00000000000E+00 -0.00000000000E+00 -0.92211869549E+02  0.92211869549E+02  0.00000000000E+00 0.  1.
         24    2    1    2    0    0 -0.16823639454E+02  0.27996622392E+02 -0.20256504723E+02  0.88562545696E+02  0.79788174605E+02 0.  0.
         23    2    1    2    0    0  0.57395190135E+02  0.94977636876E+02  0.38894718674E+03  0.41584862983E+03  0.96618887899E+02 0.  0.
        -13    1    3    3    0    0 -0.43641102675E+02  0.27284614114E+02  0.50084045822E+01  0.51711508647E+02  0.00000000000E+00 0.  1.
         14    1    3    3    0    0  0.26817463221E+02  0.71200827776E+00 -0.25264909306E+02  0.36851037049E+02  0.00000000000E+00 0. -1.
        -13    1    4    4    0    0  0.45574810723E+02  0.57160740813E+02  0.35850540390E+03  0.36588323040E+03  0.00000000000E+00 0.  1.
         13    1    4    4    0    0  0.11820379412E+02  0.37816896064E+02  0.30441782838E+02  0.49965399425E+02  0.00000000000E+00 0. -1.
         21    1    1    2  503  502 -0.43891968561E+02 -0.17477215248E+02  0.34252366706E+03  0.34576642471E+03  0.00000000000E+00 0.  1.
         -4    1    1    2    0  503  0.33204178806E+01 -0.10549704402E+03  0.99800903135E+02  0.14526139108E+03  0.00000000000E+00 0.  1.
<scales pt_clust_5="13000.00000" pt_clust_6="13000.00000" pt_clust_7="13000.00000" pt_clust_8="13000.00000" pt_clust_9="47.24360" pt_clust_10="93.38826"></scales>
<clustering>
<clus scale="   47.244">  1  9  2 -1</clus>
<clus scale="   79.788">  5  6 -1 -1</clus>
<clus scale="   86.439">  2  5  1 -1</clus>
<clus scale="   93.388">  1 10  2 -1</clus>
<clus scale="   96.619">  7  8 -1 -1</clus>
<clus scale="   47.244">  1  5  2 -1</clus>
</clustering>
</event>
<event>
10    4  0.3403565E-005  0.1742013E+03  0.7546771E-02  0.1174990E+00
         21   -1    0    0  501  502  0.00000000000E+00  0.00000000000E+00  0.49016458460E+03  0.49016458460E+03  0.00000000000E+00 0.  1.
          2   -1    0    0  503    0 -0.00000000000E+00 -0.00000000000E+00 -0.20179376450E+03  0.20179376450E+03  0.00000000000E+00 0. -1.
         23    2    1    2    0    0 -0.15012893286E+03  0.19062081309E+02 -0.10017544060E+03  0.20295663447E+03  0.90852722303E+02 0.  0.
         24    2    1    2    0    0  0.12972641527E+03  0.13161781335E+02  0.39030464950E+03  0.41911224831E+03  0.79468119133E+02 0.  0.
        -13    1    4    4    0    0  0.10115747347E+03  0.41863483890E+02  0.31690444397E+03  0.33528169101E+03  0.00000000000E+00 0.  1.
         14    1    4    4    0    0  0.28568941793E+02 -0.28701702555E+02  0.73400205532E+02  0.83830557298E+02  0.00000000000E+00 0. -1.
        -13    1    3    3    0    0 -0.12694249804E+03  0.47762460082E+02 -0.59700042353E+02  0.14818820958E+03  0.00000000000E+00 0. -1.
         13    1    3    3    0    0 -0.23186434820E+02 -0.28700378774E+02 -0.40475398250E+02  0.54768424890E+02  0.00000000000E+00 0.  1.
         21    1    1    2  503  502  0.10907264509E+01 -0.22569832710E+02  0.26178646077E+02  0.34581910636E+02  0.00000000000E+00 0. -1.
          1    1    1    2  501    0  0.19311791139E+02 -0.96540299333E+01 -0.27937034875E+02  0.35307555686E+02  0.00000000000E+00 0. -1.
<scales pt_clust_5="13000.00000" pt_clust_6="13000.00000" pt_clust_7="13000.00000" pt_clust_8="13000.00000" pt_clust_9="23.28626" pt_clust_10="21.59042"></scales>
<clustering>
<clus scale="   21.590">  1 10  2 -1</clus>
<clus scale="   23.286">  1  9  2 -1</clus>
<clus scale="   79.468">  5  6 -1 -1</clus>
<clus scale="   90.853">  7  8 -1 -1</clus>
<clus scale="  168.544">  1  5  2 -1</clus>
<clus scale="   21.590">  1  5  2 -1</clus>
</clustering>
</event>
<event>
10    4  0.3403565E-005  0.1687470E+03  0.7546771E-02  0.1193804E+00
         21   -1    0    0  503  502  0.00000000000E+00  0.00000000000E+00  0.28360205149E+03  0.28360205149E+03  0.00000000000E+00 0. -1.
         -1   -1    0    0    0  501 -0.00000000000E+00 -0.00000000000E+00 -0.47182860099E+03  0.47182860099E+03  0.00000000000E+00 0.  1.
         23    2    1    2    0    0  0.55902658029E+02 -0.58784865414E+02 -0.10051236830E+03  0.15899407203E+03  0.92712519012E+02 0.  0.
         24    2    1    2    0    0 -0.32114220542E+02 -0.11918303175E+03 -0.15429497914E+03  0.21313774669E+03  0.79905195436E+02 0.  0.
        -11    1    4    4    0    0  0.20241971453E+02 -0.19949097062E+02 -0.60709186567E+02  0.67032150611E+02  0.00000000000E+00 0.  1.
         12    1    4    4    0    0 -0.52356191995E+02 -0.99233934692E+02 -0.93585792577E+02  0.14610559608E+03  0.00000000000E+00 0. -1.
        -11    1    3    3    0    0  0.23940764400E+02 -0.82143813224E+01 -0.95684293069E+02  0.98975351480E+02  0.00000000000E+00 0.  1.
         11    1    3    3    0    0  0.31961893630E+02 -0.50570484092E+02 -0.48280752340E+01  0.60018720547E+02  0.00000000000E+00 0. -1.
         21    1    1    2  503  501 -0.29542042961E+02  0.14483347182E+03  0.19831340908E+03  0.24734121186E+03  0.00000000000E+00 0. -1.
         -2    1    1    2    0  502  0.57536054735E+01  0.33134425345E+02 -0.13173261113E+03  0.13595762190E+03  0.00000000000E+00 0.  1.
<scales pt_clust_5="13000.00000" pt_clust_6="13000.00000" pt_clust_7="13000.00000" pt_clust_8="13000.00000" pt_clust_9="148.62939" pt_clust_10="33.63027"></scales>
<clustering>
<clus scale="   33.630">  1 10  2 -1</clus>
<clus scale="   79.905">  5  6 -1 -1</clus>
<clus scale="   92.713">  7  8 -1 -1</clus>
<clus scale="  121.864">  2  7  1 -1</clus>
<clus scale="  148.629">  1  9  2 -1</clus>
<clus scale="   33.630">  1  5  2 -1</clus>
</clustering>
</event>
<event>
10    4  0.3403565E-005  0.1703046E+03  0.7546771E-02  0.1180303E+00
          2   -1    0    0  502    0 -0.00000000000E+00  0.00000000000E+00  0.22045937659E+04  0.22045937659E+04  0.00000000000E+00 0. -1.
         21   -1    0    0  503  502  0.00000000000E+00 -0.00000000000E+00 -0.38614845016E+02  0.38614845016E+02  0.00000000000E+00 0. -1.
         24    2    1    2    0    0  0.24699519435E+02  0.17349340085E+03  0.16914160768E+04  0.17019252103E+04  0.70363700177E+02 0.  0.
         23    2    1    2    0    0  0.17258139338E+01 -0.56482821922E+02  0.18253672656E+03  0.21182411994E+03  0.91413968493E+02 0.  0.
        -13    1    3    3    0    0 -0.50064375075E+01  0.54131853972E+02  0.28484620252E+03  0.28998738096E+03  0.00000000000E+00 0.  1.
         14    1    3    3    0    0  0.29705956943E+02  0.11936154687E+03  0.14065698743E+04  0.14119378294E+04  0.00000000000E+00 0. -1.
        -11    1    4    4    0    0 -0.23087809344E+02 -0.32421179501E+02  0.17071623398E+03  0.17529464442E+03  0.00000000000E+00 0.  1.
         11    1    4    4    0    0  0.24813623277E+02 -0.24061642422E+02  0.11820492589E+02  0.36529475513E+02  0.00000000000E+00 0. -1.
         21    1    1    2  503  501 -0.20976971947E+02 -0.44510524187E+02  0.30218569348E+02  0.57744108348E+02  0.00000000000E+00 0. -1.
          1    1    1    2  501    0 -0.54483614220E+01 -0.72500054737E+02  0.26180754815E+03  0.27171517228E+03  0.00000000000E+00 0. -1.
<scales pt_clust_5="13000.00000" pt_clust_6="13000.00000" pt_clust_7="13000.00000" pt_clust_8="13000.00000" pt_clust_9="49.20590" pt_clust_10="81.94024"></scales>
<clustering>
<clus scale="   49.206">  2  9  1 -1</clus>
<clus scale="   70.364">  5  6 -1 -1</clus>
<clus scale="   81.940">  2 10  1 -1</clus>
<clus scale="   91.414">  7  8 -1 -1</clus>
<clus scale="  159.994">  1  5  2 -1</clus>
<clus scale="   49.206">  2  5  1 -1</clus>
</clustering>
</event>
<event>
10    4  0.3403565E-005  0.1437213E+03  0.7546771E-02  0.1209966E+00
         21   -1    0    0  503  502  0.00000000000E+00  0.00000000000E+00  0.84928839676E+02  0.84928839676E+02  0.00000000000E+00 0.  1.
          2   -1    0    0  502    0 -0.00000000000E+00 -0.00000000000E+00 -0.14249375476E+04  0.14249375476E+04  0.00000000000E+00 0. -1.
         23    2    1    2    0    0  0.11146460602E+02 -0.95274040648E+02 -0.65940388241E+03  0.67231338378E+03  0.89389146241E+02 0.  0.
         24    2    1    2    0    0 -0.61323789264E+02  0.18336306182E+03 -0.33343569339E+03  0.39398048669E+03  0.81600506726E+02 0.  0.
        -13    1    4    4    0    0 -0.58427311574E+02  0.16723236076E+03 -0.23552346391E+03  0.29470615073E+03  0.00000000000E+00 0.  1.
         14    1    4    4    0    0 -0.28964776900E+01  0.16130701058E+02 -0.97912229479E+02  0.99274335964E+02  0.00000000000E+00 0. -1.
        -13    1    3    3    0    0  0.23231598892E+02  0.96577525986E+01 -0.14678309891E+03  0.14892366333E+03  0.00000000000E+00 0.  1.
         13    1    3    3    0    0 -0.12085138290E+02 -0.10493179325E+03 -0.51262078349E+03  0.52338972045E+03  0.00000000000E+00 0. -1.
         21    1    1    2  503  501 -0.73709860146E+02 -0.17988055448E+02 -0.86763645912E+01  0.76367486040E+02  0.00000000000E+00 0.  1.
          1    1    1    2  501    0  0.12388718881E+03 -0.70100965726E+02 -0.33849276753E+03  0.36720503077E+03  0.00000000000E+00 0. -1.
<scales pt_clust_5="13000.00000" pt_clust_6="13000.00000" pt_clust_7="13000.00000" pt_clust_8="13000.00000" pt_clust_9="75.87301" pt_clust_10="127.64390"></scales>
<clustering>
<clus scale="   75.873">  1  9  2 -1</clus>
<clus scale="   81.601">  5  6 -1 -1</clus>
<clus scale="   89.389">  7  8 -1 -1</clus>
<clus scale="  127.644">  1 10  2 -1</clus>
<clus scale="  139.011">  1  5  2 -1</clus>
<clus scale="   75.873">  1  5  2 -1</clus>
</clustering>
</event>
<event>
10    4  0.3403565E-005  0.9190307E+02  0.7546771E-02  0.1304231E+00
         -3   -1    0    0    0  501 -0.00000000000E+00  0.00000000000E+00  0.43094833174E+03  0.43094833174E+03  0.00000000000E+00 0.  1.
         21   -1    0    0  503  502  0.00000000000E+00 -0.00000000000E+00 -0.57696745717E+02  0.57696745717E+02  0.00000000000E+00 0.  1.
         23    2    1    2    0    0 -0.20395386741E+02  0.67857777638E+01  0.22327630618E+03  0.24190123999E+03  0.90564244761E+02 0.  0.
         24    2    1    2    0    0  0.56359143343E+01 -0.52988330553E+02  0.28243264666E+02  0.10091990882E+03  0.80917360880E+02 0.  0.
        -13    1    4    4    0    0 -0.67848969734E+01 -0.64460364406E+02  0.43569681023E+02  0.78099235020E+02  0.00000000000E+00 0.  1.
         14    1    4    4    0    0  0.12420811308E+02  0.11472033852E+02 -0.15326416358E+02  0.22820673798E+02  0.00000000000E+00 0. -1.
        -13    1    3    3    0    0  0.31733333327E+02 -0.16566205938E+02  0.79152353211E+02  0.86870815825E+02  0.00000000000E+00 0. -1.
         13    1    3    3    0    0 -0.52128720068E+02  0.23351983702E+02  0.14412395297E+03  0.15503042417E+03  0.00000000000E+00 0.  1.
         21    1    1    2  503  501  0.23901900676E+02 -0.80381491066E+01  0.40992679103E+02  0.48128083663E+02  0.00000000000E+00 0.  1.
         -4    1    1    2    0  502 -0.91424282688E+01  0.54240701896E+02  0.80739336071E+02  0.97695844978E+02  0.00000000000E+00 0.  1.
<scales pt_clust_5="13000.00000" pt_clust_6="13000.00000" pt_clust_7="13000.00000" pt_clust_8="13000.00000" pt_clust_9="25.21731" pt_clust_10="52.50987"></scales>
<clustering>
<clus scale="   25.217">  1  9  2 -1</clus>
<clus scale="   52.510">  2 10  1 -1</clus>
<clus scale="   80.917">  5  6 -1 -1</clus>
<clus scale="   82.413">  2  5  1 -1</clus>
<clus scale="   90.564">  7  8 -1 -1</clus>
<clus scale="   52.510">  2  5  1 -1</clus>
</clustering>
</event>
<event>
10    4  0.3403565E-005  0.1875390E+03  0.7546771E-02  0.1181162E+00
          2   -1    0    0  503    0 -0.00000000000E+00  0.00000000000E+00  0.10701404720E+04  0.10701404720E+04  0.00000000000E+00 0. -1.
         21   -1    0    0  501  502  0.00000000000E+00 -0.00000000000E+00 -0.93887607401E+02  0.93887607401E+02  0.00000000000E+00 0. -1.
         24    2    1    2    0    0 -0.70481151415E+02  0.54082153878E+02  0.13657525202E+03  0.18156441322E+03  0.80127177728E+02 0.  0.
         23    2    1    2    0    0 -0.15308820527E+03 -0.27798850642E+02  0.57306160166E+03  0.60080742923E+03  0.91439559451E+02 0.  0.
        -13    1    3    3    0    0  0.90428333494E+01  0.32871756133E+02  0.60717493959E+02  0.69634325293E+02  0.00000000000E+00 0.  1.
         14    1    3    3    0    0 -0.79523984765E+02  0.21210397745E+02  0.75857758056E+02  0.11193008792E+03  0.00000000000E+00 0. -1.
        -11    1    4    4    0    0 -0.14955979784E+03  0.18545755863E+01  0.45142516379E+03  0.47555888287E+03  0.00000000000E+00 0. -1.
         11    1    4    4    0    0 -0.35284074293E+01 -0.29653426228E+02  0.12163643788E+03  0.12524854636E+03  0.00000000000E+00 0.  1.
         21    1    1    2  503  502  0.86657676053E+02  0.63555851870E+02  0.84219165648E+02  0.13653485631E+03  0.00000000000E+00 0. -1.
          1    1    1    2  501    0  0.13691168063E+03 -0.89839155106E+02  0.18239684530E+03  0.24512138066E+03  0.00000000000E+00 0. -1.
<scales pt_clust_5="13000.00000" pt_clust_6="13000.00000" pt_clust_7="13000.00000" pt_clust_8="13000.00000" pt_clust_9="107.46580" pt_clust_10="163.73657"></scales>
<clustering>
<clus scale="   80.127">  5  6 -1 -1</clus>
<clus scale="   91.440">  7  8 -1 -1</clus>
<clus scale="  107.466">  2  9  1 -1</clus>
<clus scale="  117.528">  1  5  2 -1</clus>
<clus scale="  163.737">  2 10  1 -1</clus>
<clus scale="  107.466">  2  5  1 -1</clus>
</clustering>
</event>
<event>
10    4  0.3403565E-005  0.1621649E+03  0.7546771E-02  0.1187972E+00
          2   -1    0    0  502    0 -0.00000000000E+00  0.00000000000E+00  0.62494624662E+03  0.62494624662E+03  0.00000000000E+00 0. -1.
         21   -1    0    0  503  502  0.00000000000E+00 -0.00000000000E+00 -0.83990327167E+02  0.83990327167E+02  0.00000000000E+00 0.  1.
         23    2    1    2    0    0 -0.72200480548E+02  0.51421728909E+02  0.11217495374E+03  0.16957400880E+03  0.91186734880E+02 0.  0.
         24    2    1    2    0    0  0.13529470783E+03 -0.14116995565E+03  0.25592909049E+03  0.33187183536E+03  0.80035001112E+02 0.  0.
        -11    1    4    4    0    0  0.12628296840E+03 -0.15003280317E+03  0.22503933461E+03  0.29849611766E+03  0.00000000000E+00 0.  1.
         12    1    4    4    0    0  0.90117394237E+01  0.88628475239E+01  0.30889755884E+02  0.33375717704E+02  0.00000000000E+00 0. -1.
        -11    1    3    3    0    0 -0.33370944806E+02  0.62517066533E+02  0.27970153383E+02  0.76186173584E+02  0.00000000000E+00 0.  1.
         11    1    3    3    0    0 -0.38829535742E+02 -0.11095337624E+02  0.84204800356E+02  0.93387835213E+02  0.00000000000E+00 0. -1.
         21    1    1    2  503  501 -0.19004175863E+02  0.43686966710E+02  0.49910626082E+02  0.68998408361E+02  0.00000000000E+00 0.  1.
          1    1    1    2  501    0 -0.44090051414E+02  0.46061260030E+02  0.12294124914E+03  0.13849232126E+03  0.00000000000E+00 0. -1.
<scales pt_clust_5="13000.00000" pt_clust_6="13000.00000" pt_clust_7="13000.00000" pt_clust_8="13000.00000" pt_clust_9="29.17261" pt_clust_10="114.78086"></scales>
<clustering>
<clus scale="   29.173">  9 10 -1 -1</clus>
<clus scale="   80.035">  5  6 -1 -1</clus>
<clus scale="   91.187">  7  8 -1 -1</clus>
<clus scale="  114.781">  2  9  1 -1</clus>
<clus scale="  156.167">  2  5  1 -1</clus>
<clus scale="  114.781">  2  5  1 -1</clus>
</clustering>
</event>
<event>
10    4  0.3403565E-005  0.2220294E+03  0.7546771E-02  0.1132973E+00
         21   -1    0    0  501  502  0.00000000000E+00  0.00000000000E+00  0.58256001977E+02  0.58256001977E+02  0.00000000000E+00 0.  1.
          2   -1    0    0  503    0 -0.00000000000E+00 -0.00000000000E+00 -0.25987930021E+04  0.25987930021E+04  0.00000000000E+00 0. -1.
         24    2    1    2    0    0  0.12825089615E+03 -0.19077090395E+03 -0.13775693460E+04  0.13991872385E+04  0.84769070369E+02 0.  0.
         23    2    1    2    0    0  0.24905874764E+01  0.14849207140E+03 -0.23705327024E+03  0.29469816683E+03  0.92718166023E+02 0.  0.
        -11    1    3    3    0    0  0.74968203152E+01 -0.62374688075E+02 -0.24206934869E+03  0.25008873146E+03  0.00000000000E+00 0.  1.
         12    1    3    3    0    0  0.12075407583E+03 -0.12839621588E+03 -0.11354999973E+04  0.11490985070E+04  0.00000000000E+00 0. -1.
        -11    1    4    4    0    0 -0.87941463915E+01  0.11205447197E+03 -0.93626278418E+02  0.14628541181E+03  0.00000000000E+00 0.  1.
         11    1    4    4    0    0  0.11284733868E+02  0.36437599431E+02 -0.14342699182E+03  0.14841275502E+03  0.00000000000E+00 0. -1.
         21    1    1    2  503  502  0.22590821506E+01  0.28237692266E+02 -0.70353121496E+00  0.28336648935E+02  0.00000000000E+00 0.  1.
          1    1    1    2  501    0 -0.13300056578E+03  0.14041140287E+02 -0.92521085267E+03  0.93482694977E+03  0.00000000000E+00 0. -1.
<scales pt_clust_5="13000.00000" pt_clust_6="13000.00000" pt_clust_7="13000.00000" pt_clust_8="13000.00000" pt_clust_9="28.32791" pt_clust_10="133.85251"></scales>
<clustering>
<clus scale="   28.328">  1  9  2 -1</clus>
<clus scale="   84.769">  5  6 -1 -1</clus>
<clus scale="   92.718">  7  8 -1 -1</clus>
<clus scale="  133.853">  1 10  2 -1</clus>
<clus scale="  218.829">  2  5  1 -1</clus>
<clus scale="   28.328">  1  5  2 -1</clus>
</clustering>
</event>
<event>
10    4  0.3403565E-005  0.9218115E+02  0.7546771E-02  0.1309393E+00
          2   -1    0    0  503    0 -0.00000000000E+00  0.00000000000E+00  0.70668351963E+02  0.70668351963E+02  0.00000000000E+00 0. -1.
         21   -1    0    0  501  502  0.00000000000E+00 -0.00000000000E+00 -0.61901223861E+03  0.61901223861E+03  0.00000000000E+00 0.  1.
         23    2    1    2    0    0  0.86695104215E+01 -0.47265417201E+01  0.11134065383E+02  0.93067084700E+02  0.91869550097E+02 0.  0.
         24    2    1    2    0    0  0.15207738056E+02  0.64595877531E+01 -0.28811180820E+03  0.29790811688E+03  0.73944780090E+02 0.  0.
        -13    1    4    4    0    0  0.25019937317E+02  0.35161126609E+02 -0.20345377205E+03  0.20798014196E+03  0.00000000000E+00 0.  1.
         14    1    4    4    0    0 -0.98121992616E+01 -0.28701538856E+02 -0.84658036156E+02  0.89927974918E+02  0.00000000000E+00 0. -1.
        -13    1    3    3    0    0  0.25574125617E+02 -0.42853920821E+02  0.12093165544E+02  0.51349187760E+02  0.00000000000E+00 0. -1.
         13    1    3    3    0    0 -0.16904615195E+02  0.38127379100E+02 -0.95910016158E+00  0.41717896940E+02  0.00000000000E+00 0.  1.
         21    1    1    2  503  502 -0.17438258666E+02  0.39603056337E+02 -0.24600926231E+03  0.24978601258E+03  0.00000000000E+00 0.  1.
          1    1    1    2  501    0 -0.64389898106E+01 -0.41336102370E+02 -0.25356881507E+02  0.48919376413E+02  0.00000000000E+00 0. -1.
<scales pt_clust_5="13000.00000" pt_clust_6="13000.00000" pt_clust_7="13000.00000" pt_clust_8="13000.00000" pt_clust_9="29.84900" pt_clust_10="41.83462"></scales>
<clustering>
<clus scale="   41.835">  2 10  1 -1</clus>
<clus scale="   29.849">  2  9  1 -1</clus>
<clus scale="   73.945">  5  6 -1 -1</clus>
<clus scale="   74.332">  2  5  1 -1</clus>
<clus scale="   91.870">  7  8 -1 -1</clus>
<clus scale="   41.835">  2  5  1 -1</clus>
</clustering>
</event>
<event>
10    4  0.3403565E-005  0.2972816E+03  0.7546771E-02  0.1110139E+00
          2   -1    0    0  503    0 -0.00000000000E+00  0.00000000000E+00  0.53634934427E+03  0.53634934427E+03  0.00000000000E+00 0. -1.
         21   -1    0    0  501  502  0.00000000000E+00 -0.00000000000E+00 -0.88904734085E+03  0.88904734085E+03  0.00000000000E+00 0. -1.
         24    2    1    2    0    0 -0.12574064256E+03 -0.57899979472E+02  0.20456911710E+03  0.25937134706E+03  0.79131884776E+02 0.  0.
         23    2    1    2    0    0  0.31438774295E+03 -0.10082774960E+03 -0.60065470734E+02  0.34921114427E+03  0.96616119246E+02 0.  0.
        -11    1    3    3    0    0 -0.10175206673E+03 -0.12324597125E+02  0.10201626043E+03  0.14461222691E+03  0.00000000000E+00 0.  1.
         12    1    3    3    0    0 -0.23988575828E+02 -0.45575382346E+02  0.10255285667E+03  0.11475912015E+03  0.00000000000E+00 0. -1.
        -13    1    4    4    0    0  0.19153995623E+02 -0.57693894449E+01  0.20619532885E+02  0.28728496989E+02  0.00000000000E+00 0.  1.
         13    1    4    4    0    0  0.29523374733E+03 -0.95058360160E+02 -0.80685003618E+02  0.32048264728E+03  0.00000000000E+00 0. -1.
         21    1    1    2  503  502 -0.15917631397E+03  0.24061134597E+03 -0.60974329895E+03  0.67455007920E+03  0.00000000000E+00 0. -1.
          1    1    1    2  501    0 -0.29470786418E+02 -0.81883616890E+02  0.11254165600E+03  0.14226411460E+03  0.00000000000E+00 0. -1.
<scales pt_clust_5="13000.00000" pt_clust_6="13000.00000" pt_clust_7="13000.00000" pt_clust_8="13000.00000" pt_clust_9="281.14353" pt_clust_10="87.02564"></scales>
<clustering>
<clus scale="   79.132">  5  6 -1 -1</clus>
<clus scale="   87.026">  2 10  1 -1</clus>
<clus scale="   96.616">  7  8 -1 -1</clus>
<clus scale="  161.127">  1  5  2 -1</clus>
<clus scale="  281.144">  2  9  1 -1</clus>
<clus scale="   87.026">  2  5  1 -1</clus>
</clustering>
</event>
<event>
10    4  0.6029940E-005  0.2421782E+03  0.7546771E-02  0.1149816E+00
          2   -1    0    0  503    0 -0.00000000000E+00  0.00000000000E+00  0.18318342634E+04  0.18318342634E+04  0.00000000000E+00 0. -1.
         21   -1    0    0  501  502  0.00000000000E+00 -0.00000000000E+00 -0.10136106118E+03  0.10136106118E+03  0.00000000000E+00 0.  1.
         24    2    1    2    0    0  0.51469213515E+02  0.53373167565E+02  0.28860517955E+03  0.30920961480E+03  0.82582451332E+02 0.  0.
         23    2    1    2    0    0 -0.11965927945E+03  0.18459063114E+03  0.12207546957E+03  0.26831863284E+03  0.93276064433E+02 0.  0.
        -11    1    3    3    0    0  0.74290673372E+02  0.37850848201E+02  0.21836516594E+03  0.23374160210E+03  0.00000000000E+00 0.  1.
         12    1    3    3    0    0 -0.22821459857E+02  0.15522319363E+02  0.70240013610E+02  0.75468012697E+02  0.00000000000E+00 0. -1.
        -11    1    4    4    0    0 -0.77170006759E+02  0.17114353833E+03  0.71456424070E+02  0.20087643265E+03  0.00000000000E+00 0.  1.
         11    1    4    4    0    0 -0.42489272696E+02  0.13447092813E+02  0.50619045498E+02  0.67442200190E+02  0.00000000000E+00 0. -1.
         21    1    1    2  503  502  0.17616370594E+02  0.10884813845E+02  0.13043401204E+02  0.24473373293E+02  0.00000000000E+00 0. -1.
          1    1    1    2  501    0  0.50573695346E+02 -0.24884861255E+03  0.13067491519E+04  0.13311937036E+04  0.00000000000E+00 0. -1.
<scales pt_clust_5="13000.00000" pt_clust_6="13000.00000" pt_clust_7="13000.00000" pt_clust_8="13000.00000" pt_clust_9="20.70787" pt_clust_10="223.49479"></scales>
<clustering>
<clus scale="   20.708">  2  9  1 -1</clus>
<clus scale="   82.582">  5  6 -1 -1</clus>
<clus scale="   93.276">  7  8 -1 -1</clus>
<clus scale="  112.441">  1  5  2 -1</clus>
<clus scale="  223.495">  2 10  1 -1</clus>
<clus scale="   20.708">  2  5  1 -1</clus>
</clustering>
</event>
<event>
10    4  0.3403565E-005  0.1369044E+03  0.7546771E-02  0.1222031E+00
          2   -1    0    0  503    0 -0.00000000000E+00  0.00000000000E+00  0.16962371632E+03  0.16962371632E+03  0.00000000000E+00 0. -1.
         21   -1    0    0  501  502  0.00000000000E+00 -0.00000000000E+00 -0.62830457527E+03  0.62830457527E+03  0.00000000000E+00 0. -1.
         24    2    1    2    0    0  0.11037533372E+02 -0.91207461775E+02  0.90892425992E+02  0.15334883527E+03  0.82545768818E+02 0.  0.
         23    2    1    2    0    0  0.10751439502E+03  0.34004378756E+02 -0.37182326008E+03  0.39808807753E+03  0.86636815627E+02 0.  0.
        -11    1    3    3    0    0 -0.26304798225E+02 -0.12827884449E+02  0.23778800414E+01  0.29362413773E+02  0.00000000000E+00 0.  1.
         12    1    3    3    0    0  0.37342331596E+02 -0.78379577327E+02  0.88514545951E+02  0.12398642150E+03  0.00000000000E+00 0. -1.
        -11    1    4    4    0    0  0.97144753513E+02  0.57397936394E+02 -0.26094663528E+03  0.28429697976E+03  0.00000000000E+00 0. -1.
         11    1    4    4    0    0  0.10369641511E+02 -0.23393557639E+02 -0.11087662480E+03  0.11379109777E+03  0.00000000000E+00 0.  1.
         21    1    1    2  503  502 -0.96594283555E+01 -0.28968830934E+02 -0.44998675954E+02  0.54381785181E+02  0.00000000000E+00 0. -1.
          1    1    1    2  501    0 -0.10889250004E+03  0.86171913954E+02 -0.13275134891E+03  0.19210959361E+03  0.00000000000E+00 0. -1.
<scales pt_clust_5="13000.00000" pt_clust_6="13000.00000" pt_clust_7="13000.00000" pt_clust_8="13000.00000" pt_clust_9="30.53683" pt_clust_10="106.00418"></scales>
<clustering>
<clus scale="   30.537">  2  9  1 -1</clus>
<clus scale="   82.546">  5  6 -1 -1</clus>
<clus scale="   86.637">  7  8 -1 -1</clus>
<clus scale="  124.623">  1  5  2 -1</clus>
<clus scale="  106.004">  2 10  1 -1</clus>
<clus scale="   30.537">  2  5  1 -1</clus>
</clustering>
</event>
<event>
10    4  0.3403565E-005  0.1695282E+03  0.7546771E-02  0.1183348E+00
         21   -1    0    0  501  502  0.00000000000E+00  0.00000000000E+00  0.78525839984E+02  0.78525839984E+02  0.00000000000E+00 0. -1.
          2   -1    0    0  503    0 -0.00000000000E+00 -0.00000000000E+00 -0.12563201251E+04  0.12563201251E+04  0.00000000000E+00 0. -1.
         24    2    1    2    0    0  0.70554128926E+02 -0.11907315000E+03 -0.20526721317E+03  0.26207512314E+03  0.85979306832E+02 0.  0.
         23    2    1    2    0    0  0.99913152112E+02  0.55024535492E+02 -0.45578123170E+03  0.47851271134E+03  0.90705822690E+02 0.  0.
        -11    1    3    3    0    0  0.35048898230E+02 -0.38804048631E+02 -0.18071537414E+02  0.55324135075E+02  0.00000000000E+00 0.  1.
         12    1    3    3    0    0  0.35505230696E+02 -0.80269101371E+02 -0.18719567576E+03  0.20675098806E+03  0.00000000000E+00 0. -1.
        -13    1    4    4    0    0  0.86885394420E+02  0.76635302156E+02 -0.31815210666E+03  0.33858943320E+03  0.00000000000E+00 0. -1.
         13    1    4    4    0    0  0.13027757692E+02 -0.21610766664E+02 -0.13762912504E+03  0.13992327814E+03  0.00000000000E+00 0.  1.
         21    1    1    2  503  502  0.16287963552E+02  0.44343258949E+02 -0.30793301283E+01  0.47340306768E+02  0.00000000000E+00 0.  1.
          1    1    1    2  501    0 -0.18675524459E+03  0.19705355561E+02 -0.51366651008E+03  0.54691782380E+03  0.00000000000E+00 0. -1.
<scales pt_clust_5="13000.00000" pt_clust_6="13000.00000" pt_clust_7="13000.00000" pt_clust_8="13000.00000" pt_clust_9="47.24005" pt_clust_10="143.22115"></scales>
<clustering>
<clus scale="   47.240">  1  9  2 -1</clus>
<clus scale="   85.979">  5  6 -1 -1</clus>
<clus scale="   90.706">  7  8 -1 -1</clus>
<clus scale="  151.505">  2  5  1 -1</clus>
<clus scale="  143.221">  1 10  2 -1</clus>
<clus scale="   47.240">  1  5  2 -1</clus>
</clustering>
</event>
<event>
10    4  0.3403565E-005  0.1771967E+03  0.7546771E-02  0.1171743E+00
         21   -1    0    0  501  502  0.00000000000E+00  0.00000000000E+00  0.90540309085E+02  0.90540309085E+02  0.00000000000E+00 0.  1.
          4   -1    0    0  503    0 -0.00000000000E+00 -0.00000000000E+00 -0.64067688410E+03  0.64067688410E+03  0.00000000000E+00 0. -1.
         23    2    1    2    0    0  0.15269447872E+03  0.31861474341E+02 -0.35186030004E+03  0.39574164217E+03  0.92059867622E+02 0.  0.
         24    2    1    2    0    0 -0.14294801952E+03 -0.27266911703E+02 -0.21942271842E+03  0.27591051929E+03  0.82478267065E+02 0.  0.
        -13    1    4    4    0    0 -0.87943060140E+02 -0.56898975971E+02 -0.14066972468E+03  0.17538371285E+03  0.00000000000E+00 0.  1.
         14    1    4    4    0    0 -0.55004959378E+02  0.29632064268E+02 -0.78752993743E+02  0.10052680644E+03  0.00000000000E+00 0. -1.
        -13    1    3    3    0    0  0.55207428304E+02  0.44121721692E+02 -0.22149156216E+03  0.23249322263E+03  0.00000000000E+00 0. -1.
         13    1    3    3    0    0  0.97487050418E+02 -0.12260247351E+02 -0.13036873789E+03  0.16324841954E+03  0.00000000000E+00 0.  1.
         21    1    1    2  503  502  0.13439989059E+02  0.18341638940E+02  0.55125551839E+01  0.23397377835E+02  0.00000000000E+00 0.  1.
          3    1    1    2  501    0 -0.23186448263E+02 -0.22936201577E+02  0.15633888257E+02  0.36167653890E+02  0.00000000000E+00 0. -1.
<scales pt_clust_5="13000.00000" pt_clust_6="13000.00000" pt_clust_7="13000.00000" pt_clust_8="13000.00000" pt_clust_9="22.73871" pt_clust_10="25.00028"></scales>
<clustering>
<clus scale="   22.739">  1  9  2 -1</clus>
<clus scale="   25.000">  1 10  2 -1</clus>
<clus scale="   82.478">  5  6 -1 -1</clus>
<clus scale="   92.060">  7  8 -1 -1</clus>
<clus scale="  172.413">  1  5  2 -1</clus>
<clus scale="   22.739">  1  5  2 -1</clus>
</clustering>
</event>
<event>
10    4  0.3403565E-005  0.1847838E+03  0.7546771E-02  0.1199402E+00
         21   -1    0    0  503  502  0.00000000000E+00  0.00000000000E+00  0.27542364605E+03  0.27542364605E+03  0.00000000000E+00 0. -1.
          2   -1    0    0  502    0 -0.00000000000E+00 -0.00000000000E+00 -0.55827388895E+03  0.55827388895E+03  0.00000000000E+00 0. -1.
         24    2    1    2    0    0 -0.80254890369E+00 -0.10110064337E+02 -0.28126874458E+03  0.29299599590E+03  0.81435185577E+02 0.  0.
         23    2    1    2    0    0  0.62729954447E+02  0.16253163691E+03 -0.83791210861E+00  0.19706731614E+03  0.92104531981E+02 0.  0.
        -11    1    3    3    0    0 -0.15620267892E+02 -0.42367151604E+02 -0.13003153131E+03  0.13764871026E+03  0.00000000000E+00 0.  1.
         12    1    3    3    0    0  0.14817718988E+02  0.32257087266E+02 -0.15123721328E+03  0.15534728564E+03  0.00000000000E+00 0. -1.
        -13    1    4    4    0    0  0.64052277449E+02  0.13481777057E+03  0.33447670647E+02  0.15296166899E+03  0.00000000000E+00 0. -1.
         13    1    4    4    0    0 -0.13223230020E+01  0.27713866339E+02 -0.34285582755E+02  0.44105647149E+02  0.00000000000E+00 0.  1.
         21    1    1    2  503  501 -0.18396847548E+02 -0.90382463378E+01  0.13794367726E+03  0.13945820877E+03  0.00000000000E+00 0. -1.
          1    1    1    2  501    0 -0.43530557995E+02 -0.14338332623E+03 -0.13868726347E+03  0.20417601419E+03  0.00000000000E+00 0. -1.
<scales pt_clust_5="13000.00000" pt_clust_6="13000.00000" pt_clust_7="13000.00000" pt_clust_8="13000.00000" pt_clust_9="20.49717" pt_clust_10="160.19314"></scales>
<clustering>
<clus scale="   20.497">  1  9  2 -1</clus>
<clus scale="   81.435">  5  6 -1 -1</clus>
<clus scale="   82.124">  2  5  1 -1</clus>
<clus scale="   92.105">  7  8 -1 -1</clus>
<clus scale="  160.193">  1 10  2 -1</clus>
<clus scale="   20.497">  1  5  2 -1</clus>
</clustering>
</event>
<event>
10    4  0.3657007E-005  0.1206727E+03  0.7546771E-02  0.1259588E+00
          2   -1    0    0  503    0 -0.00000000000E+00  0.00000000000E+00  0.94826892882E+03  0.94826892882E+03  0.00000000000E+00 0. -1.
         21   -1    0    0  501  502  0.00000000000E+00 -0.00000000000E+00 -0.17159545900E+03  0.17159545900E+03  0.00000000000E+00 0. -1.
         24    2    1    2    0    0 -0.21412728277E+02  0.66573438673E+01  0.75706320176E+03  0.76180764297E+03  0.81874100108E+02 0.  0.
         23    2    1    2    0    0 -0.24679660305E+02  0.67176961632E+02  0.14051353382E+03  0.17813849140E+03  0.82870013426E+02 0.  0.
        -13    1    3    3    0    0 -0.24359656258E+02 -0.14271645232E+01  0.61116145114E+02  0.65807392025E+02  0.00000000000E+00 0.  1.
         14    1    3    3    0    0  0.29469279815E+01  0.80845083905E+01  0.69594705665E+03  0.69600025095E+03  0.00000000000E+00 0. -1.
        -11    1    4    4    0    0 -0.16186629524E+02 -0.14570906859E+02  0.10145614248E+02  0.24026064816E+02  0.00000000000E+00 0.  1.
         11    1    4    4    0    0 -0.84930307806E+01  0.81747868491E+02  0.13036791957E+03  0.15411242659E+03  0.00000000000E+00 0. -1.
         21    1    1    2  503  502 -0.81254545539E+01  0.18960099279E+02 -0.38032622354E+01  0.20975537658E+02  0.00000000000E+00 0. -1.
          1    1    1    2  501    0  0.54217843135E+02 -0.92794404778E+02 -0.11710000353E+03  0.15894271578E+03  0.00000000000E+00 0. -1.
<scales pt_clust_5="13000.00000" pt_clust_6="13000.00000" pt_clust_7="13000.00000" pt_clust_8="13000.00000" pt_clust_9="20.62785" pt_clust_10="87.71805"></scales>
<clustering>
<clus scale="   20.628">  2  9  1 -1</clus>
<clus scale="   81.874">  5  6 -1 -1</clus>
<clus scale="   82.870">  7  8 -1 -1</clus>
<clus scale="   84.943">  1  5  2 -1</clus>
<clus scale="   87.718">  2 10  1 -1</clus>
<clus scale="   20.628">  2  5  1 -1</clus>
</clustering>
</event>
<event>
10    4  0.3403565E-005  0.1216977E+03  0.7546771E-02  0.1243246E+00
         21   -1    0    0  501  502  0.00000000000E+00  0.00000000000E+00  0.70481099173E+02  0.70481099173E+02  0.00000000000E+00 0. -1.
          2   -1    0    0  503    0 -0.00000000000E+00 -0.00000000000E+00 -0.62924973490E+03  0.62924973490E+03  0.00000000000E+00 0. -1.
         23    2    1    2    0    0  0.82341431158E+02  0.27747087828E+02 -0.53487687590E+03  0.54955451031E+03  0.91470625129E+02 0.  0.
         24    2    1    2    0    0 -0.39892587972E+02 -0.79079646713E+01 -0.30140747874E+01  0.91521877648E+02  0.81934211176E+02 0.  0.
        -11    1    4    4    0    0 -0.59280339209E+02  0.13135741489E+02 -0.11239462932E+02  0.61749751807E+02  0.00000000000E+00 0.  1.
         12    1    4    4    0    0  0.19387751236E+02 -0.21043706161E+02  0.82253881448E+01  0.29772125841E+02  0.00000000000E+00 0. -1.
        -11    1    3    3    0    0  0.25578331843E+02  0.53896213326E+02 -0.33030201783E+03  0.33564635534E+03  0.00000000000E+00 0. -1.
         11    1    3    3    0    0  0.56763099315E+02 -0.26149125498E+02 -0.20457485807E+03  0.21390815497E+03  0.00000000000E+00 0.  1.
         21    1    1    2  503  502 -0.16881445324E+02 -0.13080644834E+02  0.46956872565E+01  0.21866319862E+02  0.00000000000E+00 0. -1.
          1    1    1    2  501    0 -0.25567397862E+02 -0.67584783223E+01 -0.25573372296E+02  0.36788126254E+02  0.00000000000E+00 0. -1.
<scales pt_clust_5="13000.00000" pt_clust_6="13000.00000" pt_clust_7="13000.00000" pt_clust_8="13000.00000" pt_clust_9="21.35618" pt_clust_10="28.38499"></scales>
<clustering>
<clus scale="   21.356">  1  9  2 -1</clus>
<clus scale="   28.385">  1 10  2 -1</clus>
<clus scale="   81.934">  5  6 -1 -1</clus>
<clus scale="   91.471">  7  8 -1 -1</clus>
<clus scale="  114.703">  1  5  2 -1</clus>
<clus scale="   21.356">  1  5  2 -1</clus>
</clustering>
</event>
<event>
10    4  0.3403565E-005  0.9595300E+02  0.7546771E-02  0.1294181E+00
          2   -1    0    0  503    0 -0.00000000000E+00  0.00000000000E+00  0.39817736771E+03  0.39817736771E+03  0.00000000000E+00 0. -1.
         21   -1    0    0  501  502  0.00000000000E+00 -0.00000000000E+00 -0.71653723406E+02  0.71653723406E+02  0.00000000000E+00 0. -1.
         24    2    1    2    0    0  0.27983792608E+02 -0.20075545943E+02  0.28276733188E+03  0.29594453866E+03  0.80247652843E+02 0.  0.
         23    2    1    2    0    0 -0.23812485474E+02  0.20928495839E+02  0.12127374307E+02  0.95915088743E+02  0.89708386667E+02 0.  0.
        -13    1    3    3    0    0 -0.45287277245E+01 -0.20318702098E+02  0.13702145736E+02  0.24922034980E+02  0.00000000000E+00 0.  1.
         14    1    3    3    0    0  0.32512520333E+02  0.24315615521E+00  0.26906518615E+03  0.27102250368E+03  0.00000000000E+00 0. -1.
        -13    1    4    4    0    0  0.26933681673E+02  0.18763763360E+02 -0.17412176215E+02  0.37157582058E+02  0.00000000000E+00 0. -1.
         13    1    4    4    0    0 -0.50746167146E+02  0.21647324794E+01  0.29539550522E+02  0.58757506684E+02  0.00000000000E+00 0.  1.
         21    1    1    2  503  502 -0.15908408029E+02  0.23049228182E+02 -0.89799612899E+01  0.29410611530E+02  0.00000000000E+00 0. -1.
          1    1    1    2  501    0  0.11737100894E+02 -0.23902178079E+02  0.40608899408E+02  0.48560852190E+02  0.00000000000E+00 0. -1.
<scales pt_clust_5="13000.00000" pt_clust_6="13000.00000" pt_clust_7="13000.00000" pt_clust_8="13000.00000" pt_clust_9="20.56580" pt_clust_10="26.62845"></scales>
<clustering>
<clus scale="   26.628">  2 10  1 -1</clus>
<clus scale="   20.566">  2  9  1 -1</clus>
<clus scale="   80.248">  5  6 -1 -1</clus>
<clus scale="   87.173">  1  5  2 -1</clus>
<clus scale="   89.708">  7  8 -1 -1</clus>
<clus scale="   26.628">  2  5  1 -1</clus>
</clustering>
</event>
<event>
10    4  0.3403565E-005  0.2420007E+03  0.7546771E-02  0.1158216E+00
         21   -1    0    0  503  502  0.00000000000E+00  0.00000000000E+00  0.34103206685E+03  0.34103206685E+03  0.00000000000E+00 0. -1.
          2   -1    0    0  502    0 -0.00000000000E+00 -0.00000000000E+00 -0.18086912282E+04  0.18086912282E+04  0.00000000000E+00 0. -1.
         23    2    1    2    0    0 -0.44961526395E+02  0.18862454900E+00 -0.32780271382E+01  0.10264890702E+03  0.92219727909E+02 0.  0.
         24    2    1    2    0    0 -0.93223559435E+02  0.21605203277E+03 -0.84932970210E+03  0.88562947551E+03  0.87232517568E+02 0.  0.
        -13    1    4    4    0    0  0.10421661472E+02  0.67937441598E+02 -0.19367610039E+03  0.20551043492E+03  0.00000000000E+00 0.  1.
         14    1    4    4    0    0 -0.10364522091E+03  0.14811459117E+03 -0.65565360171E+03  0.68011904059E+03  0.00000000000E+00 0. -1.
        -11    1    3    3    0    0 -0.34913039876E+00 -0.24302038968E+02 -0.35050514587E+02  0.42652661849E+02  0.00000000000E+00 0. -1.
         11    1    3    3    0    0 -0.44612395996E+02  0.24490663517E+02  0.31772487448E+02  0.59996245171E+02  0.00000000000E+00 0.  1.
         21    1    1    2  503  501  0.67434757533E+02 -0.98689887599E+01  0.25526247856E+03  0.26420404316E+03  0.00000000000E+00 0. -1.
          1    1    1    2  501    0  0.70750328296E+02 -0.20637166856E+03 -0.87031391071E+03  0.89724086939E+03  0.00000000000E+00 0. -1.
<scales pt_clust_5="13000.00000" pt_clust_6="13000.00000" pt_clust_7="13000.00000" pt_clust_8="13000.00000" pt_clust_9="68.15309" pt_clust_10="225.73189"></scales>
<clustering>
<clus scale="   68.153">  1  9  2 -1</clus>
<clus scale="   87.233">  5  6 -1 -1</clus>
<clus scale="   92.220">  7  8 -1 -1</clus>
<clus scale="   92.481">  2  7  1 -1</clus>
<clus scale="  225.732">  1 10  2 -1</clus>
<clus scale="   68.153">  1  5  2 -1</clus>
</clustering>
</event>
<event>
10    4  0.3403565E-005  0.2474527E+03  0.7546771E-02  0.1114925E+00
         -1   -1    0    0    0  501 -0.00000000000E+00  0.00000000000E+00  0.10509334398E+04  0.10509334398E+04  0.00000000000E+00 0.  1.
         21   -1    0    0  501  502  0.00000000000E+00 -0.00000000000E+00 -0.24862011611E+03  0.24862011611E+03  0.00000000000E+00 0.  1.
         24    2    1    2    0    0 -0.28810496014E+02  0.72567797934E+02  0.32981894110E+03  0.34835693716E+03  0.80472925752E+02 0.  0.
         23    2    1    2    0    0 -0.60397102660E+02  0.36683967112E+02  0.30685316258E+03  0.32812085540E+03  0.92254587463E+02 0.  0.
        -13    1    3    3    0    0 -0.37003174798E+02  0.55925867209E+02  0.11797157713E+03  0.13569904413E+03  0.00000000000E+00 0.  1.
         14    1    3    3    0    0  0.81926787841E+01  0.16641930726E+02  0.21184736397E+03  0.21265789303E+03  0.00000000000E+00 0. -1.
        -13    1    4    4    0    0 -0.81982712958E+02  0.37135621135E+02  0.27716958302E+03  0.29141584949E+03  0.00000000000E+00 0. -1.
         13    1    4    4    0    0  0.21585610298E+02 -0.45165402306E+00  0.29683579564E+02  0.36705005913E+02  0.00000000000E+00 0.  1.
         21    1    1    2  503  502 -0.52840704250E+02  0.47992038764E+02 -0.19340727078E+03  0.20615952125E+03  0.00000000000E+00 0.  1.
         -2    1    1    2    0  503  0.14204830292E+03 -0.15724380381E+03  0.35904849081E+03  0.41691624214E+03  0.00000000000E+00 0.  1.
<scales pt_clust_5="13000.00000" pt_clust_6="13000.00000" pt_clust_7="13000.00000" pt_clust_8="13000.00000" pt_clust_9="71.38190" pt_clust_10="169.87039"></scales>
<clustering>
<clus scale="   71.382">  2  9  1 -1</clus>
<clus scale="   80.473">  5  6 -1 -1</clus>
<clus scale="   92.255">  7  8 -1 -1</clus>
<clus scale="  103.583">  5  7 -1 -1</clus>
<clus scale="  169.870">  2 10  1 -1</clus>
<clus scale="   71.382">  2  5  1 -1</clus>
</clustering>
</event>
<event>
10    4  0.3403565E-005  0.2556863E+03  0.7546771E-02  0.1110310E+00
          2   -1    0    0  503    0 -0.00000000000E+00  0.00000000000E+00  0.53081701739E+03  0.53081701739E+03  0.00000000000E+00 0. -1.
         21   -1    0    0  501  502  0.00000000000E+00 -0.00000000000E+00 -0.21099436327E+03  0.21099436327E+03  0.00000000000E+00 0.  1.
         24    2    1    2    0    0 -0.43294487554E+02  0.22298184460E+03  0.12553479860E+03  0.27170199871E+03  0.80421855023E+02 0.  0.
         23    2    1    2    0    0  0.31191794695E+02 -0.25289481733E+03  0.95417611536E+02  0.28687384862E+03  0.90903067843E+02 0.  0.
        -11    1    3    3    0    0  0.71109680267E+00  0.17668090544E+03  0.85159774869E+02  0.19613473752E+03  0.00000000000E+00 0.  1.
         12    1    3    3    0    0 -0.44005584356E+02  0.46300939165E+02  0.40375023734E+02  0.75567261189E+02  0.00000000000E+00 0. -1.
        -13    1    4    4    0    0 -0.12168178285E+02 -0.19281919963E+03  0.48563648516E+02  0.19921279142E+03  0.00000000000E+00 0.  1.
         13    1    4    4    0    0  0.43359972979E+02 -0.60075617698E+02  0.46853963020E+02  0.87661057199E+02  0.00000000000E+00 0. -1.
         21    1    1    2  503  502 -0.64674254365E+02  0.10946346485E+02  0.13699264952E+02  0.67009339194E+02  0.00000000000E+00 0. -1.
          1    1    1    2  501    0  0.76776947224E+02  0.18966626239E+02  0.85170979029E+02  0.11622619414E+03  0.00000000000E+00 0. -1.
<scales pt_clust_5="13000.00000" pt_clust_6="13000.00000" pt_clust_7="13000.00000" pt_clust_8="13000.00000" pt_clust_9="65.59407" pt_clust_10="74.05010"></scales>
<clustering>
<clus scale="   65.594">  2  9  1 -1</clus>
<clus scale="   74.050">  2 10  1 -1</clus>
<clus scale="   80.422">  5  6 -1 -1</clus>
<clus scale="   90.903">  7  8 -1 -1</clus>
<clus scale="  252.150">  1  5  2 -1</clus>
<clus scale="   65.594">  2  5  1 -1</clus>
</clustering>
</event>
<event>
10    4  0.3403565E-005  0.1281764E+03  0.7546771E-02  0.1232184E+00
         21   -1    0    0  503  502  0.00000000000E+00  0.00000000000E+00  0.36562994396E+03  0.36562994396E+03  0.00000000000E+00 0.  1.
          2   -1    0    0  502    0 -0.00000000000E+00 -0.00000000000E+00 -0.19463032613E+03  0.19463032613E+03  0.00000000000E+00 0. -1.
         24    2    1    2    0    0 -0.35397121719E+01 -0.94235824860E+02 -0.12457795449E+03  0.17527037925E+03  0.79417371202E+02 0.  0.
         23    2    1    2    0    0 -0.88688288662E+00  0.92438075443E+02  0.71623377216E+02  0.14587978577E+03  0.87209055607E+02 0.  0.
        -13    1    3    3    0    0  0.31639135733E+02 -0.33028429132E+02 -0.22017148326E+02  0.50760879241E+02  0.00000000000E+00 0.  1.
         14    1    3    3    0    0 -0.35178847905E+02 -0.61207395728E+02 -0.10256080617E+03  0.12450950001E+03  0.00000000000E+00 0. -1.
        -13    1    4    4    0    0 -0.29617747650E+02  0.57940821073E+02  0.76830731318E+02  0.10068421424E+03  0.00000000000E+00 0.  1.
         13    1    4    4    0    0  0.28730864764E+02  0.34497254370E+02 -0.52073541021E+01  0.45195571529E+02  0.00000000000E+00 0. -1.
         21    1    1    2  503  501 -0.17626910175E+02 -0.29527613971E+02  0.16677492030E+03  0.17028347539E+03  0.00000000000E+00 0.  1.
          1    1    1    2  501    0  0.22053505233E+02  0.31325363388E+02  0.57179274813E+02  0.68826629677E+02  0.00000000000E+00 0. -1.
<scales pt_clust_5="13000.00000" pt_clust_6="13000.00000" pt_clust_7="13000.00000" pt_clust_8="13000.00000" pt_clust_9="34.38878" pt_clust_10="27.36098"></scales>
<clustering>
<clus scale="   34.389">  1  9  2 -1</clus>
<clus scale="   27.361">  1 10  2 -1</clus>
<clus scale="   79.417">  5  6 -1 -1</clus>
<clus scale="   87.209">  7  8 -1 -1</clus>
<clus scale="  123.008">  2  5  1 -1</clus>
<clus scale="   34.389">  1  5  2 -1</clus>
</clustering>
</event>
<event>
10    4  0.3403565E-005  0.1706866E+03  0.7546771E-02  0.1200433E+00
          2   -1    0    0  502    0 -0.00000000000E+00  0.00000000000E+00  0.32854790798E+03  0.32854790798E+03  0.00000000000E+00 0. -1.
         21   -1    0    0  503  502  0.00000000000E+00 -0.00000000000E+00 -0.29714902779E+03  0.29714902779E+03  0.00000000000E+00 0.  1.
         23    2    1    2    0    0 -0.73163365836E+01 -0.47345875302E+02 -0.43433510045E+02  0.10992562101E+03  0.88893259989E+02 0.  0.
         24    2    1    2    0    0 -0.12109369112E+03 -0.31259566615E+01  0.15165746806E+03  0.21229972183E+03  0.86010061242E+02 0.  0.
        -11    1    4    4    0    0 -0.92040691603E+02 -0.34995305794E+02  0.13257128836E+03  0.16514026413E+03  0.00000000000E+00 0.  1.
         12    1    4    4    0    0 -0.29052999519E+02  0.31869349133E+02  0.19086179703E+02  0.47159457703E+02  0.00000000000E+00 0. -1.
        -11    1    3    3    0    0 -0.26072514440E+02  0.96076081136E+01  0.10078328157E+02  0.29557652839E+02  0.00000000000E+00 0. -1.
         11    1    3    3    0    0  0.18756177856E+02 -0.56953483416E+02 -0.53511838202E+02  0.80367968176E+02  0.00000000000E+00 0.  1.
         21    1    1    2  503  501 -0.38553960219E+02  0.87870764286E+01 -0.11975014801E+03  0.12610994611E+03  0.00000000000E+00 0.  1.
          1    1    1    2  501    0  0.16696398792E+03  0.41684755535E+02  0.42925070186E+02  0.17736164681E+03  0.00000000000E+00 0. -1.
<scales pt_clust_5="13000.00000" pt_clust_6="13000.00000" pt_clust_7="13000.00000" pt_clust_8="13000.00000" pt_clust_9="39.54264" pt_clust_10="147.43200"></scales>
<clustering>
<clus scale="   39.543">  2  9  1 -1</clus>
<clus scale="   86.010">  5  6 -1 -1</clus>
<clus scale="   88.893">  7  8 -1 -1</clus>
<clus scale="  101.893">  1  7  2 -1</clus>
<clus scale="  147.432">  2 10  1 -1</clus>
<clus scale="   39.543">  2  5  1 -1</clus>
</clustering>
</event>
<event>
10    4  0.3403565E-005  0.1423326E+03  0.7546771E-02  0.1229776E+00
         21   -1    0    0  503  502  0.00000000000E+00  0.00000000000E+00  0.92325714431E+02  0.92325714431E+02  0.00000000000E+00 0.  1.
          2   -1    0    0  502    0 -0.00000000000E+00 -0.00000000000E+00 -0.70673694861E+03  0.70673694861E+03  0.00000000000E+00 0. -1.
         24    2    1    2    0    0  0.45044704265E+02  0.61058686568E+01 -0.16273712882E+03  0.18736771833E+03  0.80975192251E+02 0.  0.
         23    2    1    2    0    0  0.42240709485E+02  0.11062390403E+03 -0.54357575902E+02  0.15937392688E+03  0.91778956359E+02 0.  0.
        -11    1    3    3    0    0 -0.19924198060E+02  0.76105349904E+01 -0.15314280657E+02  0.26256829649E+02  0.00000000000E+00 0.  1.
         12    1    3    3    0    0  0.64968902325E+02 -0.15046663336E+01 -0.14742284817E+03  0.16111088868E+03  0.00000000000E+00 0. -1.
        -11    1    4    4    0    0  0.39188882258E+02  0.66397635521E+00 -0.80003232536E+01  0.40002681527E+02  0.00000000000E+00 0. -1.
         11    1    4    4    0    0  0.30518272275E+01  0.10995992768E+03 -0.46357252649E+02  0.11937124536E+03  0.00000000000E+00 0.  1.
         21    1    1    2  503  501  0.21640644304E+02 -0.37292306058E+02 -0.12983936081E+02  0.45029059209E+02  0.00000000000E+00 0. -1.
          1    1    1    2  501    0 -0.10892605805E+03 -0.79437466632E+02 -0.38433259337E+03  0.40729195862E+03  0.00000000000E+00 0. -1.
<scales pt_clust_5="13000.00000" pt_clust_6="13000.00000" pt_clust_7="13000.00000" pt_clust_8="13000.00000" pt_clust_9="43.11651" pt_clust_10="108.78968"></scales>
<clustering>
<clus scale="   43.117">  1  9  2 -1</clus>
<clus scale="   80.975">  5  6 -1 -1</clus>
<clus scale="   91.779">  7  8 -1 -1</clus>
<clus scale="   94.408">  2  5  1 -1</clus>
<clus scale="  108.790">  1 10  2 -1</clus>
<clus scale="   43.117">  1  5  2 -1</clus>
</clustering>
</event>
<event>
10    4  0.3403565E-005  0.1465559E+03  0.7546771E-02  0.1206786E+00
         -1   -1    0    0    0  501 -0.00000000000E+00  0.00000000000E+00  0.70573957866E+03  0.70573957866E+03  0.00000000000E+00 0.  1.
         21   -1    0    0  501  502  0.00000000000E+00 -0.00000000000E+00 -0.18217444340E+03  0.18217444340E+03  0.00000000000E+00 0.  1.
         23    2    1    2    0    0  0.32466734459E+01  0.10575740625E+03  0.31595018499E+02  0.14371353369E+03  0.91979153646E+02 0.  0.
         24    2    1    2    0    0  0.10655112951E+03 -0.80577646852E+01 -0.60815717147E+02  0.14704945540E+03  0.80665482762E+02 0.  0.
        -11    1    4    4    0    0  0.10296412248E+03  0.15633873138E+02 -0.64944446400E+02  0.12273471239E+03  0.00000000000E+00 0.  1.
         12    1    4    4    0    0  0.35870070266E+01 -0.23691637823E+02  0.41287292534E+01  0.24314743005E+02  0.00000000000E+00 0. -1.
        -13    1    3    3    0    0  0.34324110258E+02  0.55880730851E+01  0.24621928907E+01  0.34863067846E+02  0.00000000000E+00 0. -1.
         13    1    3    3    0    0 -0.31077436813E+02  0.10016933316E+03  0.29132825609E+02  0.10885046584E+03  0.00000000000E+00 0.  1.
         21    1    1    2  503  502  0.24333013832E+02 -0.10907621804E+01  0.48650152005E+01  0.24838552638E+02  0.00000000000E+00 0.  1.
         -2    1    1    2    0  503 -0.13413081678E+03 -0.96608879384E+02  0.54792081870E+03  0.57231248034E+03  0.00000000000E+00 0.  1.
<scales pt_clust_5="13000.00000" pt_clust_6="13000.00000" pt_clust_7="13000.00000" pt_clust_8="13000.00000" pt_clust_9="24.35745" pt_clust_10="122.35896"></scales>
<clustering>
<clus scale="   24.357">  2  9  1 -1</clus>
<clus scale="   80.665">  5  6 -1 -1</clus>
<clus scale="   91.979">  7  8 -1 -1</clus>
<clus scale="  140.337">  1  7  2 -1</clus>
<clus scale="  122.359">  2 10  1 -1</clus>
<clus scale="   24.357">  2  5  1 -1</clus>
</clustering>
</event>
<event>
10    4  0.3403565E-005  0.1200658E+03  0.7546771E-02  0.1244604E+00
         21   -1    0    0  501  502  0.00000000000E+00  0.00000000000E+00  0.59052212013E+03  0.59052212013E+03  0.00000000000E+00 0. -1.
          2   -1    0    0  503    0 -0.00000000000E+00 -0.00000000000E+00 -0.50178043332E+02  0.50178043332E+02  0.00000000000E+00 0. -1.
         23    2    1    2    0    0  0.84922304140E+02  0.40580493769E+02  0.10838651912E+03  0.16679198240E+03  0.84931464424E+02 0.  0.
         24    2    1    2    0    0 -0.39836488442E+02 -0.58865743787E+02  0.30660193537E+03  0.32459199331E+03  0.79392025737E+02 0.  0.
        -11    1    4    4    0    0 -0.88111433169E+01 -0.70206212289E+02  0.24054907521E+03  0.25073971779E+03  0.00000000000E+00 0.  1.
         12    1    4    4    0    0 -0.31025345125E+02  0.11340468503E+02  0.66052860152E+02  0.73852275525E+02  0.00000000000E+00 0. -1.
        -13    1    3    3    0    0  0.32073883093E+01  0.38663394713E+02  0.12423505856E+02  0.40736825210E+02  0.00000000000E+00 0.  1.
         13    1    3    3    0    0  0.81714915831E+02  0.19170990567E+01  0.95963013266E+02  0.12605515719E+03  0.00000000000E+00 0. -1.
         21    1    1    2  503  502 -0.14207644280E+02  0.34624108793E+02  0.98132950866E+02  0.10502743504E+03  0.00000000000E+00 0. -1.
          1    1    1    2  501    0 -0.30878171418E+02 -0.16338858776E+02  0.27222671447E+02  0.44288752713E+02  0.00000000000E+00 0. -1.
<scales pt_clust_5="13000.00000" pt_clust_6="13000.00000" pt_clust_7="13000.00000" pt_clust_8="13000.00000" pt_clust_9="37.35091" pt_clust_10="34.93452"></scales>
<clustering>
<clus scale="   34.935">  1 10  2 -1</clus>
<clus scale="   37.351">  1  9  2 -1</clus>
<clus scale="   79.392">  5  6 -1 -1</clus>
<clus scale="   84.931">  7  8 -1 -1</clus>
<clus scale="  116.213">  1  5  2 -1</clus>
<clus scale="   34.935">  1  5  2 -1</clus>
</clustering>
</event>
<event>
10    4  0.3403565E-005  0.1069583E+03  0.7546771E-02  0.1268730E+00
         21   -1    0    0  501  502  0.00000000000E+00  0.00000000000E+00  0.89870550668E+02  0.89870550668E+02  0.00000000000E+00 0.  1.
          2   -1    0    0  503    0 -0.00000000000E+00 -0.00000000000E+00 -0.48894437374E+03  0.48894437374E+03  0.00000000000E+00 0. -1.
         24    2    1    2    0    0 -0.17027804823E+02  0.63830327336E+02 -0.22889306819E+03  0.25309831334E+03  0.85454448253E+02 0.  0.
         23    2    1    2    0    0 -0.64483214588E+02 -0.20860244262E+02 -0.95452855961E+01  0.11407604995E+03  0.91263343907E+02 0.  0.
        -13    1    3    3    0    0 -0.29523475814E+02  0.24997465752E+01 -0.21886407651E+02  0.36836112675E+02  0.00000000000E+00 0.  1.
         14    1    3    3    0    0  0.12495670992E+02  0.61330580761E+02 -0.20700666054E+03  0.21626220066E+03  0.00000000000E+00 0. -1.
        -13    1    4    4    0    0 -0.55051500494E+02  0.26166535685E+02  0.10928701785E+02  0.61925695952E+02  0.00000000000E+00 0.  1.
         13    1    4    4    0    0 -0.94317140935E+01 -0.47026779947E+02 -0.20473987381E+02  0.52150353999E+02  0.00000000000E+00 0. -1.
         21    1    1    2  503  502  0.46489011522E+02 -0.50994800655E+02 -0.28417052651E+02  0.74627252177E+02  0.00000000000E+00 0.  1.
          1    1    1    2  501    0  0.35022007889E+02  0.80247175809E+01 -0.13221841663E+03  0.13701330894E+03  0.00000000000E+00 0. -1.
<scales pt_clust_5="13000.00000" pt_clust_6="13000.00000" pt_clust_7="13000.00000" pt_clust_8="13000.00000" pt_clust_9="74.13296" pt_clust_10="35.92963"></scales>
<clustering>
<clus scale="   35.930">  1 10  2 -1</clus>
<clus scale="   74.133">  1  9  2 -1</clus>
<clus scale="   85.454">  5  6 -1 -1</clus>
<clus scale="   91.263">  7  8 -1 -1</clus>
<clus scale="  102.047">  2  5  1 -1</clus>
<clus scale="   35.930">  1  5  2 -1</clus>
</clustering>
</event>
<event>
10    4  0.3403565E-005  0.2408707E+03  0.7546771E-02  0.1119905E+00
         21   -1    0    0  503  502  0.00000000000E+00  0.00000000000E+00  0.22377243711E+03  0.22377243711E+03  0.00000000000E+00 0. -1.
          2   -1    0    0  502    0 -0.00000000000E+00 -0.00000000000E+00 -0.68156318835E+03  0.68156318835E+03  0.00000000000E+00 0. -1.
         23    2    1    2    0    0  0.17807739814E+03 -0.20670722653E+03 -0.46049749854E+03  0.54317739958E+03  0.92435404641E+02 0.  0.
         24    2    1    2    0    0 -0.34550836597E+02  0.15347794438E+03 -0.56595892048E+02  0.18580593664E+03  0.81064859053E+02 0.  0.
        -13    1    4    4    0    0 -0.14107118761E+02  0.40838003920E+02  0.20462977935E+02  0.47806765524E+02  0.00000000000E+00 0.  1.
         14    1    4    4    0    0 -0.20443717836E+02  0.11263994046E+03 -0.77058869982E+02  0.13799917112E+03  0.00000000000E+00 0. -1.
        -11    1    3    3    0    0 -0.10089101517E+02 -0.22311337649E+02 -0.43844619719E+02  0.50218885246E+02  0.00000000000E+00 0.  1.
         11    1    3    3    0    0  0.18816649966E+03 -0.18439588888E+03 -0.41665287882E+03  0.49295851434E+03  0.00000000000E+00 0. -1.
         21    1    1    2  503  501 -0.55711909453E+02 -0.41917143642E+01  0.42267405199E+02  0.70056554771E+02  0.00000000000E+00 0. -1.
          1    1    1    2  501    0 -0.87814652093E+02  0.57420996507E+02  0.17035234141E+02  0.10629573446E+03  0.00000000000E+00 0. -1.
<scales pt_clust_5="13000.00000" pt_clust_6="13000.00000" pt_clust_7="13000.00000" pt_clust_8="13000.00000" pt_clust_9="47.00923" pt_clust_10="166.08229"></scales>
<clustering>
<clus scale="   47.009">  9 10 -1 -1</clus>
<clus scale="   81.065">  5  6 -1 -1</clus>
<clus scale="   92.435">  7  8 -1 -1</clus>
<clus scale="  166.082">  1  9  2 -1</clus>
<clus scale="  236.740">  1  5  2 -1</clus>
<clus scale="  166.082">  1  5  2 -1</clus>
</clustering>
</event>
<event>
10    4  0.3403565E-005  0.1281622E+03  0.7546771E-02  0.1234340E+00
         21   -1    0    0  501  502  0.00000000000E+00  0.00000000000E+00  0.24482648687E+03  0.24482648687E+03  0.00000000000E+00 0. -1.
          2   -1    0    0  503    0 -0.00000000000E+00 -0.00000000000E+00 -0.34784646023E+03  0.34784646023E+03  0.00000000000E+00 0. -1.
         23    2    1    2    0    0  0.86826470941E+02  0.86830882415E+01 -0.21259594457E+03  0.24851521781E+03  0.94596753434E+02 0.  0.
         24    2    1    2    0    0 -0.83365529575E+02  0.56801865873E+02 -0.54619139359E+02  0.13978767077E+03  0.79881656386E+02 0.  0.
        -13    1    4    4    0    0 -0.41219093502E+02  0.14076225772E+02 -0.65632569079E+02  0.78770476227E+02  0.00000000000E+00 0.  1.
         14    1    4    4    0    0 -0.42146436073E+02  0.42725640101E+02  0.11013429720E+02  0.61017194543E+02  0.00000000000E+00 0. -1.
        -13    1    3    3    0    0  0.11997724824E+02 -0.17024071867E+02  0.88286635862E+00  0.20845716032E+02  0.00000000000E+00 0.  1.
         13    1    3    3    0    0  0.74828746117E+02  0.25707160109E+02 -0.21347881093E+03  0.22766950178E+03  0.00000000000E+00 0. -1.
         21    1    1    2  503  502  0.21420736457E+02 -0.53955046810E+02  0.16700149656E+03  0.17680354884E+03  0.00000000000E+00 0. -1.
          1    1    1    2  501    0 -0.24881677823E+02 -0.11529907305E+02 -0.28063860047E+01  0.27566509684E+02  0.00000000000E+00 0. -1.
<scales pt_clust_5="13000.00000" pt_clust_6="13000.00000" pt_clust_7="13000.00000" pt_clust_8="13000.00000" pt_clust_9="62.55476" pt_clust_10="27.42329"></scales>
<clustering>
<clus scale="   27.423">  1 10  2 -1</clus>
<clus scale="   62.555">  1  9  2 -1</clus>
<clus scale="   79.882">  5  6 -1 -1</clus>
<clus scale="   94.597">  7  8 -1 -1</clus>
<clus scale="  117.720">  1  5  2 -1</clus>
<clus scale="   27.423">  1  5  2 -1</clus>
</clustering>
</event>
<event>
10    4  0.3403565E-005  0.1255659E+03  0.7546771E-02  0.1243605E+00
         21   -1    0    0  501  502  0.00000000000E+00  0.00000000000E+00  0.14035861659E+03  0.14035861659E+03  0.00000000000E+00 0. -1.
          2   -1    0    0  503    0 -0.00000000000E+00 -0.00000000000E+00 -0.63572335379E+03  0.63572335379E+03  0.00000000000E+00 0. -1.
         23    2    1    2    0    0 -0.32492646059E+02  0.41847842860E+02 -0.21418859927E+03  0.23795841061E+03  0.89109119198E+02 0.  0.
         24    2    1    2    0    0 -0.66533445459E+02 -0.80287472961E+02 -0.19522483454E+03  0.23463236054E+03  0.77889864000E+02 0.  0.
        -11    1    4    4    0    0 -0.17934781876E+02 -0.28493446289E+02 -0.14184243648E+03  0.14578343414E+03  0.00000000000E+00 0.  1.
         12    1    4    4    0    0 -0.48598663583E+02 -0.51794026671E+02 -0.53382398062E+02  0.88848926408E+02  0.00000000000E+00 0. -1.
        -13    1    3    3    0    0  0.22740316993E+02 -0.12412650921E+02 -0.62349620248E+02  0.67517931432E+02  0.00000000000E+00 0.  1.
         13    1    3    3    0    0 -0.55232963052E+02  0.54260493781E+02 -0.15183897902E+03  0.17044047918E+03  0.00000000000E+00 0. -1.
         21    1    1    2  503  502 -0.44919988804E+02  0.11208211267E+03 -0.80307342905E+00  0.12075119172E+03  0.00000000000E+00 0. -1.
          1    1    1    2  501    0  0.14394608032E+03 -0.73642482565E+02 -0.85148229956E+02  0.18274000750E+03  0.00000000000E+00 0. -1.
<scales pt_clust_5="13000.00000" pt_clust_6="13000.00000" pt_clust_7="13000.00000" pt_clust_8="13000.00000" pt_clust_9="125.56588" pt_clust_10="13000.00000"></scales>
<clustering>
<clus scale="   77.890">  5  6 -1 -1</clus>
<clus scale="   89.109">  7  8 -1 -1</clus>
<clus scale="  103.670">  2  7  1 -1</clus>
<clus scale="  128.278">  2  5  1 -1</clus>
<clus scale="  125.566">  1  9  2 -1</clus>
<clus scale="  125.566">  1  5  2 -1</clus>
</clustering>
</event>
<event>
10    4  0.3403565E-005  0.1597029E+03  0.7546771E-02  0.1202255E+00
         21   -1    0    0  501  502  0.00000000000E+00  0.00000000000E+00  0.20603847314E+03  0.20603847314E+03  0.00000000000E+00 0.  1.
          2   -1    0    0  503    0 -0.00000000000E+00 -0.00000000000E+00 -0.62940586513E+03  0.62940586513E+03  0.00000000000E+00 0. -1.
         24    2    1    2    0    0  0.43330482557E+02  0.27681607669E+02 -0.19223723647E+02  0.96087475066E+02  0.78863484529E+02 0.  0.
         23    2    1    2    0    0  0.18475475390E+02 -0.12335814285E+03 -0.16432773128E+03  0.22905630233E+03  0.99521916031E+02 0.  0.
        -13    1    3    3    0    0  0.63176243303E+02  0.31573874459E+02 -0.25218032722E+02  0.74993976029E+02  0.00000000000E+00 0.  1.
         14    1    3    3    0    0 -0.19845760746E+02 -0.38922667902E+01  0.59943090757E+01  0.21093499037E+02  0.00000000000E+00 0. -1.
        -13    1    4    4    0    0 -0.29666598151E+02 -0.89937359656E+02 -0.69075182321E+02  0.11721866968E+03  0.00000000000E+00 0.  1.
         13    1    4    4    0    0  0.48142073541E+02 -0.33420783195E+02 -0.95252548963E+02  0.11183763266E+03  0.00000000000E+00 0. -1.
         21    1    1    2  503  502  0.83740902367E+02  0.31854034535E+02  0.10054027887E+03  0.13466835530E+03  0.00000000000E+00 0.  1.
          1    1    1    2  501    0 -0.14554686031E+03  0.63822500647E+02 -0.34035621593E+03  0.37563220557E+03  0.00000000000E+00 0. -1.
<scales pt_clust_5="13000.00000" pt_clust_6="13000.00000" pt_clust_7="13000.00000" pt_clust_8="13000.00000" pt_clust_9="89.59474" pt_clust_10="124.90169"></scales>
<clustering>
<clus scale="   78.863">  5  6 -1 -1</clus>
<clus scale="   89.595">  1  9  2 -1</clus>
<clus scale="   99.522">  7  8 -1 -1</clus>
<clus scale="  119.580">  2  5  1 -1</clus>
<clus scale="  124.902">  1 10  2 -1</clus>
<clus scale="   89.595">  1  5  2 -1</clus>
</clustering>
</event>
<event>
10    4  0.3403565E-005  0.1293498E+03  0.7546771E-02  0.1249295E+00
         21   -1    0    0  503  502  0.00000000000E+00  0.00000000000E+00  0.11703231107E+03  0.11703231107E+03  0.00000000000E+00 0. -1.
          2   -1    0    0  502    0 -0.00000000000E+00 -0.00000000000E+00 -0.54490005227E+03  0.54490005227E+03  0.00000000000E+00 0. -1.
         24    2    1    2    0    0 -0.68614972668E+01  0.18821480273E+02 -0.35503365450E+03  0.36496512106E+03  0.82154217776E+02 0.  0.
         23    2    1    2    0    0 -0.17854863114E+02  0.80664611233E+02  0.33986332795E+02  0.12897317737E+03  0.93023835775E+02 0.  0.
        -13    1    3    3    0    0  0.32356610689E+01 -0.30887260729E+02 -0.18273124081E+03  0.18535155447E+03  0.00000000000E+00 0.  1.
         14    1    3    3    0    0 -0.10097158336E+02  0.49708741002E+02 -0.17230241369E+03  0.17961356659E+03  0.00000000000E+00 0. -1.
        -13    1    4    4    0    0 -0.44010478014E+02  0.21088582562E+02  0.40722362929E+02  0.63560690147E+02  0.00000000000E+00 0. -1.
         13    1    4    4    0    0  0.26155614900E+02  0.59576028671E+02 -0.67360301334E+01  0.65412487225E+02  0.00000000000E+00 0.  1.
         21    1    1    2  503  501 -0.19798736428E+02 -0.50997900542E+01 -0.27772249888E+01  0.20632760392E+02  0.00000000000E+00 0. -1.
          1    1    1    2  501    0  0.44515096809E+02 -0.94386301451E+02 -0.10404319451E+03  0.14736130452E+03  0.00000000000E+00 0. -1.
<scales pt_clust_5="13000.00000" pt_clust_6="13000.00000" pt_clust_7="13000.00000" pt_clust_8="13000.00000" pt_clust_9="20.44500" pt_clust_10="89.87745"></scales>
<clustering>
<clus scale="   20.445">  1  9  2 -1</clus>
<clus scale="   82.154">  5  6 -1 -1</clus>
<clus scale="   84.588">  2  5  1 -1</clus>
<clus scale="   89.877">  1 10  2 -1</clus>
<clus scale="   93.024">  7  8 -1 -1</clus>
<clus scale="   20.445">  1  5  2 -1</clus>
</clustering>
</event>
<event>
10    4  0.3403565E-005  0.2772478E+03  0.7546771E-02  0.1104521E+00
         21   -1    0    0  501  502  0.00000000000E+00  0.00000000000E+00  0.17757894955E+03  0.17757894955E+03  0.00000000000E+00 0. -1.
          2   -1    0    0  503    0 -0.00000000000E+00 -0.00000000000E+00 -0.14400083098E+04  0.14400083098E+04  0.00000000000E+00 0. -1.
         23    2    1    2    0    0  0.97924753893E+02 -0.19294432245E+03 -0.73945001806E+02  0.24860495166E+03  0.97569409678E+02 0.  0.
         24    2    1    2    0    0 -0.22544820276E+03 -0.10206057019E+03 -0.46317331230E+03  0.53070996300E+03  0.76683084746E+02 0.  0.
        -13    1    4    4    0    0 -0.52871335166E+02 -0.28153377561E+02 -0.54521478838E+02  0.80997422212E+02  0.00000000000E+00 0.  1.
         14    1    4    4    0    0 -0.17257686760E+03 -0.73907192624E+02 -0.40865183346E+03  0.44971254079E+03  0.00000000000E+00 0. -1.
        -11    1    3    3    0    0  0.12505634457E+01 -0.67631490116E+02 -0.58774037259E+02  0.89610098873E+02  0.00000000000E+00 0.  1.
         11    1    3    3    0    0  0.96674190448E+02 -0.12531283233E+03 -0.15170964547E+02  0.15899485278E+03  0.00000000000E+00 0. -1.
         21    1    1    2  503  502 -0.27775653609E+02  0.43372433254E+01  0.12073907778E+02  0.30595389556E+02  0.00000000000E+00 0.  1.
          1    1    1    2  501    0  0.15529910248E+03  0.29066764931E+03 -0.73738495392E+03  0.80767695513E+03  0.00000000000E+00 0. -1.
<scales pt_clust_5="13000.00000" pt_clust_6="13000.00000" pt_clust_7="13000.00000" pt_clust_8="13000.00000" pt_clust_9="28.11225" pt_clust_10="266.43224"></scales>
<clustering>
<clus scale="   28.112">  1  9  2 -1</clus>
<clus scale="   76.683">  5  6 -1 -1</clus>
<clus scale="   97.569">  7  8 -1 -1</clus>
<clus scale="  229.363">  2  7  1 -1</clus>
<clus scale="  266.432">  1 10  2 -1</clus>
<clus scale="   28.112">  1  5  2 -1</clus>
</clustering>
</event>
<event>
10    4  0.3403565E-005  0.1851847E+03  0.7546771E-02  0.1163936E+00
         21   -1    0    0  501  502  0.00000000000E+00  0.00000000000E+00  0.43540815141E+03  0.43540815141E+03  0.00000000000E+00 0. -1.
          4   -1    0    0  503    0 -0.00000000000E+00 -0.00000000000E+00 -0.12118913933E+03  0.12118913933E+03  0.00000000000E+00 0. -1.
         24    2    1    2    0    0  0.17004583337E+03 -0.65253333035E+01  0.84376548956E+02  0.20559118335E+03  0.78677615854E+02 0.  0.
         23    2    1    2    0    0 -0.15319161632E+03 -0.80670909161E+00  0.14283430860E+03  0.22737561000E+03  0.88485627205E+02 0.  0.
        -13    1    3    3    0    0  0.61459397782E+02  0.34276589566E+02  0.42806421367E+02  0.82368269851E+02  0.00000000000E+00 0.  1.
         14    1    3    3    0    0  0.10858643559E+03 -0.40801922869E+02  0.41570127590E+02  0.12322291350E+03  0.00000000000E+00 0. -1.
        -11    1    4    4    0    0 -0.11848479787E+03 -0.39327784183E+02  0.95669103357E+02  0.15728286389E+03  0.00000000000E+00 0. -1.
         11    1    4    4    0    0 -0.34706818454E+02  0.38521075091E+02  0.47165205238E+02  0.70092746119E+02  0.00000000000E+00 0.  1.
         21    1    1    2  503  502  0.25547270323E+02 -0.21955707900E+02  0.49575402516E+02  0.59936939069E+02  0.00000000000E+00 0. -1.
          3    1    1    2  501    0 -0.42401487370E+02  0.29287750295E+02  0.37432752008E+02  0.63693558319E+02  0.00000000000E+00 0. -1.
<scales pt_clust_5="13000.00000" pt_clust_6="13000.00000" pt_clust_7="13000.00000" pt_clust_8="13000.00000" pt_clust_9="33.68555" pt_clust_10="47.08574"></scales>
<clustering>
<clus scale="   33.686">  1  9  2 -1</clus>
<clus scale="   47.086">  1 10  2 -1</clus>
<clus scale="   78.678">  5  6 -1 -1</clus>
<clus scale="   88.486">  7  8 -1 -1</clus>
<clus scale="  180.704">  2  5  1 -1</clus>
<clus scale="   33.686">  1  5  2 -1</clus>
</clustering>
</event>
<event>
10    4  0.3403565E-005  0.1247377E+03  0.7546771E-02  0.1252126E+00
          2   -1    0    0  502    0 -0.00000000000E+00  0.00000000000E+00  0.58113905105E+03  0.58113905105E+03  0.00000000000E+00 0. -1.
         21   -1    0    0  503  502  0.00000000000E+00 -0.00000000000E+00 -0.22295860040E+03  0.22295860040E+03  0.00000000000E+00 0.  1.
         24    2    1    2    0    0 -0.26026971031E+02 -0.13267708169E+02  0.34194839465E+02  0.93809237009E+02  0.82325273161E+02 0.  0.
         23    2    1    2    0    0 -0.25419334348E+02  0.90647757466E+02 -0.71629951279E+02  0.14911218677E+03  0.90776846339E+02 0.  0.
        -11    1    3    3    0    0 -0.36536094255E+02 -0.32488155855E+02 -0.47548473364E+01  0.49122042175E+02  0.00000000000E+00 0.  1.
         12    1    3    3    0    0  0.10509123225E+02  0.19220447686E+02  0.38949686801E+02  0.44687194833E+02  0.00000000000E+00 0. -1.
        -13    1    4    4    0    0 -0.54263471166E+02  0.55272875577E+02 -0.19599315690E+02  0.79898362017E+02  0.00000000000E+00 0. -1.
         13    1    4    4    0    0  0.28844136818E+02  0.35374881889E+02 -0.52030635589E+02  0.69213824755E+02  0.00000000000E+00 0.  1.
         21    1    1    2  503  501 -0.17326026427E+02 -0.18602893027E+02 -0.76426307620E+02  0.80543400209E+02  0.00000000000E+00 0.  1.
          1    1    1    2  501    0  0.68772331806E+02 -0.58777156270E+02  0.47204187008E+03  0.48063282746E+03  0.00000000000E+00 0. -1.
<scales pt_clust_5="13000.00000" pt_clust_6="13000.00000" pt_clust_7="13000.00000" pt_clust_8="13000.00000" pt_clust_9="25.42162" pt_clust_10="85.55154"></scales>
<clustering>
<clus scale="   25.422">  2  9  1 -1</clus>
<clus scale="   82.325">  5  6 -1 -1</clus>
<clus scale="   89.142">  1  5  2 -1</clus>
<clus scale="   85.552">  2 10  1 -1</clus>
<clus scale="   90.777">  7  8 -1 -1</clus>
<clus scale="   25.422">  2  5  1 -1</clus>
</clustering>
</event>
<event>
10    4  0.3403565E-005  0.1453689E+03  0.7546771E-02  0.1217048E+00
         21   -1    0    0  501  502  0.00000000000E+00  0.00000000000E+00  0.16769920722E+03  0.16769920722E+03  0.00000000000E+00 0. -1.
          2   -1    0    0  503    0 -0.00000000000E+00 -0.00000000000E+00 -0.44144723668E+03  0.44144723668E+03  0.00000000000E+00 0. -1.
         23    2    1    2    0    0  0.34679243598E+02 -0.14061815890E+02 -0.10245935815E+03  0.15199009481E+03  0.10584273356E+03 0.  0.
         24    2    1    2    0    0  0.85345084535E+02  0.84639647390E+02 -0.20473943818E+03  0.24418102870E+03  0.57083131210E+02 0.  0.
        -11    1    4    4    0    0  0.30611192992E+02  0.50885871631E+02 -0.14383745427E+03  0.15561372150E+03  0.00000000000E+00 0.  1.
         12    1    4    4    0    0  0.54733891544E+02  0.33753775759E+02 -0.60901983908E+02  0.88567307205E+02  0.00000000000E+00 0. -1.
        -11    1    3    3    0    0  0.34066241819E+02  0.41584143599E+02 -0.33352804112E+02  0.63262622240E+02  0.00000000000E+00 0.  1.
         11    1    3    3    0    0  0.61300177958E+00 -0.55645959489E+02 -0.69106554034E+02  0.88727472573E+02  0.00000000000E+00 0. -1.
         21    1    1    2  503  502  0.25740494381E+02 -0.42697364568E+02  0.40746636857E+02  0.64388868659E+02  0.00000000000E+00 0.  1.
          1    1    1    2  501    0 -0.14576482251E+03 -0.27880466932E+02 -0.72958699941E+01  0.14858645173E+03  0.00000000000E+00 0. -1.
<scales pt_clust_5="13000.00000" pt_clust_6="13000.00000" pt_clust_7="13000.00000" pt_clust_8="13000.00000" pt_clust_9="49.85617" pt_clust_10="133.69230"></scales>
<clustering>
<clus scale="   49.856">  1  9  2 -1</clus>
<clus scale="   57.083">  5  6 -1 -1</clus>
<clus scale="  105.843">  7  8 -1 -1</clus>
<clus scale="  115.587">  2  7  1 -1</clus>
<clus scale="  133.692">  1 10  2 -1</clus>
<clus scale="   49.856">  1  5  2 -1</clus>
</clustering>
</event>
<event>
10    4  0.3403565E-005  0.9364658E+02  0.7546771E-02  0.1298580E+00
         21   -1    0    0  503  502  0.00000000000E+00  0.00000000000E+00  0.11241077666E+03  0.11241077666E+03  0.00000000000E+00 0.  1.
          2   -1    0    0  502    0 -0.00000000000E+00 -0.00000000000E+00 -0.23984050934E+03  0.23984050934E+03  0.00000000000E+00 0. -1.
         24    2    1    2    0    0 -0.20774212167E+01  0.19944544847E+02 -0.15043035954E+03  0.17362665975E+03  0.84349412302E+02 0.  0.
         23    2    1    2    0    0  0.18835265443E+02 -0.87782635498E+01  0.32788500827E+02  0.99606742177E+02  0.91731086145E+02 0.  0.
        -11    1    3    3    0    0  0.36102766646E+02  0.29663152533E+02 -0.91489923682E+02  0.10273129276E+03  0.00000000000E+00 0.  1.
         12    1    3    3    0    0 -0.38180187862E+02 -0.97186076859E+01 -0.58940435856E+02  0.70895366982E+02  0.00000000000E+00 0. -1.
        -13    1    4    4    0    0  0.46579365017E+02 -0.48151170382E+01  0.48549847848E+02  0.67453023086E+02  0.00000000000E+00 0.  1.
         13    1    4    4    0    0 -0.27744099574E+02 -0.39631465116E+01 -0.15761347021E+02  0.32153719091E+02  0.00000000000E+00 0. -1.
         21    1    1    2  503  501  0.73714279773E+01 -0.21896463422E+02  0.25844975729E+02  0.34666350129E+02  0.00000000000E+00 0.  1.
          1    1    1    2  501    0 -0.24129272203E+02  0.10730182125E+02 -0.35632849704E+02  0.44351533948E+02  0.00000000000E+00 0. -1.
<scales pt_clust_5="13000.00000" pt_clust_6="13000.00000" pt_clust_7="13000.00000" pt_clust_8="13000.00000" pt_clust_9="23.10396" pt_clust_10="25.59398"></scales>
<clustering>
<clus scale="   23.104">  1  9  2 -1</clus>
<clus scale="   25.594">  1 10  2 -1</clus>
<clus scale="   84.349">  5  6 -1 -1</clus>
<clus scale="   86.429">  2  5  1 -1</clus>
<clus scale="   91.731">  7  8 -1 -1</clus>
<clus scale="   23.104">  1  5  2 -1</clus>
</clustering>
</event>
<event>
10    4  0.3403565E-005  0.1422577E+03  0.7546771E-02  0.1210699E+00
          2   -1    0    0  502    0 -0.00000000000E+00  0.00000000000E+00  0.96042190810E+02  0.96042190810E+02  0.00000000000E+00 0. -1.
         21   -1    0    0  503  502  0.00000000000E+00 -0.00000000000E+00 -0.58129511029E+03  0.58129511029E+03  0.00000000000E+00 0.  1.
         23    2    1    2    0    0 -0.58102166556E+02 -0.87048788795E+02 -0.72294188357E+02  0.15714655924E+03  0.92278047345E+02 0.  0.
         24    2    1    2    0    0 -0.21095047558E+02  0.14462106224E+03 -0.33547646038E+03  0.37695892415E+03  0.90516972742E+02 0.  0.
        -11    1    4    4    0    0 -0.10388717218E+02  0.60324089527E+02 -0.24624946627E+03  0.25374341541E+03  0.00000000000E+00 0.  1.
         12    1    4    4    0    0 -0.10706330341E+02  0.84296972713E+02 -0.89226994104E+02  0.12321550874E+03  0.00000000000E+00 0. -1.
        -11    1    3    3    0    0 -0.19572296485E+02 -0.90957899370E+01  0.20648399196E+02  0.29869124085E+02  0.00000000000E+00 0.  1.
         11    1    3    3    0    0 -0.38529870071E+02 -0.77952998858E+02 -0.92942587553E+02  0.12727743516E+03  0.00000000000E+00 0. -1.
         21    1    1    2  503  501  0.21662306710E+02  0.33680281381E+01 -0.50717327250E+02  0.55252569433E+02  0.00000000000E+00 0.  1.
          1    1    1    2  501    0  0.57534907404E+02 -0.60940301583E+02 -0.26764943496E+02  0.87979248277E+02  0.00000000000E+00 0. -1.
<scales pt_clust_5="13000.00000" pt_clust_6="13000.00000" pt_clust_7="13000.00000" pt_clust_8="13000.00000" pt_clust_9="21.92257" pt_clust_10="85.18084"></scales>
<clustering>
<clus scale="   21.923">  2  9  1 -1</clus>
<clus scale="   85.181">  2 10  1 -1</clus>
<clus scale="   90.517">  5  6 -1 -1</clus>
<clus scale="   92.278">  7  8 -1 -1</clus>
<clus scale="  141.122">  2  5  1 -1</clus>
<clus scale="   21.923">  2  5  1 -1</clus>
</clustering>
</event>
<event>
10    4  0.4347072E-005  0.2158723E+03  0.7546771E-02  0.1170857E+00
         21   -1    0    0  501  502  0.00000000000E+00  0.00000000000E+00  0.37799370204E+03  0.37799370204E+03  0.00000000000E+00 0. -1.
          2   -1    0    0  503    0 -0.00000000000E+00 -0.00000000000E+00 -0.10662451621E+04  0.10662451621E+04  0.00000000000E+00 0. -1.
         24    2    1    2    0    0 -0.55226841683E+02 -0.50775943881E+01 -0.31138430910E+03  0.32632149080E+03  0.80310282004E+02 0.  0.
         23    2    1    2    0    0 -0.17786651556E+03 -0.36733595791E+02 -0.12782571279E+03  0.23966321223E+03  0.90073237040E+02 0.  0.
        -11    1    3    3    0    0  0.14401928173E+02  0.19038813541E+02 -0.80247615437E+02  0.83723185197E+02  0.00000000000E+00 0.  1.
         12    1    3    3    0    0 -0.69628769855E+02 -0.24116407929E+02 -0.23113669366E+03  0.24259830560E+03  0.00000000000E+00 0. -1.
        -13    1    4    4    0    0 -0.75491416100E+02 -0.24474790952E+02 -0.10903624519E+03  0.13485871148E+03  0.00000000000E+00 0. -1.
         13    1    4    4    0    0 -0.10237509946E+03 -0.12258804839E+02 -0.18789467598E+02  0.10480450075E+03  0.00000000000E+00 0.  1.
         21    1    1    2  503  502  0.21362530234E+03 -0.47862749230E+02  0.27202100350E+03  0.34917336512E+03  0.00000000000E+00 0. -1.
          1    1    1    2  501    0  0.19468054903E+02  0.89673939409E+02 -0.52106244166E+03  0.52908079599E+03  0.00000000000E+00 0. -1.
<scales pt_clust_5="13000.00000" pt_clust_6="13000.00000" pt_clust_7="13000.00000" pt_clust_8="13000.00000" pt_clust_9="196.18275" pt_clust_10="91.76290"></scales>
<clustering>
<clus scale="   80.310">  5  6 -1 -1</clus>
<clus scale="   90.073">  7  8 -1 -1</clus>
<clus scale="   91.763">  1 10  2 -1</clus>
<clus scale="   97.302">  2  5  1 -1</clus>
<clus scale="  196.183">  1  9  2 -1</clus>
<clus scale="   91.763">  1  5  2 -1</clus>
</clustering>
</event>
<event>
10    4  0.3403565E-005  0.1355219E+03  0.7546771E-02  0.1239201E+00
         21   -1    0    0  501  502  0.00000000000E+00  0.00000000000E+00  0.24152575097E+03  0.24152575097E+03  0.00000000000E+00 0. -1.
          4   -1    0    0  503    0 -0.00000000000E+00 -0.00000000000E+00 -0.24659717363E+03  0.24659717363E+03  0.00000000000E+00 0. -1.
         23    2    1    2    0    0 -0.66349703151E+01 -0.23256881569E+02 -0.86584412789E+02  0.12527319867E+03  0.87244532188E+02 0.  0.
         24    2    1    2    0    0  0.67846751346E+02 -0.71762404468E+02  0.52204749490E+02  0.13746079477E+03  0.80106865288E+02 0.  0.
        -13    1    4    4    0    0 -0.18402351032E+02 -0.10918640018E+02  0.58709320863E+01  0.22188534583E+02  0.00000000000E+00 0.  1.
         14    1    4    4    0    0  0.86249102379E+02 -0.60843764450E+02  0.46333817404E+02  0.11527226019E+03  0.00000000000E+00 0. -1.
        -11    1    3    3    0    0  0.23470644786E+02 -0.46255334220E+02 -0.41814562398E+02  0.66624955828E+02  0.00000000000E+00 0. -1.
         11    1    3    3    0    0 -0.30105615101E+02  0.22998452651E+02 -0.44769850391E+02  0.58648242847E+02  0.00000000000E+00 0.  1.
         21    1    1    2  503  502  0.20848463180E+02  0.69039766833E+01  0.88523837789E+02  0.91207418382E+02  0.00000000000E+00 0. -1.
          3    1    1    2  501    0 -0.82060244212E+02  0.88115309354E+02 -0.59215597152E+02  0.13418151277E+03  0.00000000000E+00 0. -1.
<scales pt_clust_5="13000.00000" pt_clust_6="13000.00000" pt_clust_7="13000.00000" pt_clust_8="13000.00000" pt_clust_9="21.96186" pt_clust_10="109.31190"></scales>
<clustering>
<clus scale="   21.962">  1  9  2 -1</clus>
<clus scale="   80.107">  5  6 -1 -1</clus>
<clus scale="   87.245">  7  8 -1 -1</clus>
<clus scale="   90.156">  2  7  1 -1</clus>
<clus scale="  109.312">  1 10  2 -1</clus>
<clus scale="   21.962">  1  5  2 -1</clus>
</clustering>
</event>
<event>
10    4  0.3403565E-005  0.1981141E+03  0.7546771E-02  0.1152157E+00
          2   -1    0    0  503    0 -0.00000000000E+00  0.00000000000E+00  0.65883303281E+03  0.65883303281E+03  0.00000000000E+00 0. -1.
         21   -1    0    0  501  502  0.00000000000E+00 -0.00000000000E+00 -0.19410215310E+03  0.19410215310E+03  0.00000000000E+00 0. -1.
         23    2    1    2    0    0 -0.16872672408E+03 -0.12341166781E+03  0.51689453257E+03  0.56463347418E+03  0.89060963352E+02 0.  0.
         24    2    1    2    0    0  0.83299621288E+02  0.64170614607E+02  0.28383583294E+02  0.13530648168E+03  0.80284005253E+02 0.  0.
        -13    1    4    4    0    0  0.56430643475E+02  0.80668665941E+02  0.10365250932E+02  0.98991361313E+02  0.00000000000E+00 0.  1.
         14    1    4    4    0    0  0.26868977813E+02 -0.16498051334E+02  0.18018332362E+02  0.36315120371E+02  0.00000000000E+00 0. -1.
        -11    1    3    3    0    0 -0.12168423937E+03 -0.34320677445E+02  0.29321841157E+03  0.31931489144E+03  0.00000000000E+00 0. -1.
         11    1    3    3    0    0 -0.47042484702E+02 -0.89090990361E+02  0.22367612100E+03  0.24531858274E+03  0.00000000000E+00 0.  1.
         21    1    1    2  503  502  0.58365123008E+02  0.38604070426E+02 -0.93322022112E+02  0.11664373814E+03  0.00000000000E+00 0. -1.
          1    1    1    2  501    0  0.27061979781E+02  0.20636982772E+02  0.12774785960E+02  0.36351491908E+02  0.00000000000E+00 0. -1.
<scales pt_clust_5="13000.00000" pt_clust_6="13000.00000" pt_clust_7="13000.00000" pt_clust_8="13000.00000" pt_clust_9="89.53972" pt_clust_10="34.03286"></scales>
<clustering>
<clus scale="   34.033">  2 10  1 -1</clus>
<clus scale="   80.284">  5  6 -1 -1</clus>
<clus scale="   89.061">  7  8 -1 -1</clus>
<clus scale="   89.540">  2  9  1 -1</clus>
<clus scale="  194.327">  2  5  1 -1</clus>
<clus scale="   34.033">  2  5  1 -1</clus>
</clustering>
</event>
<event>
10    4  0.3403565E-005  0.1822374E+03  0.7546771E-02  0.1167035E+00
         21   -1    0    0  501  502  0.00000000000E+00  0.00000000000E+00  0.45073556416E+02  0.45073556416E+02  0.00000000000E+00 0. -1.
          2   -1    0    0  503    0 -0.00000000000E+00 -0.00000000000E+00 -0.10659775010E+04  0.10659775010E+04  0.00000000000E+00 0. -1.
         24    2    1    2    0    0 -0.11410709194E+03  0.11198072606E+03 -0.42422537765E+03  0.46073329955E+03  0.82145546660E+02 0.  0.
         23    2    1    2    0    0  0.10806417614E+03 -0.10696733620E+03 -0.35344454768E+03  0.39602404135E+03  0.93766283200E+02 0.  0.
        -13    1    3    3    0    0 -0.65011428449E+01  0.40646112215E+02 -0.49427467027E+02  0.64322980288E+02  0.00000000000E+00 0.  1.
         14    1    3    3    0    0 -0.10760594910E+03  0.71334613841E+02 -0.37479791062E+03  0.39641031927E+03  0.00000000000E+00 0. -1.
        -13    1    4    4    0    0  0.61052683878E+02 -0.29209352462E+02 -0.24683497614E+03  0.25594554484E+03  0.00000000000E+00 0.  1.
         13    1    4    4    0    0  0.47011492266E+02 -0.77757983737E+02 -0.10660957154E+03  0.14007849651E+03  0.00000000000E+00 0. -1.
         21    1    1    2  503  502 -0.20366970823E+02 -0.19616020977E+02 -0.40910871174E+02  0.49732294936E+02  0.00000000000E+00 0. -1.
          1    1    1    2  501    0  0.26409886618E+02  0.14602631119E+02 -0.20232314809E+03  0.20456142159E+03  0.00000000000E+00 0. -1.
<scales pt_clust_5="13000.00000" pt_clust_6="13000.00000" pt_clust_7="13000.00000" pt_clust_8="13000.00000" pt_clust_9="28.27723" pt_clust_10="29.42703"></scales>
<clustering>
<clus scale="   28.277">  1  9  2 -1</clus>
<clus scale="   29.427">  1 10  2 -1</clus>
<clus scale="   82.146">  5  6 -1 -1</clus>
<clus scale="   93.766">  7  8 -1 -1</clus>
<clus scale="  176.540">  2  5  1 -1</clus>
<clus scale="   28.277">  1  5  2 -1</clus>
</clustering>
</event>
<event>
10    4  0.3403565E-005  0.1007384E+03  0.7546771E-02  0.1283622E+00
          2   -1    0    0  503    0 -0.00000000000E+00  0.00000000000E+00  0.66316160992E+03  0.66316160992E+03  0.00000000000E+00 0. -1.
         21   -1    0    0  501  502  0.00000000000E+00 -0.00000000000E+00 -0.52796209932E+02  0.52796209932E+02  0.00000000000E+00 0. -1.
         23    2    1    2    0    0 -0.73452124505E+01 -0.44978630052E+02  0.31883471851E+03  0.33482626770E+03  0.91520612466E+02 0.  0.
         24    2    1    2    0    0 -0.77402832207E+02  0.24588790578E+02  0.99856155254E+02  0.15240947568E+03  0.81618560882E+02 0.  0.
        -11    1    4    4    0    0 -0.37836727161E+02 -0.29426293103E+02  0.36724671595E+02  0.60383989201E+02  0.00000000000E+00 0.  1.
         12    1    4    4    0    0 -0.39566105046E+02  0.54015083680E+02  0.63131483659E+02  0.92025486483E+02  0.00000000000E+00 0. -1.
        -13    1    3    3    0    0  0.13443150138E+02  0.22772596599E+02  0.13973042332E+03  0.14221076135E+03  0.00000000000E+00 0.  1.
         13    1    3    3    0    0 -0.20788362588E+02 -0.67751226650E+02  0.17910429519E+03  0.19261550635E+03  0.00000000000E+00 0. -1.
         21    1    1    2  503  502  0.15907827658E+02 -0.15056265552E+02 -0.10280966629E+00  0.21903439981E+02  0.00000000000E+00 0.  1.
          1    1    1    2  501    0  0.68840217000E+02  0.35446105027E+02  0.19177733589E+03  0.20681863649E+03  0.00000000000E+00 0. -1.
<scales pt_clust_5="13000.00000" pt_clust_6="13000.00000" pt_clust_7="13000.00000" pt_clust_8="13000.00000" pt_clust_9="21.90320" pt_clust_10="78.82255"></scales>
<clustering>
<clus scale="   21.903">  2  9  1 -1</clus>
<clus scale="   78.823">  2 10  1 -1</clus>
<clus scale="   81.619">  5  6 -1 -1</clus>
<clus scale="   91.521">  7  8 -1 -1</clus>
<clus scale="   91.836">  2  5  1 -1</clus>
<clus scale="   21.903">  2  5  1 -1</clus>
</clustering>
</event>
<event>
10    4  0.3403565E-005  0.1946632E+03  0.7546771E-02  0.1157741E+00
          4   -1    0    0  503    0 -0.00000000000E+00  0.00000000000E+00  0.62694397792E+03  0.62694397792E+03  0.00000000000E+00 0. -1.
         21   -1    0    0  501  502  0.00000000000E+00 -0.00000000000E+00 -0.13878939737E+03  0.13878939737E+03  0.00000000000E+00 0. -1.
         23    2    1    2    0    0  0.60739383221E+02  0.17833884084E+03  0.34277088770E+03  0.40618275764E+03  0.10953783055E+03 0.  0.
         24    2    1    2    0    0 -0.89983988791E+02 -0.93726612628E+02  0.82900159914E+02  0.17360570480E+03  0.79904368283E+02 0.  0.
        -13    1    4    4    0    0 -0.27658703436E+02 -0.67332570850E+02  0.89219549409E+01  0.73336759221E+02  0.00000000000E+00 0.  1.
         14    1    4    4    0    0 -0.62325285355E+02 -0.26394041779E+02  0.73978204973E+02  0.10026894558E+03  0.00000000000E+00 0. -1.
        -13    1    3    3    0    0 -0.17313924015E+01  0.78036797558E+02  0.22983327484E+03  0.24272633503E+03  0.00000000000E+00 0.  1.
         13    1    3    3    0    0  0.62470775623E+02  0.10030204328E+03  0.11293761286E+03  0.16345642261E+03  0.00000000000E+00 0. -1.
         21    1    1    2  503  502 -0.48670155178E+02  0.10314414153E+02  0.39690155586E+01  0.49909159769E+02  0.00000000000E+00 0.  1.
          3    1    1    2  501    0  0.77914760747E+02 -0.94926642364E+02  0.58514517384E+02  0.13603575309E+03  0.00000000000E+00 0. -1.
<scales pt_clust_5="13000.00000" pt_clust_6="13000.00000" pt_clust_7="13000.00000" pt_clust_8="13000.00000" pt_clust_9="49.75109" pt_clust_10="110.29719"></scales>
<clustering>
<clus scale="   49.751">  2  9  1 -1</clus>
<clus scale="   79.904">  5  6 -1 -1</clus>
<clus scale="  109.538">  7  8 -1 -1</clus>
<clus scale="  110.297">  2 10  1 -1</clus>
<clus scale="  179.666">  2  5  1 -1</clus>
<clus scale="   49.751">  2  5  1 -1</clus>
</clustering>
</event>
<event>
10    4  0.3403565E-005  0.2427599E+03  0.7546771E-02  0.1130882E+00
          2   -1    0    0  503    0 -0.00000000000E+00  0.00000000000E+00  0.20459322921E+04  0.20459322921E+04  0.00000000000E+00 0. -1.
         21   -1    0    0  501  502  0.00000000000E+00 -0.00000000000E+00 -0.15921865626E+03  0.15921865626E+03  0.00000000000E+00 0. -1.
         23    2    1    2    0    0  0.46271444072E+02  0.12630728352E+03  0.36220265454E+02  0.16542257360E+03  0.89208429096E+02 0.  0.
         24    2    1    2    0    0 -0.20970371536E+03  0.21012645860E+02  0.16994801147E+04  0.17152996363E+04  0.97994911292E+02 0.  0.
        -11    1    4    4    0    0 -0.19881575644E+02 -0.21140045598E+02  0.10262077491E+03  0.10664521565E+03  0.00000000000E+00 0.  1.
         12    1    4    4    0    0 -0.18982213972E+03  0.42152691459E+02  0.15968593398E+04  0.16086544207E+04  0.00000000000E+00 0. -1.
        -11    1    3    3    0    0 -0.42583962565E+01  0.10560221385E+03  0.14603184672E+02  0.10669214831E+03  0.00000000000E+00 0. -1.
         11    1    3    3    0    0  0.50529840329E+02  0.20705069669E+02  0.21617080782E+02  0.58730425294E+02  0.00000000000E+00 0.  1.
         21    1    1    2  503  502  0.12832297068E+02  0.38954884149E+02  0.49458557886E+02  0.64251846630E+02  0.00000000000E+00 0. -1.
          1    1    1    2  501    0  0.15059997422E+03 -0.18627481353E+03  0.10155469784E+03  0.26017689183E+03  0.00000000000E+00 0. -1.
<scales pt_clust_5="13000.00000" pt_clust_6="13000.00000" pt_clust_7="13000.00000" pt_clust_8="13000.00000" pt_clust_9="41.01403" pt_clust_10="222.10217"></scales>
<clustering>
<clus scale="   41.014">  2  9  1 -1</clus>
<clus scale="   89.208">  7  8 -1 -1</clus>
<clus scale="   97.995">  5  6 -1 -1</clus>
<clus scale="  176.210">  1  7  2 -1</clus>
<clus scale="  222.102">  2 10  1 -1</clus>
<clus scale="   41.014">  2  5  1 -1</clus>
</clustering>
</event>
<event>
10    4  0.3403565E-005  0.2200634E+03  0.7546771E-02  0.1135927E+00
         21   -1    0    0  501  502  0.00000000000E+00  0.00000000000E+00  0.85781954537E+03  0.85781954537E+03  0.00000000000E+00 0.  1.
         -1   -1    0    0    0  501 -0.00000000000E+00 -0.00000000000E+00 -0.22177594988E+03  0.22177594988E+03  0.00000000000E+00 0.  1.
         24    2    1    2    0    0  0.18187536047E+03 -0.63197960818E+02  0.98961558228E+02  0.23137118755E+03  0.81649295304E+02 0.  0.
         23    2    1    2    0    0 -0.21768563021E+03 -0.13716579226E+03  0.21654465760E+01  0.27236478170E+03  0.89310676779E+02 0.  0.
        -11    1    3    3    0    0  0.86878714306E+02 -0.69415516557E+02  0.71810882385E+02  0.13237532915E+03  0.00000000000E+00 0.  1.
         12    1    3    3    0    0  0.94996646162E+02  0.62175557397E+01  0.27150675842E+02  0.98995858399E+02  0.00000000000E+00 0. -1.
        -11    1    4    4    0    0 -0.16489770591E+03 -0.11969701864E+03 -0.33227777320E+02  0.20645269403E+03  0.00000000000E+00 0. -1.
         11    1    4    4    0    0 -0.52787924295E+02 -0.17468773614E+02  0.35393223896E+02  0.65912087668E+02  0.00000000000E+00 0.  1.
         21    1    1    2  503  502  0.20917111733E+02  0.17809097811E+02  0.10537305744E+03  0.10889522837E+03  0.00000000000E+00 0. -1.
         -2    1    1    2    0  503  0.14893158008E+02  0.18255465526E+03  0.42954353325E+03  0.46696429764E+03  0.00000000000E+00 0.  1.
<scales pt_clust_5="13000.00000" pt_clust_6="13000.00000" pt_clust_7="13000.00000" pt_clust_8="13000.00000" pt_clust_9="24.64766" pt_clust_10="210.95483"></scales>
<clustering>
<clus scale="   24.648">  9 10 -1 -1</clus>
<clus scale="   81.649">  5  6 -1 -1</clus>
<clus scale="   89.311">  7  8 -1 -1</clus>
<clus scale="  209.139">  2  5  1 -1</clus>
<clus scale="  210.955">  1  9  2 -1</clus>
<clus scale="  210.955">  1  5  2 -1</clus>
</clustering>
</event>
<event>
10    4  0.3403565E-005  0.2832942E+03  0.7546771E-02  0.1119464E+00
          2   -1    0    0  503    0 -0.00000000000E+00  0.00000000000E+00  0.17902796647E+04  0.17902796647E+04  0.00000000000E+00 0. -1.
         21   -1    0    0  501  502  0.00000000000E+00 -0.00000000000E+00 -0.11065046154E+03  0.11065046154E+03  0.00000000000E+00 0. -1.
         24    2    1    2    0    0 -0.12258517480E+03  0.13564129221E+02  0.38870840577E+03  0.41562177732E+03  0.80225472149E+02 0.  0.
         23    2    1    2    0    0  0.14087160715E+02 -0.19889685953E+03  0.18548259339E+03  0.28849595390E+03  0.95224545864E+02 0.  0.
        -13    1    3    3    0    0 -0.73133896574E+02 -0.28593580039E+02  0.16616611255E+03  0.18378611647E+03  0.00000000000E+00 0.  1.
         14    1    3    3    0    0 -0.49451278229E+02  0.42157709260E+02  0.22254229323E+03  0.23183566085E+03  0.00000000000E+00 0. -1.
        -13    1    4    4    0    0  0.45541351185E+02 -0.49226720873E+02  0.69262584471E+02  0.96408455663E+02  0.00000000000E+00 0.  1.
         13    1    4    4    0    0 -0.31454190470E+02 -0.14967013866E+03  0.11622000892E+03  0.19208749824E+03  0.00000000000E+00 0. -1.
         21    1    1    2  503  502  0.20903771122E+02  0.30754205481E+03  0.75095198618E+03  0.81175610172E+03  0.00000000000E+00 0. -1.
          1    1    1    2  501    0  0.87594242966E+02 -0.12220932450E+03  0.35448621781E+03  0.38505629330E+03  0.00000000000E+00 0. -1.
<scales pt_clust_5="13000.00000" pt_clust_6="13000.00000" pt_clust_7="13000.00000" pt_clust_8="13000.00000" pt_clust_9="266.81062" pt_clust_10="130.70346"></scales>
<clustering>
<clus scale="   80.225">  5  6 -1 -1</clus>
<clus scale="   95.225">  7  8 -1 -1</clus>
<clus scale="  147.130">  1  5  2 -1</clus>
<clus scale="  130.703">  2 10  1 -1</clus>
<clus scale="  266.811">  1  9  2 -1</clus>
<clus scale="  130.703">  2  5  1 -1</clus>
</clustering>
</event>
<event>
10    4  0.3403565E-005  0.2402869E+03  0.7546771E-02  0.1133353E+00
          2   -1    0    0  503    0 -0.00000000000E+00  0.00000000000E+00  0.37629116447E+03  0.37629116447E+03  0.00000000000E+00 0. -1.
         21   -1    0    0  501  502  0.00000000000E+00 -0.00000000000E+00 -0.45800372042E+03  0.45800372042E+03  0.00000000000E+00 0.  1.
         23    2    1    2    0    0  0.11455651020E+03 -0.30784949295E+02 -0.10638376840E+03  0.18376246883E+03  0.91543605113E+02 0.  0.
         24    2    1    2    0    0  0.10882835939E+03  0.12232654795E+03  0.14266773507E+03  0.23190550030E+03  0.81355284391E+02 0.  0.
        -11    1    4    4    0    0  0.11884677985E+03  0.96478107506E+02  0.10716088378E+03  0.18685833490E+03  0.00000000000E+00 0.  1.
         12    1    4    4    0    0 -0.10018420463E+02  0.25848440443E+02  0.35506851293E+02  0.45047165400E+02  0.00000000000E+00 0. -1.
        -11    1    3    3    0    0  0.46413767758E+02 -0.32636117580E+02 -0.10041141968E+03  0.11533346093E+03  0.00000000000E+00 0.  1.
         11    1    3    3    0    0  0.68142742444E+02  0.18511682850E+01 -0.59723487166E+01  0.68429007892E+02  0.00000000000E+00 0. -1.
         21    1    1    2  503  502  0.60531002936E+02 -0.10311981170E+02 -0.10669629519E+03  0.12310336583E+03  0.00000000000E+00 0.  1.
          1    1    1    2  501    0 -0.28391587253E+03 -0.81229617483E+02 -0.11300227433E+02  0.29552354994E+03  0.00000000000E+00 0. -1.
<scales pt_clust_5="13000.00000" pt_clust_6="13000.00000" pt_clust_7="13000.00000" pt_clust_8="13000.00000" pt_clust_9="61.40309" pt_clust_10="226.09532"></scales>
<clustering>
<clus scale="   61.403">  2  9  1 -1</clus>
<clus scale="   81.355">  5  6 -1 -1</clus>
<clus scale="   91.544">  7  8 -1 -1</clus>
<clus scale="  171.049">  1  7  2 -1</clus>
<clus scale="  226.095">  2 10  1 -1</clus>
<clus scale="   61.403">  2  5  1 -1</clus>
</clustering>
</event>
<event>
10    4  0.3403565E-005  0.3810914E+03  0.7546771E-02  0.1050791E+00
         21   -1    0    0  501  502  0.00000000000E+00  0.00000000000E+00  0.23401435085E+03  0.23401435085E+03  0.00000000000E+00 0. -1.
          2   -1    0    0  503    0 -0.00000000000E+00 -0.00000000000E+00 -0.13486112295E+04  0.13486112295E+04  0.00000000000E+00 0. -1.
         23    2    1    2    0    0  0.36018461526E+03 -0.24770649213E+03 -0.55824817400E+03  0.71513538779E+03  0.93199440865E+02 0.  0.
         24    2    1    2    0    0 -0.28789849941E+03  0.10176279106E+03 -0.22346826569E+03  0.38694665928E+03  0.80922430445E+02 0.  0.
        -11    1    4    4    0    0 -0.12377861316E+03  0.31724626920E+02 -0.14126735333E+03  0.19048375822E+03  0.00000000000E+00 0.  1.
         12    1    4    4    0    0 -0.16411988625E+03  0.70038164142E+02 -0.82200912356E+02  0.19646290106E+03  0.00000000000E+00 0. -1.
        -11    1    3    3    0    0  0.25650161573E+03 -0.12881591209E+03 -0.32566843327E+03  0.43410430372E+03  0.00000000000E+00 0. -1.
         11    1    3    3    0    0  0.10368299953E+03 -0.11889058004E+03 -0.23257974073E+03  0.28103108407E+03  0.00000000000E+00 0.  1.
         21    1    1    2  503  502  0.59843223471E+02 -0.27668420785E+02  0.17116121992E+02  0.68115450055E+02  0.00000000000E+00 0. -1.
          1    1    1    2  501    0 -0.13212933931E+03  0.17361212185E+03 -0.34999656100E+03  0.41242808327E+03  0.00000000000E+00 0. -1.
<scales pt_clust_5="13000.00000" pt_clust_6="13000.00000" pt_clust_7="13000.00000" pt_clust_8="13000.00000" pt_clust_9="65.92991" pt_clust_10="208.73181"></scales>
<clustering>
<clus scale="   65.930">  1  9  2 -1</clus>
<clus scale="   80.922">  5  6 -1 -1</clus>
<clus scale="   93.199">  7  8 -1 -1</clus>
<clus scale="  208.732">  1 10  2 -1</clus>
<clus scale="  378.276">  1  5  2 -1</clus>
<clus scale="   65.930">  1  5  2 -1</clus>
</clustering>
</event>
<event>
10    4  0.3403565E-005  0.1620959E+03  0.7546771E-02  0.1197617E+00
         21   -1    0    0  503  502  0.00000000000E+00  0.00000000000E+00  0.11639794701E+03  0.11639794701E+03  0.00000000000E+00 0. -1.
          2   -1    0    0  502    0 -0.00000000000E+00 -0.00000000000E+00 -0.54387312241E+03  0.54387312241E+03  0.00000000000E+00 0. -1.
         24    2    1    2    0    0 -0.20520246973E+02 -0.87170237298E+02 -0.25847397606E+02  0.12094033100E+03  0.77063252545E+02 0.  0.
         23    2    1    2    0    0 -0.10766835769E+03 -0.24671830872E+02 -0.16816549472E+03  0.21996087165E+03  0.88893064718E+02 0.  0.
        -11    1    3    3    0    0  0.16644493574E+02 -0.76557522465E+02 -0.25149867239E+02  0.82283711842E+02  0.00000000000E+00 0.  1.
         12    1    3    3    0    0 -0.37164740547E+02 -0.10612714832E+02 -0.69753036700E+00  0.38656619157E+02  0.00000000000E+00 0. -1.
        -11    1    4    4    0    0 -0.46064454834E+02 -0.55506566082E+02 -0.74592434862E+02  0.10376388686E+03  0.00000000000E+00 0.  1.
         11    1    4    4    0    0 -0.61603902854E+02  0.30834735210E+02 -0.93573059859E+02  0.11619698479E+03  0.00000000000E+00 0. -1.
         21    1    1    2  503  501  0.84521231289E+01 -0.26046138290E+02 -0.66554947585E+01  0.28180406592E+02  0.00000000000E+00 0. -1.
          1    1    1    2  501    0  0.11973648153E+03  0.13788820646E+03 -0.22680678831E+03  0.29118946017E+03  0.00000000000E+00 0. -1.
<scales pt_clust_5="13000.00000" pt_clust_6="13000.00000" pt_clust_7="13000.00000" pt_clust_8="13000.00000" pt_clust_9="27.38320" pt_clust_10="135.54754"></scales>
<clustering>
<clus scale="   27.383">  1  9  2 -1</clus>
<clus scale="   77.063">  5  6 -1 -1</clus>
<clus scale="   88.893">  7  8 -1 -1</clus>
<clus scale="  126.484">  2  5  1 -1</clus>
<clus scale="  135.548">  1 10  2 -1</clus>
<clus scale="   27.383">  1  5  2 -1</clus>
</clustering>
</event>
<event>
10    4  0.3403565E-005  0.3966145E+03  0.7546771E-02  0.1081665E+00
         21   -1    0    0  503  502  0.00000000000E+00  0.00000000000E+00  0.24168439810E+03  0.24168439810E+03  0.00000000000E+00 0. -1.
          2   -1    0    0  502    0 -0.00000000000E+00 -0.00000000000E+00 -0.14807249081E+04  0.14807249081E+04  0.00000000000E+00 0. -1.
         23    2    1    2    0    0 -0.10332183813E+02  0.10883875375E+03 -0.65616341095E+03  0.67144716015E+03  0.91313956544E+02 0.  0.
         24    2    1    2    0    0 -0.15760982521E+03 -0.41791501806E+03 -0.36639986582E+03  0.58313772241E+03  0.79416133719E+02 0.  0.
        -13    1    4    4    0    0 -0.67104901633E+02 -0.90636842227E+02 -0.72658267373E+02  0.13415412334E+03  0.00000000000E+00 0.  1.
         14    1    4    4    0    0 -0.90504923575E+02 -0.32727817583E+03 -0.29374159845E+03  0.44898359906E+03  0.00000000000E+00 0. -1.
        -13    1    3    3    0    0 -0.42501909460E+02  0.94133640703E+02 -0.54796456118E+03  0.55761340992E+03  0.00000000000E+00 0.  1.
         13    1    3    3    0    0  0.32169725647E+02  0.14705113047E+02 -0.10819884977E+03  0.11383375023E+03  0.00000000000E+00 0. -1.
         21    1    1    2  503  501 -0.17963675432E+02  0.13155787679E+02  0.32027595121E+02  0.39006861367E+02  0.00000000000E+00 0. -1.
          1    1    1    2  501    0  0.18590568445E+03  0.29592047663E+03 -0.24850482831E+03  0.42881756225E+03  0.00000000000E+00 0. -1.
<scales pt_clust_5="13000.00000" pt_clust_6="13000.00000" pt_clust_7="13000.00000" pt_clust_8="13000.00000" pt_clust_9="22.26586" pt_clust_10="388.58225"></scales>
<clustering>
<clus scale="   22.266">  1  9  2 -1</clus>
<clus scale="   79.416">  5  6 -1 -1</clus>
<clus scale="   91.314">  7  8 -1 -1</clus>
<clus scale="  142.869">  2  7  1 -1</clus>
<clus scale="  388.582">  1 10  2 -1</clus>
<clus scale="   22.266">  1  5  2 -1</clus>
</clustering>
</event>
<event>
10    4  0.3403565E-005  0.9433111E+02  0.7546771E-02  0.1299854E+00
          4   -1    0    0  502    0 -0.00000000000E+00  0.00000000000E+00  0.31050513950E+03  0.31050513950E+03  0.00000000000E+00 0. -1.
         21   -1    0    0  503  502  0.00000000000E+00 -0.00000000000E+00 -0.18313374615E+03  0.18313374615E+03  0.00000000000E+00 0.  1.
         23    2    1    2    0    0  0.72743977496E+00 -0.46067977476E+01  0.14037807873E+03  0.16811696118E+03  0.92388072254E+02 0.  0.
         24    2    1    2    0    0 -0.30076009926E+02 -0.43690841806E+02  0.88296787054E+02  0.13064809002E+03  0.80368804844E+02 0.  0.
        -11    1    4    4    0    0 -0.33228758709E+02 -0.63741978385E+02  0.50838554744E+02  0.88044016618E+02  0.00000000000E+00 0.  1.
         12    1    4    4    0    0  0.31527487824E+01  0.20051136579E+02  0.37458232310E+02  0.42604073406E+02  0.00000000000E+00 0. -1.
        -13    1    3    3    0    0  0.38472750831E+01  0.43463197115E+02  0.77091491547E+02  0.88583006824E+02  0.00000000000E+00 0. -1.
         13    1    3    3    0    0 -0.31198353081E+01 -0.48069994863E+02  0.63286587184E+02  0.79533954358E+02  0.00000000000E+00 0.  1.
         21    1    1    2  503  501  0.38007760495E+01  0.30132731977E+02 -0.14103324850E+03  0.14426643621E+03  0.00000000000E+00 0.  1.
          3    1    1    2  501    0  0.25547794102E+02  0.18164907576E+02  0.39729776060E+02  0.50607398239E+02  0.00000000000E+00 0. -1.
<scales pt_clust_5="13000.00000" pt_clust_6="13000.00000" pt_clust_7="13000.00000" pt_clust_8="13000.00000" pt_clust_9="30.37149" pt_clust_10="34.24125"></scales>
<clustering>
<clus scale="   30.371">  2  9  1 -1</clus>
<clus scale="   34.241">  2 10  1 -1</clus>
<clus scale="   80.369">  5  6 -1 -1</clus>
<clus scale="   82.595">  2  5  1 -1</clus>
<clus scale="   92.388">  7  8 -1 -1</clus>
<clus scale="   30.371">  2  5  1 -1</clus>
</clustering>
</event>
<event>
10    4  0.3403565E-005  0.2583666E+03  0.7546771E-02  0.1151273E+00
         21   -1    0    0  503  502  0.00000000000E+00  0.00000000000E+00  0.18449040417E+03  0.18449040417E+03  0.00000000000E+00 0.  1.
          2   -1    0    0  502    0 -0.00000000000E+00 -0.00000000000E+00 -0.31717124163E+04  0.31717124163E+04  0.00000000000E+00 0. -1.
         24    2    1    2    0    0 -0.25214731291E+02 -0.32156050306E+02 -0.25557836337E+03  0.27102286682E+03  0.80394653265E+02 0.  0.
         23    2    1    2    0    0 -0.21483189672E+03 -0.11137183765E+03 -0.82964277740E+03  0.86888394518E+03  0.89976341473E+02 0.  0.
        -11    1    3    3    0    0 -0.37787640160E+02 -0.95225045752E+01 -0.47958428860E+02  0.61794779237E+02  0.00000000000E+00 0.  1.
         12    1    3    3    0    0  0.12572908869E+02 -0.22633545731E+02 -0.20761993451E+03  0.20922808758E+03  0.00000000000E+00 0. -1.
        -13    1    4    4    0    0 -0.13483673045E+03 -0.11190944247E+03 -0.62692123464E+03  0.65094923123E+03  0.00000000000E+00 0.  1.
         13    1    4    4    0    0 -0.79995166273E+02  0.53760481810E+00 -0.20272154276E+03  0.21793471395E+03  0.00000000000E+00 0. -1.
         21    1    1    2  503  501  0.22724214817E+02 -0.65985297687E+01  0.14773178159E+03  0.14961487168E+03  0.00000000000E+00 0.  1.
          1    1    1    2  501    0  0.21732241320E+03  0.15012641773E+03 -0.20497326530E+04  0.20666811368E+04  0.00000000000E+00 0. -1.
<scales pt_clust_5="13000.00000" pt_clust_6="13000.00000" pt_clust_7="13000.00000" pt_clust_8="13000.00000" pt_clust_9="23.66285" pt_clust_10="242.19330"></scales>
<clustering>
<clus scale="   23.663">  1  9  2 -1</clus>
<clus scale="   80.395">  5  6 -1 -1</clus>
<clus scale="   89.463">  2  5  1 -1</clus>
<clus scale="   89.976">  7  8 -1 -1</clus>
<clus scale="  242.193">  1 10  2 -1</clus>
<clus scale="   23.663">  1  5  2 -1</clus>
</clustering>
</event>
<event>
10    4  0.3403565E-005  0.1300475E+03  0.7546771E-02  0.1230103E+00
          2   -1    0    0  503    0 -0.00000000000E+00  0.00000000000E+00  0.16039297636E+04  0.16039297636E+04  0.00000000000E+00 0. -1.
         21   -1    0    0  501  502  0.00000000000E+00 -0.00000000000E+00 -0.52100451065E+02  0.52100451065E+02  0.00000000000E+00 0. -1.
         24    2    1    2    0    0 -0.86697663794E+02 -0.44293488868E+02  0.11974234424E+04  0.12041168327E+04  0.81216059226E+02 0.  0.
         23    2    1    2    0    0  0.52050350693E+02  0.38235683633E+02  0.14846503690E+03  0.18603331428E+03  0.91625980643E+02 0.  0.
        -11    1    3    3    0    0 -0.30311221631E+02 -0.13079764540E+02  0.11155149290E+03  0.11633394159E+03  0.00000000000E+00 0.  1.
         12    1    3    3    0    0 -0.56386442163E+02 -0.31213724328E+02  0.10858719495E+04  0.10877828911E+04  0.00000000000E+00 0. -1.
        -11    1    4    4    0    0  0.70976343833E+02  0.22836007293E+02  0.14263504074E+03  0.16094682183E+03  0.00000000000E+00 0.  1.
         11    1    4    4    0    0 -0.18925993141E+02  0.15399676340E+02  0.58299961638E+01  0.25086492441E+02  0.00000000000E+00 0. -1.
         21    1    1    2  503  502 -0.29587098489E+01 -0.70192572090E+02  0.14547654739E+03  0.16155239701E+03  0.00000000000E+00 0. -1.
          1    1    1    2  501    0  0.37606022950E+02  0.76250377325E+02  0.60464285788E+02  0.10432767064E+03  0.00000000000E+00 0. -1.
<scales pt_clust_5="13000.00000" pt_clust_6="13000.00000" pt_clust_7="13000.00000" pt_clust_8="13000.00000" pt_clust_9="70.25490" pt_clust_10="54.88496"></scales>
<clustering>
<clus scale="   70.255">  2  9  1 -1</clus>
<clus scale="   54.885">  2 10  1 -1</clus>
<clus scale="   81.216">  5  6 -1 -1</clus>
<clus scale="   91.626">  7  8 -1 -1</clus>
<clus scale="  122.935">  1  5  2 -1</clus>
<clus scale="   70.255">  2  5  1 -1</clus>
</clustering>
</event>
<event>
10    4  0.3403565E-005  0.5255134E+03  0.7546771E-02  0.1007326E+00
         21   -1    0    0  501  502  0.00000000000E+00  0.00000000000E+00  0.44214085005E+03  0.44214085005E+03  0.00000000000E+00 0.  1.
          2   -1    0    0  503    0 -0.00000000000E+00 -0.00000000000E+00 -0.89385750983E+03  0.89385750983E+03  0.00000000000E+00 0. -1.
         24    2    1    2    0    0 -0.14476553188E+03 -0.11849510064E+03 -0.15373676013E+03  0.25619444219E+03  0.83680659033E+02 0.  0.
         23    2    1    2    0    0  0.34863614379E+02 -0.27983183022E+03 -0.21567432826E+03  0.36719405849E+03  0.93780253297E+02 0.  0.
        -13    1    3    3    0    0 -0.14364224108E+03 -0.94115510389E+02 -0.10392909692E+03  0.20072887163E+03  0.00000000000E+00 0.  1.
         14    1    3    3    0    0 -0.11232908012E+01 -0.24379590250E+02 -0.49807663212E+02  0.55465570561E+02  0.00000000000E+00 0. -1.
        -13    1    4    4    0    0 -0.31908874110E+01 -0.14408614859E+03 -0.16074176537E+03  0.21589097970E+03  0.00000000000E+00 0.  1.
         13    1    4    4    0    0  0.38054501790E+02 -0.13574568163E+03 -0.54932562883E+02  0.15130307879E+03  0.00000000000E+00 0. -1.
         21    1    1    2  503  502  0.69099139654E+02 -0.78624748157E+02  0.14809677485E+03  0.18135378917E+03  0.00000000000E+00 0.  1.
          1    1    1    2  501    0  0.40802777850E+02  0.47695167902E+03 -0.23040234625E+03  0.53125607004E+03  0.00000000000E+00 0. -1.
<scales pt_clust_5="13000.00000" pt_clust_6="13000.00000" pt_clust_7="13000.00000" pt_clust_8="13000.00000" pt_clust_9="104.67350" pt_clust_10="441.31445"></scales>
<clustering>
<clus scale="   83.681">  5  6 -1 -1</clus>
<clus scale="   93.780">  7  8 -1 -1</clus>
<clus scale="  104.674">  1  9  2 -1</clus>
<clus scale="  196.785">  5  7 -1 -1</clus>
<clus scale="  441.314">  1 10  2 -1</clus>
<clus scale="  104.674">  1  5  2 -1</clus>
</clustering>
</event>
<event>
10    4  0.3403565E-005  0.1177335E+03  0.7546771E-02  0.1248764E+00
         21   -1    0    0  503  502  0.00000000000E+00  0.00000000000E+00  0.13534258971E+03  0.13534258971E+03  0.00000000000E+00 0. -1.
         -3   -1    0    0    0  501 -0.00000000000E+00 -0.00000000000E+00 -0.35352871301E+03  0.35352871301E+03  0.00000000000E+00 0.  1.
         24    2    1    2    0    0  0.58474027174E+02 -0.60336317289E+02 -0.12985352179E+03  0.17510646766E+03  0.82101491195E+02 0.  0.
         23    2    1    2    0    0 -0.45766132921E+02  0.55713554634E+02 -0.10989498573E+03  0.15818644444E+03  0.88019908114E+02 0.  0.
        -13    1    3    3    0    0  0.23214723931E+02 -0.11903715362E+02 -0.10836537678E+03  0.11146154822E+03  0.00000000000E+00 0.  1.
         14    1    3    3    0    0  0.35259303244E+02 -0.48432601927E+02 -0.21488145012E+02  0.63644919442E+02  0.00000000000E+00 0. -1.
        -11    1    4    4    0    0  0.26419913643E+02  0.18872746635E+02 -0.36457376549E+02  0.48819388641E+02  0.00000000000E+00 0.  1.
         11    1    4    4    0    0 -0.72186046564E+02  0.36840808000E+02 -0.73437609181E+02  0.10936705580E+03  0.00000000000E+00 0. -1.
         21    1    1    2  503  501 -0.72932057127E+02 -0.33886105002E+02  0.24396056908E+02  0.84038804500E+02  0.00000000000E+00 0. -1.
         -4    1    1    2    0  502  0.60224162875E+02  0.38508867657E+02 -0.28336726903E+01  0.71539586126E+02  0.00000000000E+00 0.  1.
<scales pt_clust_5="13000.00000" pt_clust_6="13000.00000" pt_clust_7="13000.00000" pt_clust_8="13000.00000" pt_clust_9="42.69572" pt_clust_10="71.48344"></scales>
<clustering>
<clus scale="   71.483">  1 10  2 -1</clus>
<clus scale="   42.696">  1  9  2 -1</clus>
<clus scale="   82.101">  5  6 -1 -1</clus>
<clus scale="   88.020">  7  8 -1 -1</clus>
<clus scale="  113.377">  2  5  1 -1</clus>
<clus scale="   71.483">  1  5  2 -1</clus>
</clustering>
</event>
<event>
10    4  0.3403565E-005  0.1042214E+03  0.7546771E-02  0.1275726E+00
          2   -1    0    0  503    0 -0.00000000000E+00  0.00000000000E+00  0.22097268571E+03  0.22097268571E+03  0.00000000000E+00 0. -1.
         21   -1    0    0  501  502  0.00000000000E+00 -0.00000000000E+00 -0.12917026951E+03  0.12917026951E+03  0.00000000000E+00 0. -1.
         23    2    1    2    0    0 -0.11670609691E+02 -0.47143541583E+02  0.94430194575E+02  0.13885993770E+03  0.89477952632E+02 0.  0.
         24    2    1    2    0    0  0.63644535785E+02  0.46433890258E+02 -0.95149836095E+01  0.11283596638E+03  0.80216502641E+02 0.  0.
        -11    1    4    4    0    0  0.29750667297E+02 -0.21363574636E+02 -0.37991399275E+01  0.36823063290E+02  0.00000000000E+00 0.  1.
         12    1    4    4    0    0  0.33893868488E+02  0.67797464894E+02 -0.57158436820E+01  0.76012903090E+02  0.00000000000E+00 0. -1.
        -13    1    3    3    0    0  0.36183001495E+02 -0.36304730000E+02  0.60034186650E+02  0.78938878788E+02  0.00000000000E+00 0. -1.
         13    1    3    3    0    0 -0.47853611186E+02 -0.10838811584E+02  0.34396007925E+02  0.59921058913E+02  0.00000000000E+00 0.  1.
         21    1    1    2  503  502  0.84834317416E+01 -0.28947906896E+02 -0.32829336254E+01  0.30343493223E+02  0.00000000000E+00 0. -1.
          1    1    1    2  501    0 -0.60457357836E+02  0.29657558222E+02  0.10170138857E+02  0.68103557914E+02  0.00000000000E+00 0. -1.
<scales pt_clust_5="13000.00000" pt_clust_6="13000.00000" pt_clust_7="13000.00000" pt_clust_8="13000.00000" pt_clust_9="30.16538" pt_clust_10="62.35398"></scales>
<clustering>
<clus scale="   30.165">  2  9  1 -1</clus>
<clus scale="   62.354">  2 10  1 -1</clus>
<clus scale="   80.217">  5  6 -1 -1</clus>
<clus scale="   89.478">  7  8 -1 -1</clus>
<clus scale="   96.387">  2  5  1 -1</clus>
<clus scale="   30.165">  2  5  1 -1</clus>
</clustering>
</event>
<event>
10    4  0.3403565E-005  0.1250529E+03  0.7546771E-02  0.1241019E+00
         21   -1    0    0  503  502  0.00000000000E+00  0.00000000000E+00  0.81281324662E+02  0.81281324662E+02  0.00000000000E+00 0.  1.
          2   -1    0    0  502    0 -0.00000000000E+00 -0.00000000000E+00 -0.87931167192E+03  0.87931167192E+03  0.00000000000E+00 0. -1.
         24    2    1    2    0    0 -0.65743564200E+02  0.15212582515E+02 -0.20064639110E+03  0.22688007606E+03  0.81620804639E+02 0.  0.
         23    2    1    2    0    0 -0.44770624606E+02 -0.64995760137E+02 -0.14644012779E+03  0.19288441276E+03  0.97625959637E+02 0.  0.
        -11    1    3    3    0    0 -0.61528492959E+02  0.14589631961E+02 -0.20853648082E+03  0.21791300246E+03  0.00000000000E+00 0.  1.
         12    1    3    3    0    0 -0.42150712412E+01  0.62295055439E+00  0.78900897269E+01  0.89670735951E+01  0.00000000000E+00 0. -1.
        -11    1    4    4    0    0 -0.27033744789E+02 -0.42386396864E+02 -0.72915729502E+01  0.50799577090E+02  0.00000000000E+00 0.  1.
         11    1    4    4    0    0 -0.17736879817E+02 -0.22609363273E+02 -0.13914855484E+03  0.14208483567E+03  0.00000000000E+00 0. -1.
         21    1    1    2  503  501 -0.12367704837E+02  0.40972860577E+02  0.24750430602E+02  0.49440057057E+02  0.00000000000E+00 0.  1.
          1    1    1    2  501    0  0.12288189364E+03  0.88103170445E+01 -0.47569425897E+03  0.49138845071E+03  0.00000000000E+00 0. -1.
<scales pt_clust_5="13000.00000" pt_clust_6="13000.00000" pt_clust_7="13000.00000" pt_clust_8="13000.00000" pt_clust_9="42.79878" pt_clust_10="78.14994"></scales>
<clustering>
<clus scale="   42.799">  1  9  2 -1</clus>
<clus scale="   81.621">  5  6 -1 -1</clus>
<clus scale="   97.626">  7  8 -1 -1</clus>
<clus scale="  110.589">  2  5  1 -1</clus>
<clus scale="   78.150">  1 10  2 -1</clus>
<clus scale="   42.799">  1  5  2 -1</clus>
</clustering>
</event>
<event>
10    4  0.3403565E-005  0.1707364E+03  0.7546771E-02  0.1177743E+00
          2   -1    0    0  503    0 -0.00000000000E+00  0.00000000000E+00  0.92236980897E+03  0.92236980897E+03  0.00000000000E+00 0. -1.
         21   -1    0    0  501  502  0.00000000000E+00 -0.00000000000E+00 -0.31524208790E+03  0.31524208790E+03  0.00000000000E+00 0.  1.
         23    2    1    2    0    0 -0.13033714597E+03  0.50944151442E+02  0.62369911865E+03  0.64510550072E+03  0.87048482354E+02 0.  0.
         24    2    1    2    0    0  0.16117437983E+03 -0.49102337048E+02  0.23500417018E+03  0.30055806265E+03  0.81975415833E+02 0.  0.
        -13    1    4    4    0    0  0.61664909812E+01 -0.30653357888E+02  0.38649962822E+02  0.49713917437E+02  0.00000000000E+00 0.  1.
         14    1    4    4    0    0  0.15500788885E+03 -0.18448979161E+02  0.19635420736E+03  0.25084414521E+03  0.00000000000E+00 0. -1.
        -13    1    3    3    0    0 -0.13538174987E+03  0.25397838984E+02  0.54827234883E+03  0.56531038988E+03  0.00000000000E+00 0.  1.
         13    1    3    3    0    0  0.50446039008E+01  0.25546312459E+02  0.75426769819E+02  0.79795110841E+02  0.00000000000E+00 0. -1.
         21    1    1    2  503  502 -0.44746155445E+02  0.25477575426E+02 -0.25586387707E+03  0.26099358012E+03  0.00000000000E+00 0.  1.
          1    1    1    2  501    0  0.13908921584E+02 -0.27319389820E+02  0.42883093150E+01  0.30954753375E+02  0.00000000000E+00 0. -1.
<scales pt_clust_5="13000.00000" pt_clust_6="13000.00000" pt_clust_7="13000.00000" pt_clust_8="13000.00000" pt_clust_9="32.90697" pt_clust_10="30.65627"></scales>
<clustering>
<clus scale="   30.656">  2 10  1 -1</clus>
<clus scale="   32.907">  2  9  1 -1</clus>
<clus scale="   81.975">  5  6 -1 -1</clus>
<clus scale="   87.048">  7  8 -1 -1</clus>
<clus scale="  168.207">  2  5  1 -1</clus>
<clus scale="   30.656">  2  5  1 -1</clus>
</clustering>
</event>
<event>
10    4  0.3403565E-005  0.1122844E+03  0.7546771E-02  0.1260633E+00
         21   -1    0    0  501  502  0.00000000000E+00  0.00000000000E+00  0.13990270711E+03  0.13990270711E+03  0.00000000000E+00 0. -1.
         -3   -1    0    0    0  501 -0.00000000000E+00 -0.00000000000E+00 -0.11462190499E+04  0.11462190499E+04  0.00000000000E+00 0.  1.
         24    2    1    2    0    0 -0.31308427287E+01 -0.66612813094E+02 -0.42452223825E+03  0.43704156217E+03  0.79618636318E+02 0.  0.
         23    2    1    2    0    0 -0.33026146411E+02  0.62400626208E+02 -0.19246304070E+03  0.22428561563E+03  0.90980497057E+02 0.  0.
        -13    1    3    3    0    0  0.16545311137E+01 -0.84404082734E+02 -0.32232395686E+03  0.33319591808E+03  0.00000000000E+00 0.  1.
         14    1    3    3    0    0 -0.47853738425E+01  0.17791269640E+02 -0.10219828139E+03  0.10384564410E+03  0.00000000000E+00 0. -1.
        -13    1    4    4    0    0 -0.61923499991E+02  0.22559941337E+02 -0.10730024654E+03  0.12592384092E+03  0.00000000000E+00 0. -1.
         13    1    4    4    0    0  0.28897353580E+02  0.39840684871E+02 -0.85162794160E+02  0.98361774710E+02  0.00000000000E+00 0.  1.
         21    1    1    2  503  502 -0.54955182670E+02  0.47325659357E+02  0.10092674169E+03  0.12428192678E+03  0.00000000000E+00 0. -1.
         -4    1    1    2    0  503  0.91112171810E+02 -0.43113472471E+02 -0.49025780554E+03  0.50051265244E+03  0.00000000000E+00 0.  1.
<scales pt_clust_5="13000.00000" pt_clust_6="13000.00000" pt_clust_7="13000.00000" pt_clust_8="13000.00000" pt_clust_9="72.52441" pt_clust_10="87.74017"></scales>
<clustering>
<clus scale="   72.524">  1  9  2 -1</clus>
<clus scale="   79.619">  5  6 -1 -1</clus>
<clus scale="   87.740">  1 10  2 -1</clus>
<clus scale="   90.980">  7  8 -1 -1</clus>
<clus scale="  103.293">  2  5  1 -1</clus>
<clus scale="   72.524">  1  5  2 -1</clus>
</clustering>
</event>
<event>
10    4  0.3403565E-005  0.1307833E+03  0.7546771E-02  0.1243113E+00
          2   -1    0    0  503    0 -0.00000000000E+00  0.00000000000E+00  0.84340787010E+03  0.84340787010E+03  0.00000000000E+00 0. -1.
         21   -1    0    0  501  502  0.00000000000E+00 -0.00000000000E+00 -0.53447049190E+02  0.53447049190E+02  0.00000000000E+00 0. -1.
         24    2    1    2    0    0  0.70715955847E+02  0.82240112971E+02  0.50015276849E+03  0.51748468363E+03  0.76638263064E+02 0.  0.
         23    2    1    2    0    0  0.16430930350E+02  0.28989625063E+00  0.74574383814E+02  0.11960399293E+03  0.92052794049E+02 0.  0.
        -11    1    3    3    0    0  0.26711796115E+02 -0.11629786374E+02  0.11044576071E+03  0.11422363171E+03  0.00000000000E+00 0.  1.
         12    1    3    3    0    0  0.44004159733E+02  0.93869899345E+02  0.38970700778E+03  0.40326105192E+03  0.00000000000E+00 0. -1.
        -11    1    4    4    0    0 -0.22332330619E+02  0.34754737594E+02  0.38061594236E+02  0.56172143736E+02  0.00000000000E+00 0.  1.
         11    1    4    4    0    0  0.38763260969E+02 -0.34464841344E+02  0.36512789578E+02  0.63431849197E+02  0.00000000000E+00 0. -1.
         21    1    1    2  503  502 -0.70935136995E+02 -0.70553561628E+02  0.95374181131E+02  0.13822385158E+03  0.00000000000E+00 0. -1.
          1    1    1    2  501    0 -0.16211749202E+02 -0.11976447594E+02  0.11985948747E+03  0.12154239115E+03  0.00000000000E+00 0. -1.
<scales pt_clust_5="13000.00000" pt_clust_6="13000.00000" pt_clust_7="13000.00000" pt_clust_8="13000.00000" pt_clust_9="105.97574" pt_clust_10="20.15581"></scales>
<clustering>
<clus scale="   20.156">  2 10  1 -1</clus>
<clus scale="   76.638">  5  6 -1 -1</clus>
<clus scale="   92.053">  7  8 -1 -1</clus>
<clus scale="   92.667">  2  7  1 -1</clus>
<clus scale="  105.976">  2  9  1 -1</clus>
<clus scale="   20.156">  2  5  1 -1</clus>
</clustering>
</event>
<event>
10    4  0.3403565E-005  0.1469421E+03  0.7546771E-02  0.1206691E+00
         21   -1    0    0  503  502  0.00000000000E+00  0.00000000000E+00  0.34106587470E+03  0.34106587470E+03  0.00000000000E+00 0. -1.
         -1   -1    0    0    0  501 -0.00000000000E+00 -0.00000000000E+00 -0.20289870709E+03  0.20289870709E+03  0.00000000000E+00 0.  1.
         23    2    1    2    0    0 -0.30787817545E+02 -0.10523892246E+03 -0.84658770071E+02  0.16501661402E+03  0.89667469268E+02 0.  0.
         24    2    1    2    0    0 -0.11393848799E+02  0.16087914140E+03  0.18281313337E+03  0.25562926274E+03  0.76900977276E+02 0.  0.
        -13    1    4    4    0    0 -0.10432005621E+02  0.48519059645E+02  0.11811107658E+02  0.51013999590E+02  0.00000000000E+00 0.  1.
         14    1    4    4    0    0 -0.96184317800E+00  0.11236008176E+03  0.17100202571E+03  0.20461526315E+03  0.00000000000E+00 0. -1.
        -13    1    3    3    0    0  0.23102825509E+02 -0.77195079905E+02 -0.42783775069E+02  0.91231969820E+02  0.00000000000E+00 0.  1.
         13    1    3    3    0    0 -0.53890643054E+02 -0.28043842550E+02 -0.41874995002E+02  0.73784644203E+02  0.00000000000E+00 0. -1.
         21    1    1    2  503  501 -0.22112183184E+01  0.21009107541E+02  0.26224976431E+02  0.33675235336E+02  0.00000000000E+00 0. -1.
         -2    1    1    2    0  502  0.44392884662E+02 -0.76649326488E+02  0.13787827881E+02  0.89643469685E+02  0.00000000000E+00 0.  1.
<scales pt_clust_5="13000.00000" pt_clust_6="13000.00000" pt_clust_7="13000.00000" pt_clust_8="13000.00000" pt_clust_9="21.12515" pt_clust_10="85.38262"></scales>
<clustering>
<clus scale="   21.125">  1  9  2 -1</clus>
<clus scale="   76.901">  5  6 -1 -1</clus>
<clus scale="   85.383">  1 10  2 -1</clus>
<clus scale="   89.667">  7  8 -1 -1</clus>
<clus scale="  139.519">  1  5  2 -1</clus>
<clus scale="   21.125">  1  5  2 -1</clus>
</clustering>
</event>
<event>
10    4  0.3403565E-005  0.2318514E+03  0.7546771E-02  0.1126089E+00
         21   -1    0    0  501  502  0.00000000000E+00  0.00000000000E+00  0.44492660910E+02  0.44492660910E+02  0.00000000000E+00 0.  1.
          2   -1    0    0  503    0 -0.00000000000E+00 -0.00000000000E+00 -0.27001910356E+04  0.27001910356E+04  0.00000000000E+00 0. -1.
         24    2    1    2    0    0 -0.18820826248E+03  0.82507423212E+02 -0.12544239068E+04  0.12736382670E+04  0.79657217488E+02 0.  0.
         23    2    1    2    0    0  0.19328161064E+03 -0.13156563727E+03 -0.68291103750E+03  0.72755008487E+03  0.91073283368E+02 0.  0.
        -13    1    3    3    0    0 -0.20250436110E+02  0.88437219902E+01 -0.42358960165E+02  0.47776281642E+02  0.00000000000E+00 0.  1.
         14    1    3    3    0    0 -0.16795782637E+03  0.73663701222E+02 -0.12120649467E+04  0.12258619854E+04  0.00000000000E+00 0. -1.
        -11    1    4    4    0    0  0.10111697046E+03 -0.21887651183E+02 -0.35365815295E+03  0.36848039315E+03  0.00000000000E+00 0. -1.
         11    1    4    4    0    0  0.92164640181E+02 -0.10967798608E+03 -0.32925288455E+03  0.35906969173E+03  0.00000000000E+00 0.  1.
         21    1    1    2  503  502  0.27721499607E+02 -0.34454071522E+02 -0.41284336817E+02  0.60497611948E+02  0.00000000000E+00 0.  1.
          1    1    1    2  501    0 -0.32794847768E+02  0.83512285576E+02 -0.67707909361E+03  0.68299773270E+03  0.00000000000E+00 0. -1.
<scales pt_clust_5="13000.00000" pt_clust_6="13000.00000" pt_clust_7="13000.00000" pt_clust_8="13000.00000" pt_clust_9="44.22177" pt_clust_10="86.14805"></scales>
<clustering>
<clus scale="   44.222">  1  9  2 -1</clus>
<clus scale="   79.657">  5  6 -1 -1</clus>
<clus scale="   86.148">  1 10  2 -1</clus>
<clus scale="   91.073">  7  8 -1 -1</clus>
<clus scale="  227.609">  2  5  1 -1</clus>
<clus scale="   44.222">  1  5  2 -1</clus>
</clustering>
</event>
<event>
10    4  0.3403565E-005  0.1093457E+03  0.7546771E-02  0.1266701E+00
         -1   -1    0    0    0  501 -0.00000000000E+00  0.00000000000E+00  0.35689189986E+03  0.35689189986E+03  0.00000000000E+00 0.  1.
         21   -1    0    0  503  502  0.00000000000E+00 -0.00000000000E+00 -0.17224158266E+03  0.17224158266E+03  0.00000000000E+00 0. -1.
         23    2    1    2    0    0 -0.63456912391E+02  0.49918374109E+01  0.12699638349E+03  0.16828760520E+03  0.90227149318E+02 0.  0.
         24    2    1    2    0    0  0.38058651732E+02  0.11969399174E+03 -0.12165484329E+02  0.14824522915E+03  0.77804474977E+02 0.  0.
        -11    1    4    4    0    0  0.11995900681E+02  0.21400404012E+02  0.29484236886E+02  0.38356213966E+02  0.00000000000E+00 0.  1.
         12    1    4    4    0    0  0.26062751050E+02  0.98293587729E+02 -0.41649721216E+02  0.10988901518E+03  0.00000000000E+00 0. -1.
        -11    1    3    3    0    0 -0.70703676725E+01  0.39840385373E+02  0.70061888248E+02  0.80906826601E+02  0.00000000000E+00 0. -1.
         11    1    3    3    0    0 -0.56386544718E+02 -0.34848547962E+02  0.56934495238E+02  0.87380778598E+02  0.00000000000E+00 0.  1.
         21    1    1    2  503  501  0.16644833158E+01 -0.73742362991E+02 -0.43839765530E+02  0.85805778628E+02  0.00000000000E+00 0. -1.
         -2    1    1    2    0  502  0.23733777343E+02 -0.50943466160E+02  0.11365918357E+03  0.12679486954E+03  0.00000000000E+00 0.  1.
<scales pt_clust_5="13000.00000" pt_clust_6="13000.00000" pt_clust_7="13000.00000" pt_clust_8="13000.00000" pt_clust_9="94.31280" pt_clust_10="56.20082"></scales>
<clustering>
<clus scale="   56.201">  2 10  1 -1</clus>
<clus scale="   77.804">  5  6 -1 -1</clus>
<clus scale="   90.227">  7  8 -1 -1</clus>
<clus scale="   94.313">  2  9  1 -1</clus>
<clus scale="   99.343">  2  5  1 -1</clus>
<clus scale="   56.201">  2  5  1 -1</clus>
</clustering>
</event>
<event>
10    4  0.3403565E-005  0.1401791E+03  0.7546771E-02  0.1223330E+00
          2   -1    0    0  503    0 -0.00000000000E+00  0.00000000000E+00  0.61041552966E+03  0.61041552966E+03  0.00000000000E+00 0. -1.
         21   -1    0    0  501  502  0.00000000000E+00 -0.00000000000E+00 -0.29547525045E+03  0.29547525045E+03  0.00000000000E+00 0. -1.
         23    2    1    2    0    0  0.23734133890E+02 -0.61569510841E+02  0.12452737195E+03  0.16768413052E+03  0.90866866821E+02 0.  0.
         24    2    1    2    0    0  0.91323839757E+02  0.89648226806E+02  0.42497578879E+03  0.44972381988E+03  0.72596451913E+02 0.  0.
        -13    1    4    4    0    0  0.35034758767E+02  0.50226241247E+02  0.30822456292E+03  0.31424909041E+03  0.00000000000E+00 0.  1.
         14    1    4    4    0    0  0.56289080990E+02  0.39421985559E+02  0.11675122587E+03  0.13547472947E+03  0.00000000000E+00 0. -1.
        -11    1    3    3    0    0 -0.13452175430E+02  0.18149957630E+02  0.14622636929E+02  0.26911029273E+02  0.00000000000E+00 0.  1.
         11    1    3    3    0    0  0.37186309320E+02 -0.79719468471E+02  0.10990473502E+03  0.14077310124E+03  0.00000000000E+00 0. -1.
         21    1    1    2  503  502  0.18808704031E+02 -0.88623225896E+01 -0.39844815346E+01  0.21170361407E+02  0.00000000000E+00 0.  1.
          1    1    1    2  501    0 -0.13386667768E+03 -0.19216393375E+02 -0.23057840000E+03  0.26731246831E+03  0.00000000000E+00 0. -1.
<scales pt_clust_5="13000.00000" pt_clust_6="13000.00000" pt_clust_7="13000.00000" pt_clust_8="13000.00000" pt_clust_9="20.79202" pt_clust_10="119.91635"></scales>
<clustering>
<clus scale="   20.792">  2  9  1 -1</clus>
<clus scale="   72.596">  5  6 -1 -1</clus>
<clus scale="   90.867">  7  8 -1 -1</clus>
<clus scale="  112.981">  1  7  2 -1</clus>
<clus scale="  119.916">  2 10  1 -1</clus>
<clus scale="   20.792">  2  5  1 -1</clus>
</clustering>
</event>
<event>
10    4  0.3403565E-005  0.1196425E+03  0.7546771E-02  0.1247056E+00
         21   -1    0    0  501  502  0.00000000000E+00  0.00000000000E+00  0.14041339097E+03  0.14041339097E+03  0.00000000000E+00 0.  1.
          4   -1    0    0  503    0 -0.00000000000E+00 -0.00000000000E+00 -0.44769504698E+03  0.44769504698E+03  0.00000000000E+00 0. -1.
         24    2    1    2    0    0 -0.71734571089E+02 -0.24651746942E+02 -0.25418728073E+03  0.27787472888E+03  0.82762515343E+02 0.  0.
         23    2    1    2    0    0  0.59444658571E+02  0.37920756257E+02  0.79835232317E+02  0.14145758978E+03  0.93085628324E+02 0.  0.
        -11    1    3    3    0    0  0.51171096278E+01  0.21841619503E+02 -0.52285477346E+02  0.56894747514E+02  0.00000000000E+00 0.  1.
         12    1    3    3    0    0 -0.76851680716E+02 -0.46493366445E+02 -0.20190180339E+03  0.22097998136E+03  0.00000000000E+00 0. -1.
        -13    1    4    4    0    0 -0.86100591030E+01 -0.20100903313E+02  0.44510009146E+00  0.21871843677E+02  0.00000000000E+00 0. -1.
         13    1    4    4    0    0  0.68054717674E+02  0.58021659570E+02  0.79390132225E+02  0.11958574611E+03  0.00000000000E+00 0.  1.
         21    1    1    2  503  502 -0.12087071080E+02 -0.41128233365E+02 -0.15392547460E+02  0.45547331253E+02  0.00000000000E+00 0.  1.
          3    1    1    2  501    0  0.24376983598E+02  0.27859224050E+02 -0.11753706014E+03  0.12322878803E+03  0.00000000000E+00 0. -1.
<scales pt_clust_5="13000.00000" pt_clust_6="13000.00000" pt_clust_7="13000.00000" pt_clust_8="13000.00000" pt_clust_9="39.22173" pt_clust_10="37.01858"></scales>
<clustering>
<clus scale="   37.019">  1 10  2 -1</clus>
<clus scale="   39.222">  1  9  2 -1</clus>
<clus scale="   82.763">  5  6 -1 -1</clus>
<clus scale="   93.086">  7  8 -1 -1</clus>
<clus scale="  111.799">  2  5  1 -1</clus>
<clus scale="   37.019">  1  5  2 -1</clus>
</clustering>
</event>
<event>
10    4  0.3403565E-005  0.3457255E+03  0.7546771E-02  0.1114167E+00
          2   -1    0    0  503    0 -0.00000000000E+00  0.00000000000E+00  0.10577806182E+04  0.10577806182E+04  0.00000000000E+00 0. -1.
         21   -1    0    0  501  502  0.00000000000E+00 -0.00000000000E+00 -0.50579234473E+03  0.50579234473E+03  0.00000000000E+00 0. -1.
         24    2    1    2    0    0  0.27973988670E+02  0.31955439102E+02  0.40972760208E+03  0.42003679421E+03  0.82161465728E+02 0.  0.
         23    2    1    2    0    0  0.19868106997E+03 -0.31976859880E+03  0.17109744514E+03  0.42345070369E+03  0.91159411874E+02 0.  0.
        -11    1    3    3    0    0  0.34479887404E+02  0.24197893070E+02  0.82309373778E+02  0.92462066147E+02  0.00000000000E+00 0.  1.
         12    1    3    3    0    0 -0.65058987336E+01  0.77575460319E+01  0.32741822830E+03  0.32757472806E+03  0.00000000000E+00 0. -1.
        -13    1    4    4    0    0  0.18322694414E+03 -0.23390929004E+03  0.15356801588E+03  0.33446794245E+03  0.00000000000E+00 0. -1.
         13    1    4    4    0    0  0.15454125827E+02 -0.85859308765E+02  0.17529429260E+02  0.88982761234E+02  0.00000000000E+00 0.  1.
         21    1    1    2  503  502 -0.15660401795E+03  0.16406357524E+03 -0.32222974773E+03  0.39404782131E+03  0.00000000000E+00 0. -1.
          1    1    1    2  501    0 -0.70051040690E+02  0.12374958446E+03  0.29339297401E+03  0.32603764377E+03  0.00000000000E+00 0. -1.
<scales pt_clust_5="13000.00000" pt_clust_6="13000.00000" pt_clust_7="13000.00000" pt_clust_8="13000.00000" pt_clust_9="333.49079" pt_clust_10="150.20580"></scales>
<clustering>
<clus scale="   82.161">  5  6 -1 -1</clus>
<clus scale="   91.159">  7  8 -1 -1</clus>
<clus scale="   92.489">  1  5  2 -1</clus>
<clus scale="  150.206">  2 10  1 -1</clus>
<clus scale="  333.491">  2  9  1 -1</clus>
<clus scale="  150.206">  2  5  1 -1</clus>
</clustering>
</event>
<event>
10    4  0.3403565E-005  0.1349559E+03  0.7546771E-02  0.1223200E+00
         21   -1    0    0  501  502  0.00000000000E+00  0.00000000000E+00  0.25000367119E+03  0.25000367119E+03  0.00000000000E+00 0.  1.
          4   -1    0    0  503    0 -0.00000000000E+00 -0.00000000000E+00 -0.27382619540E+03  0.27382619540E+03  0.00000000000E+00 0. -1.
         23    2    1    2    0    0 -0.11658750473E+03 -0.10949216640E+02 -0.35398645183E+02  0.15361895607E+03  0.92914950243E+02 0.  0.
         24    2    1    2    0    0  0.18925892290E+02  0.12475480093E+03  0.87982696697E+02  0.17378499794E+03  0.80859883973E+02 0.  0.
        -11    1    4    4    0    0  0.43079913672E+02  0.11529632295E+03  0.65325060964E+02  0.13934304661E+03  0.00000000000E+00 0.  1.
         12    1    4    4    0    0 -0.24154021382E+02  0.94584779845E+01  0.22657635734E+02  0.34441951335E+02  0.00000000000E+00 0. -1.
        -13    1    3    3    0    0  0.46520722466E+01 -0.23241876926E+02 -0.19562718302E+02  0.30733150938E+02  0.00000000000E+00 0. -1.
         13    1    3    3    0    0 -0.12123957698E+03  0.12292660286E+02 -0.15835926881E+02  0.12288580513E+03  0.00000000000E+00 0.  1.
         21    1    1    2  503  502  0.14599072561E+01 -0.20023143200E+02  0.22081042056E+02  0.29843424922E+02  0.00000000000E+00 0. -1.
          3    1    1    2  501    0  0.96201705187E+02 -0.93782441095E+02 -0.98487617781E+02  0.16658248766E+03  0.00000000000E+00 0. -1.
<scales pt_clust_5="13000.00000" pt_clust_6="13000.00000" pt_clust_7="13000.00000" pt_clust_8="13000.00000" pt_clust_9="20.07629" pt_clust_10="136.64798"></scales>
<clustering>
<clus scale="   20.076">  1  9  2 -1</clus>
<clus scale="   80.860">  5  6 -1 -1</clus>
<clus scale="   92.915">  7  8 -1 -1</clus>
<clus scale="  136.648">  1 10  2 -1</clus>
<clus scale="  126.958">  1  5  2 -1</clus>
<clus scale="   20.076">  1  5  2 -1</clus>
</clustering>
</event>
<event>
10    4  0.4668977E-005  0.1042552E+03  0.7546771E-02  0.1276203E+00
         21   -1    0    0  501  502  0.00000000000E+00  0.00000000000E+00  0.21735396135E+03  0.21735396135E+03  0.00000000000E+00 0.  1.
          2   -1    0    0  503    0 -0.00000000000E+00 -0.00000000000E+00 -0.15213285880E+04  0.15213285880E+04  0.00000000000E+00 0. -1.
         24    2    1    2    0    0 -0.22789617360E+02  0.39589245890E+02 -0.11559632467E+04  0.11597109302E+04  0.81189524488E+02 0.  0.
         23    2    1    2    0    0  0.66246776179E+02 -0.51081797949E+02 -0.30702308072E+03  0.33108515436E+03  0.91412372842E+02 0.  0.
        -13    1    3    3    0    0 -0.14962151018E+02  0.17461587390E+02 -0.73940716115E+02  0.77433858853E+02  0.00000000000E+00 0.  1.
         14    1    3    3    0    0 -0.78274663423E+01  0.22127658501E+02 -0.10820225306E+04  0.10822770714E+04  0.00000000000E+00 0. -1.
        -11    1    4    4    0    0 -0.50007808935E+00 -0.50846274674E+02 -0.83072640325E+02  0.97399472775E+02  0.00000000000E+00 0.  1.
         11    1    4    4    0    0  0.66746854269E+02 -0.23552327490E+00 -0.22395044039E+03  0.23368568159E+03  0.00000000000E+00 0. -1.
         21    1    1    2  503  502 -0.17181328708E+02 -0.33236465224E+02  0.18578093240E+03  0.18951099050E+03  0.00000000000E+00 0.  1.
          1    1    1    2  501    0 -0.26275830112E+02  0.44729017282E+02 -0.26769231634E+02  0.58375474279E+02  0.00000000000E+00 0. -1.
<scales pt_clust_5="13000.00000" pt_clust_6="13000.00000" pt_clust_7="13000.00000" pt_clust_8="13000.00000" pt_clust_9="37.41471" pt_clust_10="44.56339"></scales>
<clustering>
<clus scale="   37.415">  1  9  2 -1</clus>
<clus scale="   44.563">  1 10  2 -1</clus>
<clus scale="   81.190">  5  6 -1 -1</clus>
<clus scale="   91.412">  7  8 -1 -1</clus>
<clus scale="   95.418">  2  5  1 -1</clus>
<clus scale="   37.415">  1  5  2 -1</clus>
</clustering>
</event>
<event>
10    4  0.3403565E-005  0.2153529E+03  0.7546771E-02  0.1171130E+00
         21   -1    0    0  501  502  0.00000000000E+00  0.00000000000E+00  0.18364306704E+03  0.18364306704E+03  0.00000000000E+00 0. -1.
          2   -1    0    0  503    0 -0.00000000000E+00 -0.00000000000E+00 -0.16512149679E+04  0.16512149679E+04  0.00000000000E+00 0. -1.
         24    2    1    2    0    0 -0.12155562229E+02  0.45142746967E+02 -0.31647034236E+03  0.32981935736E+03  0.80260236726E+02 0.  0.
         23    2    1    2    0    0  0.22731714052E+03 -0.29470598613E+02 -0.10394270121E+04  0.10688912239E+04  0.97868976347E+02 0.  0.
        -13    1    3    3    0    0  0.51640991646E+01  0.49963574857E+02 -0.30355572702E+03  0.30768345120E+03  0.00000000000E+00 0.  1.
         14    1    3    3    0    0 -0.17319661393E+02 -0.48208278899E+01 -0.12914615336E+02  0.22135906162E+02  0.00000000000E+00 0. -1.
        -13    1    4    4    0    0  0.53768816598E+02 -0.46921249372E+02 -0.22707783910E+03  0.23802738139E+03  0.00000000000E+00 0.  1.
         13    1    4    4    0    0  0.17354832392E+03  0.17450650759E+02 -0.81234917303E+03  0.83086384256E+03  0.00000000000E+00 0. -1.
         21    1    1    2  503  502 -0.65285710907E+02  0.37954387433E+02  0.12788895676E+03  0.14852051992E+03  0.00000000000E+00 0. -1.
          1    1    1    2  501    0 -0.14987586738E+03 -0.53626535787E+02 -0.23956350313E+03  0.28762693371E+03  0.00000000000E+00 0. -1.
<scales pt_clust_5="13000.00000" pt_clust_6="13000.00000" pt_clust_7="13000.00000" pt_clust_8="13000.00000" pt_clust_9="75.51662" pt_clust_10="191.82946"></scales>
<clustering>
<clus scale="   75.517">  1  9  2 -1</clus>
<clus scale="   80.260">  5  6 -1 -1</clus>
<clus scale="   97.401">  2  5  1 -1</clus>
<clus scale="   97.869">  7  8 -1 -1</clus>
<clus scale="  191.829">  1 10  2 -1</clus>
<clus scale="   75.517">  1  5  2 -1</clus>
</clustering>
</event>
<event>
10    4  0.3403565E-005  0.1540761E+03  0.7546771E-02  0.1209245E+00
          2   -1    0    0  502    0 -0.00000000000E+00  0.00000000000E+00  0.76000335446E+03  0.76000335446E+03  0.00000000000E+00 0. -1.
         21   -1    0    0  503  502  0.00000000000E+00 -0.00000000000E+00 -0.92960418983E+02  0.92960418983E+02  0.00000000000E+00 0. -1.
         24    2    1    2    0    0  0.56226877097E+02  0.34994322293E+02  0.17888844122E+03  0.20598355320E+03  0.77730852864E+02 0.  0.
         23    2    1    2    0    0  0.38868002585E+02 -0.83926135496E+02  0.16230584668E+03  0.20840517672E+03  0.92386210933E+02 0.  0.
        -13    1    3    3    0    0  0.20462748174E+02 -0.24334151819E+02  0.70654295612E+02  0.77478413097E+02  0.00000000000E+00 0.  1.
         14    1    3    3    0    0  0.35764128924E+02  0.59328474112E+02  0.10823414561E+03  0.12850514010E+03  0.00000000000E+00 0. -1.
        -13    1    4    4    0    0  0.13883001053E+02 -0.83658583988E+02  0.16263500086E+03  0.18341657476E+03  0.00000000000E+00 0.  1.
         13    1    4    4    0    0  0.24985001531E+02 -0.26755150783E+00 -0.32915417236E+00  0.24988601957E+02  0.00000000000E+00 0. -1.
         21    1    1    2  503  501  0.87346352639E+02  0.17526364737E+02  0.39168573509E+02  0.97317706153E+02  0.00000000000E+00 0. -1.
          1    1    1    2  501    0 -0.18244123232E+03  0.31405448466E+02  0.28668007407E+03  0.34125733737E+03  0.00000000000E+00 0. -1.
<scales pt_clust_5="13000.00000" pt_clust_6="13000.00000" pt_clust_7="13000.00000" pt_clust_8="13000.00000" pt_clust_9="89.08737" pt_clust_10="123.30552"></scales>
<clustering>
<clus scale="   77.731">  5  6 -1 -1</clus>
<clus scale="   89.087">  2  9  1 -1</clus>
<clus scale="   92.386">  7  8 -1 -1</clus>
<clus scale="  114.578">  1  5  2 -1</clus>
<clus scale="  123.306">  2 10  1 -1</clus>
<clus scale="   89.087">  2  5  1 -1</clus>
</clustering>
</event>
<event>
10    4  0.3403565E-005  0.6563734E+03  0.7546771E-02  0.9794893E-01
          2   -1    0    0  502    0 -0.00000000000E+00  0.00000000000E+00  0.22533943739E+04  0.22533943739E+04  0.00000000000E+00 0. -1.
         21   -1    0    0  503  502  0.00000000000E+00 -0.00000000000E+00 -0.45251156172E+03  0.45251156172E+03  0.00000000000E+00 0. -1.
         24    2    1    2    0    0 -0.45656470728E+03 -0.10501592882E+03  0.11720969928E+04  0.12648685537E+04  0.81249125021E+02 0.  0.
         23    2    1    2    0    0 -0.80500141946E+02 -0.10196394174E+03  0.59401974457E+03  0.61447534914E+03  0.88563985279E+02 0.  0.
        -11    1    3    3    0    0 -0.69150395102E+02 -0.17103703697E+02  0.11150416928E+03  0.13231588563E+03  0.00000000000E+00 0.  1.
         12    1    3    3    0    0 -0.38741431218E+03 -0.87912225128E+02  0.10605928235E+04  0.11325526681E+04  0.00000000000E+00 0. -1.
        -11    1    4    4    0    0 -0.47042227498E+02  0.24827796343E+01  0.20034616514E+03  0.20580991533E+03  0.00000000000E+00 0.  1.
         11    1    4    4    0    0 -0.33457914448E+02 -0.10444672137E+03  0.39367357944E+03  0.40866543381E+03  0.00000000000E+00 0. -1.
         21    1    1    2  503  501 -0.75900549925E+02 -0.47657064544E+02 -0.11532244843E+03  0.14605258091E+03  0.00000000000E+00 0.  1.
          1    1    1    2  501    0  0.61296539915E+03  0.25463693511E+03  0.15008852322E+03  0.68050945187E+03  0.00000000000E+00 0. -1.
<scales pt_clust_5="13000.00000" pt_clust_6="13000.00000" pt_clust_7="13000.00000" pt_clust_8="13000.00000" pt_clust_9="89.62192" pt_clust_10="591.05004"></scales>
<clustering>
<clus scale="   81.249">  5  6 -1 -1</clus>
<clus scale="   88.564">  7  8 -1 -1</clus>
<clus scale="   89.622">  2  9  1 -1</clus>
<clus scale="  142.946">  5  7 -1 -1</clus>
<clus scale="  591.050">  2 10  1 -1</clus>
<clus scale="   89.622">  2  5  1 -1</clus>
</clustering>
</event>
<event>
10    4  0.3403565E-005  0.1516581E+03  0.7546771E-02  0.1199413E+00
         21   -1    0    0  501  502  0.00000000000E+00  0.00000000000E+00  0.26286430600E+02  0.26286430600E+02  0.00000000000E+00 0.  1.
          2   -1    0    0  503    0 -0.00000000000E+00 -0.00000000000E+00 -0.20723031600E+04  0.20723031600E+04  0.00000000000E+00 0. -1.
         24    2    1    2    0    0 -0.58562753309E+02 -0.11510791749E+03 -0.67173658421E+03  0.68875260922E+03  0.80440595487E+02 0.  0.
         23    2    1    2    0    0 -0.18932286320E+02  0.13176424972E+03 -0.52770790245E+03  0.55100806766E+03  0.86104653455E+02 0.  0.
        -13    1    3    3    0    0 -0.75165115767E+02 -0.72437630683E+02 -0.41249023897E+03  0.42549406836E+03  0.00000000000E+00 0.  1.
         14    1    3    3    0    0  0.16602362458E+02 -0.42670286806E+02 -0.25924634524E+03  0.26325854086E+03  0.00000000000E+00 0. -1.
        -11    1    4    4    0    0 -0.44731314527E+02  0.31842442969E+02 -0.20305569414E+03  0.21034839338E+03  0.00000000000E+00 0. -1.
         11    1    4    4    0    0  0.25799028207E+02  0.99921806749E+02 -0.32465220830E+03  0.34065967427E+03  0.00000000000E+00 0.  1.
         21    1    1    2  503  502  0.29822380857E+02  0.48874966466E+02 -0.23315763262E+03  0.24008460675E+03  0.00000000000E+00 0.  1.
          1    1    1    2  501    0  0.47672658772E+02 -0.65531298695E+02 -0.61341461009E+03  0.61874430695E+03  0.00000000000E+00 0. -1.
<scales pt_clust_5="13000.00000" pt_clust_6="13000.00000" pt_clust_7="13000.00000" pt_clust_8="13000.00000" pt_clust_9="57.25502" pt_clust_10="78.71338"></scales>
<clustering>
<clus scale="   57.255">  1  9  2 -1</clus>
<clus scale="   78.713">  1 10  2 -1</clus>
<clus scale="   80.441">  5  6 -1 -1</clus>
<clus scale="   86.105">  7  8 -1 -1</clus>
<clus scale="  148.515">  2  5  1 -1</clus>
<clus scale="   57.255">  1  5  2 -1</clus>
</clustering>
</event>
<event>
10    4  0.3403565E-005  0.9541594E+02  0.7546771E-02  0.1295890E+00
         21   -1    0    0  501  502  0.00000000000E+00  0.00000000000E+00  0.47070009417E+02  0.47070009417E+02  0.00000000000E+00 0.  1.
          2   -1    0    0  503    0 -0.00000000000E+00 -0.00000000000E+00 -0.58446987512E+03  0.58446987512E+03  0.00000000000E+00 0. -1.
         24    2    1    2    0    0 -0.21992621696E+02 -0.34436338594E+01 -0.28135605285E+03  0.29396583998E+03  0.82214065577E+02 0.  0.
         23    2    1    2    0    0  0.16960924875E+02  0.32650143063E+02 -0.23201648965E+03  0.25233497623E+03  0.92128084453E+02 0.  0.
        -13    1    3    3    0    0 -0.26122123464E+02 -0.40197122698E+02 -0.14754858168E+03  0.15514109050E+03  0.00000000000E+00 0.  1.
         14    1    3    3    0    0  0.41295017681E+01  0.36753488839E+02 -0.13380747117E+03  0.13882474948E+03  0.00000000000E+00 0. -1.
        -13    1    4    4    0    0  0.23992487396E+02 -0.54596071339E+01 -0.93516905542E+01  0.26323010423E+02  0.00000000000E+00 0.  1.
         13    1    4    4    0    0 -0.70315625213E+01  0.38109750196E+02 -0.22266479909E+03  0.22601196581E+03  0.00000000000E+00 0. -1.
         21    1    1    2  503  502  0.32532520297E+02  0.48203809000E+01  0.42267419060E+01  0.33158201037E+02  0.00000000000E+00 0.  1.
          1    1    1    2  501    0 -0.27500823476E+02 -0.34026890103E+02 -0.28254065107E+02  0.52080867284E+02  0.00000000000E+00 0. -1.
<scales pt_clust_5="13000.00000" pt_clust_6="13000.00000" pt_clust_7="13000.00000" pt_clust_8="13000.00000" pt_clust_9="32.88770" pt_clust_10="34.86884"></scales>
<clustering>
<clus scale="   32.888">  1  9  2 -1</clus>
<clus scale="   34.869">  1 10  2 -1</clus>
<clus scale="   82.214">  5  6 -1 -1</clus>
<clus scale="   85.882">  2  5  1 -1</clus>
<clus scale="   92.128">  7  8 -1 -1</clus>
<clus scale="   32.888">  1  5  2 -1</clus>
</clustering>
</event>
<event>
10    4  0.3403565E-005  0.9046318E+02  0.7546771E-02  0.1306081E+00
         21   -1    0    0  503  502  0.00000000000E+00  0.00000000000E+00  0.55086088799E+02  0.55086088799E+02  0.00000000000E+00 0.  1.
          2   -1    0    0  502    0 -0.00000000000E+00 -0.00000000000E+00 -0.77384498942E+03  0.77384498942E+03  0.00000000000E+00 0. -1.
         24    2    1    2    0    0  0.76034007674E+01  0.22885272787E+01 -0.32452447819E+03  0.33444339727E+03  0.80456199080E+02 0.  0.
         23    2    1    2    0    0  0.29981755015E+02 -0.87780180640E+02 -0.23715542631E+03  0.26930494203E+03  0.87625280757E+02 0.  0.
        -13    1    3    3    0    0 -0.32822308161E+02  0.14826658768E+02 -0.10880610523E+03  0.11461196385E+03  0.00000000000E+00 0.  1.
         14    1    3    3    0    0  0.40425708928E+02 -0.12538131489E+02 -0.21571837296E+03  0.21983143341E+03  0.00000000000E+00 0. -1.
        -11    1    4    4    0    0  0.32140769419E+02 -0.22946858834E+01 -0.12006190219E+03  0.12431071957E+03  0.00000000000E+00 0. -1.
         11    1    4    4    0    0 -0.21590144044E+01 -0.85485494757E+02 -0.11709352412E+03  0.14499422246E+03  0.00000000000E+00 0.  1.
         21    1    1    2  503  501  0.80689528152E+01  0.29126701629E+02  0.18344077644E+02  0.35355026968E+02  0.00000000000E+00 0. -1.
          1    1    1    2  501    0 -0.45654108597E+02  0.56364951733E+02 -0.17542307377E+03  0.18982771196E+03  0.00000000000E+00 0. -1.
<scales pt_clust_5="13000.00000" pt_clust_6="13000.00000" pt_clust_7="13000.00000" pt_clust_8="13000.00000" pt_clust_9="30.22371" pt_clust_10="77.26791"></scales>
<clustering>
<clus scale="   30.224">  1  9  2 -1</clus>
<clus scale="   77.268">  1 10  2 -1</clus>
<clus scale="   80.456">  5  6 -1 -1</clus>
<clus scale="   83.538">  2  5  1 -1</clus>
<clus scale="   87.625">  7  8 -1 -1</clus>
<clus scale="   30.224">  1  5  2 -1</clus>
</clustering>
</event>
<event>
10    4  0.3403565E-005  0.1387852E+03  0.7546771E-02  0.1234548E+00
         21   -1    0    0  501  502  0.00000000000E+00  0.00000000000E+00  0.61954659961E+02  0.61954659961E+02  0.00000000000E+00 0.  1.
          2   -1    0    0  503    0 -0.00000000000E+00 -0.00000000000E+00 -0.17740685374E+04  0.17740685374E+04  0.00000000000E+00 0. -1.
         23    2    1    2    0    0 -0.27507158836E+02  0.10034449611E+02 -0.47107482904E+03  0.48036552906E+03  0.89343231372E+02 0.  0.
         24    2    1    2    0    0  0.22957445592E+02  0.11903967960E+03 -0.47810190665E+03  0.49967559550E+03  0.79979859757E+02 0.  0.
        -13    1    4    4    0    0 -0.18589735879E+00  0.71128846179E+02 -0.13616537037E+03  0.15362407170E+03  0.00000000000E+00 0.  1.
         14    1    4    4    0    0  0.23143342951E+02  0.47910833416E+02 -0.34193653628E+03  0.34605152380E+03  0.00000000000E+00 0. -1.
        -11    1    3    3    0    0  0.30060845897E+02 -0.12014293511E+02 -0.16182299485E+03  0.16502932881E+03  0.00000000000E+00 0.  1.
         11    1    3    3    0    0 -0.57568004733E+02  0.22048743122E+02 -0.30925183418E+03  0.31533620025E+03  0.00000000000E+00 0. -1.
         21    1    1    2  503  502  0.20503742116E+02 -0.19061053394E+02  0.38093866308E+02  0.47274410071E+02  0.00000000000E+00 0.  1.
          1    1    1    2  501    0 -0.15954028872E+02 -0.11001307581E+03 -0.80103100804E+03  0.80870766272E+03  0.00000000000E+00 0. -1.
<scales pt_clust_5="13000.00000" pt_clust_6="13000.00000" pt_clust_7="13000.00000" pt_clust_8="13000.00000" pt_clust_9="27.99513" pt_clust_10="113.42207"></scales>
<clustering>
<clus scale="   27.995">  1  9  2 -1</clus>
<clus scale="   79.980">  5  6 -1 -1</clus>
<clus scale="   89.343">  7  8 -1 -1</clus>
<clus scale="   92.309">  2  7  1 -1</clus>
<clus scale="  113.422">  1 10  2 -1</clus>
<clus scale="   27.995">  1  5  2 -1</clus>
</clustering>
</event>
<event>
10    4  0.3403565E-005  0.1376715E+03  0.7546771E-02  0.1232030E+00
          2   -1    0    0  503    0 -0.00000000000E+00  0.00000000000E+00  0.69027741662E+03  0.69027741662E+03  0.00000000000E+00 0. -1.
         21   -1    0    0  501  502  0.00000000000E+00 -0.00000000000E+00 -0.62776095308E+02  0.62776095308E+02  0.00000000000E+00 0.  1.
         23    2    1    2    0    0  0.30010778982E+02 -0.33030967564E+02  0.17995827473E+03  0.20771406675E+03  0.93640061998E+02 0.  0.
         24    2    1    2    0    0 -0.89805542941E+02 -0.59307283826E+02  0.10777322956E+03  0.17359289809E+03  0.83288869602E+02 0.  0.
        -13    1    4    4    0    0 -0.24131142515E+02 -0.65773164660E+02  0.57437530489E+02  0.90595204824E+02  0.00000000000E+00 0.  1.
         14    1    4    4    0    0 -0.65674400426E+02  0.64658808349E+01  0.50335699071E+02  0.82997693265E+02  0.00000000000E+00 0. -1.
        -13    1    3    3    0    0  0.17853347696E+02  0.25455091573E+02  0.11643708442E+03  0.12051679692E+03  0.00000000000E+00 0.  1.
         13    1    3    3    0    0  0.12157431286E+02 -0.58486059137E+02  0.63521190308E+02  0.87197269837E+02  0.00000000000E+00 0. -1.
         21    1    1    2  503  502 -0.28945468094E+02  0.20670685254E+02  0.62174182109E+02  0.71629227784E+02  0.00000000000E+00 0.  1.
          1    1    1    2  501    0  0.88740232053E+02  0.71667566135E+02  0.27759563492E+03  0.30011731930E+03  0.00000000000E+00 0. -1.
<scales pt_clust_5="13000.00000" pt_clust_6="13000.00000" pt_clust_7="13000.00000" pt_clust_8="13000.00000" pt_clust_9="35.56849" pt_clust_10="109.61945"></scales>
<clustering>
<clus scale="   35.568">  1  9  2 -1</clus>
<clus scale="   83.289">  5  6 -1 -1</clus>
<clus scale="   93.640">  7  8 -1 -1</clus>
<clus scale="   99.587">  1  7  2 -1</clus>
<clus scale="  109.619">  2 10  1 -1</clus>
<clus scale="  109.619">  2  5  1 -1</clus>
</clustering>
</event>
<event>
10    4  0.3403565E-005  0.3502311E+03  0.7546771E-02  0.1102668E+00
          2   -1    0    0  502    0 -0.00000000000E+00  0.00000000000E+00  0.21537446162E+04  0.21537446162E+04  0.00000000000E+00 0. -1.
         21   -1    0    0  503  502  0.00000000000E+00 -0.00000000000E+00 -0.10074161588E+03  0.10074161588E+03  0.00000000000E+00 0. -1.
         23    2    1    2    0    0  0.84509302925E+02  0.84570085684E+01  0.29366830987E+03  0.31833774168E+03  0.88794697369E+02 0.  0.
         24    2    1    2    0    0  0.12527201286E+03  0.31372164451E+03  0.53852233705E+03  0.63972176958E+03  0.71577143962E+02 0.  0.
        -11    1    4    4    0    0  0.47246075460E+02  0.76018206640E+02  0.19689118474E+03  0.21628013782E+03  0.00000000000E+00 0.  1.
         12    1    4    4    0    0  0.78025937404E+02  0.23770343787E+03  0.34163115231E+03  0.42344163177E+03  0.00000000000E+00 0. -1.
        -11    1    3    3    0    0  0.71335084006E+02 -0.30399951329E+02  0.14908091508E+03  0.16804157370E+03  0.00000000000E+00 0. -1.
         11    1    3    3    0    0  0.13174218918E+02  0.38856959898E+02  0.14458739479E+03  0.15029616798E+03  0.00000000000E+00 0.  1.
         21    1    1    2  503  501 -0.38490472755E+02  0.20501430677E+01  0.25709564493E+02  0.46332507874E+02  0.00000000000E+00 0. -1.
          1    1    1    2  501    0 -0.17129084303E+03 -0.32422879615E+03  0.11951027889E+04  0.12500942129E+04  0.00000000000E+00 0. -1.
<scales pt_clust_5="13000.00000" pt_clust_6="13000.00000" pt_clust_7="13000.00000" pt_clust_8="13000.00000" pt_clust_9="38.54503" pt_clust_10="342.83910"></scales>
<clustering>
<clus scale="   38.545">  2  9  1 -1</clus>
<clus scale="   71.577">  5  6 -1 -1</clus>
<clus scale="   88.795">  7  8 -1 -1</clus>
<clus scale="  119.343">  1  7  2 -1</clus>
<clus scale="  342.839">  2 10  1 -1</clus>
<clus scale="   38.545">  2  5  1 -1</clus>
</clustering>
</event>
<event>
10    4  0.3403565E-005  0.1332641E+03  0.7546771E-02  0.1224457E+00
          2   -1    0    0  503    0 -0.00000000000E+00  0.00000000000E+00  0.26686218697E+03  0.26686218697E+03  0.00000000000E+00 0. -1.
         21   -1    0    0  501  502  0.00000000000E+00 -0.00000000000E+00 -0.14286634844E+03  0.14286634844E+03  0.00000000000E+00 0. -1.
         23    2    1    2    0    0 -0.65409998948E+02 -0.54575815274E+02  0.83089045720E+02  0.14944283197E+03  0.90401233024E+02 0.  0.
         24    2    1    2    0    0  0.12260699014E+03  0.23605976417E+02  0.64373698317E+02  0.16323124061E+03  0.83130913162E+02 0.  0.
        -11    1    4    4    0    0  0.60425275029E+02 -0.70333095912E+01 -0.99010054487E+01  0.61633685717E+02  0.00000000000E+00 0.  1.
         12    1    4    4    0    0  0.62181715107E+02  0.30639286008E+02  0.74274703765E+02  0.10159755489E+03  0.00000000000E+00 0. -1.
        -11    1    3    3    0    0 -0.87076250103E+02 -0.52198428770E+02  0.74885616151E+02  0.12615389334E+03  0.00000000000E+00 0. -1.
         11    1    3    3    0    0  0.21666251155E+02 -0.23773865042E+01  0.82034295684E+01  0.23288938628E+02  0.00000000000E+00 0.  1.
         21    1    1    2  503  502 -0.26198616385E+02  0.35711992979E+01 -0.43641301884E+02  0.51026308852E+02  0.00000000000E+00 0. -1.
          1    1    1    2  501    0 -0.30998374803E+02  0.27398639560E+02  0.20174396370E+02  0.46028153983E+02  0.00000000000E+00 0. -1.
<scales pt_clust_5="13000.00000" pt_clust_6="13000.00000" pt_clust_7="13000.00000" pt_clust_8="13000.00000" pt_clust_9="26.44090" pt_clust_10="44.39198"></scales>
<clustering>
<clus scale="   26.441">  2  9  1 -1</clus>
<clus scale="   44.392">  2 10  1 -1</clus>
<clus scale="   83.131">  5  6 -1 -1</clus>
<clus scale="   90.401">  7  8 -1 -1</clus>
<clus scale="  128.443">  2  5  1 -1</clus>
<clus scale="   26.441">  2  5  1 -1</clus>
</clustering>
</event>
<event>
10    4  0.3403565E-005  0.9788136E+02  0.7546771E-02  0.1292141E+00
          2   -1    0    0  503    0 -0.00000000000E+00  0.00000000000E+00  0.11035832781E+03  0.11035832781E+03  0.00000000000E+00 0. -1.
         21   -1    0    0  501  502  0.00000000000E+00 -0.00000000000E+00 -0.34220946172E+03  0.34220946172E+03  0.00000000000E+00 0. -1.
         23    2    1    2    0    0  0.42565965967E+02 -0.10416822528E+01  0.10551523501E+02  0.10056212663E+03  0.90490110525E+02 0.  0.
         24    2    1    2    0    0 -0.94617758524E+01  0.50166901596E+02 -0.15232378230E+03  0.17802561324E+03  0.76709458996E+02 0.  0.
        -11    1    4    4    0    0  0.26758268236E+02  0.44063305185E+02 -0.11306652198E+03  0.12426430773E+03  0.00000000000E+00 0.  1.
         12    1    4    4    0    0 -0.36220044088E+02  0.61035964103E+01 -0.39257260313E+02  0.53761305510E+02  0.00000000000E+00 0. -1.
        -11    1    3    3    0    0 -0.47673891921E+01  0.37363523586E+02  0.12178390994E+02  0.39586286788E+02  0.00000000000E+00 0. -1.
         11    1    3    3    0    0  0.47333355159E+02 -0.38405205839E+02 -0.16268674931E+01  0.60975839838E+02  0.00000000000E+00 0.  1.
         21    1    1    2  503  502 -0.19745234587E+02  0.37982834828E+02 -0.72383088614E+02  0.84094479888E+02  0.00000000000E+00 0. -1.
          1    1    1    2  501    0 -0.13358955527E+02 -0.87108054170E+02 -0.17695786498E+02  0.89885569776E+02  0.00000000000E+00 0. -1.
<scales pt_clust_5="13000.00000" pt_clust_6="13000.00000" pt_clust_7="13000.00000" pt_clust_8="13000.00000" pt_clust_9="42.80853" pt_clust_10="81.24933"></scales>
<clustering>
<clus scale="   42.809">  2  9  1 -1</clus>
<clus scale="   76.709">  5  6 -1 -1</clus>
<clus scale="   81.249">  2 10  1 -1</clus>
<clus scale="   85.303">  2  5  1 -1</clus>
<clus scale="   90.490">  7  8 -1 -1</clus>
<clus scale="   42.809">  2  5  1 -1</clus>
</clustering>
</event>
<event>
10    4  0.3403565E-005  0.1815504E+03  0.7546771E-02  0.1179147E+00
         -1   -1    0    0    0  501 -0.00000000000E+00  0.00000000000E+00  0.29829177231E+03  0.29829177231E+03  0.00000000000E+00 0.  1.
         21   -1    0    0  503  502  0.00000000000E+00 -0.00000000000E+00 -0.74285265377E+03  0.74285265377E+03  0.00000000000E+00 0.  1.
         23    2    1    2    0    0 -0.61449870379E+02 -0.50162021537E+02  0.10715753233E+03  0.17398526049E+03  0.11178470003E+03 0.  0.
         24    2    1    2    0    0 -0.10303667852E+02 -0.13262009975E+03  0.35501732318E+02  0.15943766519E+03  0.80409823120E+02 0.  0.
        -13    1    4    4    0    0 -0.99587685917E+01 -0.94513382656E+02 -0.14955924707E+02  0.96206217350E+02  0.00000000000E+00 0.  1.
         14    1    4    4    0    0 -0.34489926038E+00 -0.38106717092E+02  0.50457657025E+02  0.63231447837E+02  0.00000000000E+00 0. -1.
        -13    1    3    3    0    0  0.49974196968E+01 -0.67847158600E+02  0.47753012892E+02  0.83117756069E+02  0.00000000000E+00 0. -1.
         13    1    3    3    0    0 -0.66447290076E+02  0.17685137063E+02  0.59404519434E+02  0.90867504426E+02  0.00000000000E+00 0.  1.
         21    1    1    2  503  501  0.52405916768E+02  0.11492807157E+03 -0.61797480173E+03  0.63075169228E+03  0.00000000000E+00 0.  1.
         -2    1    1    2    0  502  0.19347621464E+02  0.67854049714E+02  0.30754655617E+02  0.76969808114E+02  0.00000000000E+00 0.  1.
<scales pt_clust_5="13000.00000" pt_clust_6="13000.00000" pt_clust_7="13000.00000" pt_clust_8="13000.00000" pt_clust_9="162.77224" pt_clust_10="70.55854"></scales>
<clustering>
<clus scale="   70.559">  2 10  1 -1</clus>
<clus scale="   80.410">  5  6 -1 -1</clus>
<clus scale="  111.785">  7  8 -1 -1</clus>
<clus scale="  135.545">  1  7  2 -1</clus>
<clus scale="  162.772">  2  9  1 -1</clus>
<clus scale="   70.559">  2  5  1 -1</clus>
</clustering>
</event>
<event>
10    4  0.3403565E-005  0.3201197E+03  0.7546771E-02  0.1075594E+00
          2   -1    0    0  503    0 -0.00000000000E+00  0.00000000000E+00  0.11095884477E+04  0.11095884477E+04  0.00000000000E+00 0. -1.
         21   -1    0    0  501  502  0.00000000000E+00 -0.00000000000E+00 -0.86100836858E+02  0.86100836858E+02  0.00000000000E+00 0. -1.
         24    2    1    2    0    0  0.44628164629E+02  0.57267366221E+00  0.10607689467E+03  0.14138072637E+03  0.82123085507E+02 0.  0.
         23    2    1    2    0    0  0.18137025838E+03 -0.61631563293E+02  0.27025994981E+03  0.34409502222E+03  0.93098462008E+02 0.  0.
        -13    1    3    3    0    0  0.10503543972E+02 -0.26427229194E+02  0.90981773625E+02  0.95322641648E+02  0.00000000000E+00 0.  1.
         14    1    3    3    0    0  0.34124620657E+02  0.26999902856E+02  0.15095121049E+02  0.46058084726E+02  0.00000000000E+00 0. -1.
        -13    1    4    4    0    0  0.87762803162E+02 -0.65127972399E+02  0.19658138455E+03  0.22491821438E+03  0.00000000000E+00 0. -1.
         13    1    4    4    0    0  0.93607455218E+02  0.34964091059E+01  0.73678565257E+02  0.11917680784E+03  0.00000000000E+00 0.  1.
         21    1    1    2  503  502  0.27902759723E+02  0.53975153539E+01  0.34472582552E+02  0.44677243871E+02  0.00000000000E+00 0. -1.
          1    1    1    2  501    0 -0.25390118273E+03  0.55661374277E+02  0.61267818385E+03  0.66553629213E+03  0.00000000000E+00 0. -1.
<scales pt_clust_5="13000.00000" pt_clust_6="13000.00000" pt_clust_7="13000.00000" pt_clust_8="13000.00000" pt_clust_9="28.42001" pt_clust_10="251.44159"></scales>
<clustering>
<clus scale="   28.420">  2  9  1 -1</clus>
<clus scale="   82.123">  5  6 -1 -1</clus>
<clus scale="   93.098">  7  8 -1 -1</clus>
<clus scale="   95.990">  5  7 -1 -1</clus>
<clus scale="  251.442">  2 10  1 -1</clus>
<clus scale="   28.420">  2  5  1 -1</clus>
</clustering>
</event>
<event>
10    4  0.3403566E-005  0.4957676E+03  0.7546771E-02  0.1014890E+00
          2   -1    0    0  503    0 -0.00000000000E+00  0.00000000000E+00  0.15498206982E+04  0.15498206982E+04  0.00000000000E+00 0. -1.
         21   -1    0    0  501  502  0.00000000000E+00 -0.00000000000E+00 -0.17958559340E+03  0.17958559340E+03  0.00000000000E+00 0. -1.
         24    2    1    2    0    0  0.24922114238E+03 -0.20786556570E+03  0.22832766560E+03  0.40498070395E+03  0.80972689727E+02 0.  0.
         23    2    1    2    0    0  0.54372298509E+02 -0.60612186301E+02  0.14963482791E+03  0.19388902629E+03  0.92586115700E+02 0.  0.
        -13    1    3    3    0    0 -0.25785695798E+01 -0.20363346022E+02  0.14752963047E+02  0.25277753083E+02  0.00000000000E+00 0.  1.
         14    1    3    3    0    0  0.25179971195E+03 -0.18750221967E+03  0.21357470255E+03  0.37970295086E+03  0.00000000000E+00 0. -1.
        -13    1    4    4    0    0 -0.68845626590E+01 -0.31404337505E+02  0.29732591915E+01  0.32287302262E+02  0.00000000000E+00 0.  1.
         13    1    4    4    0    0  0.61256861168E+02 -0.29207848796E+02  0.14666156872E+03  0.16160172403E+03  0.00000000000E+00 0. -1.
         21    1    1    2  503  502  0.56392256943E+01 -0.70360998297E+02  0.64808869991E+02  0.95826199849E+02  0.00000000000E+00 0. -1.
          1    1    1    2  501    0 -0.30923266658E+03  0.33883875030E+03  0.92746374132E+03  0.10347103615E+04  0.00000000000E+00 0. -1.
<scales pt_clust_5="13000.00000" pt_clust_6="13000.00000" pt_clust_7="13000.00000" pt_clust_8="13000.00000" pt_clust_9="70.58662" pt_clust_10="440.73316"></scales>
<clustering>
<clus scale="   70.587">  2  9  1 -1</clus>
<clus scale="   80.973">  5  6 -1 -1</clus>
<clus scale="   92.586">  7  8 -1 -1</clus>
<clus scale="   98.409">  5  7 -1 -1</clus>
<clus scale="  440.733">  2 10  1 -1</clus>
<clus scale="   70.587">  2  5  1 -1</clus>
</clustering>
</event>
<event>
10    4  0.3403565E-005  0.3387439E+03  0.7546771E-02  0.1111278E+00
          2   -1    0    0  502    0 -0.00000000000E+00  0.00000000000E+00  0.55827343811E+03  0.55827343811E+03  0.00000000000E+00 0. -1.
         21   -1    0    0  503  502  0.00000000000E+00 -0.00000000000E+00 -0.41914223156E+03  0.41914223156E+03  0.00000000000E+00 0. -1.
         24    2    1    2    0    0  0.25859684871E+01 -0.67212188952E+02 -0.22479840774E+02  0.10691542096E+03  0.80008739653E+02 0.  0.
         23    2    1    2    0    0  0.25865854711E+03 -0.19120784927E+03 -0.11660673273E+03  0.35417608028E+03  0.91536222935E+02 0.  0.
        -13    1    3    3    0    0 -0.35864850916E+02 -0.49501866826E+02 -0.57590377392E+01  0.61399420732E+02  0.00000000000E+00 0.  1.
         14    1    3    3    0    0  0.38450819403E+02 -0.17710322126E+02 -0.16720803035E+02  0.45516000228E+02  0.00000000000E+00 0. -1.
        -11    1    4    4    0    0  0.25675009927E+03 -0.16139031740E+03 -0.11473150233E+03  0.32423874792E+03  0.00000000000E+00 0. -1.
         11    1    4    4    0    0  0.19084478477E+01 -0.29817531873E+02 -0.18752303949E+01  0.29937332366E+02  0.00000000000E+00 0.  1.
         21    1    1    2  503  501 -0.20587946044E+02 -0.11858954499E+02 -0.31870431296E+02  0.39752015234E+02  0.00000000000E+00 0.  1.
          1    1    1    2  501    0 -0.24065656956E+03  0.27027899272E+03  0.31008821135E+03  0.47657215319E+03  0.00000000000E+00 0. -1.
<scales pt_clust_5="13000.00000" pt_clust_6="13000.00000" pt_clust_7="13000.00000" pt_clust_8="13000.00000" pt_clust_9="23.75917" pt_clust_10="326.14209"></scales>
<clustering>
<clus scale="   23.759">  2  9  1 -1</clus>
<clus scale="   80.009">  5  6 -1 -1</clus>
<clus scale="   91.536">  7  8 -1 -1</clus>
<clus scale="  105.796">  1  5  2 -1</clus>
<clus scale="  326.142">  2 10  1 -1</clus>
<clus scale="   23.759">  2  5  1 -1</clus>
</clustering>
</event>
<event>
10    4  0.3403565E-005  0.5461243E+03  0.7546771E-02  0.1002395E+00
         -1   -1    0    0    0  501 -0.00000000000E+00  0.00000000000E+00  0.84029761597E+03  0.84029761597E+03  0.00000000000E+00 0.  1.
         21   -1    0    0  503  502  0.00000000000E+00 -0.00000000000E+00 -0.42912831432E+03  0.42912831432E+03  0.00000000000E+00 0.  1.
         24    2    1    2    0    0 -0.96302222088E+02  0.10611075559E+02  0.12307203496E+03  0.17609981650E+03  0.80484201417E+02 0.  0.
         23    2    1    2    0    0 -0.40986440321E+03 -0.10178276797E+03  0.17071833879E+03  0.46418606788E+03  0.89305058873E+02 0.  0.
        -11    1    3    3    0    0 -0.95042896308E+02  0.24540399439E+02  0.68333858995E+02  0.11960309205E+03  0.00000000000E+00 0.  1.
         12    1    3    3    0    0 -0.12593257801E+01 -0.13929323879E+02  0.54738175964E+02  0.56496724445E+02  0.00000000000E+00 0. -1.
        -13    1    4    4    0    0 -0.37429825316E+03 -0.74616741658E+02  0.12864642019E+03  0.40276139572E+03  0.00000000000E+00 0.  1.
         13    1    4    4    0    0 -0.35566150044E+02 -0.27166026312E+02  0.42071918603E+02  0.61424672156E+02  0.00000000000E+00 0. -1.
         21    1    1    2  503  501  0.60981931563E+02 -0.55598400879E+02 -0.85084810373E+02  0.11853017807E+03  0.00000000000E+00 0.  1.
         -2    1    1    2    0  502  0.44518469373E+03  0.14677009329E+03  0.20246373827E+03  0.51060986784E+03  0.00000000000E+00 0.  1.
<scales pt_clust_5="13000.00000" pt_clust_6="13000.00000" pt_clust_7="13000.00000" pt_clust_8="13000.00000" pt_clust_9="82.52259" pt_clust_10="488.99457"></scales>
<clustering>
<clus scale="   80.484">  5  6 -1 -1</clus>
<clus scale="   82.523">  2  9  1 -1</clus>
<clus scale="   89.305">  7  8 -1 -1</clus>
<clus scale="  111.500">  5  7 -1 -1</clus>
<clus scale="  488.995">  2 10  1 -1</clus>
<clus scale="   82.523">  2  5  1 -1</clus>
</clustering>
</event>
<event>
10    4  0.3403565E-005  0.1895527E+03  0.7546771E-02  0.1191403E+00
          2   -1    0    0  503    0 -0.00000000000E+00  0.00000000000E+00  0.10085137229E+04  0.10085137229E+04  0.00000000000E+00 0. -1.
         21   -1    0    0  501  502  0.00000000000E+00 -0.00000000000E+00 -0.19686840520E+03  0.19686840520E+03  0.00000000000E+00 0. -1.
         24    2    1    2    0    0 -0.23145644850E+02 -0.85045811714E+01  0.18608034892E+03  0.20698226507E+03  0.87222204880E+02 0.  0.
         23    2    1    2    0    0  0.18843063771E+03  0.36390237433E+02  0.49291821483E+03  0.53673788028E+03  0.91043017355E+02 0.  0.
        -11    1    3    3    0    0 -0.26686817231E+02 -0.39092936168E+02  0.56082572900E+02  0.73387320807E+02  0.00000000000E+00 0.  1.
         12    1    3    3    0    0  0.35411723817E+01  0.30588354996E+02  0.12999777602E+03  0.13359494427E+03  0.00000000000E+00 0. -1.
        -13    1    4    4    0    0  0.67253482576E+02 -0.16225823207E+02  0.95416481202E+02  0.11785844536E+03  0.00000000000E+00 0. -1.
         13    1    4    4    0    0  0.12117715513E+03  0.52616060641E+02  0.39750173363E+03  0.41887943492E+03  0.00000000000E+00 0.  1.
         21    1    1    2  503  502 -0.71665923349E+02  0.12794304450E+03 -0.91662456967E+02  0.17293765704E+03  0.00000000000E+00 0. -1.
          1    1    1    2  501    0 -0.93619069509E+02 -0.15582870076E+03  0.22430921089E+03  0.28872432569E+03  0.00000000000E+00 0. -1.
<scales pt_clust_5="13000.00000" pt_clust_6="13000.00000" pt_clust_7="13000.00000" pt_clust_8="13000.00000" pt_clust_9="146.84710" pt_clust_10="166.25698"></scales>
<clustering>
<clus scale="   87.222">  5  6 -1 -1</clus>
<clus scale="   90.641">  1  5  2 -1</clus>
<clus scale="   91.043">  7  8 -1 -1</clus>
<clus scale="  146.847">  2  9  1 -1</clus>
<clus scale="  166.257">  2 10  1 -1</clus>
<clus scale="  146.847">  2  5  1 -1</clus>
</clustering>
</event>
<event>
10    4  0.3403565E-005  0.1718907E+03  0.7546771E-02  0.1177590E+00
         21   -1    0    0  503  502  0.00000000000E+00  0.00000000000E+00  0.26147371806E+03  0.26147371806E+03  0.00000000000E+00 0. -1.
         -1   -1    0    0    0  501 -0.00000000000E+00 -0.00000000000E+00 -0.64652306887E+03  0.64652306887E+03  0.00000000000E+00 0.  1.
         24    2    1    2    0    0 -0.29626419801E+02  0.15539973689E+03 -0.52978685967E+03  0.55842640168E+03  0.78352577762E+02 0.  0.
         23    2    1    2    0    0  0.75879068990E+02 -0.75917527717E+02 -0.17137991941E+02  0.14191418582E+03  0.91240458365E+02 0.  0.
        -11    1    3    3    0    0 -0.23552729534E+02  0.70414728393E+02 -0.36965882838E+03  0.37704192664E+03  0.00000000000E+00 0.  1.
         12    1    3    3    0    0 -0.60736902670E+01  0.84985008498E+02 -0.16012803129E+03  0.18138447505E+03  0.00000000000E+00 0. -1.
        -11    1    4    4    0    0  0.58469397587E+02  0.18620666659E+01 -0.20902105520E+02  0.62121137800E+02  0.00000000000E+00 0.  1.
         11    1    4    4    0    0  0.17409671403E+02 -0.77779594383E+02  0.37641135788E+01  0.79793048016E+02  0.00000000000E+00 0. -1.
         21    1    1    2  503  501  0.26316501024E+01 -0.23296557321E+02  0.11989208143E+03  0.12216286815E+03  0.00000000000E+00 0. -1.
         -2    1    1    2    0  502 -0.48884299291E+02 -0.56185651854E+02  0.41983419370E+02  0.85493331280E+02  0.00000000000E+00 0.  1.
<scales pt_clust_5="13000.00000" pt_clust_6="13000.00000" pt_clust_7="13000.00000" pt_clust_8="13000.00000" pt_clust_9="23.44473" pt_clust_10="82.04268"></scales>
<clustering>
<clus scale="   23.445">  1  9  2 -1</clus>
<clus scale="   78.353">  5  6 -1 -1</clus>
<clus scale="   82.043">  1 10  2 -1</clus>
<clus scale="   91.240">  7  8 -1 -1</clus>
<clus scale="  165.411">  2  5  1 -1</clus>
<clus scale="   23.445">  1  5  2 -1</clus>
</clustering>
</event>
<event>
10    4  0.3403565E-005  0.1557525E+03  0.7546771E-02  0.1207220E+00
         21   -1    0    0  503  502  0.00000000000E+00  0.00000000000E+00  0.60496847862E+02  0.60496847862E+02  0.00000000000E+00 0.  1.
          2   -1    0    0  502    0 -0.00000000000E+00 -0.00000000000E+00 -0.13941628670E+04  0.13941628670E+04  0.00000000000E+00 0. -1.
         24    2    1    2    0    0 -0.48772250654E+02 -0.87374884945E+02 -0.21852185948E+03  0.25649164642E+03  0.89571528178E+02 0.  0.
         23    2    1    2    0    0 -0.20616289842E+02 -0.11457959722E+03 -0.54036128750E+03  0.56025931698E+03  0.91360088277E+02 0.  0.
        -13    1    3    3    0    0 -0.29335382191E+02 -0.10301807270E+03 -0.19342548171E+03  0.22110338063E+03  0.00000000000E+00 0.  1.
         14    1    3    3    0    0 -0.19436868462E+02  0.15643187752E+02 -0.25096377770E+02  0.35388265793E+02  0.00000000000E+00 0. -1.
        -11    1    4    4    0    0  0.28958808137E+02 -0.39032975378E+02 -0.10617915964E+03  0.11677413959E+03  0.00000000000E+00 0.  1.
         11    1    4    4    0    0 -0.49575097979E+02 -0.75546621840E+02 -0.43418212786E+03  0.44348517739E+03  0.00000000000E+00 0. -1.
         21    1    1    2  503  501 -0.40974740944E+01  0.70890404334E+02 -0.38092828598E+02  0.80581029474E+02  0.00000000000E+00 0. -1.
          1    1    1    2  501    0  0.73486014590E+02  0.13106407783E+03 -0.53669004359E+03  0.55732772202E+03  0.00000000000E+00 0. -1.
<scales pt_clust_5="13000.00000" pt_clust_6="13000.00000" pt_clust_7="13000.00000" pt_clust_8="13000.00000" pt_clust_9="71.00872" pt_clust_10="126.14354"></scales>
<clustering>
<clus scale="   71.009">  1  9  2 -1</clus>
<clus scale="   89.572">  5  6 -1 -1</clus>
<clus scale="   91.360">  7  8 -1 -1</clus>
<clus scale="  115.833">  2  5  1 -1</clus>
<clus scale="  126.144">  1 10  2 -1</clus>
<clus scale="   71.009">  1  5  2 -1</clus>
</clustering>
</event>
<event>
10    4  0.3403565E-005  0.2340534E+03  0.7546771E-02  0.1162791E+00
         21   -1    0    0  501  502  0.00000000000E+00  0.00000000000E+00  0.75514170360E+03  0.75514170360E+03  0.00000000000E+00 0. -1.
          4   -1    0    0  503    0 -0.00000000000E+00 -0.00000000000E+00 -0.14276558589E+03  0.14276558589E+03  0.00000000000E+00 0. -1.
         24    2    1    2    0    0  0.40067664015E+02  0.51789090196E+01  0.71488785449E+01  0.92265980071E+02  0.82641792186E+02 0.  0.
         23    2    1    2    0    0  0.16222315730E+03 -0.97398537849E+02  0.18945393311E+03  0.28312211112E+03  0.91991896910E+02 0.  0.
        -11    1    3    3    0    0  0.21206580838E+02 -0.34616234435E+02 -0.14610900721E+02  0.43144885875E+02  0.00000000000E+00 0.  1.
         12    1    3    3    0    0  0.18861083177E+02  0.39795143455E+02  0.21759779266E+02  0.49121094195E+02  0.00000000000E+00 0. -1.
        -11    1    4    4    0    0  0.45545787943E+02  0.76293681000E+01  0.77822139161E+02  0.90492604120E+02  0.00000000000E+00 0.  1.
         11    1    4    4    0    0  0.11667736935E+03 -0.10502790595E+03  0.11163179395E+03  0.19262950700E+03  0.00000000000E+00 0. -1.
         21    1    1    2  503  502  0.12211517504E+01 -0.38496218581E+02  0.18237058935E+03  0.18639335266E+03  0.00000000000E+00 0. -1.
          3    1    1    2  501    0 -0.20351197306E+03  0.13071584741E+03  0.23340271671E+03  0.33612584565E+03  0.00000000000E+00 0. -1.
<scales pt_clust_5="13000.00000" pt_clust_6="13000.00000" pt_clust_7="13000.00000" pt_clust_8="13000.00000" pt_clust_9="38.51558" pt_clust_10="215.21735"></scales>
<clustering>
<clus scale="   38.516">  1  9  2 -1</clus>
<clus scale="   82.642">  5  6 -1 -1</clus>
<clus scale="   91.907">  2  5  1 -1</clus>
<clus scale="   91.992">  7  8 -1 -1</clus>
<clus scale="  215.217">  1 10  2 -1</clus>
<clus scale="   38.516">  1  5  2 -1</clus>
</clustering>
</event>
<event>
10    4  0.3403565E-005  0.1356320E+03  0.7546771E-02  0.1221911E+00
         21   -1    0    0  501  502  0.00000000000E+00  0.00000000000E+00  0.62411359153E+02  0.62411359153E+02  0.00000000000E+00 0. -1.
          2   -1    0    0  503    0 -0.00000000000E+00 -0.00000000000E+00 -0.64557068946E+03  0.64557068946E+03  0.00000000000E+00 0. -1.
         23    2    1    2    0    0 -0.98169436257E+02 -0.23681611860E+01 -0.29074331359E+03  0.32002433256E+03  0.90780243606E+02 0.  0.
         24    2    1    2    0    0  0.10100854374E+03 -0.37596815634E+02 -0.24609633763E+03  0.28023739552E+03  0.79707866624E+02 0.  0.
        -11    1    4    4    0    0  0.38810340863E+02  0.22941110672E+02 -0.10925177413E+03  0.11818835504E+03  0.00000000000E+00 0.  1.
         12    1    4    4    0    0  0.62198202873E+02 -0.60537926306E+02 -0.13684456350E+03  0.16204904048E+03  0.00000000000E+00 0. -1.
        -13    1    3    3    0    0 -0.10421271436E+03  0.20080604137E+02 -0.20075683203E+03  0.22708330213E+03  0.00000000000E+00 0.  1.
         13    1    3    3    0    0  0.60432781010E+01 -0.22448765323E+02 -0.89986481557E+02  0.92941030432E+02  0.00000000000E+00 0. -1.
         21    1    1    2  503  502  0.13619192863E+02 -0.20940810967E+02  0.60778827049E+01  0.25708765750E+02  0.00000000000E+00 0.  1.
          1    1    1    2  501    0 -0.16458300342E+02  0.60905787787E+02 -0.52397561793E+02  0.82011554783E+02  0.00000000000E+00 0. -1.
<scales pt_clust_5="13000.00000" pt_clust_6="13000.00000" pt_clust_7="13000.00000" pt_clust_8="13000.00000" pt_clust_9="24.97999" pt_clust_10="55.57851"></scales>
<clustering>
<clus scale="   24.980">  1  9  2 -1</clus>
<clus scale="   55.579">  1 10  2 -1</clus>
<clus scale="   79.708">  5  6 -1 -1</clus>
<clus scale="   90.780">  7  8 -1 -1</clus>
<clus scale="  128.485">  1  5  2 -1</clus>
<clus scale="   24.980">  1  5  2 -1</clus>
</clustering>
</event>
<event>
10    4  0.3403565E-005  0.1064357E+03  0.7546771E-02  0.1272281E+00
          2   -1    0    0  502    0 -0.00000000000E+00  0.00000000000E+00  0.24184480199E+03  0.24184480199E+03  0.00000000000E+00 0. -1.
         21   -1    0    0  503  502  0.00000000000E+00 -0.00000000000E+00 -0.23922606442E+03  0.23922606442E+03  0.00000000000E+00 0. -1.
         24    2    1    2    0    0 -0.37528909471E+02  0.25498481537E+02  0.11110138709E+03  0.14465715584E+03  0.80768700099E+02 0.  0.
         23    2    1    2    0    0  0.10714537940E+03 -0.10410813229E+02 -0.45408033009E+02  0.14884198211E+03  0.92214580288E+02 0.  0.
        -11    1    3    3    0    0  0.21817072055E+02  0.38424991490E+01  0.58149805981E+02  0.62226596954E+02  0.00000000000E+00 0.  1.
         12    1    3    3    0    0 -0.59345981526E+02  0.21655982388E+02  0.52951581112E+02  0.82430558889E+02  0.00000000000E+00 0. -1.
        -13    1    4    4    0    0  0.33737798824E+02 -0.21062847061E+02  0.24665754668E+02  0.46800449240E+02  0.00000000000E+00 0.  1.
         13    1    4    4    0    0  0.73407580574E+02  0.10652033832E+02 -0.70073787677E+02  0.10204153287E+03  0.00000000000E+00 0. -1.
         21    1    1    2  503  501  0.12322844276E+02  0.54210124360E+02 -0.57699023959E+02  0.80123451249E+02  0.00000000000E+00 0. -1.
          1    1    1    2  501    0 -0.81939314201E+02 -0.69297792668E+02 -0.53755925522E+01  0.10744827721E+03  0.00000000000E+00 0. -1.
<scales pt_clust_5="13000.00000" pt_clust_6="13000.00000" pt_clust_7="13000.00000" pt_clust_8="13000.00000" pt_clust_9="55.59308" pt_clust_10="93.26226"></scales>
<clustering>
<clus scale="   55.593">  2  9  1 -1</clus>
<clus scale="   80.769">  5  6 -1 -1</clus>
<clus scale="   92.215">  7  8 -1 -1</clus>
<clus scale="   93.262">  2 10  1 -1</clus>
<clus scale="   96.688">  1  5  2 -1</clus>
<clus scale="   55.593">  2  5  1 -1</clus>
</clustering>
</event>
<event>
10    4  0.3403565E-005  0.3219163E+03  0.7546771E-02  0.1099808E+00
         21   -1    0    0  501  502  0.00000000000E+00  0.00000000000E+00  0.43109117635E+03  0.43109117635E+03  0.00000000000E+00 0.  1.
          2   -1    0    0  503    0 -0.00000000000E+00 -0.00000000000E+00 -0.79398617246E+03  0.79398617246E+03  0.00000000000E+00 0. -1.
         23    2    1    2    0    0  0.20387209774E+02 -0.13435175308E+03 -0.37090246567E+03  0.40670705154E+03  0.96829514374E+02 0.  0.
         24    2    1    2    0    0  0.19997931435E+03 -0.16267797202E+03 -0.11683861676E+03  0.29380583662E+03  0.78833739686E+02 0.  0.
        -11    1    4    4    0    0  0.19480840177E+03 -0.16250878864E+03 -0.94251880761E+02  0.27063413830E+03  0.00000000000E+00 0.  1.
         12    1    4    4    0    0  0.51709125887E+01 -0.16918338228E+00 -0.22586735999E+02  0.23171698322E+02  0.00000000000E+00 0. -1.
        -13    1    3    3    0    0  0.45472098547E+02 -0.32411474012E+02 -0.81011001927E+02  0.98392061810E+02  0.00000000000E+00 0.  1.
         13    1    3    3    0    0 -0.25084888773E+02 -0.10194027907E+03 -0.28989146374E+03  0.30831498973E+03  0.00000000000E+00 0. -1.
         21    1    1    2  503  502 -0.21756960198E+03  0.25703329198E+03  0.23281166341E+03  0.40939457191E+03  0.00000000000E+00 0. -1.
          1    1    1    2  501    0 -0.27969221523E+01  0.39996433123E+02 -0.10796557710E+03  0.11516988875E+03  0.00000000000E+00 0. -1.
<scales pt_clust_5="13000.00000" pt_clust_6="13000.00000" pt_clust_7="13000.00000" pt_clust_8="13000.00000" pt_clust_9="312.11427" pt_clust_10="40.09413"></scales>
<clustering>
<clus scale="   40.094">  1 10  2 -1</clus>
<clus scale="   78.834">  5  6 -1 -1</clus>
<clus scale="   96.830">  7  8 -1 -1</clus>
<clus scale="  165.499">  2  7  1 -1</clus>
<clus scale="  312.114">  1  9  2 -1</clus>
<clus scale="   40.094">  1  5  2 -1</clus>
</clustering>
</event>
<event>
10    4  0.3403565E-005  0.1568598E+03  0.7546771E-02  0.1210366E+00
         21   -1    0    0  503  502  0.00000000000E+00  0.00000000000E+00  0.18903764840E+03  0.18903764840E+03  0.00000000000E+00 0. -1.
          2   -1    0    0  502    0 -0.00000000000E+00 -0.00000000000E+00 -0.29482961437E+03  0.29482961437E+03  0.00000000000E+00 0. -1.
         24    2    1    2    0    0 -0.41525874776E+02 -0.52000218309E+02 -0.40930687201E+02  0.11364284110E+03  0.82528499317E+02 0.  0.
         23    2    1    2    0    0  0.51844531349E+02 -0.84377823534E+02 -0.15112599138E+03  0.20222116848E+03  0.90812241331E+02 0.  0.
        -11    1    3    3    0    0 -0.38532546984E+02 -0.33394815344E+02 -0.65292161770E+02  0.82843450300E+02  0.00000000000E+00 0.  1.
         12    1    3    3    0    0 -0.29933277919E+01 -0.18605402965E+02  0.24361474569E+02  0.30799390805E+02  0.00000000000E+00 0. -1.
        -13    1    4    4    0    0  0.42626782655E+02  0.62498098654E+01 -0.43596966797E+02  0.61292725806E+02  0.00000000000E+00 0.  1.
         13    1    4    4    0    0  0.92177486941E+01 -0.90627633399E+02 -0.10752902458E+03  0.14092844267E+03  0.00000000000E+00 0. -1.
         21    1    1    2  503  501 -0.65217690909E+01  0.25063335664E+02  0.39436721521E+02  0.47180072817E+02  0.00000000000E+00 0. -1.
          1    1    1    2  501    0 -0.37968874826E+01  0.11131470618E+03  0.46827991088E+02  0.12082318037E+03  0.00000000000E+00 0. -1.
<scales pt_clust_5="13000.00000" pt_clust_6="13000.00000" pt_clust_7="13000.00000" pt_clust_8="13000.00000" pt_clust_9="21.98153" pt_clust_10="135.77994"></scales>
<clustering>
<clus scale="   21.982">  9 10 -1 -1</clus>
<clus scale="   82.528">  5  6 -1 -1</clus>
<clus scale="   90.812">  7  8 -1 -1</clus>
<clus scale="  106.016">  2  5  1 -1</clus>
<clus scale="  135.780">  1  9  2 -1</clus>
<clus scale="  135.780">  1  5  2 -1</clus>
</clustering>
</event>
<event>
10    4  0.3403565E-005  0.2109785E+03  0.7546771E-02  0.1141730E+00
         21   -1    0    0  503  502  0.00000000000E+00  0.00000000000E+00  0.17839280209E+03  0.17839280209E+03  0.00000000000E+00 0.  1.
          2   -1    0    0  502    0 -0.00000000000E+00 -0.00000000000E+00 -0.16270362833E+04  0.16270362833E+04  0.00000000000E+00 0. -1.
         24    2    1    2    0    0 -0.11081768918E+03 -0.14325176550E+03 -0.38686868062E+03  0.43465260268E+03  0.80336046779E+02 0.  0.
         23    2    1    2    0    0  0.27131898625E+03 -0.66320767581E+02 -0.72659793689E+03  0.78381965171E+03  0.91740111189E+02 0.  0.
        -11    1    3    3    0    0 -0.26639935660E+02 -0.47194140079E+02 -0.47567739981E+02  0.72108688219E+02  0.00000000000E+00 0.  1.
         12    1    3    3    0    0 -0.84177753519E+02 -0.96057625417E+02 -0.33930094064E+03  0.36254391446E+03  0.00000000000E+00 0. -1.
        -11    1    4    4    0    0  0.17717672347E+02  0.19088306119E+02 -0.54306361367E+02  0.60228400517E+02  0.00000000000E+00 0.  1.
         11    1    4    4    0    0  0.25360131391E+03 -0.85409073699E+02 -0.67229157553E+03  0.72359125120E+03  0.00000000000E+00 0. -1.
         21    1    1    2  503  501 -0.13183912034E+03  0.13147554714E+02  0.59447551174E+02  0.14521853596E+03  0.00000000000E+00 0.  1.
          1    1    1    2  501    0 -0.28662176734E+02  0.19642497836E+03 -0.39462441486E+03  0.44173829504E+03  0.00000000000E+00 0. -1.
<scales pt_clust_5="13000.00000" pt_clust_6="13000.00000" pt_clust_7="13000.00000" pt_clust_8="13000.00000" pt_clust_9="132.49306" pt_clust_10="212.19950"></scales>
<clustering>
<clus scale="   80.336">  5  6 -1 -1</clus>
<clus scale="   91.740">  7  8 -1 -1</clus>
<clus scale="  132.493">  1  9  2 -1</clus>
<clus scale="  212.199">  1 10  2 -1</clus>
<clus scale="  206.275">  2  5  1 -1</clus>
<clus scale="  132.493">  1  5  2 -1</clus>
</clustering>
</event>
<event>
10    4  0.3403565E-005  0.2211158E+03  0.7546771E-02  0.1172872E+00
          2   -1    0    0  502    0 -0.00000000000E+00  0.00000000000E+00  0.20706877427E+03  0.20706877427E+03  0.00000000000E+00 0. -1.
         21   -1    0    0  503  502  0.00000000000E+00 -0.00000000000E+00 -0.41101121831E+03  0.41101121831E+03  0.00000000000E+00 0. -1.
         24    2    1    2    0    0  0.25380228494E+02  0.18988105748E+02  0.21645276888E+02  0.89436963745E+02  0.80782103922E+02 0.  0.
         23    2    1    2    0    0  0.82210841010E+02 -0.17101034567E+03 -0.15300524442E+03  0.26107268227E+03  0.93515666623E+02 0.  0.
        -11    1    3    3    0    0  0.30432812164E+02 -0.24241810221E+02  0.24230631745E+02  0.45836065863E+02  0.00000000000E+00 0.  1.
         12    1    3    3    0    0 -0.50525836696E+01  0.43229915969E+02 -0.25853548564E+01  0.43600897883E+02  0.00000000000E+00 0. -1.
        -13    1    4    4    0    0  0.45807672583E+02 -0.44531221718E+02 -0.66313059318E+01  0.64228862620E+02  0.00000000000E+00 0.  1.
         13    1    4    4    0    0  0.36403168427E+02 -0.12647912395E+03 -0.14637393849E+03  0.19684381965E+03  0.00000000000E+00 0. -1.
         21    1    1    2  503  501  0.40703428877E+01 -0.20805618956E+02 -0.57469071537E+02  0.61254678635E+02  0.00000000000E+00 0.  1.
          1    1    1    2  501    0 -0.11166141239E+03  0.17282785887E+03 -0.15113404964E+02  0.20631566792E+03  0.00000000000E+00 0. -1.
<scales pt_clust_5="13000.00000" pt_clust_6="13000.00000" pt_clust_7="13000.00000" pt_clust_8="13000.00000" pt_clust_9="21.20003" pt_clust_10="200.36731"></scales>
<clustering>
<clus scale="   21.200">  2  9  1 -1</clus>
<clus scale="   80.782">  5  6 -1 -1</clus>
<clus scale="   86.478">  1  5  2 -1</clus>
<clus scale="   93.516">  7  8 -1 -1</clus>
<clus scale="  200.367">  2 10  1 -1</clus>
<clus scale="   21.200">  2  5  1 -1</clus>
</clustering>
</event>
<event>
10    4  0.3403565E-005  0.7449275E+03  0.7546771E-02  0.1013477E+00
         21   -1    0    0  501  502  0.00000000000E+00  0.00000000000E+00  0.42559367334E+03  0.42559367334E+03  0.00000000000E+00 0. -1.
          2   -1    0    0  503    0 -0.00000000000E+00 -0.00000000000E+00 -0.20446051396E+04  0.20446051396E+04  0.00000000000E+00 0. -1.
         23    2    1    2    0    0  0.79115518613E+02 -0.92971416337E+02 -0.43377194614E+03  0.45992623729E+03  0.92038540535E+02 0.  0.
         24    2    1    2    0    0  0.60901212905E+03 -0.30660284651E+03 -0.64345156007E+03  0.94072018730E+03  0.77611093445E+02 0.  0.
        -11    1    4    4    0    0  0.17588113471E+03 -0.78707006275E+02 -0.13702022234E+03  0.23643922626E+03  0.00000000000E+00 0.  1.
         12    1    4    4    0    0  0.43313099434E+03 -0.22789584024E+03 -0.50643133773E+03  0.70428096104E+03  0.00000000000E+00 0. -1.
        -11    1    3    3    0    0  0.43004615471E+02  0.59984742310E+01 -0.82953831616E+02  0.93630747218E+02  0.00000000000E+00 0. -1.
         11    1    3    3    0    0  0.36110903142E+02 -0.98969890567E+02 -0.35081811453E+03  0.36629549007E+03  0.00000000000E+00 0.  1.
         21    1    1    2  503  502  0.23583926609E+02  0.33345943003E+02  0.56878336818E+02  0.70023558237E+02  0.00000000000E+00 0.  1.
          1    1    1    2  501    0 -0.71171157427E+03  0.36622831984E+03 -0.59866629685E+03  0.99952883010E+03  0.00000000000E+00 0. -1.
<scales pt_clust_5="13000.00000" pt_clust_6="13000.00000" pt_clust_7="13000.00000" pt_clust_8="13000.00000" pt_clust_9="40.84304" pt_clust_10="740.87352"></scales>
<clustering>
<clus scale="   40.843">  1  9  2 -1</clus>
<clus scale="   77.611">  5  6 -1 -1</clus>
<clus scale="   92.039">  7  8 -1 -1</clus>
<clus scale="  152.601">  2  7  1 -1</clus>
<clus scale="  740.874">  1 10  2 -1</clus>
<clus scale="   40.843">  1  5  2 -1</clus>
</clustering>
</event>
<event>
10    4  0.3403565E-005  0.9220245E+02  0.7546771E-02  0.1305570E+00
          2   -1    0    0  502    0 -0.00000000000E+00  0.00000000000E+00  0.71489836876E+03  0.71489836876E+03  0.00000000000E+00 0. -1.
         21   -1    0    0  503  502  0.00000000000E+00 -0.00000000000E+00 -0.48973118911E+02  0.48973118911E+02  0.00000000000E+00 0. -1.
         23    2    1    2    0    0  0.37422014816E+01  0.19129600454E+02  0.27132113120E+03  0.28716109861E+03  0.92013013397E+02 0.  0.
         24    2    1    2    0    0  0.19051714609E+01  0.88620196113E+02  0.10468395751E+03  0.15850351660E+03  0.79419550353E+02 0.  0.
        -11    1    4    4    0    0  0.34649489820E+02  0.14084144136E+02  0.28738675651E+02  0.47168440074E+02  0.00000000000E+00 0.  1.
         12    1    4    4    0    0 -0.32744318359E+02  0.74536051977E+02  0.75945281861E+02  0.11133507653E+03  0.00000000000E+00 0. -1.
        -13    1    3    3    0    0 -0.16504809538E+02  0.52008528143E+02  0.17773597918E+03  0.18592303255E+03  0.00000000000E+00 0. -1.
         13    1    3    3    0    0  0.20247011020E+02 -0.32878927689E+02  0.93585152024E+02  0.10123806606E+03  0.00000000000E+00 0.  1.
         21    1    1    2  503  501 -0.42337252855E+01 -0.33692752344E+02  0.22542046083E+02  0.40758677995E+02  0.00000000000E+00 0. -1.
          1    1    1    2  501    0 -0.14136476569E+01 -0.74057044224E+02  0.26737811505E+03  0.27744819445E+03  0.00000000000E+00 0. -1.
<scales pt_clust_5="13000.00000" pt_clust_6="13000.00000" pt_clust_7="13000.00000" pt_clust_8="13000.00000" pt_clust_9="33.95771" pt_clust_10="78.33681"></scales>
<clustering>
<clus scale="   33.958">  2  9  1 -1</clus>
<clus scale="   78.337">  2 10  1 -1</clus>
<clus scale="   79.420">  5  6 -1 -1</clus>
<clus scale="   79.639">  2  5  1 -1</clus>
<clus scale="   92.013">  7  8 -1 -1</clus>
<clus scale="   33.958">  2  5  1 -1</clus>
</clustering>
</event>
<event>
10    4  0.3403565E-005  0.3771582E+03  0.7546771E-02  0.1108884E+00
         21   -1    0    0  503  502  0.00000000000E+00  0.00000000000E+00  0.26512541909E+03  0.26512541909E+03  0.00000000000E+00 0. -1.
          2   -1    0    0  502    0 -0.00000000000E+00 -0.00000000000E+00 -0.14711585903E+04  0.14711585903E+04  0.00000000000E+00 0. -1.
         24    2    1    2    0    0  0.96769949714E+01 -0.15206671087E+02 -0.18649496642E+03  0.20370870736E+03  0.79949846011E+02 0.  0.
         23    2    1    2    0    0  0.36443040338E+03 -0.90633949107E+01 -0.75471634715E+03  0.84285781427E+03  0.88999249353E+02 0.  0.
        -11    1    3    3    0    0 -0.25681467566E+02  0.62287988534E+01 -0.13551883319E+03  0.13807132164E+03  0.00000000000E+00 0.  1.
         12    1    3    3    0    0  0.35358462537E+02 -0.21435469940E+02 -0.50976133231E+02  0.65637385717E+02  0.00000000000E+00 0. -1.
        -13    1    4    4    0    0  0.16608067322E+03  0.29010846649E+02 -0.41032661459E+03  0.44361283783E+03  0.00000000000E+00 0.  1.
         13    1    4    4    0    0  0.19834973016E+03 -0.38074241560E+02 -0.34438973256E+03  0.39924497644E+03  0.00000000000E+00 0. -1.
         21    1    1    2  503  501 -0.96953838364E+01  0.34061712123E+02  0.14031477873E+03  0.14471502282E+03  0.00000000000E+00 0. -1.
          1    1    1    2  501    0 -0.36441201452E+03 -0.97916461257E+01 -0.40513663639E+03  0.54500246496E+03  0.00000000000E+00 0. -1.
<scales pt_clust_5="13000.00000" pt_clust_6="13000.00000" pt_clust_7="13000.00000" pt_clust_8="13000.00000" pt_clust_9="35.41470" pt_clust_10="366.50709"></scales>
<clustering>
<clus scale="   35.415">  1  9  2 -1</clus>
<clus scale="   79.950">  5  6 -1 -1</clus>
<clus scale="   81.469">  2  5  1 -1</clus>
<clus scale="   88.999">  7  8 -1 -1</clus>
<clus scale="  366.507">  1 10  2 -1</clus>
<clus scale="   35.415">  1  5  2 -1</clus>
</clustering>
</event>
<event>
10    4  0.3403565E-005  0.1780050E+03  0.7546771E-02  0.1170633E+00
         21   -1    0    0  503  502  0.00000000000E+00  0.00000000000E+00  0.11559090532E+03  0.11559090532E+03  0.00000000000E+00 0. -1.
         -1   -1    0    0    0  501 -0.00000000000E+00 -0.00000000000E+00 -0.84729700504E+03  0.84729700504E+03  0.00000000000E+00 0.  1.
         24    2    1    2    0    0  0.15059956442E+03 -0.31795784828E+02 -0.63464864300E+03  0.65807329736E+03  0.81181056308E+02 0.  0.
         23    2    1    2    0    0 -0.14711715101E+03  0.65265857289E+02 -0.14180251620E+02  0.18425923126E+03  0.88584967799E+02 0.  0.
        -13    1    3    3    0    0  0.13125162684E+03  0.42112511156E+01 -0.52108315372E+03  0.53737545280E+03  0.00000000000E+00 0.  1.
         14    1    3    3    0    0  0.19347937584E+02 -0.36007035944E+02 -0.11356548928E+03  0.12069784457E+03  0.00000000000E+00 0. -1.
        -11    1    4    4    0    0 -0.92103730813E+01  0.40811084674E+02  0.75861700377E+01  0.42519708141E+02  0.00000000000E+00 0.  1.
         11    1    4    4    0    0 -0.13790677793E+03  0.24454772615E+02 -0.21766421657E+02  0.14173952312E+03  0.00000000000E+00 0. -1.
         21    1    1    2  503  501 -0.36352064220E+02  0.50126020046E+01 -0.30429766510E+02  0.47671474088E+02  0.00000000000E+00 0. -1.
         -2    1    1    2    0  502  0.32869650813E+02 -0.38482674466E+02 -0.52447438586E+02  0.72883907640E+02  0.00000000000E+00 0.  1.
<scales pt_clust_5="13000.00000" pt_clust_6="13000.00000" pt_clust_7="13000.00000" pt_clust_8="13000.00000" pt_clust_9="36.69603" pt_clust_10="48.04669"></scales>
<clustering>
<clus scale="   36.696">  1  9  2 -1</clus>
<clus scale="   48.047">  1 10  2 -1</clus>
<clus scale="   81.181">  5  6 -1 -1</clus>
<clus scale="   88.585">  7  8 -1 -1</clus>
<clus scale="  174.439">  2  5  1 -1</clus>
<clus scale="   36.696">  1  5  2 -1</clus>
</clustering>
</event>
<event>
10    4  0.3403565E-005  0.2229277E+03  0.7546771E-02  0.1132320E+00
         -1   -1    0    0    0  501 -0.00000000000E+00  0.00000000000E+00  0.61526955258E+03  0.61526955258E+03  0.00000000000E+00 0.  1.
         21   -1    0    0  503  502  0.00000000000E+00 -0.00000000000E+00 -0.23105036921E+03  0.23105036921E+03  0.00000000000E+00 0.  1.
         24    2    1    2    0    0 -0.21383695186E+02 -0.17069659086E+03  0.18445301164E+03  0.26597505229E+03  0.84411056056E+02 0.  0.
         23    2    1    2    0    0 -0.13852663546E+03  0.28659097243E+03  0.13421152816E+03  0.35763468905E+03  0.92551727764E+02 0.  0.
        -13    1    3    3    0    0 -0.27628838199E+02 -0.11581274593E+03  0.68067486667E+02  0.13714637276E+03  0.00000000000E+00 0.  1.
         14    1    3    3    0    0  0.62451430132E+01 -0.54883844936E+02  0.11638552498E+03  0.12882867953E+03  0.00000000000E+00 0. -1.
        -11    1    4    4    0    0 -0.45651024767E+02  0.27574058963E+02  0.40439897950E+02  0.66930786161E+02  0.00000000000E+00 0. -1.
         11    1    4    4    0    0 -0.92875610688E+02  0.25901691346E+03  0.93771630208E+02  0.29070390289E+03  0.00000000000E+00 0.  1.
         21    1    1    2  503  501  0.21555947846E+02  0.58765250005E+01 -0.87380593409E+01  0.23990542192E+02  0.00000000000E+00 0. -1.
         -2    1    1    2    0  502  0.13835438280E+03 -0.12177090656E+03  0.74292702915E+02  0.19871963826E+03  0.00000000000E+00 0.  1.
<scales pt_clust_5="13000.00000" pt_clust_6="13000.00000" pt_clust_7="13000.00000" pt_clust_8="13000.00000" pt_clust_9="22.34261" pt_clust_10="187.95152"></scales>
<clustering>
<clus scale="   22.343">  2  9  1 -1</clus>
<clus scale="   84.411">  5  6 -1 -1</clus>
<clus scale="   92.552">  7  8 -1 -1</clus>
<clus scale="  187.952">  2 10  1 -1</clus>
<clus scale="  219.673">  1  5  2 -1</clus>
<clus scale="   22.343">  2  5  1 -1</clus>
</clustering>
</event>
<event>
10    4  0.3403565E-005  0.1787591E+03  0.7546771E-02  0.1185247E+00
         -1   -1    0    0    0  501 -0.00000000000E+00  0.00000000000E+00  0.44984746315E+03  0.44984746315E+03  0.00000000000E+00 0.  1.
         21   -1    0    0  503  502  0.00000000000E+00 -0.00000000000E+00 -0.20093329709E+03  0.20093329709E+03  0.00000000000E+00 0.  1.
         24    2    1    2    0    0 -0.72962713197E+02 -0.56194240771E+02  0.21831983246E+03  0.25099308484E+03  0.82780608707E+02 0.  0.
         23    2    1    2    0    0  0.89194971492E+02 -0.99449247263E+02 -0.53968814056E+02  0.17119348040E+03  0.92459067275E+02 0.  0.
        -11    1    3    3    0    0 -0.61827487094E+02 -0.73665851446E+02  0.20479019182E+03  0.22624835579E+03  0.00000000000E+00 0.  1.
         12    1    3    3    0    0 -0.11135226103E+02  0.17471610675E+02  0.13529640635E+02  0.24744729048E+02  0.00000000000E+00 0. -1.
        -13    1    4    4    0    0  0.54083249880E+02 -0.57046303984E+02 -0.78346985278E+02  0.11098436294E+03  0.00000000000E+00 0.  1.
         13    1    4    4    0    0  0.35111721612E+02 -0.42402943279E+02  0.24378171221E+02  0.60209117460E+02  0.00000000000E+00 0. -1.
         21    1    1    2  503  501  0.17027066406E+02 -0.22343644197E+02 -0.14618223898E+01  0.28129990243E+02  0.00000000000E+00 0. -1.
         -2    1    1    2    0  502 -0.33259324701E+02  0.17798713223E+03  0.86024970052E+02  0.20046420476E+03  0.00000000000E+00 0.  1.
<scales pt_clust_5="13000.00000" pt_clust_6="13000.00000" pt_clust_7="13000.00000" pt_clust_8="13000.00000" pt_clust_9="28.09198" pt_clust_10="152.99072"></scales>
<clustering>
<clus scale="   28.092">  2  9  1 -1</clus>
<clus scale="   82.781">  5  6 -1 -1</clus>
<clus scale="   92.459">  7  8 -1 -1</clus>
<clus scale="  123.864">  1  5  2 -1</clus>
<clus scale="  152.991">  2 10  1 -1</clus>
<clus scale="   28.092">  2  5  1 -1</clus>
</clustering>
</event>
<event>
10    4  0.3403565E-005  0.1367134E+03  0.7546771E-02  0.1221456E+00
          2   -1    0    0  502    0 -0.00000000000E+00  0.00000000000E+00  0.74932659250E+03  0.74932659250E+03  0.00000000000E+00 0. -1.
         21   -1    0    0  503  502  0.00000000000E+00 -0.00000000000E+00 -0.19797787215E+03  0.19797787215E+03  0.00000000000E+00 0.  1.
         23    2    1    2    0    0 -0.49313870789E+02 -0.80637575579E+02  0.19319568274E+03  0.23536122386E+03  0.95582725532E+02 0.  0.
         24    2    1    2    0    0 -0.52928451566E+02  0.13936179704E+03  0.35395487886E+02  0.17310253386E+03  0.80551320324E+02 0.  0.
        -11    1    4    4    0    0 -0.49873769940E+02  0.14090669503E+03  0.12546275687E+02  0.14999832888E+03  0.00000000000E+00 0.  1.
         12    1    4    4    0    0 -0.30546816258E+01 -0.15448979908E+01  0.22849212199E+02  0.23104204980E+02  0.00000000000E+00 0. -1.
        -11    1    3    3    0    0 -0.75703566636E+02 -0.75088721339E+02  0.16401751303E+03  0.19562998404E+03  0.00000000000E+00 0.  1.
         11    1    3    3    0    0  0.26389695846E+02 -0.55488542398E+01  0.29178169706E+02  0.39731239820E+02  0.00000000000E+00 0. -1.
         21    1    1    2  503  501  0.43278037079E+02 -0.19403228604E+02 -0.99738723692E+02  0.11044132731E+03  0.00000000000E+00 0.  1.
          1    1    1    2  501    0  0.58964285276E+02 -0.39320992858E+02  0.42249627341E+03  0.42839937963E+03  0.00000000000E+00 0. -1.
<scales pt_clust_5="13000.00000" pt_clust_6="13000.00000" pt_clust_7="13000.00000" pt_clust_8="13000.00000" pt_clust_9="47.42862" pt_clust_10="72.35927"></scales>
<clustering>
<clus scale="   47.429">  2  9  1 -1</clus>
<clus scale="   72.359">  2 10  1 -1</clus>
<clus scale="   80.551">  5  6 -1 -1</clus>
<clus scale="   95.583">  7  8 -1 -1</clus>
<clus scale="  126.661">  2  5  1 -1</clus>
<clus scale="   47.429">  2  5  1 -1</clus>
</clustering>
</event>
<event>
10    4  0.3403565E-005  0.1242375E+03  0.7546771E-02  0.1249106E+00
         -3   -1    0    0    0  501 -0.00000000000E+00  0.00000000000E+00  0.21118774559E+03  0.21118774559E+03  0.00000000000E+00 0.  1.
         21   -1    0    0  501  502  0.00000000000E+00 -0.00000000000E+00 -0.35461799589E+03  0.35461799589E+03  0.00000000000E+00 0.  1.
         24    2    1    2    0    0 -0.54850877825E+02 -0.95359626496E+01  0.11365956559E+03  0.14850394507E+03  0.77687653266E+02 0.  0.
         23    2    1    2    0    0  0.62284274533E+02 -0.60192285670E+02 -0.32642169342E+02  0.14441251649E+03  0.11084683843E+03 0.  0.
        -13    1    3    3    0    0 -0.69897650157E+02 -0.24490636451E+02  0.93041709308E+02  0.11892111857E+03  0.00000000000E+00 0.  1.
         14    1    3    3    0    0  0.15046772332E+02  0.14954673801E+02  0.20617856280E+02  0.29582826499E+02  0.00000000000E+00 0. -1.
        -13    1    4    4    0    0 -0.79446061239E+01  0.24058515730E+02 -0.23150021870E+02  0.34319855159E+02  0.00000000000E+00 0.  1.
         13    1    4    4    0    0  0.70228880657E+02 -0.84250801399E+02 -0.94921474719E+01  0.11009266133E+03  0.00000000000E+00 0. -1.
         21    1    1    2  503  502 -0.62563342014E+02  0.26171206042E+02 -0.17296836475E+03  0.18578794092E+03  0.00000000000E+00 0.  1.
         -4    1    1    2    0  503  0.55129945306E+02  0.43557042277E+02 -0.51479281794E+02  0.87101338999E+02  0.00000000000E+00 0.  1.
<scales pt_clust_5="13000.00000" pt_clust_6="13000.00000" pt_clust_7="13000.00000" pt_clust_8="13000.00000" pt_clust_9="67.81669" pt_clust_10="61.88262"></scales>
<clustering>
<clus scale="   67.817">  2  9  1 -1</clus>
<clus scale="   61.883">  2 10  1 -1</clus>
<clus scale="   77.688">  5  6 -1 -1</clus>
<clus scale="   95.830">  1  5  2 -1</clus>
<clus scale="  110.847">  7  8 -1 -1</clus>
<clus scale="   67.817">  2  5  1 -1</clus>
</clustering>
</event>
<event>
10    4  0.3403565E-005  0.2799901E+03  0.7546771E-02  0.1132400E+00
          2   -1    0    0  503    0 -0.00000000000E+00  0.00000000000E+00  0.96799421565E+03  0.96799421565E+03  0.00000000000E+00 0. -1.
         21   -1    0    0  501  502  0.00000000000E+00 -0.00000000000E+00 -0.16485901965E+03  0.16485901965E+03  0.00000000000E+00 0. -1.
         23    2    1    2    0    0 -0.12176369708E+02 -0.63739693218E+02  0.14730815013E+03  0.18490239065E+03  0.90984561902E+02 0.  0.
         24    2    1    2    0    0 -0.11023061936E+03  0.27168390953E+03  0.30724942759E+03  0.43223387584E+03  0.80380199846E+02 0.  0.
        -13    1    4    4    0    0  0.15843813179E+01  0.84926966365E+02  0.68223883676E+02  0.10894768554E+03  0.00000000000E+00 0.  1.
         14    1    4    4    0    0 -0.11181500068E+03  0.18675694317E+03  0.23902554391E+03  0.32328619030E+03  0.00000000000E+00 0. -1.
        -11    1    3    3    0    0 -0.37663685419E+02 -0.73907221854E+02  0.97295178212E+02  0.12785610015E+03  0.00000000000E+00 0.  1.
         11    1    3    3    0    0  0.25487315711E+02  0.10167528636E+02  0.50012971916E+02  0.57046290507E+02  0.00000000000E+00 0. -1.
         21    1    1    2  503  502  0.19917146908E+02  0.84375919938E+01 -0.47898102784E+02  0.52555817469E+02  0.00000000000E+00 0. -1.
          1    1    1    2  501    0  0.10248984216E+03 -0.21638180831E+03  0.39647572107E+03  0.46316115134E+03  0.00000000000E+00 0. -1.
<scales pt_clust_5="13000.00000" pt_clust_6="13000.00000" pt_clust_7="13000.00000" pt_clust_8="13000.00000" pt_clust_9="21.63067" pt_clust_10="268.20432"></scales>
<clustering>
<clus scale="   21.631">  2  9  1 -1</clus>
<clus scale="   80.380">  5  6 -1 -1</clus>
<clus scale="   90.985">  7  8 -1 -1</clus>
<clus scale="  110.661">  1  7  2 -1</clus>
<clus scale="  268.204">  2 10  1 -1</clus>
<clus scale="   21.631">  2  5  1 -1</clus>
</clustering>
</event>
<event>
10    4  0.3403565E-005  0.1652926E+03  0.7546771E-02  0.1207548E+00
         21   -1    0    0  503  502  0.00000000000E+00  0.00000000000E+00  0.81988156143E+02  0.81988156143E+02  0.00000000000E+00 0. -1.
          2   -1    0    0  502    0 -0.00000000000E+00 -0.00000000000E+00 -0.10491913446E+04  0.10491913446E+04  0.00000000000E+00 0. -1.
         24    2    1    2    0    0  0.42993685886E+01  0.55500802591E+02 -0.21636691986E+03  0.23731554009E+03  0.80032480278E+02 0.  0.
         23    2    1    2    0    0 -0.16412851987E+03 -0.86131050174E+02 -0.56413959914E+03  0.60108282385E+03  0.93222019784E+02 0.  0.
        -13    1    3    3    0    0 -0.33055732361E+02  0.95657276870E+01 -0.11377253978E+03  0.11886284279E+03  0.00000000000E+00 0.  1.
         14    1    3    3    0    0  0.37355100950E+02  0.45935074904E+02 -0.10259438008E+03  0.11845269730E+03  0.00000000000E+00 0. -1.
        -13    1    4    4    0    0 -0.41669517470E+02 -0.13865452402E+02 -0.45223483754E+02  0.63037789772E+02  0.00000000000E+00 0.  1.
         13    1    4    4    0    0 -0.12245900240E+03 -0.72265597772E+02 -0.51891611539E+03  0.53804503408E+03  0.00000000000E+00 0. -1.
         21    1    1    2  503  501  0.72694543086E+02 -0.27982129591E+02  0.77839993989E+00  0.77898023579E+02  0.00000000000E+00 0. -1.
          1    1    1    2  501    0  0.87134608198E+02  0.58612377174E+02 -0.18747506941E+03  0.21488311324E+03  0.00000000000E+00 0. -1.
<scales pt_clust_5="13000.00000" pt_clust_6="13000.00000" pt_clust_7="13000.00000" pt_clust_8="13000.00000" pt_clust_9="77.89413" pt_clust_10="136.49647"></scales>
<clustering>
<clus scale="   77.894">  1  9  2 -1</clus>
<clus scale="   80.032">  5  6 -1 -1</clus>
<clus scale="   93.222">  7  8 -1 -1</clus>
<clus scale="   96.232">  2  5  1 -1</clus>
<clus scale="  136.496">  1 10  2 -1</clus>
<clus scale="   77.894">  1  5  2 -1</clus>
</clustering>
</event>
<event>
10    4  0.3403565E-005  0.1755087E+03  0.7546771E-02  0.1205171E+00
         21   -1    0    0  503  502  0.00000000000E+00  0.00000000000E+00  0.60542110831E+02  0.60542110831E+02  0.00000000000E+00 0. -1.
          2   -1    0    0  502    0 -0.00000000000E+00 -0.00000000000E+00 -0.85248409716E+03  0.85248409716E+03  0.00000000000E+00 0. -1.
         23    2    1    2    0    0  0.14432980426E+02  0.69328751810E+01 -0.12958219024E+03  0.15513349745E+03  0.83776382830E+02 0.  0.
         24    2    1    2    0    0 -0.14686416646E+03  0.19582276401E+02 -0.27313382461E+03  0.32111230828E+03  0.80984439505E+02 0.  0.
        -13    1    4    4    0    0 -0.59652849673E+02  0.13172148697E+01 -0.40813206535E+02  0.72290492853E+02  0.00000000000E+00 0.  1.
         14    1    4    4    0    0 -0.87211316785E+02  0.18265061531E+02 -0.23232061808E+03  0.24882181543E+03  0.00000000000E+00 0. -1.
        -13    1    3    3    0    0 -0.16237562712E+02 -0.31883649591E+02 -0.52014148319E+02  0.63132378217E+02  0.00000000000E+00 0.  1.
         13    1    3    3    0    0  0.30670543138E+02  0.38816524772E+02 -0.77568041921E+02  0.92001119228E+02  0.00000000000E+00 0. -1.
         21    1    1    2  503  501 -0.24094944269E+02  0.45170495519E+01 -0.12214133490E+02  0.27388960055E+02  0.00000000000E+00 0. -1.
          1    1    1    2  501    0  0.15652613030E+03 -0.31032201133E+02 -0.37701183798E+03  0.40939144221E+03  0.00000000000E+00 0. -1.
<scales pt_clust_5="13000.00000" pt_clust_6="13000.00000" pt_clust_7="13000.00000" pt_clust_8="13000.00000" pt_clust_9="24.51469" pt_clust_10="155.70758"></scales>
<clustering>
<clus scale="   24.515">  1  9  2 -1</clus>
<clus scale="   80.984">  5  6 -1 -1</clus>
<clus scale="   83.776">  7  8 -1 -1</clus>
<clus scale="   84.600">  2  7  1 -1</clus>
<clus scale="  155.708">  1 10  2 -1</clus>
<clus scale="   24.515">  1  5  2 -1</clus>
</clustering>
</event>
<event>
10    4  0.3403565E-005  0.1632903E+03  0.7546771E-02  0.1187379E+00
         21   -1    0    0  503  502  0.00000000000E+00  0.00000000000E+00  0.57744770698E+03  0.57744770698E+03  0.00000000000E+00 0. -1.
          2   -1    0    0  502    0 -0.00000000000E+00 -0.00000000000E+00 -0.12485261193E+03  0.12485261193E+03  0.00000000000E+00 0. -1.
         23    2    1    2    0    0  0.81035092746E+02 -0.68347690714E+02  0.11854667146E+03  0.18571881841E+03  0.95917011604E+02 0.  0.
         24    2    1    2    0    0 -0.18147620411E+03 -0.40160068537E+02  0.83199290111E+02  0.21914553859E+03  0.80970373867E+02 0.  0.
        -13    1    4    4    0    0 -0.19835605164E+02 -0.35903530350E+02  0.15520952588E+02  0.43856751967E+02  0.00000000000E+00 0.  1.
         14    1    4    4    0    0 -0.16164059894E+03 -0.42565381875E+01  0.67678337523E+02  0.17528878662E+03  0.00000000000E+00 0. -1.
        -13    1    3    3    0    0  0.17096297609E+02 -0.35716796455E+02 -0.78426444505E+01  0.40366818216E+02  0.00000000000E+00 0.  1.
         13    1    3    3    0    0  0.63938795137E+02 -0.32630894259E+02  0.12638931591E+03  0.14535200020E+03  0.00000000000E+00 0. -1.
         21    1    1    2  503  501  0.18433220505E+02  0.15423687484E+02  0.96309306148E+02  0.99263065661E+02  0.00000000000E+00 0.  1.
          1    1    1    2  501    0  0.82007890857E+02  0.93084071768E+02  0.15453982733E+03  0.19817289625E+03  0.00000000000E+00 0. -1.
<scales pt_clust_5="13000.00000" pt_clust_6="13000.00000" pt_clust_7="13000.00000" pt_clust_8="13000.00000" pt_clust_9="24.03484" pt_clust_10="132.79811"></scales>
<clustering>
<clus scale="   24.035">  1  9  2 -1</clus>
<clus scale="   80.970">  5  6 -1 -1</clus>
<clus scale="   95.917">  7  8 -1 -1</clus>
<clus scale="  132.798">  1 10  2 -1</clus>
<clus scale="  154.983">  1  5  2 -1</clus>
<clus scale="   24.035">  1  5  2 -1</clus>
</clustering>
</event>
<event>
10    4  0.3403565E-005  0.1514989E+03  0.7546771E-02  0.1201691E+00
         21   -1    0    0  501  502  0.00000000000E+00  0.00000000000E+00  0.99069299266E+02  0.99069299266E+02  0.00000000000E+00 0. -1.
          2   -1    0    0  503    0 -0.00000000000E+00 -0.00000000000E+00 -0.12955805902E+04  0.12955805902E+04  0.00000000000E+00 0. -1.
         24    2    1    2    0    0 -0.14246932535E+03  0.13597871317E+02 -0.21871821438E+03  0.27199881399E+03  0.75254812059E+02 0.  0.
         23    2    1    2    0    0  0.41775074463E+02 -0.13710219869E+03 -0.50480718178E+02  0.17741413905E+03  0.91571306057E+02 0.  0.
        -11    1    3    3    0    0 -0.49744439160E+02  0.54404005033E+01 -0.22592026666E+02  0.54904524894E+02  0.00000000000E+00 0.  1.
         12    1    3    3    0    0 -0.92724886192E+02  0.81574708133E+01 -0.19612618771E+03  0.21709428909E+03  0.00000000000E+00 0. -1.
        -11    1    4    4    0    0 -0.59732617525E+01 -0.11871883495E+03 -0.37194504711E+02  0.12455228946E+03  0.00000000000E+00 0. -1.
         11    1    4    4    0    0  0.47748336215E+02 -0.18383363742E+02 -0.13286213467E+02  0.52861849590E+02  0.00000000000E+00 0.  1.
         21    1    1    2  503  502  0.36219891168E+02  0.51435406059E+01 -0.90083545247E+02  0.97228502253E+02  0.00000000000E+00 0. -1.
          1    1    1    2  501    0  0.64474359722E+02  0.11836078677E+03 -0.83722881316E+03  0.84800843421E+03  0.00000000000E+00 0. -1.
<scales pt_clust_5="13000.00000" pt_clust_6="13000.00000" pt_clust_7="13000.00000" pt_clust_8="13000.00000" pt_clust_9="36.58328" pt_clust_10="151.49886"></scales>
<clustering>
<clus scale="   36.583">  2  9  1 -1</clus>
<clus scale="   75.255">  5  6 -1 -1</clus>
<clus scale="   91.571">  7  8 -1 -1</clus>
<clus scale="  151.499">  1 10  2 -1</clus>
<clus scale="  141.797">  2  5  1 -1</clus>
<clus scale="  151.499">  1  5  2 -1</clus>
</clustering>
</event>
<event>
10    4  0.3403565E-005  0.1085983E+03  0.7546771E-02  0.1267930E+00
         21   -1    0    0  503  502  0.00000000000E+00  0.00000000000E+00  0.54390562366E+03  0.54390562366E+03  0.00000000000E+00 0.  1.
         -1   -1    0    0    0  501 -0.00000000000E+00 -0.00000000000E+00 -0.19821749261E+03  0.19821749261E+03  0.00000000000E+00 0.  1.
         24    2    1    2    0    0  0.49983678631E+02  0.36187138829E+02 -0.16818697678E+03  0.19578396752E+03  0.78972309268E+02 0.  0.
         23    2    1    2    0    0 -0.37638643865E+02 -0.41032551228E+01  0.17269581374E+03  0.19870421817E+03  0.90697398081E+02 0.  0.
        -13    1    3    3    0    0  0.22084169658E+02  0.58772366790E+02 -0.12278886821E+03  0.13790941884E+03  0.00000000000E+00 0.  1.
         14    1    3    3    0    0  0.27899508973E+02 -0.22585227961E+02 -0.45398108574E+02  0.57874548682E+02  0.00000000000E+00 0. -1.
        -11    1    4    4    0    0 -0.17103551611E+02  0.36146794631E+02  0.32888512927E+02  0.51776215798E+02  0.00000000000E+00 0.  1.
         11    1    4    4    0    0 -0.20535092254E+02 -0.40250049753E+02  0.13980730082E+03  0.14692800237E+03  0.00000000000E+00 0. -1.
         21    1    1    2  503  501  0.19849820916E+02 -0.29863536567E+01  0.16375632053E+03  0.16498201785E+03  0.00000000000E+00 0.  1.
         -2    1    1    2    0  502 -0.32194855682E+02 -0.29097530049E+02  0.17742297356E+03  0.18265291274E+03  0.00000000000E+00 0.  1.
<scales pt_clust_5="13000.00000" pt_clust_6="13000.00000" pt_clust_7="13000.00000" pt_clust_8="13000.00000" pt_clust_9="20.07321" pt_clust_10="38.07872"></scales>
<clustering>
<clus scale="   20.073">  1  9  2 -1</clus>
<clus scale="   38.079">  1 10  2 -1</clus>
<clus scale="   78.972">  5  6 -1 -1</clus>
<clus scale="   90.697">  7  8 -1 -1</clus>
<clus scale="   99.016">  2  5  1 -1</clus>
<clus scale="   20.073">  1  5  2 -1</clus>
</clustering>
</event>
<event>
10    4  0.3403565E-005  0.1264646E+03  0.7546771E-02  0.1235473E+00
         21   -1    0    0  501  502  0.00000000000E+00  0.00000000000E+00  0.52435947487E+03  0.52435947487E+03  0.00000000000E+00 0.  1.
         -1   -1    0    0    0  501 -0.00000000000E+00 -0.00000000000E+00 -0.75310901573E+02  0.75310901573E+02  0.00000000000E+00 0.  1.
         23    2    1    2    0    0 -0.45035904904E+02  0.29128473124E+01  0.17072808287E+03  0.19836767147E+03  0.90360043114E+02 0.  0.
         24    2    1    2    0    0  0.13083974487E+03  0.18273987995E+02  0.15006135692E+03  0.21557909561E+03  0.80640921071E+02 0.  0.
        -13    1    4    4    0    0  0.11468515876E+03  0.37592806415E+02  0.90309581630E+02  0.15073727232E+03  0.00000000000E+00 0.  1.
         14    1    4    4    0    0  0.16154586110E+02 -0.19318818420E+02  0.59751775287E+02  0.64841823289E+02  0.00000000000E+00 0. -1.
        -11    1    3    3    0    0 -0.36471110122E+02  0.28799320986E+02  0.30668201707E+02  0.55678374246E+02  0.00000000000E+00 0.  1.
         11    1    3    3    0    0 -0.85647947820E+01 -0.25886473673E+02  0.14005988117E+03  0.14268929722E+03  0.00000000000E+00 0. -1.
         21    1    1    2  503  502 -0.99391446073E+01  0.29414126797E+02  0.72418043815E+02  0.78793086757E+02  0.00000000000E+00 0.  1.
         -2    1    1    2    0  503 -0.75864695356E+02 -0.50600962104E+02  0.55841089696E+02  0.10693052261E+03  0.00000000000E+00 0.  1.
<scales pt_clust_5="13000.00000" pt_clust_6="13000.00000" pt_clust_7="13000.00000" pt_clust_8="13000.00000" pt_clust_9="31.04799" pt_clust_10="89.89583"></scales>
<clustering>
<clus scale="   31.048">  1  9  2 -1</clus>
<clus scale="   80.641">  5  6 -1 -1</clus>
<clus scale="   89.896">  1 10  2 -1</clus>
<clus scale="   90.360">  7  8 -1 -1</clus>
<clus scale="  119.713">  1  5  2 -1</clus>
<clus scale="   31.048">  1  5  2 -1</clus>
</clustering>
</event>
<event>
10    4  0.3403565E-005  0.4526649E+03  0.7546771E-02  0.1026930E+00
          2   -1    0    0  502    0 -0.00000000000E+00  0.00000000000E+00  0.17240551267E+04  0.17240551267E+04  0.00000000000E+00 0. -1.
         21   -1    0    0  503  502  0.00000000000E+00 -0.00000000000E+00 -0.18128944398E+03  0.18128944398E+03  0.00000000000E+00 0. -1.
         24    2    1    2    0    0  0.17172238241E+03 -0.18001167474E+03  0.21507834141E+03  0.33852576647E+03  0.80300821661E+02 0.  0.
         23    2    1    2    0    0  0.18005961154E+03 -0.76613571278E+02  0.42625524441E+03  0.47632332483E+03  0.83061864758E+02 0.  0.
        -13    1    3    3    0    0  0.10977536135E+03 -0.69098788945E+02  0.14046467995E+03  0.19119518536E+03  0.00000000000E+00 0.  1.
         14    1    3    3    0    0  0.61947021066E+02 -0.11091288579E+03  0.74613661458E+02  0.14733058111E+03  0.00000000000E+00 0. -1.
        -13    1    4    4    0    0  0.15117002970E+02 -0.32228120994E+02  0.12546742431E+03  0.13041951589E+03  0.00000000000E+00 0.  1.
         13    1    4    4    0    0  0.16494260857E+03 -0.44385450285E+02  0.30078782010E+03  0.34590380894E+03  0.00000000000E+00 0. -1.
         21    1    1    2  503  501 -0.60278366510E+02  0.54614844479E+02 -0.35451489578E+02  0.88730326382E+02  0.00000000000E+00 0. -1.
          1    1    1    2  501    0 -0.29150362745E+03  0.20201040154E+03  0.93688358650E+03  0.10017651530E+04  0.00000000000E+00 0. -1.
<scales pt_clust_5="13000.00000" pt_clust_6="13000.00000" pt_clust_7="13000.00000" pt_clust_8="13000.00000" pt_clust_9="81.34041" pt_clust_10="376.61975"></scales>
<clustering>
<clus scale="   80.301">  5  6 -1 -1</clus>
<clus scale="   81.340">  2  9  1 -1</clus>
<clus scale="   83.062">  7  8 -1 -1</clus>
<clus scale="  193.492">  5  7 -1 -1</clus>
<clus scale="  376.620">  2 10  1 -1</clus>
<clus scale="   81.340">  2  5  1 -1</clus>
</clustering>
</event>
<event>
10    4  0.3403565E-005  0.1621091E+03  0.7546771E-02  0.1204416E+00
          2   -1    0    0  503    0 -0.00000000000E+00  0.00000000000E+00  0.16182204510E+03  0.16182204510E+03  0.00000000000E+00 0. -1.
         21   -1    0    0  501  502  0.00000000000E+00 -0.00000000000E+00 -0.32349297117E+03  0.32349297117E+03  0.00000000000E+00 0. -1.
         24    2    1    2    0    0  0.82755338215E+02  0.96042163536E+01  0.15592388404E+01  0.11354756869E+03  0.77135803324E+02 0.  0.
         23    2    1    2    0    0 -0.90438105977E+02 -0.11481195387E+03 -0.12290497407E+03  0.21170983844E+03  0.91403431420E+02 0.  0.
        -13    1    3    3    0    0  0.43851246599E+02 -0.22278576452E+01  0.38660105206E+02  0.58502127419E+02  0.00000000000E+00 0.  1.
         14    1    3    3    0    0  0.38904091616E+02  0.11832073999E+02 -0.37100866365E+02  0.55045441270E+02  0.00000000000E+00 0. -1.
        -11    1    4    4    0    0 -0.14251942212E+02 -0.77484394323E+02 -0.92695222921E+02  0.12165259378E+03  0.00000000000E+00 0.  1.
         11    1    4    4    0    0 -0.76186163765E+02 -0.37327559550E+02 -0.30209751147E+02  0.90057244659E+02  0.00000000000E+00 0. -1.
         21    1    1    2  503  502 -0.31836711069E+02 -0.93850603420E+01 -0.13960410652E+02  0.36007618567E+02  0.00000000000E+00 0. -1.
          1    1    1    2  501    0  0.39519478831E+02  0.11459279786E+03 -0.26364780189E+02  0.12404999058E+03  0.00000000000E+00 0. -1.
<scales pt_clust_5="13000.00000" pt_clust_6="13000.00000" pt_clust_7="13000.00000" pt_clust_8="13000.00000" pt_clust_9="33.19120" pt_clust_10="133.88349"></scales>
<clustering>
<clus scale="   33.191">  2  9  1 -1</clus>
<clus scale="   77.136">  5  6 -1 -1</clus>
<clus scale="   91.403">  7  8 -1 -1</clus>
<clus scale="  109.120">  1  5  2 -1</clus>
<clus scale="  133.883">  2 10  1 -1</clus>
<clus scale="   33.191">  2  5  1 -1</clus>
</clustering>
</event>
<event>
10    4  0.3403565E-005  0.1755719E+03  0.7546771E-02  0.1195183E+00
         21   -1    0    0  503  502  0.00000000000E+00  0.00000000000E+00  0.45726111965E+03  0.45726111965E+03  0.00000000000E+00 0. -1.
         -1   -1    0    0    0  501 -0.00000000000E+00 -0.00000000000E+00 -0.17117787806E+03  0.17117787806E+03  0.00000000000E+00 0.  1.
         23    2    1    2    0    0  0.15015881844E+02 -0.50543239710E+02 -0.17688277547E+02  0.10663046121E+03  0.90978482657E+02 0.  0.
         24    2    1    2    0    0  0.65780138571E+02 -0.11546683364E+03  0.18686613740E+03  0.24310142109E+03  0.80744853262E+02 0.  0.
        -11    1    4    4    0    0  0.62887898176E+02 -0.11162703236E+03  0.11835868805E+03  0.17442551743E+03  0.00000000000E+00 0.  1.
         12    1    4    4    0    0  0.28922403948E+01 -0.38398012732E+01  0.68507449341E+02  0.68675903660E+02  0.00000000000E+00 0. -1.
        -11    1    3    3    0    0  0.36075960013E+02 -0.55844808562E+02 -0.38268331242E+02  0.76711033824E+02  0.00000000000E+00 0.  1.
         11    1    3    3    0    0 -0.21060078169E+02  0.53015688521E+01  0.20580053696E+02  0.29919427383E+02  0.00000000000E+00 0. -1.
         21    1    1    2  503  501  0.46105763865E+02  0.19786331266E+02  0.57227717129E+02  0.76106845779E+02  0.00000000000E+00 0.  1.
         -2    1    1    2    0  502 -0.12690178428E+03  0.14622374208E+03  0.59677664611E+02  0.20260026963E+03  0.00000000000E+00 0.  1.
<scales pt_clust_5="13000.00000" pt_clust_6="13000.00000" pt_clust_7="13000.00000" pt_clust_8="13000.00000" pt_clust_9="50.17211" pt_clust_10="155.90312"></scales>
<clustering>
<clus scale="   50.172">  1  9  2 -1</clus>
<clus scale="   80.745">  5  6 -1 -1</clus>
<clus scale="   90.978">  7  8 -1 -1</clus>
<clus scale="  104.975">  2  7  1 -1</clus>
<clus scale="  155.903">  1 10  2 -1</clus>
<clus scale="   50.172">  1  5  2 -1</clus>
</clustering>
</event>
<event>
10    4  0.3403565E-005  0.8762969E+02  0.7546771E-02  0.1311038E+00
         21   -1    0    0  501  502  0.00000000000E+00  0.00000000000E+00  0.14503036805E+03  0.14503036805E+03  0.00000000000E+00 0.  1.
          2   -1    0    0  503    0 -0.00000000000E+00 -0.00000000000E+00 -0.16147704763E+03  0.16147704763E+03  0.00000000000E+00 0. -1.
         24    2    1    2    0    0  0.18762014570E+02  0.20950410398E+02 -0.85938310558E+02  0.12046215265E+03  0.79591482669E+02 0.  0.
         23    2    1    2    0    0  0.28911313150E+02 -0.42338955470E+02  0.63968169877E+02  0.11696730682E+03  0.83432445303E+02 0.  0.
        -11    1    3    3    0    0  0.35972788622E+02 -0.16351906425E+02 -0.24301889969E+02  0.46389742628E+02  0.00000000000E+00 0.  1.
         12    1    3    3    0    0 -0.17210774052E+02  0.37302316823E+02 -0.61636420589E+02  0.74072410025E+02  0.00000000000E+00 0. -1.
        -11    1    4    4    0    0 -0.78817603037E+01 -0.53235400507E+02  0.17255280188E+02  0.56514376109E+02  0.00000000000E+00 0.  1.
         11    1    4    4    0    0  0.36793073453E+02  0.10896445037E+02  0.46712889689E+02  0.60452930712E+02  0.00000000000E+00 0. -1.
         21    1    1    2  503  502 -0.27195042818E+02  0.77705234470E+01  0.24967504725E+02  0.37727015263E+02  0.00000000000E+00 0.  1.
          1    1    1    2  501    0 -0.20478284902E+02  0.13618021625E+02 -0.19444043621E+02  0.31350940940E+02  0.00000000000E+00 0. -1.
<scales pt_clust_5="13000.00000" pt_clust_6="13000.00000" pt_clust_7="13000.00000" pt_clust_8="13000.00000" pt_clust_9="33.60697" pt_clust_10="24.59291"></scales>
<clustering>
<clus scale="   24.593">  1 10  2 -1</clus>
<clus scale="   33.607">  1  9  2 -1</clus>
<clus scale="   79.591">  5  6 -1 -1</clus>
<clus scale="   83.432">  7  8 -1 -1</clus>
<clus scale="   83.981">  2  5  1 -1</clus>
<clus scale="   24.593">  1  5  2 -1</clus>
</clustering>
</event>
<event>
10    4  0.3403565E-005  0.1301458E+03  0.7546771E-02  0.1229928E+00
          2   -1    0    0  503    0 -0.00000000000E+00  0.00000000000E+00  0.55760449537E+03  0.55760449537E+03  0.00000000000E+00 0. -1.
         21   -1    0    0  501  502  0.00000000000E+00 -0.00000000000E+00 -0.11685505126E+03  0.11685505126E+03  0.00000000000E+00 0.  1.
         24    2    1    2    0    0 -0.50899839748E+02 -0.41105696624E+02  0.12967300990E+03  0.16587749945E+03  0.80123550512E+02 0.  0.
         23    2    1    2    0    0  0.80436551296E+02  0.11482149622E+03  0.21424771967E+03  0.27158728105E+03  0.90573456741E+02 0.  0.
        -11    1    3    3    0    0  0.17959467039E+02 -0.18310115971E+02  0.60217330756E+02  0.65451735856E+02  0.00000000000E+00 0.  1.
         12    1    3    3    0    0 -0.68859306787E+02 -0.22795580653E+02  0.69455679147E+02  0.10042576360E+03  0.00000000000E+00 0. -1.
        -11    1    4    4    0    0  0.72700275591E+01  0.82534278342E+02  0.79096668532E+02  0.11454712294E+03  0.00000000000E+00 0.  1.
         11    1    4    4    0    0  0.73166523737E+02  0.32287217878E+02  0.13515105114E+03  0.15704015811E+03  0.00000000000E+00 0. -1.
         21    1    1    2  503  502  0.13791976629E+02 -0.53413304337E+02 -0.54943299259E+02  0.77858627223E+02  0.00000000000E+00 0.  1.
          1    1    1    2  501    0 -0.43328688177E+02 -0.20302495259E+02  0.15177201380E+03  0.15913613890E+03  0.00000000000E+00 0. -1.
<scales pt_clust_5="13000.00000" pt_clust_6="13000.00000" pt_clust_7="13000.00000" pt_clust_8="13000.00000" pt_clust_9="66.35236" pt_clust_10="47.84944"></scales>
<clustering>
<clus scale="   47.849">  2 10  1 -1</clus>
<clus scale="   66.352">  2  9  1 -1</clus>
<clus scale="   80.124">  5  6 -1 -1</clus>
<clus scale="   90.573">  7  8 -1 -1</clus>
<clus scale="  123.102">  1  5  2 -1</clus>
<clus scale="   47.849">  2  5  1 -1</clus>
</clustering>
</event>
<event>
10    4  0.3403565E-005  0.9473535E+02  0.7546771E-02  0.1299319E+00
          2   -1    0    0  502    0 -0.00000000000E+00  0.00000000000E+00  0.51244345949E+03  0.51244345949E+03  0.00000000000E+00 0. -1.
         21   -1    0    0  503  502  0.00000000000E+00 -0.00000000000E+00 -0.15001924858E+03  0.15001924858E+03  0.00000000000E+00 0. -1.
         23    2    1    2    0    0 -0.15559208558E+02  0.19880741101E+02  0.25676266006E+03  0.27344390562E+03  0.90593449422E+02 0.  0.
         24    2    1    2    0    0 -0.34492916742E+02 -0.43977380827E+02  0.11414077474E+03  0.14888220506E+03  0.77550133436E+02 0.  0.
        -13    1    4    4    0    0 -0.32327109659E+02 -0.48596534926E+02  0.31961531704E+02  0.66544757379E+02  0.00000000000E+00 0.  1.
         14    1    4    4    0    0 -0.21658070828E+01  0.46191540994E+01  0.82179243035E+02  0.82337447682E+02  0.00000000000E+00 0. -1.
        -11    1    3    3    0    0  0.32806615725E+02  0.29407605155E+02  0.13781814986E+03  0.14468905870E+03  0.00000000000E+00 0.  1.
         11    1    3    3    0    0 -0.48365824283E+02 -0.95268640539E+01  0.11894451020E+03  0.12875484692E+03  0.00000000000E+00 0. -1.
         21    1    1    2  503  501  0.34377982873E+02 -0.23645519975E+02 -0.11501253755E+03  0.12234721131E+03  0.00000000000E+00 0. -1.
          1    1    1    2  501    0  0.15674142427E+02  0.47742159701E+02  0.10653331366E+03  0.11778938608E+03  0.00000000000E+00 0. -1.
<scales pt_clust_5="13000.00000" pt_clust_6="13000.00000" pt_clust_7="13000.00000" pt_clust_8="13000.00000" pt_clust_9="41.72477" pt_clust_10="48.67461"></scales>
<clustering>
<clus scale="   41.725">  2  9  1 -1</clus>
<clus scale="   48.675">  2 10  1 -1</clus>
<clus scale="   77.550">  5  6 -1 -1</clus>
<clus scale="   82.351">  2  5  1 -1</clus>
<clus scale="   90.593">  7  8 -1 -1</clus>
<clus scale="   41.725">  2  5  1 -1</clus>
</clustering>
</event>
<event>
10    4  0.3403565E-005  0.9201828E+02  0.7546771E-02  0.1302812E+00
         -1   -1    0    0    0  501 -0.00000000000E+00  0.00000000000E+00  0.12680282628E+03  0.12680282628E+03  0.00000000000E+00 0.  1.
         21   -1    0    0  503  502  0.00000000000E+00 -0.00000000000E+00 -0.23761982793E+03  0.23761982793E+03  0.00000000000E+00 0.  1.
         24    2    1    2    0    0 -0.24380438818E+02  0.13760913302E+02  0.71684096216E+02  0.11188406049E+03  0.81213698412E+02 0.  0.
         23    2    1    2    0    0  0.66789091347E+01  0.25856796126E+02 -0.75615336951E+02  0.11996991945E+03  0.89229595195E+02 0.  0.
        -13    1    3    3    0    0 -0.32250096951E+02 -0.65880754340E+01  0.81547691326E+02  0.87940306185E+02  0.00000000000E+00 0.  1.
         14    1    3    3    0    0  0.78696581336E+01  0.20348988736E+02 -0.98635951106E+01  0.23943754305E+02  0.00000000000E+00 0. -1.
        -11    1    4    4    0    0  0.50317478932E+01  0.58635122725E+02 -0.38015554520E+02  0.70061248128E+02  0.00000000000E+00 0.  1.
         11    1    4    4    0    0  0.16471612415E+01 -0.32778326599E+02 -0.37599782430E+02  0.49908671326E+02  0.00000000000E+00 0. -1.
         21    1    1    2  503  501  0.21902145986E+02  0.13045668100E+02 -0.31737749082E+02  0.40708453321E+02  0.00000000000E+00 0.  1.
         -2    1    1    2    0  502 -0.42006163032E+01 -0.52663377529E+02 -0.75148011836E+02  0.91860220950E+02  0.00000000000E+00 0.  1.
<scales pt_clust_5="13000.00000" pt_clust_6="13000.00000" pt_clust_7="13000.00000" pt_clust_8="13000.00000" pt_clust_9="25.49301" pt_clust_10="47.50569"></scales>
<clustering>
<clus scale="   25.493">  2  9  1 -1</clus>
<clus scale="   47.506">  2 10  1 -1</clus>
<clus scale="   81.214">  5  6 -1 -1</clus>
<clus scale="   84.268">  1  5  2 -1</clus>
<clus scale="   89.230">  7  8 -1 -1</clus>
<clus scale="   25.493">  2  5  1 -1</clus>
</clustering>
</event>
<event>
10    4  0.3403565E-005  0.1116261E+03  0.7546771E-02  0.1261682E+00
         21   -1    0    0  501  502  0.00000000000E+00  0.00000000000E+00  0.74148271135E+02  0.74148271135E+02  0.00000000000E+00 0. -1.
          2   -1    0    0  503    0 -0.00000000000E+00 -0.00000000000E+00 -0.84127909947E+03  0.84127909947E+03  0.00000000000E+00 0. -1.
         24    2    1    2    0    0  0.55089919155E+02 -0.18112410140E+02 -0.49297147001E+03  0.50279634504E+03  0.80126997608E+02 0.  0.
         23    2    1    2    0    0 -0.10497325458E+03  0.96297956412E+02 -0.95244062998E+02  0.19400400268E+03  0.90958457176E+02 0.  0.
        -13    1    3    3    0    0  0.19257804692E+02 -0.43268362111E+02 -0.15710326829E+03  0.16408671826E+03  0.00000000000E+00 0.  1.
         14    1    3    3    0    0  0.35832114463E+02  0.25155951971E+02 -0.33586820172E+03  0.33870962678E+03  0.00000000000E+00 0. -1.
        -11    1    4    4    0    0 -0.33445910966E+02  0.28571677889E+02 -0.84051441258E+02  0.94866298100E+02  0.00000000000E+00 0.  1.
         11    1    4    4    0    0 -0.71527343618E+02  0.67726278523E+02 -0.11192621740E+02  0.99137704578E+02  0.00000000000E+00 0. -1.
         21    1    1    2  503  502  0.49859395452E+02 -0.52254720323E+02 -0.51766654238E+02  0.88861136623E+02  0.00000000000E+00 0.  1.
          1    1    1    2  501    0  0.23939977093E-01 -0.25930825949E+02 -0.12714864109E+03  0.12976588627E+03  0.00000000000E+00 0. -1.
<scales pt_clust_5="13000.00000" pt_clust_6="13000.00000" pt_clust_7="13000.00000" pt_clust_8="13000.00000" pt_clust_9="77.14126" pt_clust_10="25.93085"></scales>
<clustering>
<clus scale="   25.931">  1 10  2 -1</clus>
<clus scale="   77.141">  1  9  2 -1</clus>
<clus scale="   80.127">  5  6 -1 -1</clus>
<clus scale="   90.958">  7  8 -1 -1</clus>
<clus scale="  102.992">  2  5  1 -1</clus>
<clus scale="   25.931">  1  5  2 -1</clus>
</clustering>
</event>
<event>
10    4  0.3403565E-005  0.3786455E+03  0.7546771E-02  0.1108038E+00
         21   -1    0    0  503  502  0.00000000000E+00  0.00000000000E+00  0.38318020211E+03  0.38318020211E+03  0.00000000000E+00 0. -1.
          2   -1    0    0  502    0 -0.00000000000E+00 -0.00000000000E+00 -0.57363973496E+03  0.57363973496E+03  0.00000000000E+00 0. -1.
         24    2    1    2    0    0 -0.11072940417E+02  0.62362963890E+00 -0.50591649627E+02  0.96582774619E+02  0.81521275860E+02 0.  0.
         23    2    1    2    0    0  0.17652131686E+03  0.31101510450E+03 -0.27404713002E+03  0.45961865085E+03  0.90869710033E+02 0.  0.
        -11    1    3    3    0    0  0.23645042212E+02 -0.97297276622E+01  0.87768963434E+01  0.27033119151E+02  0.00000000000E+00 0.  1.
         12    1    3    3    0    0 -0.34717982629E+02  0.10353357301E+02 -0.59368545970E+02  0.69549655469E+02  0.00000000000E+00 0. -1.
        -11    1    4    4    0    0  0.12207287960E+03  0.12398170155E+03 -0.12190198494E+03  0.21244609713E+03  0.00000000000E+00 0.  1.
         11    1    4    4    0    0  0.54448437253E+02  0.18703340295E+03 -0.15214514509E+03  0.24717255372E+03  0.00000000000E+00 0. -1.
         21    1    1    2  503  501 -0.11939893450E+03 -0.99784496915E+02  0.24062088254E+02  0.15745486806E+03  0.00000000000E+00 0. -1.
          1    1    1    2  501    0 -0.46049441940E+02 -0.21185423723E+03  0.11011715855E+03  0.24316364354E+03  0.00000000000E+00 0. -1.
<scales pt_clust_5="13000.00000" pt_clust_6="13000.00000" pt_clust_7="13000.00000" pt_clust_8="13000.00000" pt_clust_9="113.99300" pt_clust_10="113.99300"></scales>
<clustering>
<clus scale="   81.521">  5  6 -1 -1</clus>
<clus scale="   82.272">  2  5  1 -1</clus>
<clus scale="   90.870">  7  8 -1 -1</clus>
<clus scale="  113.993">  9 10 -1 -1</clus>
<clus scale="  365.555">  2  7  1 -1</clus>
<clus scale="  378.646">  1  5  2 -1</clus>
</clustering>
</event>
<event>
10    4  0.3403565E-005  0.9641514E+02  0.7546771E-02  0.1293689E+00
         21   -1    0    0  503  502  0.00000000000E+00  0.00000000000E+00  0.62803013297E+02  0.62803013297E+02  0.00000000000E+00 0. -1.
          2   -1    0    0  502    0 -0.00000000000E+00 -0.00000000000E+00 -0.31560980860E+03  0.31560980860E+03  0.00000000000E+00 0. -1.
         23    2    1    2    0    0  0.20492447777E+02  0.31797903541E+02 -0.82770394692E+02  0.13041606053E+03  0.93415006938E+02 0.  0.
         24    2    1    2    0    0 -0.91751350523E+01 -0.39102747325E+01 -0.41459723351E+02  0.93639294691E+02  0.83366273146E+02 0.  0.
        -13    1    4    4    0    0 -0.78738540812E+00 -0.24691850896E+02 -0.59786398860E+02  0.64689419267E+02  0.00000000000E+00 0.  1.
         14    1    4    4    0    0 -0.83877496442E+01  0.20781576164E+02  0.18326675508E+02  0.28949875425E+02  0.00000000000E+00 0. -1.
        -13    1    3    3    0    0  0.49576388138E+02  0.36831669655E+02 -0.79570707010E+02  0.10072679666E+03  0.00000000000E+00 0. -1.
         13    1    3    3    0    0 -0.29083940360E+02 -0.50337661142E+01 -0.31996876817E+01  0.29689263875E+02  0.00000000000E+00 0.  1.
         21    1    1    2  503  501  0.48966445871E+01  0.19985591862E+02 -0.54891450017E+01  0.21296284256E+02  0.00000000000E+00 0. -1.
          1    1    1    2  501    0 -0.16213957312E+02 -0.47873220670E+02 -0.12308753226E+03  0.13306118242E+03  0.00000000000E+00 0. -1.
<scales pt_clust_5="13000.00000" pt_clust_6="13000.00000" pt_clust_7="13000.00000" pt_clust_8="13000.00000" pt_clust_9="20.57671" pt_clust_10="48.68256"></scales>
<clustering>
<clus scale="   20.577">  1  9  2 -1</clus>
<clus scale="   48.683">  1 10  2 -1</clus>
<clus scale="   83.366">  5  6 -1 -1</clus>
<clus scale="   86.715">  1  5  2 -1</clus>
<clus scale="   93.415">  7  8 -1 -1</clus>
<clus scale="   20.577">  1  5  2 -1</clus>
</clustering>
</event>
<event>
10    4  0.3403565E-005  0.1692616E+03  0.7546771E-02  0.1180139E+00
         21   -1    0    0  501  502  0.00000000000E+00  0.00000000000E+00  0.11938526882E+03  0.11938526882E+03  0.00000000000E+00 0.  1.
          2   -1    0    0  503    0 -0.00000000000E+00 -0.00000000000E+00 -0.75712482331E+03  0.75712482331E+03  0.00000000000E+00 0. -1.
         24    2    1    2    0    0 -0.84678776012E+02  0.11887763037E+03 -0.33650105740E+03  0.37546161073E+03  0.80225141891E+02 0.  0.
         23    2    1    2    0    0  0.11123395814E+03 -0.84804477004E+02 -0.13503626366E+03  0.21477541537E+03  0.91262773248E+02 0.  0.
        -11    1    3    3    0    0 -0.92585911976E+02  0.12112220971E+03 -0.33352932101E+03  0.36672135028E+03  0.00000000000E+00 0.  1.
         12    1    3    3    0    0  0.79071359639E+01 -0.22445793338E+01 -0.29717363925E+01  0.87402604494E+01  0.00000000000E+00 0. -1.
        -11    1    4    4    0    0  0.48066048434E+02 -0.91243171103E+02 -0.90623756642E+02  0.13728920771E+03  0.00000000000E+00 0.  1.
         11    1    4    4    0    0  0.63167909707E+02  0.64386940992E+01 -0.44412507017E+02  0.77486207663E+02  0.00000000000E+00 0. -1.
         21    1    1    2  503  502 -0.47543346834E+02  0.17314604657E+02  0.45112937975E+02  0.67788955851E+02  0.00000000000E+00 0.  1.
          1    1    1    2  501    0  0.20988164705E+02 -0.51387758028E+02 -0.21131517141E+03  0.21848411018E+03  0.00000000000E+00 0. -1.
<scales pt_clust_5="13000.00000" pt_clust_6="13000.00000" pt_clust_7="13000.00000" pt_clust_8="13000.00000" pt_clust_9="50.59808" pt_clust_10="53.61430"></scales>
<clustering>
<clus scale="   50.598">  1  9  2 -1</clus>
<clus scale="   53.614">  1 10  2 -1</clus>
<clus scale="   80.225">  5  6 -1 -1</clus>
<clus scale="   91.263">  7  8 -1 -1</clus>
<clus scale="  163.575">  2  5  1 -1</clus>
<clus scale="   50.598">  1  5  2 -1</clus>
</clustering>
</event>
<event>
10    4  0.3403565E-005  0.1051555E+03  0.7546771E-02  0.1277092E+00
          2   -1    0    0  503    0 -0.00000000000E+00  0.00000000000E+00  0.59725275154E+03  0.59725275154E+03  0.00000000000E+00 0. -1.
         21   -1    0    0  501  502  0.00000000000E+00 -0.00000000000E+00 -0.10969588007E+03  0.10969588007E+03  0.00000000000E+00 0. -1.
         24    2    1    2    0    0 -0.17556701070E+02  0.61081895766E+02  0.75911098417E+02  0.12795175175E+03  0.81055044084E+02 0.  0.
         23    2    1    2    0    0 -0.93695778221E+02  0.13350542297E+02  0.50389131335E+01  0.13510222198E+03  0.96281274929E+02 0.  0.
        -13    1    3    3    0    0  0.30029748787E+02  0.32084399110E+02  0.49784911821E+02  0.66405812422E+02  0.00000000000E+00 0.  1.
         14    1    3    3    0    0 -0.47586449856E+02  0.28997496656E+02  0.26126186596E+02  0.61545939332E+02  0.00000000000E+00 0. -1.
        -11    1    4    4    0    0 -0.28385174450E+02 -0.40482623547E+02 -0.57675294105E+01  0.49777759425E+02  0.00000000000E+00 0. -1.
         11    1    4    4    0    0 -0.65310603771E+02  0.53833165844E+02  0.10806442544E+02  0.85324462554E+02  0.00000000000E+00 0.  1.
         21    1    1    2  503  502  0.46286896710E+02 -0.15253503596E+02  0.30129607363E+02  0.57296940746E+02  0.00000000000E+00 0. -1.
          1    1    1    2  501    0  0.64965582581E+02 -0.59178934467E+02  0.37647725256E+03  0.38659771714E+03  0.00000000000E+00 0. -1.
<scales pt_clust_5="13000.00000" pt_clust_6="13000.00000" pt_clust_7="13000.00000" pt_clust_8="13000.00000" pt_clust_9="48.73547" pt_clust_10="90.22724"></scales>
<clustering>
<clus scale="   48.735">  2  9  1 -1</clus>
<clus scale="   81.055">  5  6 -1 -1</clus>
<clus scale="   90.227">  2 10  1 -1</clus>
<clus scale="   91.419">  1  5  2 -1</clus>
<clus scale="   96.281">  7  8 -1 -1</clus>
<clus scale="   48.735">  2  5  1 -1</clus>
</clustering>
</event>
<event>
10    4  0.3403565E-005  0.2017991E+03  0.7546771E-02  0.1172313E+00
         -3   -1    0    0    0  501 -0.00000000000E+00  0.00000000000E+00  0.46737831229E+03  0.46737831229E+03  0.00000000000E+00 0.  1.
         21   -1    0    0  503  502  0.00000000000E+00 -0.00000000000E+00 -0.86670056221E+03  0.86670056221E+03  0.00000000000E+00 0.  1.
         24    2    1    2    0    0 -0.29555781234E+01 -0.82308431301E+02  0.39444298066E+03  0.41084662536E+03  0.80164027313E+02 0.  0.
         23    2    1    2    0    0  0.17526019570E+03 -0.24111577397E+02 -0.30863598461E+03  0.37107006908E+03  0.10554298088E+03 0.  0.
        -13    1    3    3    0    0  0.30148205492E+02 -0.71019130896E+02  0.30978491694E+03  0.31924806344E+03  0.00000000000E+00 0.  1.
         14    1    3    3    0    0 -0.33103783615E+02 -0.11289300405E+02  0.84658063721E+02  0.91598561922E+02  0.00000000000E+00 0. -1.
        -11    1    4    4    0    0  0.14370883866E+02 -0.34865578879E+02 -0.26449395278E+02  0.46061930097E+02  0.00000000000E+00 0. -1.
         11    1    4    4    0    0  0.16088931183E+03  0.10754001482E+02 -0.28218658933E+03  0.32500813898E+03  0.00000000000E+00 0.  1.
         21    1    1    2  503  501 -0.38975014895E+02 -0.30013386655E+02 -0.22063100594E+03  0.22604843717E+03  0.00000000000E+00 0.  1.
         -4    1    1    2    0  502 -0.13332960268E+03  0.13643339535E+03 -0.26449824003E+03  0.32611374289E+03  0.00000000000E+00 0.  1.
<scales pt_clust_5="13000.00000" pt_clust_6="13000.00000" pt_clust_7="13000.00000" pt_clust_8="13000.00000" pt_clust_9="49.19202" pt_clust_10="171.99875"></scales>
<clustering>
<clus scale="   49.192">  2  9  1 -1</clus>
<clus scale="   80.164">  5  6 -1 -1</clus>
<clus scale="  105.543">  7  8 -1 -1</clus>
<clus scale="  115.222">  1  5  2 -1</clus>
<clus scale="  171.999">  2 10  1 -1</clus>
<clus scale="   49.192">  2  5  1 -1</clus>
</clustering>
</event>
<event>
10    4  0.3403565E-005  0.3399710E+03  0.7546771E-02  0.1067028E+00
         21   -1    0    0  503  502  0.00000000000E+00  0.00000000000E+00  0.39862232667E+03  0.39862232667E+03  0.00000000000E+00 0. -1.
          2   -1    0    0  502    0 -0.00000000000E+00 -0.00000000000E+00 -0.22518181861E+04  0.22518181861E+04  0.00000000000E+00 0. -1.
         24    2    1    2    0    0  0.12486882695E+03  0.33279332786E+03 -0.18482633633E+04  0.18839141327E+04  0.81922988855E+02 0.  0.
         23    2    1    2    0    0 -0.22008185574E+03 -0.14319471534E+03 -0.20349167742E+03  0.34417000069E+03  0.90018758400E+02 0.  0.
        -11    1    3    3    0    0  0.25250017372E+02  0.19840900461E+02 -0.98722963519E+02  0.10381448952E+03  0.00000000000E+00 0.  1.
         12    1    3    3    0    0  0.99618809582E+02  0.31295242740E+03 -0.17495403998E+04  0.17800996431E+04  0.00000000000E+00 0. -1.
        -11    1    4    4    0    0 -0.15477702654E+03 -0.51109041806E+02 -0.13859346114E+03  0.21395375568E+03  0.00000000000E+00 0. -1.
         11    1    4    4    0    0 -0.65304829205E+02 -0.92085673529E+02 -0.64898216284E+02  0.13021624501E+03  0.00000000000E+00 0.  1.
         21    1    1    2  503  501 -0.40716985162E+02 -0.10229930924E+02  0.19270436338E+03  0.19722448132E+03  0.00000000000E+00 0. -1.
          1    1    1    2  501    0  0.13593001395E+03 -0.17936868160E+03  0.58548179408E+01  0.22513189806E+03  0.00000000000E+00 0. -1.
<scales pt_clust_5="13000.00000" pt_clust_6="13000.00000" pt_clust_7="13000.00000" pt_clust_8="13000.00000" pt_clust_9="41.98243" pt_clust_10="216.84261"></scales>
<clustering>
<clus scale="   41.982">  1  9  2 -1</clus>
<clus scale="   81.923">  5  6 -1 -1</clus>
<clus scale="   90.019">  7  8 -1 -1</clus>
<clus scale="  216.843">  1 10  2 -1</clus>
<clus scale="  337.918">  2  5  1 -1</clus>
<clus scale="   41.982">  1  5  2 -1</clus>
</clustering>
</event>
<event>
10    4  0.3403565E-005  0.1311419E+03  0.7546771E-02  0.1232764E+00
         21   -1    0    0  503  502  0.00000000000E+00  0.00000000000E+00  0.13463280348E+03  0.13463280348E+03  0.00000000000E+00 0.  1.
         -1   -1    0    0    0  501 -0.00000000000E+00 -0.00000000000E+00 -0.23725370752E+03  0.23725370752E+03  0.00000000000E+00 0.  1.
         24    2    1    2    0    0 -0.38207813545E+02  0.80379150068E+02 -0.11283721247E+03  0.16200505020E+03  0.74784724318E+02 0.  0.
         23    2    1    2    0    0  0.13383447448E+02 -0.78806204523E+02 -0.28839810880E+02  0.13089081795E+03  0.99554693491E+02 0.  0.
        -13    1    3    3    0    0 -0.31632118199E+02  0.86167790357E+01 -0.72149654601E+02  0.79249053255E+02  0.00000000000E+00 0.  1.
         14    1    3    3    0    0 -0.65756953457E+01  0.71762371033E+02 -0.40687557873E+02  0.82755996950E+02  0.00000000000E+00 0. -1.
        -13    1    4    4    0    0  0.38799421355E+02 -0.54087005314E+01 -0.35586472009E+02  0.52924910288E+02  0.00000000000E+00 0. -1.
         13    1    4    4    0    0 -0.25415973907E+02 -0.73397503991E+02  0.67466611287E+01  0.77965907666E+02  0.00000000000E+00 0.  1.
         21    1    1    2  503  501 -0.19337007132E+02  0.11428496069E+02  0.10289442293E+02  0.24706335016E+02  0.00000000000E+00 0.  1.
         -2    1    1    2    0  502  0.44161373229E+02 -0.13001441615E+02  0.28766677015E+02  0.54284307825E+02  0.00000000000E+00 0.  1.
<scales pt_clust_5="13000.00000" pt_clust_6="13000.00000" pt_clust_7="13000.00000" pt_clust_8="13000.00000" pt_clust_9="22.46175" pt_clust_10="38.36476"></scales>
<clustering>
<clus scale="   22.462">  1  9  2 -1</clus>
<clus scale="   38.365">  1 10  2 -1</clus>
<clus scale="   74.785">  5  6 -1 -1</clus>
<clus scale="   99.555">  7  8 -1 -1</clus>
<clus scale="  113.489">  2  5  1 -1</clus>
<clus scale="   22.462">  1  5  2 -1</clus>
</clustering>
</event>
<event>
10    4  0.3403565E-005  0.2259644E+03  0.7546771E-02  0.1148112E+00
         21   -1    0    0  501  502  0.00000000000E+00  0.00000000000E+00  0.37038263805E+03  0.37038263805E+03  0.00000000000E+00 0.  1.
          2   -1    0    0  503    0 -0.00000000000E+00 -0.00000000000E+00 -0.11977768129E+04  0.11977768129E+04  0.00000000000E+00 0. -1.
         24    2    1    2    0    0  0.58347831291E+01 -0.98753272442E+02 -0.32398236488E+03  0.35218204250E+03  0.96339840125E+02 0.  0.
         23    2    1    2    0    0 -0.20988322830E+03 -0.33207767372E+02 -0.23532938949E+03  0.33062188816E+03  0.93686637449E+02 0.  0.
        -11    1    3    3    0    0  0.42507672888E+02 -0.90477719747E+02 -0.22119556737E+03  0.24273565673E+03  0.00000000000E+00 0.  1.
         12    1    3    3    0    0 -0.36672889759E+02 -0.82755526945E+01 -0.10278679751E+03  0.10944638577E+03  0.00000000000E+00 0. -1.
        -11    1    4    4    0    0 -0.12981526436E+03 -0.50131388239E+02 -0.19452609915E+03  0.23917684294E+03  0.00000000000E+00 0.  1.
         11    1    4    4    0    0 -0.80067963938E+02  0.16923620867E+02 -0.40803290337E+02  0.91445045217E+02  0.00000000000E+00 0. -1.
         21    1    1    2  503  502  0.41067650810E+02 -0.47960286697E+02  0.27940955608E+03  0.28645495470E+03  0.00000000000E+00 0.  1.
          1    1    1    2  501    0  0.16298079436E+03  0.17992132651E+03 -0.54749197654E+03  0.59890056557E+03  0.00000000000E+00 0. -1.
<scales pt_clust_5="13000.00000" pt_clust_6="13000.00000" pt_clust_7="13000.00000" pt_clust_8="13000.00000" pt_clust_9="63.14064" pt_clust_10="205.62773"></scales>
<clustering>
<clus scale="   63.141">  1  9  2 -1</clus>
<clus scale="   93.687">  7  8 -1 -1</clus>
<clus scale="   96.340">  5  6 -1 -1</clus>
<clus scale="  144.138">  2  5  1 -1</clus>
<clus scale="  205.628">  1 10  2 -1</clus>
<clus scale="   63.141">  1  5  2 -1</clus>
</clustering>
</event>
<event>
10    4  0.3403565E-005  0.2764700E+03  0.7546771E-02  0.1098416E+00
         21   -1    0    0  501  502  0.00000000000E+00  0.00000000000E+00  0.55160097071E+03  0.55160097071E+03  0.00000000000E+00 0.  1.
          2   -1    0    0  503    0 -0.00000000000E+00 -0.00000000000E+00 -0.51945920396E+03  0.51945920396E+03  0.00000000000E+00 0. -1.
         23    2    1    2    0    0  0.22310497164E+03 -0.17802321969E+03 -0.27082858730E+03  0.40420873117E+03  0.92566081981E+02 0.  0.
         24    2    1    2    0    0 -0.10751521889E+03  0.20709392280E+03 -0.28478647515E+02  0.24652157298E+03  0.74259258191E+02 0.  0.
        -11    1    4    4    0    0  0.85613819144E+01  0.42682877213E+02 -0.74818546060E+01  0.44171296289E+02  0.00000000000E+00 0.  1.
         12    1    4    4    0    0 -0.11607660080E+03  0.16441104559E+03 -0.20996792909E+02  0.20235027669E+03  0.00000000000E+00 0. -1.
        -13    1    3    3    0    0  0.19700230148E+03 -0.18065677014E+03 -0.21686274661E+03  0.34420375688E+03  0.00000000000E+00 0.  1.
         13    1    3    3    0    0  0.26102670163E+02  0.26335504453E+01 -0.53965840697E+02  0.60004974291E+02  0.00000000000E+00 0. -1.
         21    1    1    2  503  502 -0.20026308653E+02 -0.63786854882E+02  0.30907500210E+03  0.31622329582E+03  0.00000000000E+00 0.  1.
          1    1    1    2  501    0 -0.95563444099E+02  0.34716151771E+02  0.22373999468E+02  0.10410657469E+03  0.00000000000E+00 0. -1.
<scales pt_clust_5="13000.00000" pt_clust_6="13000.00000" pt_clust_7="13000.00000" pt_clust_8="13000.00000" pt_clust_9="66.85668" pt_clust_10="102.42815"></scales>
<clustering>
<clus scale="   66.857">  1  9  2 -1</clus>
<clus scale="   74.259">  5  6 -1 -1</clus>
<clus scale="   92.566">  7  8 -1 -1</clus>
<clus scale="  102.428">  1 10  2 -1</clus>
<clus scale="  270.890">  1  5  2 -1</clus>
<clus scale="   66.857">  1  5  2 -1</clus>
</clustering>
</event>
<event>
10    4  0.3403565E-005  0.8936091E+02  0.7546771E-02  0.1325448E+00
         21   -1    0    0  501  502  0.00000000000E+00  0.00000000000E+00  0.20733376837E+03  0.20733376837E+03  0.00000000000E+00 0. -1.
          2   -1    0    0  503    0 -0.00000000000E+00 -0.00000000000E+00 -0.14997554899E+03  0.14997554899E+03  0.00000000000E+00 0. -1.
         24    2    1    2    0    0  0.76502493274E+01  0.57744641788E+01  0.76067119681E+01  0.60117574120E+02  0.58859068119E+02 0.  0.
         23    2    1    2    0    0 -0.16253104644E+02  0.60047644370E+02  0.48670953643E+02  0.11809406565E+03  0.87792161427E+02 0.  0.
        -13    1    3    3    0    0 -0.57128433891E+01  0.20729995297E+02 -0.17683449596E+02  0.27840145011E+02  0.00000000000E+00 0.  1.
         14    1    3    3    0    0  0.13363092716E+02 -0.14955531118E+02  0.25290161564E+02  0.32277429109E+02  0.00000000000E+00 0. -1.
        -13    1    4    4    0    0  0.21017368399E+02  0.74078095135E+01 -0.15473144824E+02  0.27129755380E+02  0.00000000000E+00 0.  1.
         13    1    4    4    0    0 -0.37270473044E+02  0.52639834856E+02  0.64144098467E+02  0.90964310269E+02  0.00000000000E+00 0. -1.
         21    1    1    2  503  502 -0.18719796425E+02 -0.25023212839E+02  0.80147373839E+02  0.86024377314E+02  0.00000000000E+00 0.  1.
          1    1    1    2  501    0  0.27322651742E+02 -0.40798895709E+02 -0.79066820067E+02  0.93073300279E+02  0.00000000000E+00 0. -1.
<scales pt_clust_5="13000.00000" pt_clust_6="13000.00000" pt_clust_7="13000.00000" pt_clust_8="13000.00000" pt_clust_9="31.25047" pt_clust_10="49.71531"></scales>
<clustering>
<clus scale="   31.250">  1  9  2 -1</clus>
<clus scale="   49.715">  1 10  2 -1</clus>
<clus scale="   58.859">  5  6 -1 -1</clus>
<clus scale="   61.174">  2  5  1 -1</clus>
<clus scale="   87.792">  7  8 -1 -1</clus>
<clus scale="   31.250">  1  5  2 -1</clus>
</clustering>
</event>
<event>
10    4  0.3403565E-005  0.1355345E+03  0.7546771E-02  0.1241140E+00
         21   -1    0    0  503  502  0.00000000000E+00  0.00000000000E+00  0.16117263609E+03  0.16117263609E+03  0.00000000000E+00 0. -1.
          2   -1    0    0  502    0 -0.00000000000E+00 -0.00000000000E+00 -0.11405248266E+04  0.11405248266E+04  0.00000000000E+00 0. -1.
         24    2    1    2    0    0 -0.38594825762E+02 -0.16753106689E+02 -0.23148059221E+03  0.24768478918E+03  0.77422626275E+02 0.  0.
         23    2    1    2    0    0 -0.13980439382E+03  0.32380179569E+02 -0.23784928919E+02  0.17113276100E+03  0.90149622755E+02 0.  0.
        -11    1    3    3    0    0  0.23746940351E+02 -0.85397217477E+01 -0.66133971057E+02  0.70785211388E+02  0.00000000000E+00 0.  1.
         12    1    3    3    0    0 -0.62341766113E+02 -0.82133849412E+01 -0.16534662116E+03  0.17689957779E+03  0.00000000000E+00 0. -1.
        -13    1    4    4    0    0 -0.86948638136E+02 -0.22196350986E+02 -0.30699200229E+02  0.94842946841E+02  0.00000000000E+00 0. -1.
         13    1    4    4    0    0 -0.52855755684E+02  0.54576530555E+02  0.69142713095E+01  0.76289814157E+02  0.00000000000E+00 0.  1.
         21    1    1    2  503  501  0.49648777216E+02 -0.23864267721E+02  0.63920129858E+02  0.84381795157E+02  0.00000000000E+00 0. -1.
          1    1    1    2  501    0  0.12875044237E+03  0.82371948407E+01 -0.78800679922E+03  0.79849811735E+03  0.00000000000E+00 0. -1.
<scales pt_clust_5="13000.00000" pt_clust_6="13000.00000" pt_clust_7="13000.00000" pt_clust_8="13000.00000" pt_clust_9="55.08634" pt_clust_10="101.20597"></scales>
<clustering>
<clus scale="   55.086">  1  9  2 -1</clus>
<clus scale="   77.423">  5  6 -1 -1</clus>
<clus scale="   86.651">  2  5  1 -1</clus>
<clus scale="   90.150">  7  8 -1 -1</clus>
<clus scale="  101.206">  1 10  2 -1</clus>
<clus scale="   55.086">  1  5  2 -1</clus>
</clustering>
</event>
<event>
10    4  0.3403565E-005  0.1386806E+03  0.7546771E-02  0.1217494E+00
         21   -1    0    0  503  502  0.00000000000E+00  0.00000000000E+00  0.11112510090E+03  0.11112510090E+03  0.00000000000E+00 0. -1.
          2   -1    0    0  502    0 -0.00000000000E+00 -0.00000000000E+00 -0.66927057759E+03  0.66927057759E+03  0.00000000000E+00 0. -1.
         24    2    1    2    0    0  0.11251162464E+03 -0.16795462526E+01 -0.37195802575E+03  0.40038329603E+03  0.96396702561E+02 0.  0.
         23    2    1    2    0    0 -0.70259524635E+02  0.62521135119E+02 -0.14906503951E+03  0.19626321207E+03  0.86334056245E+02 0.  0.
        -11    1    3    3    0    0  0.37085739461E+02  0.15382604947E+02 -0.30887469237E+02  0.50655822590E+02  0.00000000000E+00 0.  1.
         12    1    3    3    0    0  0.75425885178E+02 -0.17062151200E+02 -0.34107055651E+03  0.34972747344E+03  0.00000000000E+00 0. -1.
        -13    1    4    4    0    0 -0.78737065108E+02  0.15962384685E+02 -0.93061959272E+02  0.12294247195E+03  0.00000000000E+00 0. -1.
         13    1    4    4    0    0  0.84775404723E+01  0.46558750434E+02 -0.56003080242E+02  0.73320740115E+02  0.00000000000E+00 0.  1.
         21    1    1    2  503  501  0.45157150817E+01 -0.30175292748E+02  0.62473288997E+02  0.69525907496E+02  0.00000000000E+00 0. -1.
          1    1    1    2  501    0 -0.46767815086E+02 -0.30666296118E+02 -0.99595700422E+02  0.11422326290E+03  0.00000000000E+00 0. -1.
<scales pt_clust_5="13000.00000" pt_clust_6="13000.00000" pt_clust_7="13000.00000" pt_clust_8="13000.00000" pt_clust_9="30.51131" pt_clust_10="58.16881"></scales>
<clustering>
<clus scale="   30.511">  1  9  2 -1</clus>
<clus scale="   58.169">  1 10  2 -1</clus>
<clus scale="   86.334">  7  8 -1 -1</clus>
<clus scale="   96.397">  5  6 -1 -1</clus>
<clus scale="  131.885">  1  7  2 -1</clus>
<clus scale="   30.511">  1  5  2 -1</clus>
</clustering>
</event>
<event>
10    4  0.3984855E-005  0.3009142E+03  0.7546771E-02  0.1123656E+00
         21   -1    0    0  503  502  0.00000000000E+00  0.00000000000E+00  0.10985200513E+03  0.10985200513E+03  0.00000000000E+00 0. -1.
          2   -1    0    0  502    0 -0.00000000000E+00 -0.00000000000E+00 -0.14006510385E+04  0.14006510385E+04  0.00000000000E+00 0. -1.
         24    2    1    2    0    0  0.63539932608E+02  0.21342353299E+02 -0.57383788128E+02  0.12179309582E+03  0.83951414336E+02 0.  0.
         23    2    1    2    0    0 -0.21099695172E+03 -0.22777578359E+03 -0.44815313786E+03  0.55277915292E+03  0.91225192257E+02 0.  0.
        -11    1    3    3    0    0  0.27703445499E+02  0.23536642083E+02  0.16291173725E+02  0.39835370645E+02  0.00000000000E+00 0.  1.
         12    1    3    3    0    0  0.35836487109E+02 -0.21942887842E+01 -0.73674961853E+02  0.81957725174E+02  0.00000000000E+00 0. -1.
        -11    1    4    4    0    0 -0.18812678339E+03 -0.22732412292E+03 -0.38141418485E+03  0.48222891234E+03  0.00000000000E+00 0. -1.
         11    1    4    4    0    0 -0.22870168328E+02 -0.45166066761E+00 -0.66738953016E+02  0.70550240583E+02  0.00000000000E+00 0.  1.
         21    1    1    2  503  501  0.21577045803E+02 -0.16445989493E+02 -0.43728713258E+02  0.51461051672E+02  0.00000000000E+00 0. -1.
          1    1    1    2  501    0  0.12587997331E+03  0.22287941978E+03 -0.74153339412E+03  0.78446974323E+03  0.00000000000E+00 0. -1.
<scales pt_clust_5="13000.00000" pt_clust_6="13000.00000" pt_clust_7="13000.00000" pt_clust_8="13000.00000" pt_clust_9="27.13005" pt_clust_10="286.75316"></scales>
<clustering>
<clus scale="   27.130">  1  9  2 -1</clus>
<clus scale="   83.951">  5  6 -1 -1</clus>
<clus scale="   91.225">  7  8 -1 -1</clus>
<clus scale="  110.583">  2  5  1 -1</clus>
<clus scale="  286.753">  1 10  2 -1</clus>
<clus scale="   27.130">  1  5  2 -1</clus>
</clustering>
</event>
<event>
10    4  0.3403565E-005  0.1195118E+03  0.7546771E-02  0.1247608E+00
         21   -1    0    0  501  502  0.00000000000E+00  0.00000000000E+00  0.24310608020E+03  0.24310608020E+03  0.00000000000E+00 0.  1.
          2   -1    0    0  503    0 -0.00000000000E+00 -0.00000000000E+00 -0.52998426954E+03  0.52998426954E+03  0.00000000000E+00 0. -1.
         23    2    1    2    0    0  0.48562970920E+02 -0.66183272146E+02 -0.37807385617E+03  0.39786537259E+03  0.92835479929E+02 0.  0.
         24    2    1    2    0    0  0.49540402448E+02  0.59178348682E+02  0.34870986300E+02  0.11753156121E+03  0.81494501453E+02 0.  0.
        -13    1    4    4    0    0  0.61762114122E+02  0.67029001647E+02  0.43116029987E+02  0.10082875505E+03  0.00000000000E+00 0.  1.
         14    1    4    4    0    0 -0.12221711674E+02 -0.78506529658E+01 -0.82450436870E+01  0.16702806160E+02  0.00000000000E+00 0. -1.
        -13    1    3    3    0    0  0.67678890028E+02 -0.17244421582E+02 -0.18411878662E+03  0.19692011024E+03  0.00000000000E+00 0.  1.
         13    1    3    3    0    0 -0.19115919108E+02 -0.48938850564E+02 -0.19395506955E+03  0.20094526235E+03  0.00000000000E+00 0. -1.
         21    1    1    2  503  502 -0.56475742041E+02  0.95256041567E+01  0.14706749024E+03  0.15782614885E+03  0.00000000000E+00 0.  1.
          1    1    1    2  501    0 -0.41627631327E+02 -0.25206806926E+01 -0.90742809708E+02  0.99867267084E+02  0.00000000000E+00 0. -1.
<scales pt_clust_5="13000.00000" pt_clust_6="13000.00000" pt_clust_7="13000.00000" pt_clust_8="13000.00000" pt_clust_9="83.45497" pt_clust_10="41.70390"></scales>
<clustering>
<clus scale="   41.704">  1 10  2 -1</clus>
<clus scale="   81.495">  5  6 -1 -1</clus>
<clus scale="   83.455">  1  9  2 -1</clus>
<clus scale="   92.835">  7  8 -1 -1</clus>
<clus scale="  110.932">  1  5  2 -1</clus>
<clus scale="   41.704">  1  5  2 -1</clus>
</clustering>
</event>
<event>
10    4  0.3403565E-005  0.4175287E+03  0.7546771E-02  0.1048692E+00
          2   -1    0    0  503    0 -0.00000000000E+00  0.00000000000E+00  0.83940648349E+03  0.83940648349E+03  0.00000000000E+00 0. -1.
         21   -1    0    0  501  502  0.00000000000E+00 -0.00000000000E+00 -0.98423816098E+03  0.98423816098E+03  0.00000000000E+00 0.  1.
         24    2    1    2    0    0 -0.21710160142E+02 -0.23060853896E+03 -0.54829351551E+03  0.60079561679E+03  0.81718814889E+02 0.  0.
         23    2    1    2    0    0  0.32852479950E+03 -0.63470221213E+02  0.47028281567E+03  0.58420655249E+03  0.90412147388E+02 0.  0.
        -13    1    3    3    0    0  0.32787063225E+01 -0.18777711613E+03 -0.48698061149E+03  0.52193975824E+03  0.00000000000E+00 0.  1.
         14    1    3    3    0    0 -0.24988866465E+02 -0.42831422834E+02 -0.61312904014E+02  0.78855858550E+02  0.00000000000E+00 0. -1.
        -11    1    4    4    0    0  0.22346693836E+03  0.18513204515E-01  0.29029036595E+03  0.36634132915E+03  0.00000000000E+00 0.  1.
         11    1    4    4    0    0  0.10505786115E+03 -0.63488734418E+02  0.17999244972E+03  0.21786522334E+03  0.00000000000E+00 0. -1.
         21    1    1    2  503  502 -0.11661364326E+02 -0.91986503316E+02 -0.11790844877E+03  0.14999968834E+03  0.00000000000E+00 0. -1.
          1    1    1    2  501    0 -0.29515327504E+03  0.38606526349E+03  0.51087471127E+02  0.48864278685E+03  0.00000000000E+00 0. -1.
<scales pt_clust_5="13000.00000" pt_clust_6="13000.00000" pt_clust_7="13000.00000" pt_clust_8="13000.00000" pt_clust_9="92.72273" pt_clust_10="407.62223"></scales>
<clustering>
<clus scale="   81.719">  5  6 -1 -1</clus>
<clus scale="   90.412">  7  8 -1 -1</clus>
<clus scale="   92.723">  2  9  1 -1</clus>
<clus scale="  305.393">  1  5  2 -1</clus>
<clus scale="  407.622">  2 10  1 -1</clus>
<clus scale="   92.723">  2  5  1 -1</clus>
</clustering>
</event>
<event>
10    4  0.3403565E-005  0.1369331E+03  0.7546771E-02  0.1219540E+00
          2   -1    0    0  503    0 -0.00000000000E+00  0.00000000000E+00  0.34386939477E+03  0.34386939477E+03  0.00000000000E+00 0. -1.
         21   -1    0    0  501  502  0.00000000000E+00 -0.00000000000E+00 -0.90540794875E+02  0.90540794875E+02  0.00000000000E+00 0. -1.
         24    2    1    2    0    0  0.11262905615E+03 -0.45610977472E+02  0.15806982329E+03  0.21471391393E+03  0.79688959344E+02 0.  0.
         23    2    1    2    0    0 -0.83287662571E+02  0.26403339430E+01  0.52450210060E+02  0.13257531428E+03  0.88777155407E+02 0.  0.
        -11    1    3    3    0    0  0.65097054411E+02 -0.44277053184E+02  0.41887848127E+02  0.89177776112E+02  0.00000000000E+00 0.  1.
         12    1    3    3    0    0  0.47532001744E+02 -0.13339242888E+01  0.11618197517E+03  0.12553613782E+03  0.00000000000E+00 0. -1.
        -11    1    4    4    0    0 -0.30000443727E+02 -0.33617413699E+02  0.51073769476E+02  0.68107907442E+02  0.00000000000E+00 0.  1.
         11    1    4    4    0    0 -0.53287218843E+02  0.36257747643E+02  0.13764405839E+01  0.64467406841E+02  0.00000000000E+00 0. -1.
         21    1    1    2  503  502 -0.24767148413E+01  0.32470857666E+02 -0.33020149206E+01  0.32732155696E+02  0.00000000000E+00 0.  1.
          1    1    1    2  501    0 -0.26864678743E+02  0.10499785864E+02  0.46110581465E+02  0.54388805743E+02  0.00000000000E+00 0. -1.
<scales pt_clust_5="13000.00000" pt_clust_6="13000.00000" pt_clust_7="13000.00000" pt_clust_8="13000.00000" pt_clust_9="35.58940" pt_clust_10="28.84367"></scales>
<clustering>
<clus scale="   28.844">  2 10  1 -1</clus>
<clus scale="   35.589">  2  9  1 -1</clus>
<clus scale="   79.689">  5  6 -1 -1</clus>
<clus scale="   88.777">  7  8 -1 -1</clus>
<clus scale="  131.224">  1  5  2 -1</clus>
<clus scale="   28.844">  2  5  1 -1</clus>
</clustering>
</event>
<event>
10    4  0.3403565E-005  0.1479296E+03  0.7546771E-02  0.1222979E+00
         -3   -1    0    0    0  501 -0.00000000000E+00  0.00000000000E+00  0.16027369312E+03  0.16027369312E+03  0.00000000000E+00 0.  1.
         21   -1    0    0  503  502  0.00000000000E+00 -0.00000000000E+00 -0.63272752249E+03  0.63272752249E+03  0.00000000000E+00 0.  1.
         24    2    1    2    0    0  0.73292278185E+01  0.47567025479E+02  0.87369510254E+02  0.13062572248E+03  0.84340432520E+02 0.  0.
         23    2    1    2    0    0  0.14217273879E+03  0.41758764648E+01 -0.33071189751E+03  0.37142783524E+03  0.91420741811E+02 0.  0.
        -11    1    3    3    0    0  0.43357240188E+02  0.36724355504E+02  0.37195373046E+02  0.67911886589E+02  0.00000000000E+00 0.  1.
         12    1    3    3    0    0 -0.36028012370E+02  0.10842669975E+02  0.50174137208E+02  0.62713835890E+02  0.00000000000E+00 0. -1.
        -13    1    4    4    0    0  0.13165990893E+02  0.33787853976E+02 -0.60405406654E+02  0.70454066920E+02  0.00000000000E+00 0. -1.
         13    1    4    4    0    0  0.12900674790E+03 -0.29611977511E+02 -0.27030649086E+03  0.30097376832E+03  0.00000000000E+00 0.  1.
         21    1    1    2  503  501 -0.40931638332E+02 -0.67609359039E+01 -0.13240918066E+03  0.13875626254E+03  0.00000000000E+00 0.  1.
         -4    1    1    2    0  502 -0.10857032828E+03 -0.44981966040E+02 -0.96702261452E+02  0.15219139536E+03  0.00000000000E+00 0.  1.
<scales pt_clust_5="13000.00000" pt_clust_6="13000.00000" pt_clust_7="13000.00000" pt_clust_8="13000.00000" pt_clust_9="41.48625" pt_clust_10="116.29893"></scales>
<clustering>
<clus scale="   41.486">  2  9  1 -1</clus>
<clus scale="   84.340">  5  6 -1 -1</clus>
<clus scale="   91.421">  7  8 -1 -1</clus>
<clus scale="   96.844">  1  5  2 -1</clus>
<clus scale="  116.299">  2 10  1 -1</clus>
<clus scale="   41.486">  2  5  1 -1</clus>
</clustering>
</event>
<event>
10    4  0.3990044E-005  0.1433601E+03  0.7546771E-02  0.1222681E+00
         21   -1    0    0  501  502  0.00000000000E+00  0.00000000000E+00  0.44319734170E+03  0.44319734170E+03  0.00000000000E+00 0. -1.
          2   -1    0    0  503    0 -0.00000000000E+00 -0.00000000000E+00 -0.73280549800E+03  0.73280549800E+03  0.00000000000E+00 0. -1.
         23    2    1    2    0    0 -0.13175056896E+02  0.54605637156E+02 -0.22315162295E+03  0.26172305410E+03  0.12468741914E+03 0.  0.
         24    2    1    2    0    0  0.13061787041E+03 -0.34843976981E+01 -0.19433555426E+03  0.24758377664E+03  0.80363236045E+02 0.  0.
        -13    1    4    4    0    0  0.62994240338E+02 -0.49106223463E+01 -0.15937714819E+03  0.17144522126E+03  0.00000000000E+00 0.  1.
         14    1    4    4    0    0  0.67623630070E+02  0.14262246483E+01 -0.34958406076E+02  0.76138555384E+02  0.00000000000E+00 0. -1.
        -13    1    3    3    0    0 -0.46803400099E+02  0.51493066626E+02 -0.50957232747E+02  0.86248094127E+02  0.00000000000E+00 0.  1.
         13    1    3    3    0    0  0.33628343203E+02  0.31125705305E+01 -0.17219439020E+03  0.17547495997E+03  0.00000000000E+00 0. -1.
         21    1    1    2  503  502 -0.20540674537E+03  0.13072661353E+01  0.35916454173E+03  0.41375452629E+03  0.00000000000E+00 0. -1.
          1    1    1    2  501    0  0.87963931862E+02 -0.52428505593E+02 -0.23128552083E+03  0.25294148266E+03  0.00000000000E+00 0. -1.
<scales pt_clust_5="13000.00000" pt_clust_6="13000.00000" pt_clust_7="13000.00000" pt_clust_8="13000.00000" pt_clust_9="134.71867" pt_clust_10="102.40318"></scales>
<clustering>
<clus scale="   80.363">  5  6 -1 -1</clus>
<clus scale="  102.403">  1 10  2 -1</clus>
<clus scale="  124.687">  7  8 -1 -1</clus>
<clus scale="  134.719">  1  9  2 -1</clus>
<clus scale="  107.067">  1  5  2 -1</clus>
<clus scale="  102.403">  1  5  2 -1</clus>
</clustering>
</event>
<event>
10    4  0.3403565E-005  0.9427511E+02  0.7546771E-02  0.1299053E+00
         -1   -1    0    0    0  501 -0.00000000000E+00  0.00000000000E+00  0.27126142795E+03  0.27126142795E+03  0.00000000000E+00 0.  1.
         21   -1    0    0  503  502  0.00000000000E+00 -0.00000000000E+00 -0.91657000103E+02  0.91657000103E+02  0.00000000000E+00 0. -1.
         23    2    1    2    0    0 -0.19517837444E+02 -0.23350586645E+02  0.16536925938E+03  0.19132153042E+03  0.91272888515E+02 0.  0.
         24    2    1    2    0    0  0.73814967972E+01 -0.77338145029E+01 -0.10279164830E+02  0.81942797013E+02  0.80589468114E+02 0.  0.
        -13    1    4    4    0    0  0.23990434468E+02 -0.32140642834E+02  0.15255096307E+02  0.42910136694E+02  0.00000000000E+00 0.  1.
         14    1    4    4    0    0 -0.16608937671E+02  0.24406828331E+02 -0.25534261137E+02  0.39032660319E+02  0.00000000000E+00 0. -1.
        -13    1    3    3    0    0 -0.54264330215E+02 -0.18604932689E+02  0.12691652642E+03  0.13927873396E+03  0.00000000000E+00 0.  1.
         13    1    3    3    0    0  0.34746492771E+02 -0.47456539562E+01  0.38452732961E+02  0.52042796461E+02  0.00000000000E+00 0. -1.
         21    1    1    2  503  501 -0.27068114014E+02 -0.44346644947E+01 -0.66926406114E+01  0.28233676413E+02  0.00000000000E+00 0. -1.
         -2    1    1    2    0  502  0.39204454661E+02  0.35519065643E+02  0.31206973904E+02  0.61420424206E+02  0.00000000000E+00 0.  1.
<scales pt_clust_5="13000.00000" pt_clust_6="13000.00000" pt_clust_7="13000.00000" pt_clust_8="13000.00000" pt_clust_9="27.42898" pt_clust_10="48.30630"></scales>
<clustering>
<clus scale="   27.429">  2  9  1 -1</clus>
<clus scale="   48.306">  2 10  1 -1</clus>
<clus scale="   80.589">  5  6 -1 -1</clus>
<clus scale="   83.975">  2  5  1 -1</clus>
<clus scale="   91.273">  7  8 -1 -1</clus>
<clus scale="   27.429">  2  5  1 -1</clus>
</clustering>
</event>
<event>
10    4  0.3403565E-005  0.1352584E+03  0.7546771E-02  0.1230090E+00
          2   -1    0    0  502    0 -0.00000000000E+00  0.00000000000E+00  0.15538548406E+04  0.15538548406E+04  0.00000000000E+00 0. -1.
         21   -1    0    0  503  502  0.00000000000E+00 -0.00000000000E+00 -0.66294488298E+02  0.66294488298E+02  0.00000000000E+00 0. -1.
         24    2    1    2    0    0  0.42626972646E+02 -0.74133517739E+02  0.28905325812E+03  0.31180158659E+03  0.79722055414E+02 0.  0.
         23    2    1    2    0    0 -0.20993064074E+02 -0.90005928128E+02  0.62586181525E+02  0.14405603319E+03  0.91067748088E+02 0.  0.
        -13    1    3    3    0    0 -0.58201363114E+01 -0.21114307817E+02  0.10782674518E+02  0.24412170142E+02  0.00000000000E+00 0.  1.
         14    1    3    3    0    0  0.48447108957E+02 -0.53019209922E+02  0.27827058360E+03  0.28738941644E+03  0.00000000000E+00 0. -1.
        -13    1    4    4    0    0 -0.21864470607E+01 -0.23025369105E+02 -0.23767589128E+02  0.33163933212E+02  0.00000000000E+00 0.  1.
         13    1    4    4    0    0 -0.18806617013E+02 -0.66980559023E+02  0.86353770653E+02  0.11089209997E+03  0.00000000000E+00 0. -1.
         21    1    1    2  503  501 -0.60817110394E+02  0.29289554483E+02  0.11187470340E+03  0.13066196148E+03  0.00000000000E+00 0. -1.
          1    1    1    2  501    0  0.39183201823E+02  0.13484989138E+03  0.10240462093E+04  0.10336297477E+04  0.00000000000E+00 0. -1.
<scales pt_clust_5="13000.00000" pt_clust_6="13000.00000" pt_clust_7="13000.00000" pt_clust_8="13000.00000" pt_clust_9="67.50258" pt_clust_10="100.00757"></scales>
<clustering>
<clus scale="   67.503">  2  9  1 -1</clus>
<clus scale="   79.722">  5  6 -1 -1</clus>
<clus scale="   91.068">  7  8 -1 -1</clus>
<clus scale="  109.298">  1  5  2 -1</clus>
<clus scale="  100.008">  2 10  1 -1</clus>
<clus scale="   67.503">  2  5  1 -1</clus>
</clustering>
</event>
<event>
10    4  0.3403565E-005  0.2872019E+03  0.7546771E-02  0.1125471E+00
          2   -1    0    0  503    0 -0.00000000000E+00  0.00000000000E+00  0.20030750633E+04  0.20030750633E+04  0.00000000000E+00 0. -1.
         21   -1    0    0  501  502  0.00000000000E+00 -0.00000000000E+00 -0.93797129993E+02  0.93797129993E+02  0.00000000000E+00 0. -1.
         23    2    1    2    0    0  0.10204815170E+02  0.81067212668E+02  0.53151829946E+03  0.54551869455E+03  0.91667400002E+02 0.  0.
         24    2    1    2    0    0 -0.15111762376E+03  0.20629909111E+03  0.74265013549E+03  0.78950913141E+03  0.79997460137E+02 0.  0.
        -11    1    4    4    0    0 -0.99436339649E+02  0.10165888156E+03  0.50665421227E+03  0.52623246256E+03  0.00000000000E+00 0.  1.
         12    1    4    4    0    0 -0.51681284107E+02  0.10464020955E+03  0.23599592323E+03  0.26327666885E+03  0.00000000000E+00 0. -1.
        -11    1    3    3    0    0 -0.64937931218E+01 -0.19363463715E+02  0.70883969245E+02  0.73767541454E+02  0.00000000000E+00 0.  1.
         11    1    3    3    0    0  0.16698608292E+02  0.10043067638E+03  0.46063433021E+03  0.47175115310E+03  0.00000000000E+00 0. -1.
         21    1    1    2  503  502  0.15353139861E+02 -0.18462581709E+02 -0.27080396020E+02  0.36193005892E+02  0.00000000000E+00 0. -1.
          1    1    1    2  501    0  0.12555966873E+03 -0.26890372207E+03  0.66218989442E+03  0.72565136148E+03  0.00000000000E+00 0. -1.
<scales pt_clust_5="13000.00000" pt_clust_6="13000.00000" pt_clust_7="13000.00000" pt_clust_8="13000.00000" pt_clust_9="24.01220" pt_clust_10="275.83587"></scales>
<clustering>
<clus scale="   24.012">  2  9  1 -1</clus>
<clus scale="   79.997">  5  6 -1 -1</clus>
<clus scale="   91.667">  7  8 -1 -1</clus>
<clus scale="  121.591">  1  7  2 -1</clus>
<clus scale="  275.836">  2 10  1 -1</clus>
<clus scale="   24.012">  2  5  1 -1</clus>
</clustering>
</event>
<event>
10    4  0.3403565E-005  0.1572966E+03  0.7546771E-02  0.1215930E+00
          2   -1    0    0  502    0 -0.00000000000E+00  0.00000000000E+00  0.50038575750E+03  0.50038575750E+03  0.00000000000E+00 0. -1.
         21   -1    0    0  503  502  0.00000000000E+00 -0.00000000000E+00 -0.13908857703E+03  0.13908857703E+03  0.00000000000E+00 0.  1.
         24    2    1    2    0    0 -0.12296450928E+02 -0.57626429773E+02  0.73715080614E+02  0.12292413237E+03  0.78768147713E+02 0.  0.
         23    2    1    2    0    0  0.36721060141E+02 -0.11986492055E+03  0.10331884681E+03  0.18595633921E+03  0.90492765173E+02 0.  0.
        -11    1    3    3    0    0 -0.92593114078E+01 -0.63969359603E+02  0.18455968514E+02  0.67219317086E+02  0.00000000000E+00 0.  1.
         12    1    3    3    0    0 -0.30371395206E+01  0.63429298301E+01  0.55259112100E+02  0.55704815280E+02  0.00000000000E+00 0. -1.
        -11    1    4    4    0    0  0.57841099530E+02 -0.80587261327E+02  0.36656612083E+02  0.10575257298E+03  0.00000000000E+00 0.  1.
         11    1    4    4    0    0 -0.21120039389E+02 -0.39277659225E+02  0.66662234724E+02  0.80203766224E+02  0.00000000000E+00 0. -1.
         21    1    1    2  503  501  0.13214329290E+02  0.29514384262E+02 -0.44832525054E+02  0.55278139257E+02  0.00000000000E+00 0.  1.
          1    1    1    2  501    0 -0.37638938502E+02  0.14797696606E+03  0.22909577810E+03  0.27531572370E+03  0.00000000000E+00 0. -1.
<scales pt_clust_5="13000.00000" pt_clust_6="13000.00000" pt_clust_7="13000.00000" pt_clust_8="13000.00000" pt_clust_9="32.33755" pt_clust_10="128.65960"></scales>
<clustering>
<clus scale="   32.338">  2  9  1 -1</clus>
<clus scale="   78.768">  5  6 -1 -1</clus>
<clus scale="   90.493">  7  8 -1 -1</clus>
<clus scale="   93.415">  1  5  2 -1</clus>
<clus scale="  128.660">  2 10  1 -1</clus>
<clus scale="   32.338">  2  5  1 -1</clus>
</clustering>
</event>
<event>
10    4  0.3403565E-005  0.1105323E+03  0.7546771E-02  0.1270468E+00
          2   -1    0    0  503    0 -0.00000000000E+00  0.00000000000E+00  0.18848301677E+03  0.18848301677E+03  0.00000000000E+00 0. -1.
         21   -1    0    0  501  502  0.00000000000E+00 -0.00000000000E+00 -0.29941033331E+03  0.29941033331E+03  0.00000000000E+00 0. -1.
         24    2    1    2    0    0 -0.34300552581E+02 -0.55255959869E+02  0.12752219317E+03  0.15803465145E+03  0.66957391674E+02 0.  0.
         23    2    1    2    0    0 -0.24964639952E+02  0.13986436805E+02 -0.14280464156E+03  0.17297184056E+03  0.93312583898E+02 0.  0.
        -11    1    3    3    0    0 -0.19443237542E+02 -0.43867187182E+02  0.25556092242E+02  0.54364358251E+02  0.00000000000E+00 0.  1.
         12    1    3    3    0    0 -0.14857315039E+02 -0.11388772687E+02  0.10196610093E+03  0.10367029320E+03  0.00000000000E+00 0. -1.
        -13    1    4    4    0    0 -0.32833474445E+02  0.50505781323E+02 -0.88913638493E+02  0.10739881797E+03  0.00000000000E+00 0.  1.
         13    1    4    4    0    0  0.78688344933E+01 -0.36519344518E+02 -0.53891003062E+02  0.65573022588E+02  0.00000000000E+00 0. -1.
         21    1    1    2  503  502 -0.18516846362E+02 -0.15968075893E+02 -0.35538026201E+02  0.43137041544E+02  0.00000000000E+00 0.  1.
          1    1    1    2  501    0  0.77782038895E+02  0.57237598957E+02 -0.60106841960E+02  0.11374981653E+03  0.00000000000E+00 0. -1.
<scales pt_clust_5="13000.00000" pt_clust_6="13000.00000" pt_clust_7="13000.00000" pt_clust_8="13000.00000" pt_clust_9="24.45103" pt_clust_10="88.42613"></scales>
<clustering>
<clus scale="   24.451">  2  9  1 -1</clus>
<clus scale="   66.957">  5  6 -1 -1</clus>
<clus scale="   88.426">  2 10  1 -1</clus>
<clus scale="   89.406">  1  5  2 -1</clus>
<clus scale="   93.313">  7  8 -1 -1</clus>
<clus scale="   24.451">  2  5  1 -1</clus>
</clustering>
</event>
<event>
10    4  0.3403565E-005  0.1376968E+03  0.7546771E-02  0.1217738E+00
         21   -1    0    0  501  502  0.00000000000E+00  0.00000000000E+00  0.18426664379E+03  0.18426664379E+03  0.00000000000E+00 0. -1.
          2   -1    0    0  503    0 -0.00000000000E+00 -0.00000000000E+00 -0.78944860760E+03  0.78944860760E+03  0.00000000000E+00 0. -1.
         24    2    1    2    0    0 -0.28292466381E+01 -0.11262824167E+03 -0.66914090076E+03  0.68325087639E+03  0.79931780718E+02 0.  0.
         23    2    1    2    0    0 -0.58549953235E+02  0.65278199981E+02 -0.58776396635E+01  0.12290870368E+03  0.85922420684E+02 0.  0.
        -13    1    3    3    0    0 -0.13966943896E+02 -0.56462093027E+02 -0.14871855034E+03  0.15968797916E+03  0.00000000000E+00 0.  1.
         14    1    3    3    0    0  0.11137697258E+02 -0.56166148644E+02 -0.52042235042E+03  0.52356289724E+03  0.00000000000E+00 0. -1.
        -11    1    4    4    0    0 -0.24845874280E+02 -0.15130082907E+02 -0.18992906275E+02  0.34741435870E+02  0.00000000000E+00 0. -1.
         11    1    4    4    0    0 -0.33704078955E+02  0.80408282888E+02  0.13115266612E+02  0.88167267812E+02  0.00000000000E+00 0.  1.
         21    1    1    2  503  502  0.39322486488E+02 -0.43486827644E+02  0.31145805035E+02  0.66388427406E+02  0.00000000000E+00 0. -1.
          1    1    1    2  501    0  0.22056713385E+02  0.90836869334E+02  0.38690771575E+02  0.10116724391E+03  0.00000000000E+00 0. -1.
<scales pt_clust_5="13000.00000" pt_clust_6="13000.00000" pt_clust_7="13000.00000" pt_clust_8="13000.00000" pt_clust_9="58.62902" pt_clust_10="80.44440"></scales>
<clustering>
<clus scale="   58.629">  1  9  2 -1</clus>
<clus scale="   79.932">  5  6 -1 -1</clus>
<clus scale="   80.444">  1 10  2 -1</clus>
<clus scale="   85.922">  7  8 -1 -1</clus>
<clus scale="  134.040">  2  5  1 -1</clus>
<clus scale="   58.629">  1  5  2 -1</clus>
</clustering>
</event>
<event>
10    4  0.3403565E-005  0.2457752E+03  0.7546771E-02  0.1129271E+00
         21   -1    0    0  501  502  0.00000000000E+00  0.00000000000E+00  0.29278831006E+03  0.29278831006E+03  0.00000000000E+00 0.  1.
          2   -1    0    0  503    0 -0.00000000000E+00 -0.00000000000E+00 -0.98572900722E+03  0.98572900722E+03  0.00000000000E+00 0. -1.
         24    2    1    2    0    0  0.16832631493E+03  0.16948842933E+03 -0.74946978479E+03  0.79109996742E+03  0.84107812796E+02 0.  0.
         23    2    1    2    0    0 -0.15548946727E+03  0.54529866810E+02 -0.31394121760E+02  0.19161045491E+03  0.92620163812E+02 0.  0.
        -13    1    3    3    0    0  0.11647137160E+03  0.15390468730E+03 -0.50314573979E+03  0.53889504418E+03  0.00000000000E+00 0.  1.
         14    1    3    3    0    0  0.51854943334E+02  0.15583742033E+02 -0.24632404500E+03  0.25220492324E+03  0.00000000000E+00 0. -1.
        -11    1    4    4    0    0 -0.12422412771E+03  0.77265539385E+02 -0.40698744205E+02  0.15184856029E+03  0.00000000000E+00 0. -1.
         11    1    4    4    0    0 -0.31265339557E+02 -0.22735672575E+02  0.93046224453E+01  0.39761894622E+02  0.00000000000E+00 0.  1.
         21    1    1    2  503  502 -0.50322594695E+02 -0.17828934040E+03  0.12728983794E+03  0.22477133999E+03  0.00000000000E+00 0.  1.
          1    1    1    2  501    0  0.37485747037E+02 -0.45728955742E+02 -0.39366628557E+02  0.71035554957E+02  0.00000000000E+00 0. -1.
<scales pt_clust_5="13000.00000" pt_clust_6="13000.00000" pt_clust_7="13000.00000" pt_clust_8="13000.00000" pt_clust_9="230.93576" pt_clust_10="59.12971"></scales>
<clustering>
<clus scale="   59.130">  1 10  2 -1</clus>
<clus scale="   84.108">  5  6 -1 -1</clus>
<clus scale="   92.620">  7  8 -1 -1</clus>
<clus scale="  176.655">  1  7  2 -1</clus>
<clus scale="  230.936">  1  9  2 -1</clus>
<clus scale="   59.130">  1  5  2 -1</clus>
</clustering>
</event>
<event>
10    4  0.3403565E-005  0.1262581E+03  0.7546771E-02  0.1248276E+00
         21   -1    0    0  501  502  0.00000000000E+00  0.00000000000E+00  0.79038474191E+02  0.79038474191E+02  0.00000000000E+00 0.  1.
         -1   -1    0    0    0  501 -0.00000000000E+00 -0.00000000000E+00 -0.61040212506E+03  0.61040212506E+03  0.00000000000E+00 0.  1.
         24    2    1    2    0    0 -0.21115798389E+02 -0.43067824516E+02 -0.19291032193E+03  0.21420964811E+03  0.79816455611E+02 0.  0.
         23    2    1    2    0    0 -0.47340506322E+02 -0.52298148418E+02 -0.37506808004E+02  0.12222500038E+03  0.92498487579E+02 0.  0.
        -11    1    3    3    0    0 -0.94176780284E+01 -0.38779482665E+02 -0.19707330968E+03  0.20107319643E+03  0.00000000000E+00 0.  1.
         12    1    3    3    0    0 -0.11698120361E+02 -0.42883418511E+01  0.41629877464E+01  0.13136451682E+02  0.00000000000E+00 0. -1.
        -13    1    4    4    0    0 -0.11229094059E+02  0.24682843145E+02 -0.23834253119E+02  0.36102727333E+02  0.00000000000E+00 0. -1.
         13    1    4    4    0    0 -0.36111412263E+02 -0.76980991564E+02 -0.13672554885E+02  0.86122273047E+02  0.00000000000E+00 0.  1.
         21    1    1    2  503  502 -0.24566712218E+02  0.17592891380E+02 -0.18573701969E+01  0.30273470240E+02  0.00000000000E+00 0.  1.
         -2    1    1    2    0  503  0.93023016930E+02  0.77773081554E+02 -0.29908915074E+03  0.32273248052E+03  0.00000000000E+00 0.  1.
<scales pt_clust_5="13000.00000" pt_clust_6="13000.00000" pt_clust_7="13000.00000" pt_clust_8="13000.00000" pt_clust_9="30.21644" pt_clust_10="85.93686"></scales>
<clustering>
<clus scale="   30.216">  1  9  2 -1</clus>
<clus scale="   79.816">  5  6 -1 -1</clus>
<clus scale="   92.498">  7  8 -1 -1</clus>
<clus scale="   92.831">  2  5  1 -1</clus>
<clus scale="   85.937">  1 10  2 -1</clus>
<clus scale="   30.216">  1  5  2 -1</clus>
</clustering>
</event>
<event>
10    4  0.3403565E-005  0.1144437E+03  0.7546771E-02  0.1256369E+00
          4   -1    0    0  503    0 -0.00000000000E+00  0.00000000000E+00  0.17768264825E+03  0.17768264825E+03  0.00000000000E+00 0. -1.
         21   -1    0    0  501  502  0.00000000000E+00 -0.00000000000E+00 -0.52775701962E+03  0.52775701962E+03  0.00000000000E+00 0.  1.
         24    2    1    2    0    0  0.19226298239E+02 -0.55360014955E+02  0.47175033934E+02  0.11037761308E+03  0.80767269619E+02 0.  0.
         23    2    1    2    0    0 -0.28786933958E+02  0.84007109435E+02  0.37584541231E+01  0.12752373181E+03  0.91445580516E+02 0.  0.
        -13    1    3    3    0    0  0.46417033996E+02 -0.54354609600E+02  0.26604992167E+02  0.76267884709E+02  0.00000000000E+00 0.  1.
         14    1    3    3    0    0 -0.27190735757E+02 -0.10054053549E+01  0.20570041767E+02  0.34109728366E+02  0.00000000000E+00 0. -1.
        -13    1    4    4    0    0 -0.51523672632E+01  0.47592789031E+02  0.46403301906E+02  0.66669984880E+02  0.00000000000E+00 0. -1.
         13    1    4    4    0    0 -0.23634566694E+02  0.36414320404E+02 -0.42644847783E+02  0.60853746933E+02  0.00000000000E+00 0.  1.
         21    1    1    2  503  502  0.10011163379E+03 -0.66940142498E+02 -0.31381204617E+03  0.33612694361E+03  0.00000000000E+00 0.  1.
          3    1    1    2  501    0 -0.90550998072E+02  0.38293048017E+02 -0.87195813264E+02  0.13141137937E+03  0.00000000000E+00 0. -1.
<scales pt_clust_5="13000.00000" pt_clust_6="13000.00000" pt_clust_7="13000.00000" pt_clust_8="13000.00000" pt_clust_9="47.65949" pt_clust_10="98.31501"></scales>
<clustering>
<clus scale="   80.767">  5  6 -1 -1</clus>
<clus scale="   91.446">  7  8 -1 -1</clus>
<clus scale="   98.315">  2 10  1 -1</clus>
<clus scale="   47.659">  2  9  1 -1</clus>
<clus scale="  106.106">  1  5  2 -1</clus>
<clus scale="   98.315">  2  5  1 -1</clus>
</clustering>
</event>
<event>
10    4  0.3403565E-005  0.3962726E+03  0.7546771E-02  0.1045078E+00
          4   -1    0    0  503    0 -0.00000000000E+00  0.00000000000E+00  0.28320768697E+03  0.28320768697E+03  0.00000000000E+00 0. -1.
         21   -1    0    0  501  502  0.00000000000E+00 -0.00000000000E+00 -0.62150234712E+03  0.62150234712E+03  0.00000000000E+00 0. -1.
         24    2    1    2    0    0  0.19841194315E+03  0.55741319837E+02 -0.79984538035E+02  0.23389583444E+03  0.76389404511E+02 0.  0.
         23    2    1    2    0    0  0.89509546923E+02  0.10432196436E+03  0.30634496886E+02  0.16485114801E+03  0.85687790029E+02 0.  0.
        -13    1    3    3    0    0  0.78472720589E+02  0.49973037162E+02 -0.63623297865E+02  0.11270845732E+03  0.00000000000E+00 0.  1.
         14    1    3    3    0    0  0.11993922256E+03  0.57682826744E+01 -0.16361240170E+02  0.12118737712E+03  0.00000000000E+00 0. -1.
        -11    1    4    4    0    0 -0.16225962254E+02  0.24657902239E+02  0.75296804782E+01  0.30462929636E+02  0.00000000000E+00 0.  1.
         11    1    4    4    0    0  0.10573550918E+03  0.79664062125E+02  0.23104816408E+02  0.13438821837E+03  0.00000000000E+00 0. -1.
         21    1    1    2  503  502 -0.24472134859E+02  0.43660879038E+02 -0.12524257642E+03  0.13487349885E+03  0.00000000000E+00 0. -1.
          3    1    1    2  501    0 -0.26344935521E+03 -0.20372416324E+03 -0.16370204258E+03  0.37108955280E+03  0.00000000000E+00 0. -1.
<scales pt_clust_5="13000.00000" pt_clust_6="13000.00000" pt_clust_7="13000.00000" pt_clust_8="13000.00000" pt_clust_9="50.05155" pt_clust_10="330.13216"></scales>
<clustering>
<clus scale="   50.052">  2  9  1 -1</clus>
<clus scale="   76.389">  5  6 -1 -1</clus>
<clus scale="   85.688">  7  8 -1 -1</clus>
<clus scale="  148.068">  5  7 -1 -1</clus>
<clus scale="  330.132">  2 10  1 -1</clus>
<clus scale="   50.052">  2  5  1 -1</clus>
</clustering>
</event>
<event>
10    4  0.3403565E-005  0.1287359E+03  0.7546771E-02  0.1231796E+00
         21   -1    0    0  503  502  0.00000000000E+00  0.00000000000E+00  0.17005632127E+03  0.17005632127E+03  0.00000000000E+00 0.  1.
          2   -1    0    0  502    0 -0.00000000000E+00 -0.00000000000E+00 -0.45132874763E+03  0.45132874763E+03  0.00000000000E+00 0. -1.
         23    2    1    2    0    0 -0.37114277454E+02 -0.61660424874E+02 -0.17920856758E+03  0.21344753338E+03  0.90910182184E+02 0.  0.
         24    2    1    2    0    0  0.71475263750E+02  0.89006071671E+02 -0.22444944529E+03  0.26472245656E+03  0.81667811223E+02 0.  0.
        -13    1    4    4    0    0  0.77768328075E+02  0.76957630331E+02 -0.13277298810E+03  0.17204376212E+03  0.00000000000E+00 0.  1.
         14    1    4    4    0    0 -0.62930643251E+01  0.12048441340E+02 -0.91676457198E+02  0.92678694432E+02  0.00000000000E+00 0. -1.
        -11    1    3    3    0    0 -0.96363682089E+01 -0.17532520190E+02  0.61558590186E+01  0.20931876570E+02  0.00000000000E+00 0.  1.
         11    1    3    3    0    0 -0.27477909245E+02 -0.44127904683E+02 -0.18536442660E+03  0.19251565681E+03  0.00000000000E+00 0. -1.
         21    1    1    2  503  501 -0.38259583129E+01 -0.20844567698E+02  0.10572521484E+03  0.10782835904E+03  0.00000000000E+00 0.  1.
          1    1    1    2  501    0 -0.30535027984E+02 -0.65010791001E+01  0.16660371673E+02  0.35386719934E+02  0.00000000000E+00 0. -1.
<scales pt_clust_5="13000.00000" pt_clust_6="13000.00000" pt_clust_7="13000.00000" pt_clust_8="13000.00000" pt_clust_9="21.19278" pt_clust_10="35.47053"></scales>
<clustering>
<clus scale="   21.193">  1  9  2 -1</clus>
<clus scale="   35.471">  1 10  2 -1</clus>
<clus scale="   81.668">  5  6 -1 -1</clus>
<clus scale="   90.910">  7  8 -1 -1</clus>
<clus scale="  122.384">  1  5  2 -1</clus>
<clus scale="   21.193">  1  5  2 -1</clus>
</clustering>
</event>
<event>
10    4  0.3403565E-005  0.3051508E+03  0.7546771E-02  0.1112305E+00
         21   -1    0    0  503  502  0.00000000000E+00  0.00000000000E+00  0.21928096605E+03  0.21928096605E+03  0.00000000000E+00 0. -1.
          2   -1    0    0  502    0 -0.00000000000E+00 -0.00000000000E+00 -0.12427370813E+04  0.12427370813E+04  0.00000000000E+00 0. -1.
         23    2    1    2    0    0 -0.10221856869E+03 -0.45304407252E+02 -0.48588750358E+02  0.15192614455E+03  0.90661798103E+02 0.  0.
         24    2    1    2    0    0 -0.22522269671E+03  0.20313016664E+02 -0.76872507326E+03  0.80535812684E+03  0.80781139209E+02 0.  0.
        -13    1    4    4    0    0 -0.11357242327E+03  0.47757753942E+02 -0.34620552282E+03  0.36747484597E+03  0.00000000000E+00 0.  1.
         14    1    4    4    0    0 -0.11165027344E+03 -0.27444737277E+02 -0.42251955044E+03  0.43788328087E+03  0.00000000000E+00 0. -1.
        -13    1    3    3    0    0 -0.80171598673E+02 -0.55089261606E+02 -0.69863858399E+02  0.11976339461E+03  0.00000000000E+00 0.  1.
         13    1    3    3    0    0 -0.22046970016E+02  0.97848543540E+01  0.21275108041E+02  0.32162749941E+02  0.00000000000E+00 0. -1.
         21    1    1    2  503  501  0.30997253034E+01  0.20580974185E+02  0.73544578172E+02  0.76432910280E+02  0.00000000000E+00 0. -1.
          1    1    1    2  501    0  0.32434154010E+03  0.44104164023E+01 -0.27968686984E+03  0.42830086571E+03  0.00000000000E+00 0. -1.
<scales pt_clust_5="13000.00000" pt_clust_6="13000.00000" pt_clust_7="13000.00000" pt_clust_8="13000.00000" pt_clust_9="20.81309" pt_clust_10="294.26415"></scales>
<clustering>
<clus scale="   20.813">  1  9  2 -1</clus>
<clus scale="   80.781">  5  6 -1 -1</clus>
<clus scale="   90.662">  7  8 -1 -1</clus>
<clus scale="  141.002">  2  7  1 -1</clus>
<clus scale="  294.264">  1 10  2 -1</clus>
<clus scale="   20.813">  1  5  2 -1</clus>
</clustering>
</event>
<event>
10    4  0.3403565E-005  0.1480664E+03  0.7546771E-02  0.1227988E+00
         -1   -1    0    0    0  501 -0.00000000000E+00  0.00000000000E+00  0.43347658804E+03  0.43347658804E+03  0.00000000000E+00 0.  1.
         21   -1    0    0  501  502  0.00000000000E+00 -0.00000000000E+00 -0.18432408434E+03  0.18432408434E+03  0.00000000000E+00 0.  1.
         23    2    1    2    0    0  0.43526858242E+02 -0.37999633236E+00  0.18451670813E+03  0.20443265540E+03  0.76495511154E+02 0.  0.
         24    2    1    2    0    0  0.83105639865E+02 -0.55927504645E+02  0.17926155189E+03  0.22029524559E+03  0.79754987872E+02 0.  0.
        -13    1    4    4    0    0  0.97763809380E+01 -0.17976117659E+02 -0.25425448997E+01  0.20619965201E+02  0.00000000000E+00 0.  1.
         14    1    4    4    0    0  0.73329258927E+02 -0.37951386985E+02  0.18180409679E+03  0.19967528039E+03  0.00000000000E+00 0. -1.
        -11    1    3    3    0    0  0.63088057605E+02 -0.48927745817E+01  0.16374159235E+03  0.17554301843E+03  0.00000000000E+00 0.  1.
         11    1    3    3    0    0 -0.19561199364E+02  0.45127782493E+01  0.20775115784E+02  0.28889636964E+02  0.00000000000E+00 0. -1.
         21    1    1    2  503  502 -0.24831641095E+02  0.22650305300E+01 -0.61103896991E+02  0.65995658874E+02  0.00000000000E+00 0.  1.
         -2    1    1    2    0  503 -0.10180085701E+03  0.54042470447E+02 -0.53521859331E+02  0.12707711252E+03  0.00000000000E+00 0.  1.
<scales pt_clust_5="13000.00000" pt_clust_6="13000.00000" pt_clust_7="13000.00000" pt_clust_8="13000.00000" pt_clust_9="24.93473" pt_clust_10="124.75094"></scales>
<clustering>
<clus scale="   24.935">  2  9  1 -1</clus>
<clus scale="   76.496">  7  8 -1 -1</clus>
<clus scale="   79.755">  5  6 -1 -1</clus>
<clus scale="   87.018">  1  7  2 -1</clus>
<clus scale="  124.751">  2 10  1 -1</clus>
<clus scale="   24.935">  2  5  1 -1</clus>
</clustering>
</event>
<event>
10    4  0.3403565E-005  0.1445874E+03  0.7546771E-02  0.1213486E+00
         21   -1    0    0  503  502  0.00000000000E+00  0.00000000000E+00  0.86174449164E+02  0.86174449164E+02  0.00000000000E+00 0.  1.
         -1   -1    0    0    0  501 -0.00000000000E+00 -0.00000000000E+00 -0.72126537164E+03  0.72126537164E+03  0.00000000000E+00 0.  1.
         23    2    1    2    0    0  0.72738082114E+02  0.48143013951E+02 -0.36325275168E+03  0.38444299040E+03  0.90748404299E+02 0.  0.
         24    2    1    2    0    0  0.43341827455E+02 -0.85754345503E+02 -0.99034559096E+02  0.15975393903E+03  0.80505623168E+02 0.  0.
        -13    1    4    4    0    0  0.36256423817E+02 -0.92292367012E+02 -0.10798024169E+03  0.14660198454E+03  0.00000000000E+00 0.  1.
         14    1    4    4    0    0  0.70854036382E+01  0.65380215091E+01  0.89456825904E+01  0.13151954493E+02  0.00000000000E+00 0. -1.
        -11    1    3    3    0    0  0.27632404799E+01  0.54754943328E+02 -0.13850258138E+03  0.14895873377E+03  0.00000000000E+00 0. -1.
         11    1    3    3    0    0  0.69974841634E+02 -0.66119293769E+01 -0.22475017029E+03  0.23548425663E+03  0.00000000000E+00 0.  1.
         21    1    1    2  503  501  0.27363875162E+02 -0.28753014145E+02 -0.25413327185E+02  0.47131249558E+02  0.00000000000E+00 0.  1.
         -2    1    1    2    0  502 -0.14344378473E+03  0.66364345697E+02 -0.14739028452E+03  0.21611164182E+03  0.00000000000E+00 0.  1.
<scales pt_clust_5="13000.00000" pt_clust_6="13000.00000" pt_clust_7="13000.00000" pt_clust_8="13000.00000" pt_clust_9="39.69279" pt_clust_10="120.10151"></scales>
<clustering>
<clus scale="   39.693">  1  9  2 -1</clus>
<clus scale="   80.506">  5  6 -1 -1</clus>
<clus scale="   90.748">  7  8 -1 -1</clus>
<clus scale="  126.671">  2  7  1 -1</clus>
<clus scale="  120.102">  1 10  2 -1</clus>
<clus scale="   39.693">  1  5  2 -1</clus>
</clustering>
</event>
<event>
10    4  0.3403565E-005  0.1442871E+03  0.7546771E-02  0.1209908E+00
         21   -1    0    0  501  502  0.00000000000E+00  0.00000000000E+00  0.11258599896E+03  0.11258599896E+03  0.00000000000E+00 0. -1.
          2   -1    0    0  503    0 -0.00000000000E+00 -0.00000000000E+00 -0.25308943289E+03  0.25308943289E+03  0.00000000000E+00 0. -1.
         23    2    1    2    0    0  0.99965018895E+02 -0.19621828828E+02 -0.85479506141E+02  0.16113526343E+03  0.90993439226E+02 0.  0.
         24    2    1    2    0    0 -0.12313248865E+03  0.36577127984E+02 -0.34164940032E+02  0.15507562780E+03  0.79885612960E+02 0.  0.
        -13    1    4    4    0    0 -0.92435404432E+02 -0.12480650990E+02 -0.18064818995E+02  0.95007411958E+02  0.00000000000E+00 0.  1.
         14    1    4    4    0    0 -0.30697084220E+02  0.49057778974E+02 -0.16100121036E+02  0.60068215846E+02  0.00000000000E+00 0. -1.
        -13    1    3    3    0    0  0.71333376784E+02 -0.44383424335E+02 -0.21377854224E+02  0.86691127864E+02  0.00000000000E+00 0. -1.
         13    1    3    3    0    0  0.28631642111E+02  0.24761595508E+02 -0.64101651917E+02  0.74444135568E+02  0.00000000000E+00 0.  1.
         21    1    1    2  503  502  0.22013506230E+02  0.37188321268E+01 -0.38220708184E+01  0.22650218416E+02  0.00000000000E+00 0. -1.
          1    1    1    2  501    0  0.11539635273E+01 -0.20674131283E+02 -0.17036916942E+02  0.26814322200E+02  0.00000000000E+00 0. -1.
<scales pt_clust_5="13000.00000" pt_clust_6="13000.00000" pt_clust_7="13000.00000" pt_clust_8="13000.00000" pt_clust_9="22.19685" pt_clust_10="20.70632"></scales>
<clustering>
<clus scale="   20.706">  1 10  2 -1</clus>
<clus scale="   22.197">  1  9  2 -1</clus>
<clus scale="   79.886">  5  6 -1 -1</clus>
<clus scale="   90.993">  7  8 -1 -1</clus>
<clus scale="  137.552">  1  5  2 -1</clus>
<clus scale="   20.706">  1  5  2 -1</clus>
</clustering>
</event>
<event>
10    4  0.3403565E-005  0.1589501E+03  0.7546771E-02  0.1193488E+00
         21   -1    0    0  501  502  0.00000000000E+00  0.00000000000E+00  0.21219481382E+03  0.21219481382E+03  0.00000000000E+00 0.  1.
          2   -1    0    0  503    0 -0.00000000000E+00 -0.00000000000E+00 -0.19560468553E+04  0.19560468553E+04  0.00000000000E+00 0. -1.
         24    2    1    2    0    0 -0.98677455246E+02  0.15662946240E+02 -0.65323488804E+03  0.66939922459E+03  0.10675642780E+03 0.  0.
         23    2    1    2    0    0 -0.11051853474E+03 -0.17335110367E+02 -0.11576033645E+02  0.14478258824E+03  0.91176426391E+02 0.  0.
        -13    1    3    3    0    0 -0.15859772562E+02 -0.40756922800E+02 -0.14819206775E+03  0.15451067305E+03  0.00000000000E+00 0.  1.
         14    1    3    3    0    0 -0.82817682684E+02  0.56419869040E+02 -0.50504282028E+03  0.51488855154E+03  0.00000000000E+00 0. -1.
        -13    1    4    4    0    0 -0.93783114223E+02  0.62434642353E+01 -0.41878815198E+02  0.10289843790E+03  0.00000000000E+00 0. -1.
         13    1    4    4    0    0 -0.16735420521E+02 -0.23578574603E+02  0.30302781553E+02  0.41884150345E+02  0.00000000000E+00 0.  1.
         21    1    1    2  503  502 -0.11935131007E+02 -0.16370476168E+02  0.12658157751E+03  0.12819257235E+03  0.00000000000E+00 0.  1.
          1    1    1    2  501    0  0.22113112100E+03  0.18042640296E+02 -0.12056226973E+04  0.12258672839E+04  0.00000000000E+00 0. -1.
<scales pt_clust_5="13000.00000" pt_clust_6="13000.00000" pt_clust_7="13000.00000" pt_clust_8="13000.00000" pt_clust_9="20.25931" pt_clust_10="130.19986"></scales>
<clustering>
<clus scale="   20.259">  1  9  2 -1</clus>
<clus scale="   91.176">  7  8 -1 -1</clus>
<clus scale="  106.756">  5  6 -1 -1</clus>
<clus scale="  146.829">  2  5  1 -1</clus>
<clus scale="  130.200">  1 10  2 -1</clus>
<clus scale="   20.259">  1  5  2 -1</clus>
</clustering>
</event>
<event>
10    4  0.3403565E-005  0.1042274E+03  0.7546771E-02  0.1278149E+00
         21   -1    0    0  503  502  0.00000000000E+00  0.00000000000E+00  0.44452005220E+02  0.44452005220E+02  0.00000000000E+00 0.  1.
          2   -1    0    0  502    0 -0.00000000000E+00 -0.00000000000E+00 -0.10434643745E+04  0.10434643745E+04  0.00000000000E+00 0. -1.
         24    2    1    2    0    0 -0.89333000922E+01 -0.57728616954E+02 -0.46168850883E+03  0.47194315286E+03  0.78496262834E+02 0.  0.
         23    2    1    2    0    0 -0.85355536202E+01  0.24704855674E+01 -0.70974998904E+02  0.11694523282E+03  0.92519068494E+02 0.  0.
        -11    1    3    3    0    0  0.29674523760E+02 -0.54774046056E+01 -0.99540258526E+02  0.10401366443E+03  0.00000000000E+00 0.  1.
         12    1    3    3    0    0 -0.38607823852E+02 -0.52251212348E+02 -0.36214825030E+03  0.36792948842E+03  0.00000000000E+00 0. -1.
        -13    1    4    4    0    0 -0.35632257025E+01  0.43460875170E+02 -0.60087296686E+02  0.74243029781E+02  0.00000000000E+00 0.  1.
         13    1    4    4    0    0 -0.49723279177E+01 -0.40990389603E+02 -0.10887702217E+02  0.42702203038E+02  0.00000000000E+00 0. -1.
         21    1    1    2  503  501  0.29962194201E+02 -0.63611710200E+01 -0.22749194648E+01  0.30714375082E+02  0.00000000000E+00 0.  1.
          1    1    1    2  501    0 -0.12493340489E+02  0.61619302406E+02 -0.46407394211E+03  0.46831361898E+03  0.00000000000E+00 0. -1.
<scales pt_clust_5="13000.00000" pt_clust_6="13000.00000" pt_clust_7="13000.00000" pt_clust_8="13000.00000" pt_clust_9="30.63001" pt_clust_10="62.04978"></scales>
<clustering>
<clus scale="   30.630">  1  9  2 -1</clus>
<clus scale="   62.050">  1 10  2 -1</clus>
<clus scale="   78.496">  5  6 -1 -1</clus>
<clus scale="   92.007">  2  5  1 -1</clus>
<clus scale="   92.519">  7  8 -1 -1</clus>
<clus scale="   30.630">  1  5  2 -1</clus>
</clustering>
</event>
<event>
10    4  0.3403565E-005  0.1351245E+03  0.7546771E-02  0.1222668E+00
         21   -1    0    0  501  502  0.00000000000E+00  0.00000000000E+00  0.21911269701E+02  0.21911269701E+02  0.00000000000E+00 0. -1.
          2   -1    0    0  503    0 -0.00000000000E+00 -0.00000000000E+00 -0.15402513192E+04  0.15402513192E+04  0.00000000000E+00 0. -1.
         24    2    1    2    0    0  0.51186332030E+01  0.10567008667E+03 -0.94931615707E+03  0.95836866462E+03  0.77954881967E+02 0.  0.
         23    2    1    2    0    0 -0.12107702142E+02 -0.89141994172E+02 -0.32216311075E+03  0.34620794811E+03  0.89319548980E+02 0.  0.
        -11    1    3    3    0    0  0.32685926930E+02  0.31476812002E+02 -0.21113429110E+03  0.21595566302E+03  0.00000000000E+00 0.  1.
         12    1    3    3    0    0 -0.27567293727E+02  0.74193274667E+02 -0.73818186597E+03  0.74241300160E+03  0.00000000000E+00 0. -1.
        -11    1    4    4    0    0 -0.24496674139E+02  0.10038106847E+02 -0.78394930627E+02  0.82744279446E+02  0.00000000000E+00 0.  1.
         11    1    4    4    0    0  0.12388971997E+02 -0.99180101020E+02 -0.24376818012E+03  0.26346366866E+03  0.00000000000E+00 0. -1.
         21    1    1    2  503  502 -0.28932398028E+02 -0.81378440920E+01 -0.59859770038E+02  0.66981342410E+02  0.00000000000E+00 0.  1.
          1    1    1    2  501    0  0.35921466967E+02 -0.83902484044E+01 -0.18700101161E+03  0.19060463373E+03  0.00000000000E+00 0. -1.
<scales pt_clust_5="13000.00000" pt_clust_6="13000.00000" pt_clust_7="13000.00000" pt_clust_8="13000.00000" pt_clust_9="30.05509" pt_clust_10="34.33326"></scales>
<clustering>
<clus scale="   30.055">  1  9  2 -1</clus>
<clus scale="   34.333">  1 10  2 -1</clus>
<clus scale="   77.955">  5  6 -1 -1</clus>
<clus scale="   89.320">  7  8 -1 -1</clus>
<clus scale="  127.897">  2  5  1 -1</clus>
<clus scale="   30.055">  1  5  2 -1</clus>
</clustering>
</event>
<event>
10    4  0.3403565E-005  0.4578514E+03  0.7546771E-02  0.1025406E+00
          2   -1    0    0  502    0 -0.00000000000E+00  0.00000000000E+00  0.19491574259E+04  0.19491574259E+04  0.00000000000E+00 0. -1.
         21   -1    0    0  503  502  0.00000000000E+00 -0.00000000000E+00 -0.16257798647E+03  0.16257798647E+03  0.00000000000E+00 0. -1.
         24    2    1    2    0    0  0.32392148904E+02 -0.54460909416E+02  0.27187591269E+03  0.29044780907E+03  0.80175906148E+02 0.  0.
         23    2    1    2    0    0  0.35569134567E+02 -0.41748287589E+03  0.82656943778E+03  0.93119596023E+03  0.91387996375E+02 0.  0.
        -11    1    3    3    0    0  0.42043171693E+02 -0.19112843609E+02  0.23092042627E+03  0.23549346561E+03  0.00000000000E+00 0.  1.
         12    1    3    3    0    0 -0.96510227888E+01 -0.35348065806E+02  0.40955486429E+02  0.54954343466E+02  0.00000000000E+00 0. -1.
        -11    1    4    4    0    0  0.50853287833E+02 -0.19533744840E+03  0.32752477902E+03  0.38472750942E+03  0.00000000000E+00 0.  1.
         11    1    4    4    0    0 -0.15284153266E+02 -0.22214542749E+03  0.49904465876E+03  0.54646845082E+03  0.00000000000E+00 0. -1.
         21    1    1    2  503  501 -0.17357496423E+03  0.16569300069E+03  0.31408867776E+03  0.39526464069E+03  0.00000000000E+00 0. -1.
          1    1    1    2  501    0  0.10561368076E+03  0.30625078462E+03  0.37404541124E+03  0.49482700241E+03  0.00000000000E+00 0. -1.
<scales pt_clust_5="13000.00000" pt_clust_6="13000.00000" pt_clust_7="13000.00000" pt_clust_8="13000.00000" pt_clust_9="239.96341" pt_clust_10="388.77534"></scales>
<clustering>
<clus scale="   80.176">  5  6 -1 -1</clus>
<clus scale="   91.388">  7  8 -1 -1</clus>
<clus scale="  101.758">  5  7 -1 -1</clus>
<clus scale="  239.963">  2  9  1 -1</clus>
<clus scale="  388.775">  2 10  1 -1</clus>
<clus scale="  239.963">  2  5  1 -1</clus>
</clustering>
</event>
<event>
10    4  0.3403565E-005  0.5226579E+03  0.7546771E-02  0.1008028E+00
         21   -1    0    0  501  502  0.00000000000E+00  0.00000000000E+00  0.96347068932E+03  0.96347068932E+03  0.00000000000E+00 0. -1.
          2   -1    0    0  503    0 -0.00000000000E+00 -0.00000000000E+00 -0.31121754451E+03  0.31121754451E+03  0.00000000000E+00 0. -1.
         24    2    1    2    0    0  0.28915967890E+03 -0.60126636824E+02  0.24277979797E+03  0.39119555857E+03  0.82845653970E+02 0.  0.
         23    2    1    2    0    0  0.10146682000E+03 -0.11140757904E+03  0.46995403423E+01  0.17667274636E+03  0.92108682542E+02 0.  0.
        -13    1    3    3    0    0  0.31682784931E+02  0.22767886215E+01  0.64403365937E+02  0.71810696776E+02  0.00000000000E+00 0.  1.
         14    1    3    3    0    0  0.25747689397E+03 -0.62403425445E+02  0.17837643203E+03  0.31938486179E+03  0.00000000000E+00 0. -1.
        -11    1    4    4    0    0  0.55051449714E+02 -0.49530350553E+02  0.47784198827E+02  0.88131988512E+02  0.00000000000E+00 0. -1.
         11    1    4    4    0    0  0.46415370281E+02 -0.61877228485E+02 -0.43084658485E+02  0.88540757847E+02  0.00000000000E+00 0.  1.
         21    1    1    2  503  502  0.29558306004E+02  0.48387598492E+01  0.21413992134E+03  0.21622445043E+03  0.00000000000E+00 0. -1.
          1    1    1    2  501    0 -0.42018480490E+03  0.16669545601E+03  0.19063388517E+03  0.49059547847E+03  0.00000000000E+00 0. -1.
<scales pt_clust_5="13000.00000" pt_clust_6="13000.00000" pt_clust_7="13000.00000" pt_clust_8="13000.00000" pt_clust_9="29.95175" pt_clust_10="440.40449"></scales>
<clustering>
<clus scale="   29.952">  1  9  2 -1</clus>
<clus scale="   82.846">  5  6 -1 -1</clus>
<clus scale="   92.109">  7  8 -1 -1</clus>
<clus scale="  175.661">  5  7 -1 -1</clus>
<clus scale="  440.404">  1 10  2 -1</clus>
<clus scale="   29.952">  1  5  2 -1</clus>
</clustering>
</event>
<event>
10    4  0.3403565E-005  0.2879384E+03  0.7546771E-02  0.1115634E+00
         -3   -1    0    0    0  501 -0.00000000000E+00  0.00000000000E+00  0.33909219994E+03  0.33909219994E+03  0.00000000000E+00 0.  1.
         21   -1    0    0  503  502  0.00000000000E+00 -0.00000000000E+00 -0.81895012350E+03  0.81895012350E+03  0.00000000000E+00 0.  1.
         24    2    1    2    0    0 -0.53459543122E+02  0.12038968518E+03  0.82039896612E+02  0.17542184223E+03  0.81796571125E+02 0.  0.
         23    2    1    2    0    0  0.15255893146E+03  0.18004619521E+03  0.48648715679E+02  0.25844652991E+03  0.93472195376E+02 0.  0.
        -11    1    3    3    0    0 -0.97719465826E+01  0.96617251153E+02  0.79703167024E+02  0.12563032673E+03  0.00000000000E+00 0.  1.
         12    1    3    3    0    0 -0.43687596540E+02  0.23772434025E+02  0.23367295878E+01  0.49791515503E+02  0.00000000000E+00 0. -1.
        -11    1    4    4    0    0  0.34261394126E+02  0.11100143713E+03  0.12878824063E+02  0.11688039306E+03  0.00000000000E+00 0.  1.
         11    1    4    4    0    0  0.11829753733E+03  0.69044758083E+02  0.35769891616E+02  0.14156613685E+03  0.00000000000E+00 0. -1.
         21    1    1    2  503  501 -0.47342151867E+02 -0.32875137878E+02 -0.32262023116E+03  0.32772834420E+03  0.00000000000E+00 0.  1.
         -4    1    1    2    0  502 -0.51757236469E+02 -0.26756074251E+03 -0.28792630469E+03  0.39644560710E+03  0.00000000000E+00 0.  1.
<scales pt_clust_5="13000.00000" pt_clust_6="13000.00000" pt_clust_7="13000.00000" pt_clust_8="13000.00000" pt_clust_9="57.63726" pt_clust_10="272.34445"></scales>
<clustering>
<clus scale="   57.637">  2  9  1 -1</clus>
<clus scale="   81.797">  5  6 -1 -1</clus>
<clus scale="   93.472">  7  8 -1 -1</clus>
<clus scale="  154.279">  1  5  2 -1</clus>
<clus scale="  272.344">  2 10  1 -1</clus>
<clus scale="   57.637">  2  5  1 -1</clus>
</clustering>
</event>
<event>
10    4  0.3403565E-005  0.2671883E+03  0.7546771E-02  0.1103461E+00
         -1   -1    0    0    0  501 -0.00000000000E+00  0.00000000000E+00  0.11551757639E+04  0.11551757639E+04  0.00000000000E+00 0.  1.
         21   -1    0    0  503  502  0.00000000000E+00 -0.00000000000E+00 -0.12604632514E+03  0.12604632514E+03  0.00000000000E+00 0.  1.
         23    2    1    2    0    0 -0.85303860197E+02  0.26076420184E+03  0.66635410692E+03  0.72649150103E+03  0.92127019578E+02 0.  0.
         24    2    1    2    0    0  0.71466472571E+02 -0.20678613046E+03  0.29124427467E+03  0.37301568151E+03  0.80308845522E+02 0.  0.
        -11    1    4    4    0    0 -0.67595346785E+01 -0.64480709012E+02  0.48519660557E+02  0.80979075102E+02  0.00000000000E+00 0.  1.
         12    1    4    4    0    0  0.78226007250E+02 -0.14230542145E+03  0.24272461412E+03  0.29203660641E+03  0.00000000000E+00 0. -1.
        -11    1    3    3    0    0 -0.31943422334E+02  0.10877652827E+03  0.39480392061E+03  0.41075887217E+03  0.00000000000E+00 0. -1.
         11    1    3    3    0    0 -0.53360437862E+02  0.15198767357E+03  0.27155018631E+03  0.31573262886E+03  0.00000000000E+00 0.  1.
         21    1    1    2  503  501 -0.22534275068E+01 -0.23792475232E+02 -0.50023386796E+02  0.55439147177E+02  0.00000000000E+00 0.  1.
         -2    1    1    2    0  502  0.16090815132E+02 -0.30185596142E+02  0.12155444395E+03  0.12627575931E+03  0.00000000000E+00 0.  1.
<scales pt_clust_5="13000.00000" pt_clust_6="13000.00000" pt_clust_7="13000.00000" pt_clust_8="13000.00000" pt_clust_9="23.89895" pt_clust_10="34.85101"></scales>
<clustering>
<clus scale="   23.899">  2  9  1 -1</clus>
<clus scale="   34.851">  2 10  1 -1</clus>
<clus scale="   80.309">  5  6 -1 -1</clus>
<clus scale="   92.127">  7  8 -1 -1</clus>
<clus scale="  263.347">  2  5  1 -1</clus>
<clus scale="   23.899">  2  5  1 -1</clus>
</clustering>
</event>
<event>
10    4  0.3403565E-005  0.1658428E+03  0.7546771E-02  0.1206905E+00
          2   -1    0    0  503    0 -0.00000000000E+00  0.00000000000E+00  0.36900837187E+03  0.36900837187E+03  0.00000000000E+00 0. -1.
         21   -1    0    0  501  502  0.00000000000E+00 -0.00000000000E+00 -0.22490706204E+03  0.22490706204E+03  0.00000000000E+00 0. -1.
         24    2    1    2    0    0  0.16555662192E+02  0.46081756432E+02  0.93836197968E+02  0.13353442444E+03  0.81416166916E+02 0.  0.
         23    2    1    2    0    0 -0.10331734741E+03  0.48877634794E+02 -0.11072304205E+03  0.18385585857E+03  0.92086303170E+02 0.  0.
        -11    1    3    3    0    0  0.32496648580E+02 -0.22506289630E+01  0.76772671228E+01  0.33466967746E+02  0.00000000000E+00 0.  1.
         12    1    3    3    0    0 -0.15940986388E+02  0.48332385395E+02  0.86158930845E+02  0.10006745670E+03  0.00000000000E+00 0. -1.
        -11    1    4    4    0    0 -0.61732828114E+02  0.66301198227E+02 -0.10456569488E+03  0.13835019154E+03  0.00000000000E+00 0.  1.
         11    1    4    4    0    0 -0.41584519298E+02 -0.17423563433E+02 -0.61573471698E+01  0.45505667033E+02  0.00000000000E+00 0. -1.
         21    1    1    2  503  502 -0.10440504814E+02  0.35590119254E+02 -0.12020339650E+02  0.38989091995E+02  0.00000000000E+00 0.  1.
          1    1    1    2  501    0  0.97202190033E+02 -0.13054951048E+03  0.17300849356E+03  0.23753605890E+03  0.00000000000E+00 0. -1.
<scales pt_clust_5="13000.00000" pt_clust_6="13000.00000" pt_clust_7="13000.00000" pt_clust_8="13000.00000" pt_clust_9="37.08990" pt_clust_10="137.92738"></scales>
<clustering>
<clus scale="   37.090">  2  9  1 -1</clus>
<clus scale="   81.416">  5  6 -1 -1</clus>
<clus scale="   92.086">  7  8 -1 -1</clus>
<clus scale="   96.602">  1  5  2 -1</clus>
<clus scale="  137.927">  2 10  1 -1</clus>
<clus scale="   37.090">  2  5  1 -1</clus>
</clustering>
</event>
<event>
10    4  0.3403565E-005  0.1309245E+03  0.7546771E-02  0.1241158E+00
          2   -1    0    0  503    0 -0.00000000000E+00  0.00000000000E+00  0.22156260073E+03  0.22156260073E+03  0.00000000000E+00 0. -1.
         21   -1    0    0  501  502  0.00000000000E+00 -0.00000000000E+00 -0.29985478684E+03  0.29985478684E+03  0.00000000000E+00 0.  1.
         23    2    1    2    0    0 -0.35088846381E+02  0.46540458108E+02  0.26947707425E+01  0.10176286236E+03  0.83373718786E+02 0.  0.
         24    2    1    2    0    0  0.88968340291E+02  0.60209226248E+02 -0.11882795410E+03  0.17876245292E+03  0.79343653802E+02 0.  0.
        -13    1    4    4    0    0  0.94799829020E+02  0.51074561944E+02 -0.12601613026E+03  0.16575790644E+03  0.00000000000E+00 0.  1.
         14    1    4    4    0    0 -0.58314887289E+01  0.91346643036E+01  0.71881761608E+01  0.13004546484E+02  0.00000000000E+00 0. -1.
        -13    1    3    3    0    0 -0.54698264233E+02  0.54959464887E+02  0.12034412871E+02  0.78468273741E+02  0.00000000000E+00 0.  1.
         13    1    3    3    0    0  0.19609417852E+02 -0.84190067789E+01 -0.93396421283E+01  0.23294588615E+02  0.00000000000E+00 0. -1.
         21    1    1    2  503  502 -0.86365793940E+02 -0.53848224260E+02 -0.65002446450E+02  0.12076423172E+03  0.00000000000E+00 0. -1.
          1    1    1    2  501    0  0.32486300029E+02 -0.52901460096E+02  0.10284344369E+03  0.12012784057E+03  0.00000000000E+00 0. -1.
<scales pt_clust_5="13000.00000" pt_clust_6="13000.00000" pt_clust_7="13000.00000" pt_clust_8="13000.00000" pt_clust_9="104.14317" pt_clust_10="62.08001"></scales>
<clustering>
<clus scale="   62.080">  2 10  1 -1</clus>
<clus scale="   79.344">  5  6 -1 -1</clus>
<clus scale="   83.374">  7  8 -1 -1</clus>
<clus scale="   96.097">  1  7  2 -1</clus>
<clus scale="  104.143">  1  9  2 -1</clus>
<clus scale="   62.080">  2  5  1 -1</clus>
</clustering>
</event>
<event>
10    4  0.3403565E-005  0.5123747E+03  0.7546771E-02  0.1037036E+00
         -1   -1    0    0    0  501 -0.00000000000E+00  0.00000000000E+00  0.64794917114E+03  0.64794917114E+03  0.00000000000E+00 0.  1.
         21   -1    0    0  501  502  0.00000000000E+00 -0.00000000000E+00 -0.10228858989E+04  0.10228858989E+04  0.00000000000E+00 0.  1.
         23    2    1    2    0    0 -0.12178612393E+03  0.17442492210E+03  0.31121117649E+03  0.38789563278E+03  0.91404114384E+02 0.  0.
         24    2    1    2    0    0 -0.42516631560E+03  0.45760771106E+02 -0.42577110198E+03  0.60904933029E+03  0.82459755910E+02 0.  0.
        -13    1    4    4    0    0 -0.21938822432E+03  0.59994237724E+01 -0.26983058582E+03  0.34781565678E+03  0.00000000000E+00 0.  1.
         14    1    4    4    0    0 -0.20577809128E+03  0.39761347333E+02 -0.15594051616E+03  0.26123367351E+03  0.00000000000E+00 0. -1.
        -11    1    3    3    0    0 -0.11629239128E+03  0.13245371175E+03  0.29274746060E+03  0.34171476660E+03  0.00000000000E+00 0.  1.
         11    1    3    3    0    0 -0.54937326510E+01  0.41971210350E+02  0.18463715893E+02  0.46180866181E+02  0.00000000000E+00 0. -1.
         21    1    1    2  503  502  0.13771520516E+03  0.25799336608E+02 -0.28048513532E+02  0.14289087659E+03  0.00000000000E+00 0. -1.
         -2    1    1    2    0  503  0.40923723437E+03 -0.24598502982E+03 -0.23232828870E+03  0.53099923034E+03  0.00000000000E+00 0.  1.
<scales pt_clust_5="13000.00000" pt_clust_6="13000.00000" pt_clust_7="13000.00000" pt_clust_8="13000.00000" pt_clust_9="106.55572" pt_clust_10="106.55572"></scales>
<clustering>
<clus scale="   82.460">  5  6 -1 -1</clus>
<clus scale="   91.404">  7  8 -1 -1</clus>
<clus scale="  106.556">  9 10 -1 -1</clus>
<clus scale="  231.540">  1  7  2 -1</clus>
<clus scale="  480.244">  1  5  2 -1</clus>
<clus scale="  512.375">  2  5  1 -1</clus>
</clustering>
</event>
<event>
10    4  0.3403565E-005  0.1253612E+03  0.7546771E-02  0.1254272E+00
          2   -1    0    0  502    0 -0.00000000000E+00  0.00000000000E+00  0.35291156596E+03  0.35291156596E+03  0.00000000000E+00 0. -1.
         21   -1    0    0  503  502  0.00000000000E+00 -0.00000000000E+00 -0.92497947228E+02  0.92497947228E+02  0.00000000000E+00 0. -1.
         24    2    1    2    0    0  0.18877529784E+02  0.11074574345E+02  0.53965089089E+01  0.83816032944E+02  0.80727924180E+02 0.  0.
         23    2    1    2    0    0 -0.28311703104E+02 -0.79069163372E+02  0.13320929539E+03  0.18002727807E+03  0.87244594923E+02 0.  0.
        -13    1    3    3    0    0  0.30421831424E+02  0.19862507727E+02  0.35251185535E+02  0.50622654238E+02  0.00000000000E+00 0.  1.
         14    1    3    3    0    0 -0.11544301641E+02 -0.87879333822E+01 -0.29854676626E+02  0.33193378707E+02  0.00000000000E+00 0. -1.
        -11    1    4    4    0    0 -0.48412096269E+02 -0.22585835969E+02  0.94829621052E+02  0.10884166519E+03  0.00000000000E+00 0.  1.
         11    1    4    4    0    0  0.20100393165E+02 -0.56483327402E+02  0.38379674336E+02  0.71185612886E+02  0.00000000000E+00 0. -1.
         21    1    1    2  503  501  0.96034058732E+01 -0.28869201610E+02  0.67513078052E+01  0.31164665297E+02  0.00000000000E+00 0. -1.
          1    1    1    2  501    0 -0.16923255238E+00  0.96863790637E+02  0.11505650663E+03  0.15040153687E+03  0.00000000000E+00 0. -1.
<scales pt_clust_5="13000.00000" pt_clust_6="13000.00000" pt_clust_7="13000.00000" pt_clust_8="13000.00000" pt_clust_9="30.42460" pt_clust_10="90.02121"></scales>
<clustering>
<clus scale="   30.425">  2  9  1 -1</clus>
<clus scale="   80.728">  5  6 -1 -1</clus>
<clus scale="   84.152">  1  5  2 -1</clus>
<clus scale="   87.245">  7  8 -1 -1</clus>
<clus scale="   90.021">  2 10  1 -1</clus>
<clus scale="   30.425">  2  5  1 -1</clus>
</clustering>
</event>
<event>
10    4  0.3403565E-005  0.1003775E+03  0.7546771E-02  0.1284825E+00
          2   -1    0    0  503    0 -0.00000000000E+00  0.00000000000E+00  0.88057783807E+03  0.88057783807E+03  0.00000000000E+00 0. -1.
         21   -1    0    0  501  502  0.00000000000E+00 -0.00000000000E+00 -0.64317066492E+02  0.64317066492E+02  0.00000000000E+00 0. -1.
         24    2    1    2    0    0 -0.12598913687E+02  0.37788639594E+02  0.60609437790E+03  0.61282870876E+03  0.81375164839E+02 0.  0.
         23    2    1    2    0    0  0.62451642595E+02 -0.15454374136E+02  0.20492770568E+03  0.23366161023E+03  0.91996403187E+02 0.  0.
        -11    1    3    3    0    0 -0.13955277904E+02 -0.24186130256E+02  0.15503186922E+03  0.15752650301E+03  0.00000000000E+00 0.  1.
         12    1    3    3    0    0  0.13563642166E+01  0.61974769850E+02  0.45106250868E+03  0.45530220575E+03  0.00000000000E+00 0. -1.
        -13    1    4    4    0    0  0.38013673290E+02 -0.16266411420E+02  0.20508302301E+03  0.20920965996E+03  0.00000000000E+00 0.  1.
         13    1    4    4    0    0  0.24437969305E+02  0.81203728378E+00 -0.15531733069E+00  0.24451950265E+02  0.00000000000E+00 0. -1.
         21    1    1    2  503  502 -0.50159056935E+02  0.19969914748E+02  0.12661434741E+02  0.55453046961E+02  0.00000000000E+00 0. -1.
          1    1    1    2  501    0  0.30632802711E+00 -0.42304180207E+02 -0.74227467362E+01  0.42951538609E+02  0.00000000000E+00 0. -1.
<scales pt_clust_5="13000.00000" pt_clust_6="13000.00000" pt_clust_7="13000.00000" pt_clust_8="13000.00000" pt_clust_9="50.09143" pt_clust_10="42.30529"></scales>
<clustering>
<clus scale="   42.305">  2 10  1 -1</clus>
<clus scale="   50.091">  2  9  1 -1</clus>
<clus scale="   81.375">  5  6 -1 -1</clus>
<clus scale="   90.743">  1  5  2 -1</clus>
<clus scale="   91.996">  7  8 -1 -1</clus>
<clus scale="   42.305">  2  5  1 -1</clus>
</clustering>
</event>
<event>
10    4  0.3403565E-005  0.9837043E+02  0.7546771E-02  0.1290016E+00
         21   -1    0    0  501  502  0.00000000000E+00  0.00000000000E+00  0.81729800398E+02  0.81729800398E+02  0.00000000000E+00 0.  1.
          2   -1    0    0  503    0 -0.00000000000E+00 -0.00000000000E+00 -0.44944689411E+03  0.44944689411E+03  0.00000000000E+00 0. -1.
         24    2    1    2    0    0 -0.31630362833E+02 -0.20398174107E+02 -0.32476372085E+03  0.33648844382E+03  0.79601715312E+02 0.  0.
         23    2    1    2    0    0  0.34808171015E+02 -0.13870240957E+01 -0.60925566602E+02  0.11529259812E+03  0.91470901988E+02 0.  0.
        -11    1    3    3    0    0 -0.51496525156E+02 -0.99969883068E+01 -0.12628479729E+03  0.13674678023E+03  0.00000000000E+00 0.  1.
         12    1    3    3    0    0  0.19866162323E+02 -0.10401185800E+02 -0.19847892356E+03  0.19974166358E+03  0.00000000000E+00 0. -1.
        -13    1    4    4    0    0 -0.13284010425E+02 -0.32612577394E+02 -0.56813539643E+01  0.35669635828E+02  0.00000000000E+00 0. -1.
         13    1    4    4    0    0  0.48092181440E+02  0.31225553298E+02 -0.55244212637E+02  0.79622962293E+02  0.00000000000E+00 0.  1.
         21    1    1    2  503  502 -0.38323294887E+02  0.11014873481E+02  0.14674319898E+02  0.42489269625E+02  0.00000000000E+00 0.  1.
          1    1    1    2  501    0  0.35145486705E+02  0.10770324722E+02  0.32978738429E+01  0.36906382947E+02  0.00000000000E+00 0. -1.
<scales pt_clust_5="13000.00000" pt_clust_6="13000.00000" pt_clust_7="13000.00000" pt_clust_8="13000.00000" pt_clust_9="27.22777" pt_clust_10="36.75874"></scales>
<clustering>
<clus scale="   36.759">  1 10  2 -1</clus>
<clus scale="   27.228">  1  9  2 -1</clus>
<clus scale="   79.602">  5  6 -1 -1</clus>
<clus scale="   87.443">  2  5  1 -1</clus>
<clus scale="   91.471">  7  8 -1 -1</clus>
<clus scale="   36.759">  1  5  2 -1</clus>
</clustering>
</event>
<event>
10    4  0.3403565E-005  0.3962215E+03  0.7546771E-02  0.1096396E+00
         -3   -1    0    0    0  501 -0.00000000000E+00  0.00000000000E+00  0.60360062508E+03  0.60360062508E+03  0.00000000000E+00 0.  1.
         21   -1    0    0  503  502  0.00000000000E+00 -0.00000000000E+00 -0.51276145812E+03  0.51276145812E+03  0.00000000000E+00 0. -1.
         24    2    1    2    0    0 -0.53984476988E+02  0.21929818479E+01 -0.12565352626E+02  0.97814976970E+02  0.80565182976E+02 0.  0.
         23    2    1    2    0    0 -0.43413352229E+02  0.27335627660E+02 -0.14581351544E+03  0.17523282295E+03  0.82540930840E+02 0.  0.
        -11    1    3    3    0    0 -0.14501205307E+02 -0.22776369468E+02  0.25814083199E+02  0.37355252012E+02  0.00000000000E+00 0.  1.
         12    1    3    3    0    0 -0.39483271681E+02  0.24969351316E+02 -0.38379435825E+02  0.60459724958E+02  0.00000000000E+00 0. -1.
        -13    1    4    4    0    0  0.16848301465E+02  0.25330416200E+02 -0.81896325917E+02  0.87364200024E+02  0.00000000000E+00 0. -1.
         13    1    4    4    0    0 -0.60261653694E+02  0.20052114598E+01 -0.63917189518E+02  0.87868622926E+02  0.00000000000E+00 0.  1.
         21    1    1    2  503  501 -0.24274826647E+03 -0.28797097401E+03  0.88515907419E+02  0.38689671570E+03  0.00000000000E+00 0. -1.
         -4    1    1    2    0  502  0.34014609569E+03  0.25844236450E+03  0.16070212759E+03  0.45641756758E+03  0.00000000000E+00 0.  1.
<scales pt_clust_5="13000.00000" pt_clust_6="13000.00000" pt_clust_7="13000.00000" pt_clust_8="13000.00000" pt_clust_9="13000.00000" pt_clust_10="396.22146"></scales>
<clustering>
<clus scale="   80.565">  5  6 -1 -1</clus>
<clus scale="   82.541">  7  8 -1 -1</clus>
<clus scale="   97.005">  1  5  2 -1</clus>
<clus scale="   97.842">  1  7  2 -1</clus>
<clus scale="  396.221">  1 10  2 -1</clus>
<clus scale="  396.221">  2  5  1 -1</clus>
</clustering>
</event>
<event>
10    4  0.3403565E-005  0.9612796E+02  0.7546771E-02  0.1293220E+00
         21   -1    0    0  503  502  0.00000000000E+00  0.00000000000E+00  0.11677034072E+03  0.11677034072E+03  0.00000000000E+00 0.  1.
         -3   -1    0    0    0  501 -0.00000000000E+00 -0.00000000000E+00 -0.25497211401E+03  0.25497211401E+03  0.00000000000E+00 0.  1.
         23    2    1    2    0    0  0.16346547614E+02 -0.26284629712E+02 -0.18321646402E+03  0.20775519578E+03  0.92929313508E+02 0.  0.
         24    2    1    2    0    0  0.36431138232E+01 -0.11290920226E+02  0.43256196627E+02  0.95903414347E+02  0.84767972601E+02 0.  0.
        -13    1    4    4    0    0  0.41120244928E+02  0.45584466664E+00  0.38516299308E+02  0.56343479212E+02  0.00000000000E+00 0.  1.
         14    1    4    4    0    0 -0.37477131105E+02 -0.11746764892E+02  0.47398973192E+01  0.39559935135E+02  0.00000000000E+00 0. -1.
        -11    1    3    3    0    0  0.23221826245E+02  0.27285173463E+02 -0.11668178124E+03  0.12205888733E+03  0.00000000000E+00 0. -1.
         11    1    3    3    0    0 -0.68752786317E+01 -0.53569803175E+02 -0.66534682784E+02  0.85696308449E+02  0.00000000000E+00 0.  1.
         21    1    1    2  503  501  0.16575505168E+02  0.18095312100E+02 -0.74436853301E+01  0.25643637473E+02  0.00000000000E+00 0. -1.
         -4    1    1    2    0  502 -0.36565166604E+02  0.19480237838E+02  0.92021794350E+01  0.42440207132E+02  0.00000000000E+00 0.  1.
<scales pt_clust_5="13000.00000" pt_clust_6="13000.00000" pt_clust_7="13000.00000" pt_clust_8="13000.00000" pt_clust_9="24.53951" pt_clust_10="40.36702"></scales>
<clustering>
<clus scale="   24.540">  1  9  2 -1</clus>
<clus scale="   40.367">  1 10  2 -1</clus>
<clus scale="   84.768">  5  6 -1 -1</clus>
<clus scale="   88.263">  1  5  2 -1</clus>
<clus scale="   92.929">  7  8 -1 -1</clus>
<clus scale="   24.540">  1  5  2 -1</clus>
</clustering>
</event>
<event>
10    4  0.3403565E-005  0.2524585E+03  0.7546771E-02  0.1146627E+00
          2   -1    0    0  503    0 -0.00000000000E+00  0.00000000000E+00  0.90004767279E+03  0.90004767279E+03  0.00000000000E+00 0. -1.
         21   -1    0    0  501  502  0.00000000000E+00 -0.00000000000E+00 -0.17556822772E+03  0.17556822772E+03  0.00000000000E+00 0.  1.
         23    2    1    2    0    0 -0.12721061164E+01  0.64912144539E+02  0.20015751084E+03  0.22879193181E+03  0.89819341746E+02 0.  0.
         24    2    1    2    0    0 -0.21098847524E+03 -0.99863143687E+02  0.17932340792E+03  0.30507906142E+03  0.80172095775E+02 0.  0.
        -13    1    4    4    0    0 -0.18550038137E+03 -0.10158683442E+03  0.12659594384E+03  0.24648896408E+03  0.00000000000E+00 0.  1.
         14    1    4    4    0    0 -0.25488093869E+02  0.17236907347E+01  0.52727464075E+02  0.58590097342E+02  0.00000000000E+00 0. -1.
        -13    1    3    3    0    0 -0.37310833904E+02  0.63935523884E+02  0.14661535159E+03  0.16424344998E+03  0.00000000000E+00 0.  1.
         13    1    3    3    0    0  0.36038727788E+02  0.97662065462E+00  0.53542159256E+02  0.64548481827E+02  0.00000000000E+00 0. -1.
         21    1    1    2  503  502 -0.53347457262E+01 -0.50569001279E+02 -0.57197139450E+02  0.76532321038E+02  0.00000000000E+00 0.  1.
          1    1    1    2  501    0  0.21759532708E+03  0.85520000427E+02  0.40219566576E+03  0.46521258624E+03  0.00000000000E+00 0. -1.
<scales pt_clust_5="13000.00000" pt_clust_6="13000.00000" pt_clust_7="13000.00000" pt_clust_8="13000.00000" pt_clust_9="50.84962" pt_clust_10="239.39044"></scales>
<clustering>
<clus scale="   50.850">  2  9  1 -1</clus>
<clus scale="   80.172">  5  6 -1 -1</clus>
<clus scale="   89.819">  7  8 -1 -1</clus>
<clus scale="  107.073">  1  7  2 -1</clus>
<clus scale="  239.390">  2 10  1 -1</clus>
<clus scale="   50.850">  2  5  1 -1</clus>
</clustering>
</event>
<event>
10    4  0.3403565E-005  0.1405627E+03  0.7546771E-02  0.1214749E+00
         21   -1    0    0  503  502  0.00000000000E+00  0.00000000000E+00  0.49958336264E+02  0.49958336264E+02  0.00000000000E+00 0. -1.
          2   -1    0    0  502    0 -0.00000000000E+00 -0.00000000000E+00 -0.11920413678E+04  0.11920413678E+04  0.00000000000E+00 0. -1.
         24    2    1    2    0    0  0.61680833695E+02 -0.58692271511E+02 -0.27735373534E+03  0.30119068221E+03  0.80879073688E+02 0.  0.
         23    2    1    2    0    0 -0.35685577383E+02  0.14033379510E+03 -0.46656598284E+03  0.49692522608E+03  0.91015545317E+02 0.  0.
        -11    1    3    3    0    0 -0.16873068072E+02 -0.21849412933E+02 -0.10015792868E+03  0.10389277140E+03  0.00000000000E+00 0.  1.
         12    1    3    3    0    0  0.78553901766E+02 -0.36842858578E+02 -0.17719580666E+03  0.19729791081E+03  0.00000000000E+00 0. -1.
        -11    1    4    4    0    0 -0.21922766181E+02 -0.37381710209E+01 -0.10774355807E+03  0.11001479858E+03  0.00000000000E+00 0.  1.
         11    1    4    4    0    0 -0.13762811202E+02  0.14407196612E+03 -0.35882242476E+03  0.38691042750E+03  0.00000000000E+00 0. -1.
         21    1    1    2  503  501  0.17226004377E+02  0.28265454689E+02 -0.51371754399E+01  0.33497189839E+02  0.00000000000E+00 0. -1.
          1    1    1    2  501    0 -0.43221260689E+02 -0.10990697828E+03 -0.39302613789E+03  0.41038660591E+03  0.00000000000E+00 0. -1.
<scales pt_clust_5="13000.00000" pt_clust_6="13000.00000" pt_clust_7="13000.00000" pt_clust_8="13000.00000" pt_clust_9="33.10092" pt_clust_10="110.19747"></scales>
<clustering>
<clus scale="   33.101">  1  9  2 -1</clus>
<clus scale="   80.879">  5  6 -1 -1</clus>
<clus scale="   91.016">  7  8 -1 -1</clus>
<clus scale="  110.197">  1 10  2 -1</clus>
<clus scale="  134.222">  2  5  1 -1</clus>
<clus scale="   33.101">  1  5  2 -1</clus>
</clustering>
</event>
<event>
10    4  0.3403565E-005  0.1773173E+03  0.7546771E-02  0.1198952E+00
          2   -1    0    0  503    0 -0.00000000000E+00  0.00000000000E+00  0.15331093283E+04  0.15331093283E+04  0.00000000000E+00 0. -1.
         21   -1    0    0  501  502  0.00000000000E+00 -0.00000000000E+00 -0.41857594230E+02  0.41857594230E+02  0.00000000000E+00 0.  1.
         23    2    1    2    0    0 -0.15822981149E+02  0.15801006770E+02  0.53454323875E+03  0.54285756686E+03  0.91966435523E+02 0.  0.
         24    2    1    2    0    0  0.14945789846E+03  0.23638838362E+02  0.27796477994E+03  0.32679747678E+03  0.81459891081E+02 0.  0.
        -11    1    4    4    0    0  0.82819579035E+02  0.50100860856E+02  0.12709760387E+03  0.15975913069E+03  0.00000000000E+00 0.  1.
         12    1    4    4    0    0  0.66638319428E+02 -0.26462022494E+02  0.15086717606E+03  0.16703834609E+03  0.00000000000E+00 0. -1.
        -13    1    3    3    0    0 -0.48610843988E+02 -0.13590496082E+02  0.30005978170E+03  0.30427551385E+03  0.00000000000E+00 0.  1.
         13    1    3    3    0    0  0.32787862839E+02  0.29391502852E+02  0.23448345705E+03  0.23858205301E+03  0.00000000000E+00 0. -1.
         21    1    1    2  503  502  0.20393064313E+02 -0.26848914938E+02  0.77342699712E+02  0.84372000712E+02  0.00000000000E+00 0.  1.
          1    1    1    2  501    0 -0.15402798163E+03 -0.12590930194E+02  0.60140101564E+03  0.62093987814E+03  0.00000000000E+00 0. -1.
<scales pt_clust_5="13000.00000" pt_clust_6="13000.00000" pt_clust_7="13000.00000" pt_clust_8="13000.00000" pt_clust_9="33.71559" pt_clust_10="157.49839"></scales>
<clustering>
<clus scale="   33.716">  2  9  1 -1</clus>
<clus scale="   81.460">  5  6 -1 -1</clus>
<clus scale="   91.966">  7  8 -1 -1</clus>
<clus scale="   93.858">  1  7  2 -1</clus>
<clus scale="  157.498">  2 10  1 -1</clus>
<clus scale="   33.716">  2  5  1 -1</clus>
</clustering>
</event>
<event>
10    4  0.3403565E-005  0.2077044E+03  0.7546771E-02  0.1160674E+00
         21   -1    0    0  503  502  0.00000000000E+00  0.00000000000E+00  0.17640665283E+03  0.17640665283E+03  0.00000000000E+00 0.  1.
          2   -1    0    0  502    0 -0.00000000000E+00 -0.00000000000E+00 -0.64954553709E+03  0.64954553709E+03  0.00000000000E+00 0. -1.
         24    2    1    2    0    0  0.11147086689E+02 -0.93807062769E+02  0.26886981107E+02  0.12738978935E+03  0.81124756457E+02 0.  0.
         23    2    1    2    0    0 -0.17413491927E+03  0.14449607125E+03 -0.37146345226E+03  0.44677471349E+03  0.10208067172E+03 0.  0.
        -11    1    3    3    0    0  0.27161726423E+02 -0.82958728335E+01  0.28695079290E+02  0.40373115607E+02  0.00000000000E+00 0.  1.
         12    1    3    3    0    0 -0.16014639734E+02 -0.85511189935E+02 -0.18080981833E+01  0.87016673741E+02  0.00000000000E+00 0. -1.
        -11    1    4    4    0    0 -0.14331402927E+03  0.14181094278E+03 -0.36210848524E+03  0.41445362776E+03  0.00000000000E+00 0.  1.
         11    1    4    4    0    0 -0.30820889998E+02  0.26851284703E+01 -0.93549670144E+01  0.32321085734E+02  0.00000000000E+00 0. -1.
         21    1    1    2  503  501 -0.84903695450E+01 -0.36409468806E+02 -0.66907216413E+00  0.37392291335E+02  0.00000000000E+00 0. -1.
          1    1    1    2  501    0  0.17147820212E+03 -0.14279539675E+02 -0.12789334095E+03  0.21439539574E+03  0.00000000000E+00 0. -1.
<scales pt_clust_5="13000.00000" pt_clust_6="13000.00000" pt_clust_7="13000.00000" pt_clust_8="13000.00000" pt_clust_9="37.38630" pt_clust_10="180.88850"></scales>
<clustering>
<clus scale="   37.386">  1  9  2 -1</clus>
<clus scale="   81.125">  5  6 -1 -1</clus>
<clus scale="  102.081">  7  8 -1 -1</clus>
<clus scale="  138.130">  2  5  1 -1</clus>
<clus scale="  180.889">  1 10  2 -1</clus>
<clus scale="   37.386">  1  5  2 -1</clus>
</clustering>
</event>
<event>
10    4  0.3403565E-005  0.9652138E+02  0.7546771E-02  0.1293497E+00
          2   -1    0    0  503    0 -0.00000000000E+00  0.00000000000E+00  0.68970061036E+03  0.68970061036E+03  0.00000000000E+00 0. -1.
         21   -1    0    0  501  502  0.00000000000E+00 -0.00000000000E+00 -0.91601313293E+02  0.91601313293E+02  0.00000000000E+00 0.  1.
         23    2    1    2    0    0  0.14556429453E+02  0.12077903471E+02  0.39009025735E+03  0.40090165279E+03  0.90520500075E+02 0.  0.
         24    2    1    2    0    0 -0.40597252868E+02 -0.53521251493E+02  0.21097762753E+03  0.23542589548E+03  0.80007072437E+02 0.  0.
        -11    1    4    4    0    0 -0.18134570019E+02 -0.67213996726E+02  0.10321497348E+03  0.12449865355E+03  0.00000000000E+00 0.  1.
         12    1    4    4    0    0 -0.22462682849E+02  0.13692745233E+02  0.10776265405E+03  0.11092724192E+03  0.00000000000E+00 0. -1.
        -11    1    3    3    0    0 -0.33821670389E+02 -0.13810340650E+02  0.18667041940E+03  0.19021166203E+03  0.00000000000E+00 0.  1.
         11    1    3    3    0    0  0.48378099841E+02  0.25888244121E+02  0.20341983796E+03  0.21068999075E+03  0.00000000000E+00 0. -1.
         21    1    1    2  503  502 -0.40645620848E+02 -0.13053678449E+02  0.30617829873E+02  0.52534907645E+02  0.00000000000E+00 0.  1.
          1    1    1    2  501    0  0.66686444263E+02  0.54497026471E+02 -0.33586417696E+02  0.92439467741E+02  0.00000000000E+00 0. -1.
<scales pt_clust_5="13000.00000" pt_clust_6="13000.00000" pt_clust_7="13000.00000" pt_clust_8="13000.00000" pt_clust_9="42.69034" pt_clust_10="56.41012"></scales>
<clustering>
<clus scale="   42.690">  2  9  1 -1</clus>
<clus scale="   56.410">  2 10  1 -1</clus>
<clus scale="   80.007">  5  6 -1 -1</clus>
<clus scale="   86.738">  2  5  1 -1</clus>
<clus scale="   90.521">  7  8 -1 -1</clus>
<clus scale="   42.690">  2  5  1 -1</clus>
</clustering>
</event>
<event>
10    4  0.3403565E-005  0.2588191E+03  0.7546771E-02  0.1118025E+00
          2   -1    0    0  503    0 -0.00000000000E+00  0.00000000000E+00  0.11139450442E+04  0.11139450442E+04  0.00000000000E+00 0. -1.
         21   -1    0    0  501  502  0.00000000000E+00 -0.00000000000E+00 -0.31777192690E+03  0.31777192690E+03  0.00000000000E+00 0.  1.
         24    2    1    2    0    0  0.14375225786E+03 -0.11788710834E+03  0.56637650224E+03  0.60144121605E+03  0.79919410159E+02 0.  0.
         23    2    1    2    0    0 -0.14884695657E+03 -0.19348129660E+03 -0.42383084572E+02  0.26409450269E+03  0.91428397558E+02 0.  0.
        -11    1    3    3    0    0  0.13156922237E+03 -0.69499718030E+02  0.36938591482E+03  0.39822936249E+03  0.00000000000E+00 0.  1.
         12    1    3    3    0    0  0.12183035488E+02 -0.48387390307E+02  0.19699058743E+03  0.20321185357E+03  0.00000000000E+00 0. -1.
        -13    1    4    4    0    0 -0.15946287367E+03 -0.16879880042E+03 -0.46761555842E+02  0.23687145503E+03  0.00000000000E+00 0.  1.
         13    1    4    4    0    0  0.10615917098E+02 -0.24682496177E+02  0.43784712697E+01  0.27223047662E+02  0.00000000000E+00 0. -1.
         21    1    1    2  503  502 -0.22073015397E+02  0.23502055057E+02 -0.94132814339E+02  0.99501514240E+02  0.00000000000E+00 0.  1.
          1    1    1    2  501    0  0.27167714112E+02  0.28786634988E+03  0.36631251399E+03  0.46667973814E+03  0.00000000000E+00 0. -1.
<scales pt_clust_5="13000.00000" pt_clust_6="13000.00000" pt_clust_7="13000.00000" pt_clust_8="13000.00000" pt_clust_9="32.24228" pt_clust_10="242.13269"></scales>
<clustering>
<clus scale="   32.242">  2  9  1 -1</clus>
<clus scale="   79.919">  5  6 -1 -1</clus>
<clus scale="   91.428">  7  8 -1 -1</clus>
<clus scale="  200.031">  1  5  2 -1</clus>
<clus scale="  242.133">  2 10  1 -1</clus>
<clus scale="   32.242">  2  5  1 -1</clus>
</clustering>
</event>
<event>
10    4  0.3403565E-005  0.1168841E+03  0.7546771E-02  0.1252243E+00
          2   -1    0    0  503    0 -0.00000000000E+00  0.00000000000E+00  0.46933623041E+03  0.46933623041E+03  0.00000000000E+00 0. -1.
         21   -1    0    0  501  502  0.00000000000E+00 -0.00000000000E+00 -0.89447870379E+02  0.89447870379E+02  0.00000000000E+00 0. -1.
         24    2    1    2    0    0  0.45912941924E+02  0.59806290703E+02  0.35778966285E+03  0.37423849091E+03  0.79725871551E+02 0.  0.
         23    2    1    2    0    0 -0.14413725472E+02 -0.64497429460E+02  0.34598022941E+02  0.11789266866E+03  0.91290658032E+02 0.  0.
        -13    1    3    3    0    0  0.47087582746E+02  0.30281857296E+01  0.22363681666E+03  0.22856035554E+03  0.00000000000E+00 0.  1.
         14    1    3    3    0    0 -0.11746408217E+01  0.56778104973E+02  0.13415284619E+03  0.14567813537E+03  0.00000000000E+00 0. -1.
        -11    1    4    4    0    0 -0.39229359735E+02 -0.49499434563E+02 -0.10749118633E+02  0.64067778474E+02  0.00000000000E+00 0. -1.
         11    1    4    4    0    0  0.24815634263E+02 -0.14997994897E+02  0.45347141574E+02  0.53824890187E+02  0.00000000000E+00 0.  1.
         21    1    1    2  503  502 -0.24066181756E+01 -0.23616172196E+02 -0.10653139609E+02  0.26019315589E+02  0.00000000000E+00 0. -1.
          1    1    1    2  501    0 -0.29092598277E+02  0.28307310952E+02 -0.18461861543E+01  0.40633625622E+02  0.00000000000E+00 0. -1.
<scales pt_clust_5="13000.00000" pt_clust_6="13000.00000" pt_clust_7="13000.00000" pt_clust_8="13000.00000" pt_clust_9="23.73848" pt_clust_10="36.61193"></scales>
<clustering>
<clus scale="   23.738">  2  9  1 -1</clus>
<clus scale="   36.612">  2 10  1 -1</clus>
<clus scale="   79.726">  5  6 -1 -1</clus>
<clus scale="   91.291">  7  8 -1 -1</clus>
<clus scale="  108.093">  1  5  2 -1</clus>
<clus scale="   23.738">  2  5  1 -1</clus>
</clustering>
</event>
<event>
10    4  0.3403565E-005  0.1960922E+03  0.7546771E-02  0.1154089E+00
          2   -1    0    0  502    0 -0.00000000000E+00  0.00000000000E+00  0.16828944086E+04  0.16828944086E+04  0.00000000000E+00 0. -1.
         21   -1    0    0  503  502  0.00000000000E+00 -0.00000000000E+00 -0.79919170839E+02  0.79919170839E+02  0.00000000000E+00 0.  1.
         23    2    1    2    0    0  0.25282984908E+02  0.99330128179E+02  0.29168304009E+03  0.32212374068E+03  0.90437850156E+02 0.  0.
         24    2    1    2    0    0 -0.68085762409E+02 -0.23494155870E+03  0.10868938459E+04  0.11169442637E+04  0.79956544211E+02 0.  0.
        -13    1    4    4    0    0 -0.25611175657E+02 -0.16935741385E+03  0.60589013380E+03  0.62963538670E+03  0.00000000000E+00 0.  1.
         14    1    4    4    0    0 -0.42474586752E+02 -0.65584144850E+02  0.48100371206E+03  0.48730887699E+03  0.00000000000E+00 0. -1.
        -13    1    3    3    0    0 -0.33125851506E+02  0.36709556481E+02  0.13148162069E+03  0.14047181267E+03  0.00000000000E+00 0.  1.
         13    1    3    3    0    0  0.58408836414E+02  0.62620571697E+02  0.16020141940E+03  0.18165192800E+03  0.00000000000E+00 0. -1.
         21    1    1    2  503  501 -0.19846840865E+02  0.37549486532E+02 -0.24469158595E+02  0.49016331498E+02  0.00000000000E+00 0.  1.
          1    1    1    2  501    0  0.62649618366E+02  0.98061943994E+02  0.24886751039E+03  0.27472924356E+03  0.00000000000E+00 0. -1.
<scales pt_clust_5="13000.00000" pt_clust_6="13000.00000" pt_clust_7="13000.00000" pt_clust_8="13000.00000" pt_clust_9="42.47189" pt_clust_10="123.14093"></scales>
<clustering>
<clus scale="   42.472">  2  9  1 -1</clus>
<clus scale="   79.957">  5  6 -1 -1</clus>
<clus scale="   90.438">  7  8 -1 -1</clus>
<clus scale="  123.141">  2 10  1 -1</clus>
<clus scale="  191.484">  2  5  1 -1</clus>
<clus scale="   42.472">  2  5  1 -1</clus>
</clustering>
</event>
<event>
10    4  0.3403565E-005  0.9205989E+02  0.7546771E-02  0.1303299E+00
         21   -1    0    0  501  502  0.00000000000E+00  0.00000000000E+00  0.81602929848E+03  0.81602929848E+03  0.00000000000E+00 0.  1.
          2   -1    0    0  503    0 -0.00000000000E+00 -0.00000000000E+00 -0.53866685254E+02  0.53866685254E+02  0.00000000000E+00 0. -1.
         24    2    1    2    0    0  0.28895867658E+01 -0.51819136764E+01  0.40800190426E+02  0.91648629466E+02  0.81851168612E+02 0.  0.
         23    2    1    2    0    0 -0.34882558072E+02  0.58605605134E+02  0.33271451447E+03  0.35152298844E+03  0.90653480109E+02 0.  0.
        -13    1    3    3    0    0 -0.25175661344E+02 -0.17706556982E+02  0.50742263997E+02  0.59347396234E+02  0.00000000000E+00 0.  1.
         14    1    3    3    0    0  0.28065248110E+02  0.12524643305E+02 -0.99420735713E+01  0.32301233231E+02  0.00000000000E+00 0. -1.
        -13    1    4    4    0    0  0.12219476840E+02  0.61742002334E+02  0.14709437272E+03  0.15999420287E+03  0.00000000000E+00 0. -1.
         13    1    4    4    0    0 -0.47102034912E+02 -0.31363972000E+01  0.18562014175E+03  0.19152878557E+03  0.00000000000E+00 0.  1.
         21    1    1    2  503  502 -0.30781577132E+02 -0.55492004893E+02  0.34365114504E+03  0.34946098149E+03  0.00000000000E+00 0.  1.
          1    1    1    2  501    0  0.62774548438E+02  0.20683134353E+01  0.44996763298E+02  0.77263384338E+02  0.00000000000E+00 0. -1.
<scales pt_clust_5="13000.00000" pt_clust_6="13000.00000" pt_clust_7="13000.00000" pt_clust_8="13000.00000" pt_clust_9="54.57782" pt_clust_10="62.80864"></scales>
<clustering>
<clus scale="   62.809">  1 10  2 -1</clus>
<clus scale="   54.578">  1  9  2 -1</clus>
<clus scale="   81.851">  5  6 -1 -1</clus>
<clus scale="   83.406">  2  5  1 -1</clus>
<clus scale="   90.653">  7  8 -1 -1</clus>
<clus scale="   62.809">  1  5  2 -1</clus>
</clustering>
</event>
<event>
10    4  0.3403565E-005  0.1696169E+03  0.7546771E-02  0.1179674E+00
         21   -1    0    0  503  502  0.00000000000E+00  0.00000000000E+00  0.38463076789E+03  0.38463076789E+03  0.00000000000E+00 0. -1.
          2   -1    0    0  502    0 -0.00000000000E+00 -0.00000000000E+00 -0.58189756150E+03  0.58189756150E+03  0.00000000000E+00 0. -1.
         23    2    1    2    0    0  0.11255159953E+03  0.98901616238E+02 -0.52798701481E+03  0.55619611938E+03  0.90191147901E+02 0.  0.
         24    2    1    2    0    0 -0.59364175614E+02 -0.66025306708E+02  0.98388673506E+02  0.15462488859E+03  0.79656001817E+02 0.  0.
        -13    1    4    4    0    0 -0.12909641381E+02 -0.70115189976E+02  0.70619462946E+02  0.10034892751E+03  0.00000000000E+00 0.  1.
         14    1    4    4    0    0 -0.46454534234E+02  0.40898832684E+01  0.27769210560E+02  0.54275961080E+02  0.00000000000E+00 0. -1.
        -11    1    3    3    0    0  0.41447537040E+02  0.89624199961E+02 -0.36523360167E+03  0.37834637482E+03  0.00000000000E+00 0. -1.
         11    1    3    3    0    0  0.71104062492E+02  0.92774162771E+01 -0.16275341313E+03  0.17784974457E+03  0.00000000000E+00 0.  1.
         21    1    1    2  503  501 -0.35113812232E+02  0.48820571669E+01  0.19917637929E+03  0.20230680750E+03  0.00000000000E+00 0. -1.
          1    1    1    2  501    0 -0.18073611686E+02 -0.37758366697E+02  0.33155168403E+02  0.53400513919E+02  0.00000000000E+00 0. -1.
<scales pt_clust_5="13000.00000" pt_clust_6="13000.00000" pt_clust_7="13000.00000" pt_clust_8="13000.00000" pt_clust_9="35.45158" pt_clust_10="45.09894"></scales>
<clustering>
<clus scale="   35.452">  1  9  2 -1</clus>
<clus scale="   45.099">  1 10  2 -1</clus>
<clus scale="   79.656">  5  6 -1 -1</clus>
<clus scale="   90.191">  7  8 -1 -1</clus>
<clus scale="  164.258">  1  5  2 -1</clus>
<clus scale="   35.452">  1  5  2 -1</clus>
</clustering>
</event>
<event>
10    4  0.3403565E-005  0.1762599E+03  0.7546771E-02  0.1190257E+00
          2   -1    0    0  502    0 -0.00000000000E+00  0.00000000000E+00  0.63807357202E+03  0.63807357202E+03  0.00000000000E+00 0. -1.
         21   -1    0    0  503  502  0.00000000000E+00 -0.00000000000E+00 -0.17382932588E+03  0.17382932588E+03  0.00000000000E+00 0.  1.
         24    2    1    2    0    0  0.94485198966E+01 -0.55405263006E+02 -0.15637035649E+01  0.10059647989E+03  0.83415759303E+02 0.  0.
         23    2    1    2    0    0 -0.65139513616E+02 -0.89671425384E+02  0.18800390417E+03  0.23617352647E+03  0.90268188510E+02 0.  0.
        -11    1    3    3    0    0 -0.32136604192E+01 -0.65495297422E+02 -0.26614209277E+02  0.70769186325E+02  0.00000000000E+00 0.  1.
         12    1    3    3    0    0  0.12662180316E+02  0.10090034416E+02  0.25050505712E+02  0.29827293563E+02  0.00000000000E+00 0. -1.
        -13    1    4    4    0    0 -0.42884407708E+02  0.45777621717E+01  0.37210741873E+02  0.56961984180E+02  0.00000000000E+00 0.  1.
         13    1    4    4    0    0 -0.22255105908E+02 -0.94249187555E+02  0.15079316229E+03  0.17921154229E+03  0.00000000000E+00 0. -1.
         21    1    1    2  503  501 -0.12862733726E+02 -0.50258303429E+02 -0.59766432422E+02  0.79141477286E+02  0.00000000000E+00 0.  1.
          1    1    1    2  501    0  0.68553727445E+02  0.19533499182E+03  0.33757047796E+03  0.39599141426E+03  0.00000000000E+00 0. -1.
<scales pt_clust_5="13000.00000" pt_clust_6="13000.00000" pt_clust_7="13000.00000" pt_clust_8="13000.00000" pt_clust_9="51.87819" pt_clust_10="151.39094"></scales>
<clustering>
<clus scale="   51.878">  2  9  1 -1</clus>
<clus scale="   83.416">  5  6 -1 -1</clus>
<clus scale="   90.268">  7  8 -1 -1</clus>
<clus scale="  115.621">  1  5  2 -1</clus>
<clus scale="  151.391">  2 10  1 -1</clus>
<clus scale="   51.878">  2  5  1 -1</clus>
</clustering>
</event>
<event>
10    4  0.3403565E-005  0.1056012E+03  0.7546771E-02  0.1272616E+00
         21   -1    0    0  501  502  0.00000000000E+00  0.00000000000E+00  0.13369967480E+03  0.13369967480E+03  0.00000000000E+00 0.  1.
          2   -1    0    0  503    0 -0.00000000000E+00 -0.00000000000E+00 -0.59670241297E+03  0.59670241297E+03  0.00000000000E+00 0. -1.
         23    2    1    2    0    0 -0.23109805211E+02 -0.77404120775E+02 -0.21311894476E+03  0.24526588243E+03  0.90610195130E+02 0.  0.
         24    2    1    2    0    0  0.33098691452E+02  0.11486802243E+02 -0.90468434665E+02  0.12706627663E+03  0.82059923128E+02 0.  0.
        -13    1    4    4    0    0  0.19788655458E+02  0.10070939971E+02  0.10957818485E+02  0.24760624037E+02  0.00000000000E+00 0.  1.
         14    1    4    4    0    0  0.13310035993E+02  0.14158622726E+01 -0.10142625315E+03  0.10230565259E+03  0.00000000000E+00 0. -1.
        -11    1    3    3    0    0 -0.52488550411E+02 -0.67671757455E+02 -0.18315370048E+03  0.20218751860E+03  0.00000000000E+00 0.  1.
         11    1    3    3    0    0  0.29378745200E+02 -0.97323633198E+01 -0.29965244281E+02  0.43078363829E+02  0.00000000000E+00 0. -1.
         21    1    1    2  503  502 -0.75213951727E+02  0.37114740502E+02  0.75329738179E+02  0.11273514071E+03  0.00000000000E+00 0.  1.
          1    1    1    2  501    0  0.65225065487E+02  0.28802578029E+02 -0.23474509693E+03  0.24533478799E+03  0.00000000000E+00 0. -1.
<scales pt_clust_5="13000.00000" pt_clust_6="13000.00000" pt_clust_7="13000.00000" pt_clust_8="13000.00000" pt_clust_9="64.35464" pt_clust_10="71.30149"></scales>
<clustering>
<clus scale="   71.301">  1 10  2 -1</clus>
<clus scale="   64.355">  1  9  2 -1</clus>
<clus scale="   82.060">  5  6 -1 -1</clus>
<clus scale="   90.610">  7  8 -1 -1</clus>
<clus scale="   98.363">  1  5  2 -1</clus>
<clus scale="   71.301">  1  5  2 -1</clus>
</clustering>
</event>
<event>
10    4  0.3403565E-005  0.2153404E+03  0.7546771E-02  0.1163052E+00
          2   -1    0    0  502    0 -0.00000000000E+00  0.00000000000E+00  0.77385186689E+03  0.77385186689E+03  0.00000000000E+00 0. -1.
         21   -1    0    0  503  502  0.00000000000E+00 -0.00000000000E+00 -0.62071793437E+03  0.62071793437E+03  0.00000000000E+00 0. -1.
         23    2    1    2    0    0 -0.55270725598E+02 -0.47803311274E+02  0.58434051250E+03  0.59599031192E+03  0.91709365309E+02 0.  0.
         24    2    1    2    0    0 -0.82309609468E+02  0.18507762524E+03  0.59935128025E+02  0.22545811707E+03  0.78807003553E+02 0.  0.
        -13    1    4    4    0    0 -0.43480200053E+01  0.39967295630E+02 -0.17001000694E+02  0.43650017440E+02  0.00000000000E+00 0.  1.
         14    1    4    4    0    0 -0.77961589463E+02  0.14511032961E+03  0.76936128719E+02  0.18180809963E+03  0.00000000000E+00 0. -1.
        -13    1    3    3    0    0  0.24478438167E+02 -0.11991233979E+01  0.14337842649E+03  0.14545791492E+03  0.00000000000E+00 0.  1.
         13    1    3    3    0    0 -0.79749163765E+02 -0.46604187876E+02  0.44096208601E+03  0.45053239700E+03  0.00000000000E+00 0. -1.
         21    1    1    2  503  501 -0.22801075224E+02  0.20521927428E+02 -0.21381888380E+03  0.21600822578E+03  0.00000000000E+00 0. -1.
          1    1    1    2  501    0  0.16038141029E+03 -0.15779624139E+03 -0.27732282420E+03  0.35711314648E+03  0.00000000000E+00 0. -1.
<scales pt_clust_5="13000.00000" pt_clust_6="13000.00000" pt_clust_7="13000.00000" pt_clust_8="13000.00000" pt_clust_9="30.67635" pt_clust_10="200.40200"></scales>
<clustering>
<clus scale="   30.676">  2  9  1 -1</clus>
<clus scale="   78.807">  5  6 -1 -1</clus>
<clus scale="   91.709">  7  8 -1 -1</clus>
<clus scale="  117.298">  1  7  2 -1</clus>
<clus scale="  200.402">  2 10  1 -1</clus>
<clus scale="   30.676">  2  5  1 -1</clus>
</clustering>
</event>
<event>
10    4  0.3403565E-005  0.1444081E+03  0.7546771E-02  0.1209371E+00
         21   -1    0    0  503  502  0.00000000000E+00  0.00000000000E+00  0.30183288557E+03  0.30183288557E+03  0.00000000000E+00 0. -1.
          2   -1    0    0  502    0 -0.00000000000E+00 -0.00000000000E+00 -0.10030626538E+04  0.10030626538E+04  0.00000000000E+00 0. -1.
         23    2    1    2    0    0  0.19138503759E+02  0.13313152809E+03 -0.69244234847E+03  0.71114572763E+03  0.90341318762E+02 0.  0.
         24    2    1    2    0    0 -0.56999190620E+02 -0.70131561461E+02 -0.26282966851E+03  0.28951158762E+03  0.81056653478E+02 0.  0.
        -13    1    4    4    0    0 -0.64592069672E+02 -0.16795049603E+02 -0.16158529777E+03  0.17482567778E+03  0.00000000000E+00 0.  1.
         14    1    4    4    0    0  0.75928790517E+01 -0.53336511858E+02 -0.10124437074E+03  0.11468590984E+03  0.00000000000E+00 0. -1.
        -13    1    3    3    0    0  0.49178272091E+02  0.50359220377E+02 -0.23540696145E+03  0.24570508953E+03  0.00000000000E+00 0.  1.
         13    1    3    3    0    0 -0.30039768332E+02  0.82772307711E+02 -0.45703538702E+03  0.46544063810E+03  0.00000000000E+00 0. -1.
         21    1    1    2  503  501  0.21342013018E+02  0.14933731175E+02  0.21306655828E+03  0.21465287350E+03  0.00000000000E+00 0. -1.
          1    1    1    2  501    0  0.16518673843E+02 -0.77933697802E+02  0.40975690452E+02  0.89585350625E+02  0.00000000000E+00 0. -1.
<scales pt_clust_5="13000.00000" pt_clust_6="13000.00000" pt_clust_7="13000.00000" pt_clust_8="13000.00000" pt_clust_9="26.04799" pt_clust_10="74.27035"></scales>
<clustering>
<clus scale="   26.048">  1  9  2 -1</clus>
<clus scale="   74.270">  1 10  2 -1</clus>
<clus scale="   81.057">  5  6 -1 -1</clus>
<clus scale="   90.341">  7  8 -1 -1</clus>
<clus scale="  138.789">  1  5  2 -1</clus>
<clus scale="   26.048">  1  5  2 -1</clus>
</clustering>
</event>
<event>
10    4  0.3403565E-005  0.3116694E+03  0.7546771E-02  0.1079548E+00
         21   -1    0    0  501  502  0.00000000000E+00  0.00000000000E+00  0.44720523611E+02  0.44720523611E+02  0.00000000000E+00 0. -1.
          2   -1    0    0  503    0 -0.00000000000E+00 -0.00000000000E+00 -0.30197444929E+04  0.30197444929E+04  0.00000000000E+00 0. -1.
         24    2    1    2    0    0 -0.74895123722E+01 -0.72420197625E+02 -0.38906217187E+03  0.40939648660E+03  0.10457213702E+03 0.  0.
         23    2    1    2    0    0  0.80970965482E+01 -0.12880533589E+03 -0.72184905485E+03  0.73896239686E+03  0.91339960955E+02 0.  0.
        -13    1    3    3    0    0 -0.74300666272E+01  0.25301743496E+02 -0.49932902755E+02  0.56468388427E+02  0.00000000000E+00 0.  1.
         14    1    3    3    0    0 -0.59445745036E-01 -0.97721941121E+02 -0.33912926912E+03  0.35292809818E+03  0.00000000000E+00 0. -1.
        -13    1    4    4    0    0 -0.36673982723E+02 -0.93546112619E+02 -0.42772879700E+03  0.43937202913E+03  0.00000000000E+00 0.  1.
         13    1    4    4    0    0  0.44771079271E+02 -0.35259223269E+02 -0.29412025785E+03  0.29959036774E+03  0.00000000000E+00 0. -1.
         21    1    1    2  503  502  0.14950634612E+03 -0.15276546401E+02 -0.37723278419E+03  0.40606661260E+03  0.00000000000E+00 0. -1.
          1    1    1    2  501    0 -0.15011393030E+03  0.21650207991E+03 -0.14868799584E+04  0.15100395205E+04  0.00000000000E+00 0. -1.
<scales pt_clust_5="13000.00000" pt_clust_6="13000.00000" pt_clust_7="13000.00000" pt_clust_8="13000.00000" pt_clust_9="150.28480" pt_clust_10="230.27282"></scales>
<clustering>
<clus scale="   91.340">  7  8 -1 -1</clus>
<clus scale="  104.572">  5  6 -1 -1</clus>
<clus scale="  114.427">  5  7 -1 -1</clus>
<clus scale="  150.285">  1  9  2 -1</clus>
<clus scale="  230.273">  1 10  2 -1</clus>
<clus scale="  150.285">  1  5  2 -1</clus>
</clustering>
</event>
<event>
10    4  0.3403565E-005  0.1380830E+03  0.7546771E-02  0.1228688E+00
         21   -1    0    0  501  502  0.00000000000E+00  0.00000000000E+00  0.25333488972E+02  0.25333488972E+02  0.00000000000E+00 0.  1.
          2   -1    0    0  503    0 -0.00000000000E+00 -0.00000000000E+00 -0.12002828003E+04  0.12002828003E+04  0.00000000000E+00 0. -1.
         23    2    1    2    0    0 -0.86365791464E+02 -0.62592356020E+02 -0.63137591917E+03  0.65124366315E+03  0.11876828078E+03 0.  0.
         24    2    1    2    0    0  0.41191787074E+02  0.96492779545E+00 -0.19974167655E+03  0.21866781883E+03  0.78874477695E+02 0.  0.
        -11    1    4    4    0    0  0.51305870270E+02 -0.14065248837E+02 -0.71325492961E+02  0.88980051108E+02  0.00000000000E+00 0.  1.
         12    1    4    4    0    0 -0.10114083196E+02  0.15030176633E+02 -0.12841618359E+03  0.12968776772E+03  0.00000000000E+00 0. -1.
        -13    1    3    3    0    0  0.28460290754E+02 -0.13563823867E+02 -0.81841161757E+02  0.87703712724E+02  0.00000000000E+00 0.  1.
         13    1    3    3    0    0 -0.11482608222E+03 -0.49028532153E+02 -0.54953475741E+03  0.56353995043E+03  0.00000000000E+00 0. -1.
         21    1    1    2  503  502  0.22388939972E+02  0.52546900091E+01 -0.42733164090E+02  0.48528339280E+02  0.00000000000E+00 0. -1.
          1    1    1    2  501    0  0.22785064418E+02  0.56372738216E+02 -0.30109855148E+03  0.30717646797E+03  0.00000000000E+00 0. -1.
<scales pt_clust_5="13000.00000" pt_clust_6="13000.00000" pt_clust_7="13000.00000" pt_clust_8="13000.00000" pt_clust_9="22.99731" pt_clust_10="62.65137"></scales>
<clustering>
<clus scale="   22.997">  1  9  2 -1</clus>
<clus scale="   62.651">  1 10  2 -1</clus>
<clus scale="   78.874">  5  6 -1 -1</clus>
<clus scale="  105.746">  1  5  2 -1</clus>
<clus scale="  118.768">  7  8 -1 -1</clus>
<clus scale="   22.997">  1  5  2 -1</clus>
</clustering>
</event>
<event>
10    4  0.3403565E-005  0.1158170E+03  0.7546771E-02  0.1255724E+00
         -3   -1    0    0    0  501 -0.00000000000E+00  0.00000000000E+00  0.84191972343E+02  0.84191972343E+02  0.00000000000E+00 0.  1.
         21   -1    0    0  503  502  0.00000000000E+00 -0.00000000000E+00 -0.93539024967E+03  0.93539024967E+03  0.00000000000E+00 0. -1.
         23    2    1    2    0    0 -0.24272766044E+02  0.61560832342E+02 -0.26883850861E+03  0.29123482929E+03  0.90358612380E+02 0.  0.
         24    2    1    2    0    0  0.57388952566E+02  0.20142667466E+02 -0.12629751261E+03  0.16220300474E+03  0.81605968693E+02 0.  0.
        -13    1    4    4    0    0  0.10149953373E+02 -0.23620161414E+02 -0.70150518001E+01  0.26648537116E+02  0.00000000000E+00 0.  1.
         14    1    4    4    0    0  0.47238999193E+02  0.43762828880E+02 -0.11928246081E+03  0.13555446762E+03  0.00000000000E+00 0. -1.
        -13    1    3    3    0    0  0.18952324798E+02  0.10121577243E+02 -0.97833860763E+01  0.23608294819E+02  0.00000000000E+00 0.  1.
         13    1    3    3    0    0 -0.43225090842E+02  0.51439255100E+02 -0.25905512253E+03  0.26762653447E+03  0.00000000000E+00 0. -1.
         21    1    1    2  503  501  0.55255398875E+02 -0.19395394037E+02 -0.45424100497E+03  0.45800025219E+03  0.00000000000E+00 0. -1.
         -4    1    1    2    0  502 -0.88371585397E+02 -0.62308105771E+02 -0.18212511450E+01  0.10814413579E+03  0.00000000000E+00 0.  1.
<scales pt_clust_5="13000.00000" pt_clust_6="13000.00000" pt_clust_7="13000.00000" pt_clust_8="13000.00000" pt_clust_9="58.56057" pt_clust_10="82.18306"></scales>
<clustering>
<clus scale="   58.561">  2  9  1 -1</clus>
<clus scale="   81.606">  5  6 -1 -1</clus>
<clus scale="   90.359">  7  8 -1 -1</clus>
<clus scale="  103.691">  1  7  2 -1</clus>
<clus scale="   82.183">  2 10  1 -1</clus>
<clus scale="   58.561">  2  5  1 -1</clus>
</clustering>
</event>
<event>
10    4  0.3403565E-005  0.1345271E+03  0.7546771E-02  0.1238132E+00
         -1   -1    0    0    0  501 -0.00000000000E+00  0.00000000000E+00  0.29357548867E+03  0.29357548867E+03  0.00000000000E+00 0.  1.
         21   -1    0    0  503  502  0.00000000000E+00 -0.00000000000E+00 -0.25926837019E+03  0.25926837019E+03  0.00000000000E+00 0.  1.
         24    2    1    2    0    0  0.18936042277E+02  0.49047058605E+02 -0.15219746778E+03  0.18131504168E+03  0.83347990280E+02 0.  0.
         23    2    1    2    0    0 -0.77230742736E+02  0.65104219509E+02  0.29723750510E+02  0.13947022608E+03  0.91461989900E+02 0.  0.
        -13    1    3    3    0    0  0.47617321610E+02  0.83624253795E+01 -0.83364675383E+02  0.96369126680E+02  0.00000000000E+00 0.  1.
         14    1    3    3    0    0 -0.28681279333E+02  0.40684633225E+02 -0.68832792400E+02  0.84945914995E+02  0.00000000000E+00 0. -1.
        -13    1    4    4    0    0 -0.14167607899E+02 -0.22855694586E+02 -0.11716384108E+01  0.26916103454E+02  0.00000000000E+00 0. -1.
         13    1    4    4    0    0 -0.63063134837E+02  0.87959914095E+02  0.30895388921E+02  0.11255412262E+03  0.00000000000E+00 0.  1.
         21    1    1    2  503  501  0.84628625293E+01 -0.18329939476E+02 -0.17703647573E+02  0.26851924713E+02  0.00000000000E+00 0.  1.
         -2    1    1    2    0  502  0.49831837930E+02 -0.95821338638E+02  0.17448448333E+03  0.20520666640E+03  0.00000000000E+00 0.  1.
<scales pt_clust_5="13000.00000" pt_clust_6="13000.00000" pt_clust_7="13000.00000" pt_clust_8="13000.00000" pt_clust_9="20.18927" pt_clust_10="98.65220"></scales>
<clustering>
<clus scale="   20.189">  2  9  1 -1</clus>
<clus scale="   83.348">  5  6 -1 -1</clus>
<clus scale="   91.462">  7  8 -1 -1</clus>
<clus scale="   94.198">  1  5  2 -1</clus>
<clus scale="   98.652">  2 10  1 -1</clus>
<clus scale="   20.189">  2  5  1 -1</clus>
</clustering>
</event>
<event>
10    4  0.3403565E-005  0.1298851E+03  0.7546771E-02  0.1232384E+00
          2   -1    0    0  503    0 -0.00000000000E+00  0.00000000000E+00  0.15014875177E+04  0.15014875177E+04  0.00000000000E+00 0. -1.
         21   -1    0    0  501  502  0.00000000000E+00 -0.00000000000E+00 -0.62580793354E+02  0.62580793354E+02  0.00000000000E+00 0.  1.
         23    2    1    2    0    0 -0.62123502238E+02  0.13896435286E+02  0.42672108553E+03  0.44062462936E+03  0.89480381748E+02 0.  0.
         24    2    1    2    0    0  0.41656417268E+02  0.87302912189E+02  0.27066666550E+03  0.29834606513E+03  0.79955457526E+02 0.  0.
        -13    1    4    4    0    0  0.30750225684E+02  0.99904422487E+02  0.19918058942E+03  0.22494305327E+03  0.00000000000E+00 0.  1.
         14    1    4    4    0    0  0.10906191584E+02 -0.12601510298E+02  0.71486076084E+02  0.73403011863E+02  0.00000000000E+00 0. -1.
        -11    1    3    3    0    0 -0.70991220875E+02  0.40501826249E+02  0.32267764787E+03  0.33286786539E+03  0.00000000000E+00 0.  1.
         11    1    3    3    0    0  0.88677186371E+01 -0.26605390962E+02  0.10404343765E+03  0.10775676397E+03  0.00000000000E+00 0. -1.
         21    1    1    2  503  502 -0.46901745836E+02  0.17661240514E+02 -0.18103502880E+02  0.53286302137E+02  0.00000000000E+00 0.  1.
          1    1    1    2  501    0  0.67368830805E+02 -0.11886058799E+03  0.75962247622E+03  0.77181131445E+03  0.00000000000E+00 0. -1.
<scales pt_clust_5="13000.00000" pt_clust_6="13000.00000" pt_clust_7="13000.00000" pt_clust_8="13000.00000" pt_clust_9="50.11680" pt_clust_10="102.35850"></scales>
<clustering>
<clus scale="   50.117">  2  9  1 -1</clus>
<clus scale="   79.955">  5  6 -1 -1</clus>
<clus scale="   89.480">  7  8 -1 -1</clus>
<clus scale="  117.732">  1  7  2 -1</clus>
<clus scale="  102.358">  2 10  1 -1</clus>
<clus scale="   50.117">  2  5  1 -1</clus>
</clustering>
</event>
<event>
10    4  0.3403565E-005  0.4249896E+03  0.7546771E-02  0.1050869E+00
          2   -1    0    0  502    0 -0.00000000000E+00  0.00000000000E+00  0.16329381601E+04  0.16329381601E+04  0.00000000000E+00 0. -1.
         21   -1    0    0  503  502  0.00000000000E+00 -0.00000000000E+00 -0.24856801604E+03  0.24856801604E+03  0.00000000000E+00 0. -1.
         24    2    1    2    0    0 -0.98884436551E+02 -0.24029118074E+03  0.34823614039E+03  0.44196278687E+03  0.80899395393E+02 0.  0.
         23    2    1    2    0    0 -0.37252854262E+03  0.17945563771E+03  0.18834056902E+03  0.46337677359E+03  0.90906674064E+02 0.  0.
        -13    1    3    3    0    0 -0.53906504327E+02 -0.47987382906E+02  0.12108635880E+03  0.14096313849E+03  0.00000000000E+00 0.  1.
         14    1    3    3    0    0 -0.44977932224E+02 -0.19230379783E+03  0.22714978159E+03  0.30099964838E+03  0.00000000000E+00 0. -1.
        -13    1    4    4    0    0 -0.15995677116E+03  0.12649322764E+03  0.81049918222E+02  0.21944428569E+03  0.00000000000E+00 0.  1.
         13    1    4    4    0    0 -0.21257177147E+03  0.52962410067E+02  0.10729065080E+03  0.24393248790E+03  0.00000000000E+00 0. -1.
         21    1    1    2  503  501  0.24456645879E+02  0.18335491970E+02  0.27860542926E+02  0.41358525670E+02  0.00000000000E+00 0. -1.
          1    1    1    2  501    0  0.44695633329E+03  0.42500051061E+02  0.81993289173E+03  0.93480809001E+03  0.00000000000E+00 0. -1.
<scales pt_clust_5="13000.00000" pt_clust_6="13000.00000" pt_clust_7="13000.00000" pt_clust_8="13000.00000" pt_clust_9="23.65127" pt_clust_10="424.93376"></scales>
<clustering>
<clus scale="   23.651">  9 10 -1 -1</clus>
<clus scale="   80.899">  5  6 -1 -1</clus>
<clus scale="   90.907">  7  8 -1 -1</clus>
<clus scale="  272.145">  1  5  2 -1</clus>
<clus scale="  424.934">  2  9  1 -1</clus>
<clus scale="  424.934">  2  5  1 -1</clus>
</clustering>
</event>
<event>
10    4  0.3403565E-005  0.2082302E+03  0.7546771E-02  0.1173198E+00
          2   -1    0    0  503    0 -0.00000000000E+00  0.00000000000E+00  0.16875764578E+04  0.16875764578E+04  0.00000000000E+00 0. -1.
         21   -1    0    0  501  502  0.00000000000E+00 -0.00000000000E+00 -0.65059709900E+02  0.65059709900E+02  0.00000000000E+00 0.  1.
         24    2    1    2    0    0 -0.42622653942E+02  0.84248815967E+01  0.26606070481E+03  0.28151306485E+03  0.81077973443E+02 0.  0.
         23    2    1    2    0    0  0.18845742388E+02 -0.18532510004E+03  0.28209527587E+03  0.34982639509E+03  0.90001151814E+02 0.  0.
        -11    1    3    3    0    0  0.21028551184E+02 -0.11815253402E+02  0.53047572513E+02  0.58273880318E+02  0.00000000000E+00 0.  1.
         12    1    3    3    0    0 -0.63651205126E+02  0.20240134999E+02  0.21301313230E+03  0.22323918453E+03  0.00000000000E+00 0. -1.
        -13    1    4    4    0    0  0.23986061587E+02 -0.28589470170E+01  0.37975073144E+02  0.45006787363E+02  0.00000000000E+00 0. -1.
         13    1    4    4    0    0 -0.51403191989E+01 -0.18246615302E+03  0.24412020272E+03  0.30481960773E+03  0.00000000000E+00 0.  1.
         21    1    1    2  503  502 -0.90970035817E+02 -0.10650862317E+02  0.45342470957E+03  0.46258291747E+03  0.00000000000E+00 0. -1.
          1    1    1    2  501    0  0.11474694737E+03  0.18755108076E+03  0.62093605763E+03  0.65871379027E+03  0.00000000000E+00 0. -1.
<scales pt_clust_5="13000.00000" pt_clust_6="13000.00000" pt_clust_7="13000.00000" pt_clust_8="13000.00000" pt_clust_9="91.59142" pt_clust_10="187.77556"></scales>
<clustering>
<clus scale="   81.078">  5  6 -1 -1</clus>
<clus scale="   90.001">  7  8 -1 -1</clus>
<clus scale="   91.591">  1  9  2 -1</clus>
<clus scale="  102.781">  1  5  2 -1</clus>
<clus scale="  187.776">  2 10  1 -1</clus>
<clus scale="  187.776">  2  5  1 -1</clus>
</clustering>
</event>
<event>
10    4  0.3403565E-005  0.3032953E+03  0.7546771E-02  0.1120369E+00
          4   -1    0    0  502    0 -0.00000000000E+00  0.00000000000E+00  0.27435914060E+03  0.27435914060E+03  0.00000000000E+00 0. -1.
         21   -1    0    0  503  502  0.00000000000E+00 -0.00000000000E+00 -0.84076564552E+03  0.84076564552E+03  0.00000000000E+00 0.  1.
         23    2    1    2    0    0 -0.72731796738E+02 -0.20596052146E+02  0.11545494585E+03  0.16530499268E+03  0.91004310147E+02 0.  0.
         24    2    1    2    0    0  0.27285730310E+03 -0.10912234671E+03 -0.41356111054E+03  0.51382970440E+03  0.81420995830E+02 0.  0.
        -13    1    4    4    0    0  0.22978622217E+03 -0.99672804013E+02 -0.39087434525E+03  0.46424037905E+03  0.00000000000E+00 0.  1.
         14    1    4    4    0    0  0.43071080929E+02 -0.94495426965E+01 -0.22686765289E+02  0.49589325352E+02  0.00000000000E+00 0. -1.
        -11    1    3    3    0    0 -0.72580330173E+02 -0.47610459993E+02  0.10525075773E+03  0.13642720488E+03  0.00000000000E+00 0. -1.
         11    1    3    3    0    0 -0.15146656524E+00  0.27014407846E+02  0.10204188118E+02  0.28877787806E+02  0.00000000000E+00 0.  1.
         21    1    1    2  503  501  0.47953117155E+02  0.14406113213E+02 -0.10768484760E+03  0.11875632170E+03  0.00000000000E+00 0.  1.
          3    1    1    2  501    0 -0.24807862352E+03  0.11531228564E+03 -0.16061549263E+03  0.31723376734E+03  0.00000000000E+00 0. -1.
<scales pt_clust_5="13000.00000" pt_clust_6="13000.00000" pt_clust_7="13000.00000" pt_clust_8="13000.00000" pt_clust_9="50.07033" pt_clust_10="292.16221"></scales>
<clustering>
<clus scale="   50.070">  2  9  1 -1</clus>
<clus scale="   81.421">  5  6 -1 -1</clus>
<clus scale="   91.004">  7  8 -1 -1</clus>
<clus scale="  117.216">  1  7  2 -1</clus>
<clus scale="  292.162">  2 10  1 -1</clus>
<clus scale="   50.070">  2  5  1 -1</clus>
</clustering>
</event>
<event>
10    4  0.3403565E-005  0.2905283E+03  0.7546771E-02  0.1120635E+00
          2   -1    0    0  502    0 -0.00000000000E+00  0.00000000000E+00  0.12547328564E+04  0.12547328564E+04  0.00000000000E+00 0. -1.
         21   -1    0    0  503  502  0.00000000000E+00 -0.00000000000E+00 -0.13792287838E+03  0.13792287838E+03  0.00000000000E+00 0. -1.
         24    2    1    2    0    0  0.89229905188E+02  0.55884535807E+02  0.40845186834E+03  0.42913877840E+03  0.79006993741E+02 0.  0.
         23    2    1    2    0    0  0.13003398191E+03  0.19964487724E+03  0.24025712015E+03  0.35053675188E+03  0.91573015542E+02 0.  0.
        -13    1    3    3    0    0  0.93466265921E+02  0.25482947268E+02  0.34944742560E+03  0.36262766955E+03  0.00000000000E+00 0.  1.
         14    1    3    3    0    0 -0.42363607332E+01  0.30401588539E+02  0.59004442740E+02  0.66511108855E+02  0.00000000000E+00 0. -1.
        -11    1    4    4    0    0  0.28226992868E+02  0.15384111778E+01  0.95079115762E+01  0.29824993175E+02  0.00000000000E+00 0. -1.
         11    1    4    4    0    0  0.10180698904E+03  0.19810646607E+03  0.23074920857E+03  0.32071175870E+03  0.00000000000E+00 0.  1.
         21    1    1    2  503  501  0.21451868353E+02 -0.11418924611E+02 -0.86207520485E+01  0.25785497105E+02  0.00000000000E+00 0. -1.
          1    1    1    2  501    0 -0.24071575545E+03 -0.24411048844E+03  0.47672174156E+03  0.58719470737E+03  0.00000000000E+00 0. -1.
<scales pt_clust_5="13000.00000" pt_clust_6="13000.00000" pt_clust_7="13000.00000" pt_clust_8="13000.00000" pt_clust_9="24.30174" pt_clust_10="275.71939"></scales>
<clustering>
<clus scale="   24.302">  2  9  1 -1</clus>
<clus scale="   79.007">  5  6 -1 -1</clus>
<clus scale="   91.573">  7  8 -1 -1</clus>
<clus scale="  132.477">  1  5  2 -1</clus>
<clus scale="  275.719">  2 10  1 -1</clus>
<clus scale="   24.302">  2  5  1 -1</clus>
</clustering>
</event>
<event>
10    4  0.3403565E-005  0.2460578E+03  0.7546771E-02  0.1115822E+00
         21   -1    0    0  503  502  0.00000000000E+00  0.00000000000E+00  0.86132945300E+02  0.86132945300E+02  0.00000000000E+00 0. -1.
          2   -1    0    0  502    0 -0.00000000000E+00 -0.00000000000E+00 -0.62299362295E+03  0.62299362295E+03  0.00000000000E+00 0. -1.
         24    2    1    2    0    0 -0.11061718220E+02  0.96079986769E+02 -0.19928047445E+03  0.23583790962E+03  0.80951137429E+02 0.  0.
         23    2    1    2    0    0 -0.18874832771E+02  0.72298328936E+02 -0.16022887776E+03  0.19790624307E+03  0.88939755444E+02 0.  0.
        -13    1    3    3    0    0  0.10900469536E+02  0.99037540678E+02 -0.18290970731E+03  0.20828637912E+03  0.00000000000E+00 0.  1.
         14    1    3    3    0    0 -0.21962187756E+02 -0.29575539092E+01 -0.16370767138E+02  0.27551530499E+02  0.00000000000E+00 0. -1.
        -13    1    4    4    0    0  0.29196900447E+02  0.42334282558E+00 -0.32862728161E+02  0.43961313868E+02  0.00000000000E+00 0.  1.
         13    1    4    4    0    0 -0.48071733218E+02  0.71874986110E+02 -0.12736614960E+03  0.15394492920E+03  0.00000000000E+00 0. -1.
         21    1    1    2  503  501 -0.19948902438E+02  0.57604559747E+01  0.15059447212E+01  0.20818487722E+02  0.00000000000E+00 0. -1.
          1    1    1    2  501    0  0.49885453429E+02 -0.17413877168E+03 -0.17885727016E+03  0.25456392784E+03  0.00000000000E+00 0. -1.
<scales pt_clust_5="13000.00000" pt_clust_6="13000.00000" pt_clust_7="13000.00000" pt_clust_8="13000.00000" pt_clust_9="20.76395" pt_clust_10="175.79786"></scales>
<clustering>
<clus scale="   20.764">  1  9  2 -1</clus>
<clus scale="   80.951">  5  6 -1 -1</clus>
<clus scale="   88.940">  7  8 -1 -1</clus>
<clus scale="   90.187">  5  7 -1 -1</clus>
<clus scale="  175.798">  1 10  2 -1</clus>
<clus scale="   20.764">  1  5  2 -1</clus>
</clustering>
</event>
<event>
10    4  0.3403565E-005  0.1278127E+03  0.7546771E-02  0.1235699E+00
          2   -1    0    0  503    0 -0.00000000000E+00  0.00000000000E+00  0.64725066366E+03  0.64725066366E+03  0.00000000000E+00 0. -1.
         21   -1    0    0  501  502  0.00000000000E+00 -0.00000000000E+00 -0.12754927406E+03  0.12754927406E+03  0.00000000000E+00 0. -1.
         23    2    1    2    0    0 -0.69072903705E+02  0.24754927736E+02  0.34080521413E+03  0.36309474108E+03  0.10151711457E+03 0.  0.
         24    2    1    2    0    0 -0.60353374844E+02 -0.57959720005E+02 -0.15359695347E+02  0.11730669450E+03  0.80765594999E+02 0.  0.
        -13    1    4    4    0    0 -0.67683586775E+02 -0.16730087826E+02 -0.25470114357E+02  0.74227289340E+02  0.00000000000E+00 0.  1.
         14    1    4    4    0    0  0.73302119311E+01 -0.41229632178E+02  0.10110419010E+02  0.43079405161E+02  0.00000000000E+00 0. -1.
        -11    1    3    3    0    0 -0.87310792030E+02 -0.47658474031E+01  0.20385759387E+03  0.22181930999E+03  0.00000000000E+00 0.  1.
         11    1    3    3    0    0  0.18237888324E+02  0.29520775139E+02  0.13694762026E+03  0.14127543109E+03  0.00000000000E+00 0. -1.
         21    1    1    2  503  502  0.11092482267E+03  0.46786869240E+02  0.24194534025E+02  0.12279537001E+03  0.00000000000E+00 0. -1.
          1    1    1    2  501    0  0.18501455876E+02 -0.13582076971E+02  0.17006133679E+03  0.17160313212E+03  0.00000000000E+00 0. -1.
<scales pt_clust_5="13000.00000" pt_clust_6="13000.00000" pt_clust_7="13000.00000" pt_clust_8="13000.00000" pt_clust_9="77.65536" pt_clust_10="22.95163"></scales>
<clustering>
<clus scale="   22.952">  2 10  1 -1</clus>
<clus scale="   80.766">  5  6 -1 -1</clus>
<clus scale="  101.517">  7  8 -1 -1</clus>
<clus scale="  115.432">  2  5  1 -1</clus>
<clus scale="   77.655">  2  9  1 -1</clus>
<clus scale="   22.952">  2  5  1 -1</clus>
</clustering>
</event>
<event>
10    4  0.3403565E-005  0.4154318E+03  0.7546771E-02  0.1088101E+00
          2   -1    0    0  503    0 -0.00000000000E+00  0.00000000000E+00  0.94694592526E+03  0.94694592526E+03  0.00000000000E+00 0. -1.
         21   -1    0    0  501  502  0.00000000000E+00 -0.00000000000E+00 -0.29655661714E+03  0.29655661714E+03  0.00000000000E+00 0.  1.
         23    2    1    2    0    0 -0.28150859842E+02  0.41363970333E+02 -0.40803811310E+02  0.11095790557E+03  0.90239995789E+02 0.  0.
         24    2    1    2    0    0 -0.44516015283E+02 -0.43256652820E+03  0.20923053662E+03  0.48941743088E+03  0.81587543518E+02 0.  0.
        -11    1    4    4    0    0  0.11438770437E+02 -0.27351742193E+03  0.12502655252E+03  0.30095558543E+03  0.00000000000E+00 0.  1.
         12    1    4    4    0    0 -0.55954785720E+02 -0.15904910627E+03  0.84203984097E+02  0.18846184544E+03  0.00000000000E+00 0. -1.
        -13    1    3    3    0    0 -0.45457881043E+02 -0.10447611884E+02 -0.29457399655E+02  0.55166202855E+02  0.00000000000E+00 0.  1.
         13    1    3    3    0    0  0.17307021201E+02  0.51811582217E+02 -0.11346411655E+02  0.55791702717E+02  0.00000000000E+00 0. -1.
         21    1    1    2  503  502  0.13124642676E+02  0.20957467695E+02 -0.81236545391E+01  0.26028166678E+02  0.00000000000E+00 0.  1.
          1    1    1    2  501    0  0.59542232448E+02  0.37024509017E+03  0.49008623734E+03  0.61709903928E+03  0.00000000000E+00 0. -1.
<scales pt_clust_5="13000.00000" pt_clust_6="13000.00000" pt_clust_7="13000.00000" pt_clust_8="13000.00000" pt_clust_9="24.72795" pt_clust_10="407.34162"></scales>
<clustering>
<clus scale="   24.728">  2  9  1 -1</clus>
<clus scale="   81.588">  5  6 -1 -1</clus>
<clus scale="   90.240">  7  8 -1 -1</clus>
<clus scale="  104.699">  1  7  2 -1</clus>
<clus scale="  407.342">  2 10  1 -1</clus>
<clus scale="   24.728">  2  5  1 -1</clus>
</clustering>
</event>
<event>
10    4  0.3403565E-005  0.1144694E+03  0.7546771E-02  0.1255370E+00
          2   -1    0    0  503    0 -0.00000000000E+00  0.00000000000E+00  0.10877174634E+04  0.10877174634E+04  0.00000000000E+00 0. -1.
         21   -1    0    0  501  502  0.00000000000E+00 -0.00000000000E+00 -0.63754098092E+02  0.63754098092E+02  0.00000000000E+00 0. -1.
         24    2    1    2    0    0  0.80339992974E+02 -0.38195139969E+02  0.74833366768E+03  0.75843434006E+03  0.85475065400E+02 0.  0.
         23    2    1    2    0    0  0.18646520054E+02  0.42819728574E+02  0.18995732890E+03  0.21674225501E+03  0.93339147408E+02 0.  0.
        -13    1    3    3    0    0  0.27381792813E+02 -0.55190079652E+02  0.27343509056E+03  0.28028995027E+03  0.00000000000E+00 0.  1.
         14    1    3    3    0    0  0.52958200161E+02  0.16994939683E+02  0.47489857712E+03  0.47814438979E+03  0.00000000000E+00 0. -1.
        -11    1    4    4    0    0 -0.34518525797E+02 -0.23585960599E+01  0.62047681662E+02  0.71042285987E+02  0.00000000000E+00 0.  1.
         11    1    4    4    0    0  0.53165045850E+02  0.45178324634E+02  0.12790964724E+03  0.14569996902E+03  0.00000000000E+00 0. -1.
         21    1    1    2  503  502 -0.27936992124E+02  0.35967552528E+02 -0.13708797251E+02  0.47561239322E+02  0.00000000000E+00 0. -1.
          1    1    1    2  501    0 -0.71049520904E+02 -0.40592141133E+02  0.99381165975E+02  0.12873372710E+03  0.00000000000E+00 0. -1.
<scales pt_clust_5="13000.00000" pt_clust_6="13000.00000" pt_clust_7="13000.00000" pt_clust_8="13000.00000" pt_clust_9="45.54273" pt_clust_10="86.99580"></scales>
<clustering>
<clus scale="   45.543">  2  9  1 -1</clus>
<clus scale="   85.475">  5  6 -1 -1</clus>
<clus scale="   86.996">  2 10  1 -1</clus>
<clus scale="   93.339">  7  8 -1 -1</clus>
<clus scale="  108.153">  1  5  2 -1</clus>
<clus scale="   45.543">  2  5  1 -1</clus>
</clustering>
</event>
<event>
10    4  0.3403565E-005  0.9027805E+02  0.7546771E-02  0.1306612E+00
         21   -1    0    0  501  502  0.00000000000E+00  0.00000000000E+00  0.16586140799E+03  0.16586140799E+03  0.00000000000E+00 0. -1.
          2   -1    0    0  503    0 -0.00000000000E+00 -0.00000000000E+00 -0.41068187845E+03  0.41068187845E+03  0.00000000000E+00 0. -1.
         24    2    1    2    0    0  0.14150257494E+02  0.36823342721E+02 -0.21240925849E+03  0.23085087556E+03  0.81352598579E+02 0.  0.
         23    2    1    2    0    0  0.41954375119E+02 -0.50638832149E+02  0.80399962726E+02  0.12722333293E+03  0.73465376354E+02 0.  0.
        -11    1    3    3    0    0  0.45678862774E+02  0.11859824911E+02 -0.84709511382E+02  0.96968630339E+02  0.00000000000E+00 0.  1.
         12    1    3    3    0    0 -0.31528605280E+02  0.24963517810E+02 -0.12769974711E+03  0.13388224522E+03  0.00000000000E+00 0. -1.
        -13    1    4    4    0    0  0.33068415927E+02 -0.69576513145E+02  0.68899856254E+02  0.10335183358E+03  0.00000000000E+00 0. -1.
         13    1    4    4    0    0  0.88859591925E+01  0.18937680995E+02  0.11500106472E+02  0.23871499348E+02  0.00000000000E+00 0.  1.
         21    1    1    2  503  502 -0.24322874023E+02  0.52471754782E+02  0.31408745527E+02  0.65813346262E+02  0.00000000000E+00 0. -1.
          1    1    1    2  501    0 -0.31781758590E+02 -0.38656265354E+02 -0.14421992022E+03  0.15265573169E+03  0.00000000000E+00 0. -1.
<scales pt_clust_5="13000.00000" pt_clust_6="13000.00000" pt_clust_7="13000.00000" pt_clust_8="13000.00000" pt_clust_9="53.06924" pt_clust_10="50.04388"></scales>
<clustering>
<clus scale="   50.044">  1 10  2 -1</clus>
<clus scale="   53.069">  1  9  2 -1</clus>
<clus scale="   73.465">  7  8 -1 -1</clus>
<clus scale="   81.353">  5  6 -1 -1</clus>
<clus scale="   83.241">  1  7  2 -1</clus>
<clus scale="   50.044">  1  5  2 -1</clus>
</clustering>
</event>
<event>
10    4  0.3403565E-005  0.7096456E+03  0.7546771E-02  0.9700878E-01
          2   -1    0    0  502    0 -0.00000000000E+00  0.00000000000E+00  0.11555964649E+04  0.11555964649E+04  0.00000000000E+00 0. -1.
         21   -1    0    0  503  502  0.00000000000E+00 -0.00000000000E+00 -0.55730500096E+03  0.55730500096E+03  0.00000000000E+00 0. -1.
         24    2    1    2    0    0  0.57520255208E+03  0.16438979029E+03  0.50783565880E+03  0.78917160162E+03  0.83742351238E+02 0.  0.
         23    2    1    2    0    0  0.12504610157E+02  0.13870225101E+02  0.72015700492E+02  0.11766939970E+03  0.91165114434E+02 0.  0.
        -11    1    3    3    0    0  0.72790033954E+02 -0.13080755618E+01  0.85063211801E+02  0.11196361064E+03  0.00000000000E+00 0.  1.
         12    1    3    3    0    0  0.50241251812E+03  0.16569786585E+03  0.42277244700E+03  0.67720799099E+03  0.00000000000E+00 0. -1.
        -11    1    4    4    0    0  0.29973631679E+02 -0.71568556045E+01 -0.90507318495E+01  0.32117828774E+02  0.00000000000E+00 0.  1.
         11    1    4    4    0    0 -0.17469021521E+02  0.21027080706E+02  0.81066432341E+02  0.85551570929E+02  0.00000000000E+00 0. -1.
         21    1    1    2  503  501  0.37243510205E+02  0.20316714163E+01 -0.13307995885E+03  0.13820811188E+03  0.00000000000E+00 0.  1.
          1    1    1    2  501    0 -0.62495067244E+03 -0.18029168681E+03  0.15152006350E+03  0.66785235266E+03  0.00000000000E+00 0. -1.
<scales pt_clust_5="13000.00000" pt_clust_6="13000.00000" pt_clust_7="13000.00000" pt_clust_8="13000.00000" pt_clust_9="37.29888" pt_clust_10="628.20401"></scales>
<clustering>
<clus scale="   37.299">  2  9  1 -1</clus>
<clus scale="   83.742">  5  6 -1 -1</clus>
<clus scale="   91.165">  7  8 -1 -1</clus>
<clus scale="   92.492">  5  7 -1 -1</clus>
<clus scale="  628.204">  2 10  1 -1</clus>
<clus scale="   37.299">  2  5  1 -1</clus>
</clustering>
</event>
<event>
10    4  0.3403565E-005  0.1204911E+03  0.7546771E-02  0.1266251E+00
         -1   -1    0    0    0  501 -0.00000000000E+00  0.00000000000E+00  0.75496685180E+03  0.75496685180E+03  0.00000000000E+00 0.  1.
         21   -1    0    0  501  502  0.00000000000E+00 -0.00000000000E+00 -0.85246199371E+02  0.85246199371E+02  0.00000000000E+00 0.  1.
         24    2    1    2    0    0  0.78455740914E+01  0.31078422040E+02  0.92385193902E+02  0.12192721363E+03  0.72827192874E+02 0.  0.
         23    2    1    2    0    0  0.38088108666E+02  0.60045932456E+02  0.56488141143E+03  0.57631117781E+03  0.89371956810E+02 0.  0.
        -11    1    3    3    0    0 -0.16753278595E+02  0.46967563414E+02  0.52045315906E+02  0.72078701879E+02  0.00000000000E+00 0.  1.
         12    1    3    3    0    0  0.24598852686E+02 -0.15889141374E+02  0.40339877995E+02  0.49848511751E+02  0.00000000000E+00 0. -1.
        -13    1    4    4    0    0  0.65947043547E+02  0.32259634883E+02  0.40926163412E+03  0.41579415792E+03  0.00000000000E+00 0.  1.
         13    1    4    4    0    0 -0.27858934881E+02  0.27786297572E+02  0.15561977731E+03  0.16051701989E+03  0.00000000000E+00 0. -1.
         21    1    1    2  503  502  0.36745992323E+01 -0.42215513127E+02 -0.37231415982E+02  0.56407717239E+02  0.00000000000E+00 0.  1.
         -2    1    1    2    0  503 -0.49608281990E+02 -0.48908841369E+02  0.49685463080E+02  0.85566942492E+02  0.00000000000E+00 0.  1.
<scales pt_clust_5="13000.00000" pt_clust_6="13000.00000" pt_clust_7="13000.00000" pt_clust_8="13000.00000" pt_clust_9="42.37514" pt_clust_10="80.81307"></scales>
<clustering>
<clus scale="   42.375">  2  9  1 -1</clus>
<clus scale="   72.827">  5  6 -1 -1</clus>
<clus scale="   74.900">  1  5  2 -1</clus>
<clus scale="   80.813">  2 10  1 -1</clus>
<clus scale="   89.372">  7  8 -1 -1</clus>
<clus scale="   42.375">  2  5  1 -1</clus>
</clustering>
</event>
<event>
10    4  0.3403565E-005  0.1558707E+03  0.7546771E-02  0.1215523E+00
         21   -1    0    0  501  502  0.00000000000E+00  0.00000000000E+00  0.17282099566E+03  0.17282099566E+03  0.00000000000E+00 0. -1.
          2   -1    0    0  503    0 -0.00000000000E+00 -0.00000000000E+00 -0.64390006108E+03  0.64390006108E+03  0.00000000000E+00 0. -1.
         24    2    1    2    0    0  0.49919658181E+02 -0.26164247202E+02 -0.27546284855E+02  0.10067554589E+03  0.78741524155E+02 0.  0.
         23    2    1    2    0    0 -0.11456199639E+03  0.10618821036E+03 -0.24096336497E+03  0.30171880021E+03  0.92577017164E+02 0.  0.
        -13    1    3    3    0    0 -0.12669798404E+01 -0.24960079640E+02 -0.40746521980E+02  0.47800521619E+02  0.00000000000E+00 0.  1.
         14    1    3    3    0    0  0.51186638021E+02 -0.12041675618E+01  0.13200237126E+02  0.52875024271E+02  0.00000000000E+00 0. -1.
        -11    1    4    4    0    0 -0.88805583689E+01  0.39590276971E+02 -0.12445904294E+03  0.13090572071E+03  0.00000000000E+00 0.  1.
         11    1    4    4    0    0 -0.10568143802E+03  0.66597933391E+02 -0.11650432203E+03  0.17081307950E+03  0.00000000000E+00 0. -1.
         21    1    1    2  503  502 -0.67778717721E+02 -0.13465565695E+03  0.17477236957E+02  0.15176150479E+03  0.00000000000E+00 0. -1.
          1    1    1    2  501    0  0.13242105593E+03  0.54631693791E+02 -0.22004665255E+03  0.26256520584E+03  0.00000000000E+00 0. -1.
<scales pt_clust_5="13000.00000" pt_clust_6="13000.00000" pt_clust_7="13000.00000" pt_clust_8="13000.00000" pt_clust_9="151.00016" pt_clust_10="125.40006"></scales>
<clustering>
<clus scale="   78.742">  5  6 -1 -1</clus>
<clus scale="   92.577">  7  8 -1 -1</clus>
<clus scale="   96.834">  2  5  1 -1</clus>
<clus scale="  151.000">  1  9  2 -1</clus>
<clus scale="  125.400">  1 10  2 -1</clus>
<clus scale="  151.000">  1  5  2 -1</clus>
</clustering>
</event>
<event>
10    4  0.3403565E-005  0.9059633E+02  0.7546771E-02  0.1308319E+00
         21   -1    0    0  501  502  0.00000000000E+00  0.00000000000E+00  0.46913155683E+03  0.46913155683E+03  0.00000000000E+00 0.  1.
          4   -1    0    0  503    0 -0.00000000000E+00 -0.00000000000E+00 -0.16969806157E+03  0.16969806157E+03  0.00000000000E+00 0. -1.
         23    2    1    2    0    0  0.49254450412E+01 -0.34487595854E+01 -0.11902723372E+03  0.14927939096E+03  0.89892715196E+02 0.  0.
         24    2    1    2    0    0  0.89757208277E+01  0.44337149490E+02  0.35388583908E+02  0.97708036024E+02  0.79045316392E+02 0.  0.
        -13    1    4    4    0    0  0.25466329554E+02 -0.16833700381E+00  0.42668410210E+02  0.49690597784E+02  0.00000000000E+00 0.  1.
         14    1    4    4    0    0 -0.16490608726E+02  0.44505486493E+02 -0.72798263022E+01  0.48017438240E+02  0.00000000000E+00 0. -1.
        -13    1    3    3    0    0 -0.24502462280E+00  0.33908707761E+02 -0.10275405645E+03  0.10820469775E+03  0.00000000000E+00 0. -1.
         13    1    3    3    0    0  0.51704696640E+01 -0.37357467346E+02 -0.16273177271E+02  0.41074693201E+02  0.00000000000E+00 0.  1.
         21    1    1    2  503  502  0.18628476233E+02 -0.40922518434E+02  0.28476358916E+03  0.28829147465E+03  0.00000000000E+00 0.  1.
          3    1    1    2  501    0 -0.32529642102E+02  0.34128529966E-01  0.98308555909E+02  0.10355071678E+03  0.00000000000E+00 0. -1.
<scales pt_clust_5="13000.00000" pt_clust_6="13000.00000" pt_clust_7="13000.00000" pt_clust_8="13000.00000" pt_clust_9="41.43881" pt_clust_10="32.52966"></scales>
<clustering>
<clus scale="   32.530">  1 10  2 -1</clus>
<clus scale="   41.439">  1  9  2 -1</clus>
<clus scale="   79.045">  5  6 -1 -1</clus>
<clus scale="   79.845">  1  5  2 -1</clus>
<clus scale="   89.893">  7  8 -1 -1</clus>
<clus scale="   32.530">  1  5  2 -1</clus>
</clustering>
</event>
<event>
10    4  0.3403565E-005  0.9100815E+02  0.7546771E-02  0.1305644E+00
          2   -1    0    0  503    0 -0.00000000000E+00  0.00000000000E+00  0.74227026948E+02  0.74227026948E+02  0.00000000000E+00 0. -1.
         21   -1    0    0  501  502  0.00000000000E+00 -0.00000000000E+00 -0.46931840737E+03  0.46931840737E+03  0.00000000000E+00 0. -1.
         24    2    1    2    0    0 -0.21101576286E+01 -0.50021567025E+01  0.16037977406E+02  0.84130674532E+02  0.82409218787E+02 0.  0.
         23    2    1    2    0    0 -0.39610501905E+02  0.20653683017E+01 -0.14100946681E+03  0.17231036960E+03  0.90741038867E+02 0.  0.
        -11    1    3    3    0    0  0.32919113642E+02 -0.70100213772E+01 -0.15406263486E+02  0.37015691230E+02  0.00000000000E+00 0.  1.
         12    1    3    3    0    0 -0.35029271270E+02  0.20078646748E+01  0.31444240892E+02  0.47114983302E+02  0.00000000000E+00 0. -1.
        -13    1    4    4    0    0  0.26316156198E+02 -0.51011701351E+01 -0.70938960998E+02  0.75834676773E+02  0.00000000000E+00 0.  1.
         13    1    4    4    0    0 -0.65926658103E+02  0.71665384368E+01 -0.70070505809E+02  0.96475692825E+02  0.00000000000E+00 0. -1.
         21    1    1    2  503  502 -0.23032764903E+02 -0.90610356994E+01 -0.34538879730E+02  0.42491703190E+02  0.00000000000E+00 0.  1.
          1    1    1    2  501    0  0.64753424436E+02  0.11997824100E+02 -0.23558101129E+03  0.24461268700E+03  0.00000000000E+00 0. -1.
<scales pt_clust_5="13000.00000" pt_clust_6="13000.00000" pt_clust_7="13000.00000" pt_clust_8="13000.00000" pt_clust_9="24.75097" pt_clust_10="52.37956"></scales>
<clustering>
<clus scale="   24.751">  2  9  1 -1</clus>
<clus scale="   52.380">  2 10  1 -1</clus>
<clus scale="   82.409">  5  6 -1 -1</clus>
<clus scale="   82.703">  1  5  2 -1</clus>
<clus scale="   90.741">  7  8 -1 -1</clus>
<clus scale="   24.751">  2  5  1 -1</clus>
</clustering>
</event>
<event>
10    4  0.3403565E-005  0.1012957E+03  0.7546771E-02  0.1283825E+00
         21   -1    0    0  503  502  0.00000000000E+00  0.00000000000E+00  0.29143664062E+03  0.29143664062E+03  0.00000000000E+00 0.  1.
         -1   -1    0    0    0  501 -0.00000000000E+00 -0.00000000000E+00 -0.24414261421E+03  0.24414261421E+03  0.00000000000E+00 0.  1.
         24    2    1    2    0    0  0.16967077611E+02  0.36315593392E+02 -0.61600807641E+02  0.10738916631E+03  0.78301146181E+02 0.  0.
         23    2    1    2    0    0 -0.79055863762E+02 -0.77079402539E+01  0.45009984700E+00  0.12084957563E+03  0.91077853521E+02 0.  0.
        -13    1    3    3    0    0  0.41948074910E+02  0.37008066960E+02 -0.21075741547E+02  0.59778130537E+02  0.00000000000E+00 0.  1.
         14    1    3    3    0    0 -0.24980997299E+02 -0.69247356777E+00 -0.40525066094E+02  0.47611035775E+02  0.00000000000E+00 0. -1.
        -11    1    4    4    0    0 -0.33961948740E+02  0.17025474470E+01  0.45242724264E+02  0.56596967488E+02  0.00000000000E+00 0. -1.
         11    1    4    4    0    0 -0.45093915023E+02 -0.94104877009E+01 -0.44792624417E+02  0.64252608142E+02  0.00000000000E+00 0.  1.
         21    1    1    2  503  501  0.16059239187E+01  0.26724578305E+02  0.18989976299E+03  0.19177774131E+03  0.00000000000E+00 0.  1.
         -2    1    1    2    0  502  0.60482862232E+02 -0.55332231443E+02 -0.81455028787E+02  0.11556277158E+03  0.00000000000E+00 0.  1.
<scales pt_clust_5="13000.00000" pt_clust_6="13000.00000" pt_clust_7="13000.00000" pt_clust_8="13000.00000" pt_clust_9="26.77279" pt_clust_10="79.19600"></scales>
<clustering>
<clus scale="   26.773">  1  9  2 -1</clus>
<clus scale="   78.301">  5  6 -1 -1</clus>
<clus scale="   79.196">  1 10  2 -1</clus>
<clus scale="   89.982">  2  5  1 -1</clus>
<clus scale="   91.078">  7  8 -1 -1</clus>
<clus scale="   26.773">  1  5  2 -1</clus>
</clustering>
</event>
<event>
10    4  0.3403565E-005  0.6884955E+03  0.7546771E-02  0.9737111E-01
         21   -1    0    0  501  502  0.00000000000E+00  0.00000000000E+00  0.44751639317E+03  0.44751639317E+03  0.00000000000E+00 0.  1.
          2   -1    0    0  503    0 -0.00000000000E+00 -0.00000000000E+00 -0.19406191882E+04  0.19406191882E+04  0.00000000000E+00 0. -1.
         24    2    1    2    0    0 -0.29538365094E+03 -0.27069987403E+03 -0.55507347050E+03  0.68933141349E+03  0.80878408297E+02 0.  0.
         23    2    1    2    0    0 -0.18901300748E+03 -0.19677169149E+03 -0.16877699618E+03  0.33178001203E+03  0.84541625096E+02 0.  0.
        -11    1    3    3    0    0 -0.36960123031E+02 -0.39131326819E+01 -0.56030545119E+02  0.67236785231E+02  0.00000000000E+00 0.  1.
         12    1    3    3    0    0 -0.25842352791E+03 -0.26678674135E+03 -0.49904292538E+03  0.62209462826E+03  0.00000000000E+00 0. -1.
        -11    1    4    4    0    0 -0.52742204133E+02 -0.17829116685E+02 -0.10261001395E+02  0.56611886103E+02  0.00000000000E+00 0. -1.
         11    1    4    4    0    0 -0.13627080334E+03 -0.17894257481E+03 -0.15851599478E+03  0.27516812592E+03  0.00000000000E+00 0.  1.
         21    1    1    2  503  502  0.22960014900E+03 -0.11532643931E+03  0.11193108437E+03  0.28025877983E+03  0.00000000000E+00 0.  1.
          1    1    1    2  501    0  0.25479650942E+03  0.58279800483E+03 -0.88118341268E+03  0.10867653760E+04  0.00000000000E+00 0. -1.
<scales pt_clust_5="13000.00000" pt_clust_6="13000.00000" pt_clust_7="13000.00000" pt_clust_8="13000.00000" pt_clust_9="256.93660" pt_clust_10="639.13007"></scales>
<clustering>
<clus scale="   80.878">  5  6 -1 -1</clus>
<clus scale="   84.542">  7  8 -1 -1</clus>
<clus scale="  179.135">  5  7 -1 -1</clus>
<clus scale="  256.937">  1  9  2 -1</clus>
<clus scale="  639.130">  1 10  2 -1</clus>
<clus scale="  256.937">  1  5  2 -1</clus>
</clustering>
</event>
<event>
10    4  0.3403565E-005  0.1394381E+03  0.7546771E-02  0.1236175E+00
         21   -1    0    0  503  502  0.00000000000E+00  0.00000000000E+00  0.63658451500E+02  0.63658451500E+02  0.00000000000E+00 0. -1.
          2   -1    0    0  502    0 -0.00000000000E+00 -0.00000000000E+00 -0.87805082065E+03  0.87805082065E+03  0.00000000000E+00 0. -1.
         24    2    1    2    0    0  0.38301425243E+02  0.10950911271E+02 -0.28050714761E+03  0.29458117466E+03  0.80665277348E+02 0.  0.
         23    2    1    2    0    0  0.91841706930E+02 -0.27386305358E+02 -0.43121325837E+03  0.45079461397E+03  0.89922193822E+02 0.  0.
        -13    1    3    3    0    0 -0.24951943768E+02  0.10212812510E+00 -0.61638306366E+02  0.66497298739E+02  0.00000000000E+00 0.  1.
         14    1    3    3    0    0  0.63253369010E+02  0.10848783146E+02 -0.21886884124E+03  0.22808387592E+03  0.00000000000E+00 0. -1.
        -11    1    4    4    0    0  0.49496898524E+02 -0.59050733522E+02 -0.22152273822E+03  0.23454052026E+03  0.00000000000E+00 0. -1.
         11    1    4    4    0    0  0.42344808406E+02  0.31664428164E+02 -0.20969052015E+03  0.21625409372E+03  0.00000000000E+00 0.  1.
         21    1    1    2  503  501 -0.29126423992E+02  0.14294921764E+02  0.19452693856E+02  0.37829891106E+02  0.00000000000E+00 0. -1.
          1    1    1    2  501    0 -0.10101670818E+03  0.21404723233E+01 -0.12212465703E+03  0.15850359241E+03  0.00000000000E+00 0. -1.
<scales pt_clust_5="13000.00000" pt_clust_6="13000.00000" pt_clust_7="13000.00000" pt_clust_8="13000.00000" pt_clust_9="32.44524" pt_clust_10="106.56912"></scales>
<clustering>
<clus scale="   32.445">  1  9  2 -1</clus>
<clus scale="   80.665">  5  6 -1 -1</clus>
<clus scale="   88.039">  2  5  1 -1</clus>
<clus scale="   89.922">  7  8 -1 -1</clus>
<clus scale="  106.569">  1 10  2 -1</clus>
<clus scale="   32.445">  1  5  2 -1</clus>
</clustering>
</event>
<event>
10    4  0.3403565E-005  0.8898786E+02  0.7546771E-02  0.1308849E+00
          2   -1    0    0  502    0 -0.00000000000E+00  0.00000000000E+00  0.53103073025E+03  0.53103073025E+03  0.00000000000E+00 0. -1.
         21   -1    0    0  503  502  0.00000000000E+00 -0.00000000000E+00 -0.25222415076E+03  0.25222415076E+03  0.00000000000E+00 0. -1.
         24    2    1    2    0    0 -0.24255275265E+02 -0.47800895103E+01  0.31714224059E+03  0.32754192055E+03  0.78059857265E+02 0.  0.
         23    2    1    2    0    0  0.40504080403E+02 -0.13514347293E+02  0.19066847023E+03  0.21266587772E+03  0.83958870260E+02 0.  0.
        -13    1    3    3    0    0 -0.45991562468E+02 -0.12379052306E+02  0.27862625172E+03  0.28266774294E+03  0.00000000000E+00 0.  1.
         14    1    3    3    0    0  0.21736287203E+02  0.75989627960E+01  0.38515988870E+02  0.44874177603E+02  0.00000000000E+00 0. -1.
        -13    1    4    4    0    0  0.15408649434E+02  0.34409556396E+02  0.55705396686E+02  0.67264665826E+02  0.00000000000E+00 0.  1.
         13    1    4    4    0    0  0.25095430969E+02 -0.47923903689E+02  0.13496307355E+03  0.14540121190E+03  0.00000000000E+00 0. -1.
         21    1    1    2  503  501 -0.29916597607E+02 -0.17331475240E+02 -0.16456496524E+03  0.16815769572E+03  0.00000000000E+00 0. -1.
          1    1    1    2  501    0  0.13667792470E+02  0.35625912044E+02 -0.64439166100E+02  0.74889387016E+02  0.00000000000E+00 0. -1.
<scales pt_clust_5="13000.00000" pt_clust_6="13000.00000" pt_clust_7="13000.00000" pt_clust_8="13000.00000" pt_clust_9="34.57431" pt_clust_10="24.03070"></scales>
<clustering>
<clus scale="   34.574">  2  9  1 -1</clus>
<clus scale="   24.031">  2 10  1 -1</clus>
<clus scale="   78.060">  5  6 -1 -1</clus>
<clus scale="   83.445">  1  5  2 -1</clus>
<clus scale="   83.959">  7  8 -1 -1</clus>
<clus scale="   34.574">  2  5  1 -1</clus>
</clustering>
</event>
<event>
10    4  0.3403565E-005  0.1124117E+03  0.7546771E-02  0.1259891E+00
         21   -1    0    0  501  502  0.00000000000E+00  0.00000000000E+00  0.59501465200E+03  0.59501465200E+03  0.00000000000E+00 0. -1.
          2   -1    0    0  503    0 -0.00000000000E+00 -0.00000000000E+00 -0.40201023036E+03  0.40201023036E+03  0.00000000000E+00 0. -1.
         23    2    1    2    0    0  0.71117107172E+02 -0.19181187680E+02 -0.28150132601E+03  0.30456610794E+03  0.89955303717E+02 0.  0.
         24    2    1    2    0    0 -0.58062826680E+02 -0.17524427583E+02 -0.75881818580E+02  0.12570926982E+03  0.79789552713E+02 0.  0.
        -13    1    4    4    0    0 -0.48354261821E+02  0.20638427541E+02 -0.17739131667E+02  0.55486539989E+02  0.00000000000E+00 0.  1.
         14    1    4    4    0    0 -0.97085648593E+01 -0.38162855124E+02 -0.58142686913E+02  0.70222729826E+02  0.00000000000E+00 0. -1.
        -11    1    3    3    0    0  0.17897703772E+02 -0.26226337565E+02 -0.19808294315E+02  0.37423483350E+02  0.00000000000E+00 0.  1.
         11    1    3    3    0    0  0.53219403400E+02  0.70451498850E+01 -0.26169303169E+03  0.26714262459E+03  0.00000000000E+00 0. -1.
         21    1    1    2  503  502 -0.20662069193E+02  0.68558184962E+02  0.50880933101E+03  0.51382300567E+03  0.00000000000E+00 0. -1.
          1    1    1    2  501    0  0.76077887015E+01 -0.31852569700E+02  0.41578235221E+02  0.52926498935E+02  0.00000000000E+00 0. -1.
<scales pt_clust_5="13000.00000" pt_clust_6="13000.00000" pt_clust_7="13000.00000" pt_clust_8="13000.00000" pt_clust_9="41.12499" pt_clust_10="32.74851"></scales>
<clustering>
<clus scale="   32.749">  1 10  2 -1</clus>
<clus scale="   41.125">  1  9  2 -1</clus>
<clus scale="   79.790">  5  6 -1 -1</clus>
<clus scale="   89.955">  7  8 -1 -1</clus>
<clus scale="  104.455">  1  5  2 -1</clus>
<clus scale="   32.749">  1  5  2 -1</clus>
</clustering>
</event>
<event>
10    4  0.3403565E-005  0.6456928E+03  0.7546771E-02  0.9814895E-01
         21   -1    0    0  503  502  0.00000000000E+00  0.00000000000E+00  0.10782840500E+04  0.10782840500E+04  0.00000000000E+00 0.  1.
         -3   -1    0    0    0  501 -0.00000000000E+00 -0.00000000000E+00 -0.71033078693E+03  0.71033078693E+03  0.00000000000E+00 0.  1.
         24    2    1    2    0    0  0.18054244168E+03 -0.39686321236E+03 -0.38688451107E+03  0.58838094137E+03  0.80103212753E+02 0.  0.
         23    2    1    2    0    0  0.10414662183E+03 -0.11247397579E+03 -0.11220214822E+02  0.17884904084E+03  0.91455847916E+02 0.  0.
        -13    1    3    3    0    0  0.15110921541E+03 -0.38090331123E+03 -0.35954629210E+03  0.54515581594E+03  0.00000000000E+00 0.  1.
         14    1    3    3    0    0  0.29433226266E+02 -0.15959901134E+02 -0.27338218970E+02  0.43225125438E+02  0.00000000000E+00 0. -1.
        -13    1    4    4    0    0  0.49709711208E+02  0.25024232413E+01 -0.13661107600E+02  0.51613403020E+02  0.00000000000E+00 0. -1.
         13    1    4    4    0    0  0.54436910622E+02 -0.11497639903E+03  0.24408927778E+01  0.12723563782E+03  0.00000000000E+00 0.  1.
         21    1    1    2  503  501  0.74192350174E+02  0.10502524952E+03  0.20701308010E+03  0.24369904225E+03  0.00000000000E+00 0.  1.
         -4    1    1    2    0  502 -0.35888141368E+03  0.40431193863E+03  0.55904490888E+03  0.77768581249E+03  0.00000000000E+00 0.  1.
<scales pt_clust_5="13000.00000" pt_clust_6="13000.00000" pt_clust_7="13000.00000" pt_clust_8="13000.00000" pt_clust_9="128.58774" pt_clust_10="572.04623"></scales>
<clustering>
<clus scale="   80.103">  5  6 -1 -1</clus>
<clus scale="   91.456">  7  8 -1 -1</clus>
<clus scale="  128.588">  1  9  2 -1</clus>
<clus scale="  152.640">  5  7 -1 -1</clus>
<clus scale="  572.046">  1 10  2 -1</clus>
<clus scale="  128.588">  1  5  2 -1</clus>
</clustering>
</event>
<event>
10    4  0.3403565E-005  0.3522281E+03  0.7546771E-02  0.1115141E+00
          2   -1    0    0  502    0 -0.00000000000E+00  0.00000000000E+00  0.87013403339E+03  0.87013403339E+03  0.00000000000E+00 0. -1.
         21   -1    0    0  503  502  0.00000000000E+00 -0.00000000000E+00 -0.22658460578E+03  0.22658460578E+03  0.00000000000E+00 0. -1.
         24    2    1    2    0    0 -0.13826119962E+01 -0.28031487029E+02  0.44609031024E+02  0.95394695394E+02  0.79514189799E+02 0.  0.
         23    2    1    2    0    0 -0.12521899110E+03 -0.29612924914E+03  0.33567440572E+03  0.47372731434E+03  0.91476410971E+02 0.  0.
        -13    1    3    3    0    0  0.87488051132E+00 -0.22005755103E+02 -0.20428861226E+02  0.30039258389E+02  0.00000000000E+00 0.  1.
         14    1    3    3    0    0 -0.22574925075E+01 -0.60257319262E+01  0.65037892251E+02  0.65355437005E+02  0.00000000000E+00 0. -1.
        -11    1    4    4    0    0 -0.24158818398E+02 -0.65513491901E+02  0.25766586501E+02  0.74428375686E+02  0.00000000000E+00 0.  1.
         11    1    4    4    0    0 -0.10106017271E+03 -0.23061575724E+03  0.30990781922E+03  0.39929893865E+03  0.00000000000E+00 0. -1.
         21    1    1    2  503  501  0.23480795994E+02 -0.20097697246E+02 -0.44683140268E+02  0.54330914214E+02  0.00000000000E+00 0. -1.
          1    1    1    2  501    0  0.10312080711E+03  0.34425843342E+03  0.30794913114E+03  0.47326571522E+03  0.00000000000E+00 0. -1.
<scales pt_clust_5="13000.00000" pt_clust_6="13000.00000" pt_clust_7="13000.00000" pt_clust_8="13000.00000" pt_clust_9="30.90737" pt_clust_10="340.14219"></scales>
<clustering>
<clus scale="   30.907">  2  9  1 -1</clus>
<clus scale="   79.514">  5  6 -1 -1</clus>
<clus scale="   85.335">  1  5  2 -1</clus>
<clus scale="   91.476">  7  8 -1 -1</clus>
<clus scale="  340.142">  2 10  1 -1</clus>
<clus scale="   30.907">  2  5  1 -1</clus>
</clustering>
</event>
<event>
10    4  0.3403565E-005  0.9723811E+02  0.7546771E-02  0.1292354E+00
         21   -1    0    0  503  502  0.00000000000E+00  0.00000000000E+00  0.10340769683E+04  0.10340769683E+04  0.00000000000E+00 0.  1.
         -3   -1    0    0    0  501 -0.00000000000E+00 -0.00000000000E+00 -0.61225688190E+02  0.61225688190E+02  0.00000000000E+00 0.  1.
         23    2    1    2    0    0 -0.30831808078E+02 -0.20458010675E+02  0.22354842517E+02  0.99175610728E+02  0.89257672999E+02 0.  0.
         24    2    1    2    0    0  0.17616388287E+02  0.80615192055E+02  0.89731695137E+03  0.90443851658E+03  0.77602659293E+02 0.  0.
        -11    1    4    4    0    0  0.22544434834E+02  0.62219042658E+02  0.31821338315E+03  0.32502187315E+03  0.00000000000E+00 0.  1.
         12    1    4    4    0    0 -0.49280465463E+01  0.18396149397E+02  0.57910356822E+03  0.57941664343E+03  0.00000000000E+00 0. -1.
        -13    1    3    3    0    0 -0.60640353181E+02 -0.40184772796E+01  0.50349921946E+01  0.60981568854E+02  0.00000000000E+00 0.  1.
         13    1    3    3    0    0  0.29808545103E+02 -0.16439533395E+02  0.17319850322E+02  0.38194041873E+02  0.00000000000E+00 0. -1.
         21    1    1    2  503  501  0.85348392130E+01 -0.20635103864E+02  0.46157686332E+02  0.51275559474E+02  0.00000000000E+00 0.  1.
         -4    1    1    2    0  502  0.46805805771E+01 -0.39522077517E+02  0.70217998728E+01  0.40412969691E+02  0.00000000000E+00 0.  1.
<scales pt_clust_5="13000.00000" pt_clust_6="13000.00000" pt_clust_7="13000.00000" pt_clust_8="13000.00000" pt_clust_9="22.33049" pt_clust_10="40.31595"></scales>
<clustering>
<clus scale="   22.330">  1  9  2 -1</clus>
<clus scale="   40.316">  1 10  2 -1</clus>
<clus scale="   77.603">  5  6 -1 -1</clus>
<clus scale="   86.663">  1  5  2 -1</clus>
<clus scale="   89.258">  7  8 -1 -1</clus>
<clus scale="   22.330">  1  5  2 -1</clus>
</clustering>
</event>
<event>
10    4  0.3403565E-005  0.1567611E+03  0.7546771E-02  0.1198039E+00
         21   -1    0    0  501  502  0.00000000000E+00  0.00000000000E+00  0.67249908463E+02  0.67249908463E+02  0.00000000000E+00 0.  1.
          2   -1    0    0  503    0 -0.00000000000E+00 -0.00000000000E+00 -0.98312343791E+03  0.98312343791E+03  0.00000000000E+00 0. -1.
         23    2    1    2    0    0  0.70743065260E+02  0.42666550964E+02 -0.28836975176E+03  0.31868054135E+03  0.10758790755E+03 0.  0.
         24    2    1    2    0    0 -0.11967724100E+03 -0.12173365921E+03 -0.16729188912E+03  0.25165082613E+03  0.78739039408E+02 0.  0.
        -11    1    4    4    0    0 -0.12104762622E+03 -0.88089273188E+02 -0.11220896064E+03  0.18709115081E+03  0.00000000000E+00 0.  1.
         12    1    4    4    0    0  0.13703852224E+01 -0.33644386024E+02 -0.55082928484E+02  0.64559675316E+02  0.00000000000E+00 0. -1.
        -13    1    3    3    0    0  0.46098073534E+02 -0.31659272874E+02 -0.14331788629E+03  0.15384199190E+03  0.00000000000E+00 0.  1.
         13    1    3    3    0    0  0.24644991727E+02  0.74325823839E+02 -0.14505186547E+03  0.16483854945E+03  0.00000000000E+00 0. -1.
         21    1    1    2  503  502  0.43038168203E+02 -0.12131875412E+02 -0.13355091249E+03  0.14083789458E+03  0.00000000000E+00 0.  1.
          1    1    1    2  501    0  0.58960075383E+01  0.91198983660E+02 -0.32666097608E+03  0.33920408432E+03  0.00000000000E+00 0. -1.
<scales pt_clust_5="13000.00000" pt_clust_6="13000.00000" pt_clust_7="13000.00000" pt_clust_8="13000.00000" pt_clust_9="44.71539" pt_clust_10="89.39001"></scales>
<clustering>
<clus scale="   44.715">  2  9  1 -1</clus>
<clus scale="   78.739">  5  6 -1 -1</clus>
<clus scale="   89.390">  1 10  2 -1</clus>
<clus scale="  107.588">  7  8 -1 -1</clus>
<clus scale="  138.559">  1  5  2 -1</clus>
<clus scale="   89.390">  1  5  2 -1</clus>
</clustering>
</event>
<event>
10    4  0.3943448E-005  0.3644659E+03  0.7546771E-02  0.1107139E+00
          2   -1    0    0  503    0 -0.00000000000E+00  0.00000000000E+00  0.18937309587E+04  0.18937309587E+04  0.00000000000E+00 0. -1.
         21   -1    0    0  501  502  0.00000000000E+00 -0.00000000000E+00 -0.98768532076E+02  0.98768532076E+02  0.00000000000E+00 0. -1.
         23    2    1    2    0    0 -0.72036338898E+00  0.36530224227E+02  0.12030607191E+03  0.15374183580E+03  0.88476126336E+02 0.  0.
         24    2    1    2    0    0  0.28268786616E+03  0.20348766725E+03  0.65968955436E+03  0.75043461917E+03  0.81499381084E+02 0.  0.
        -13    1    4    4    0    0  0.69890225619E+02  0.57223305108E+02  0.10445865620E+03  0.13809692661E+03  0.00000000000E+00 0.  1.
         14    1    4    4    0    0  0.21279764054E+03  0.14626436214E+03  0.55523089816E+03  0.61233769256E+03  0.00000000000E+00 0. -1.
        -13    1    3    3    0    0  0.75699321604E+01  0.60222193228E+02  0.48557365146E+02  0.77729236069E+02  0.00000000000E+00 0. -1.
         13    1    3    3    0    0 -0.82902955494E+01 -0.23691969001E+02  0.71748706767E+02  0.76012599733E+02  0.00000000000E+00 0.  1.
         21    1    1    2  503  502  0.11326651303E+02 -0.20739875012E+02  0.35588162130E+02  0.42719465458E+02  0.00000000000E+00 0.  1.
          1    1    1    2  501    0 -0.29329415407E+03 -0.21927801647E+03  0.97937863822E+03  0.10456035703E+04  0.00000000000E+00 0. -1.
<scales pt_clust_5="13000.00000" pt_clust_6="13000.00000" pt_clust_7="13000.00000" pt_clust_8="13000.00000" pt_clust_9="23.63124" pt_clust_10="355.23710"></scales>
<clustering>
<clus scale="   23.631">  2  9  1 -1</clus>
<clus scale="   81.499">  5  6 -1 -1</clus>
<clus scale="   88.476">  7  8 -1 -1</clus>
<clus scale="   94.400">  1  7  2 -1</clus>
<clus scale="  355.237">  2 10  1 -1</clus>
<clus scale="   23.631">  2  5  1 -1</clus>
</clustering>
</event>
<event>
10    4  0.3403565E-005  0.2432563E+03  0.7546771E-02  0.1119555E+00
         21   -1    0    0  503  502  0.00000000000E+00  0.00000000000E+00  0.76710511579E+02  0.76710511579E+02  0.00000000000E+00 0. -1.
          2   -1    0    0  502    0 -0.00000000000E+00 -0.00000000000E+00 -0.11952386612E+04  0.11952386612E+04  0.00000000000E+00 0. -1.
         23    2    1    2    0    0 -0.23320535713E+03  0.10947360058E+03 -0.75573905830E+03  0.80585682380E+03  0.10906185585E+03 0.  0.
         24    2    1    2    0    0  0.15843007797E+03 -0.45469730110E+02 -0.21599668152E+03  0.28338192820E+03  0.80518102562E+02 0.  0.
        -11    1    4    4    0    0  0.73798542695E+00 -0.22158467293E+02 -0.41397094271E+02  0.46960214111E+02  0.00000000000E+00 0.  1.
         12    1    4    4    0    0  0.15769209255E+03 -0.23311262817E+02 -0.17459958725E+03  0.23642171409E+03  0.00000000000E+00 0. -1.
        -11    1    3    3    0    0 -0.19284288525E+03  0.36532529429E+02 -0.54110247818E+03  0.57559959693E+03  0.00000000000E+00 0. -1.
         11    1    3    3    0    0 -0.40362471880E+02  0.72941071153E+02 -0.21463658012E+03  0.23025722686E+03  0.00000000000E+00 0.  1.
         21    1    1    2  503  501  0.23361044582E+02 -0.42549156064E+02 -0.42707597169E+02  0.64653754274E+02  0.00000000000E+00 0. -1.
          1    1    1    2  501    0  0.51414234575E+02 -0.21454714408E+02 -0.10408481266E+03  0.11805666654E+03  0.00000000000E+00 0. -1.
<scales pt_clust_5="13000.00000" pt_clust_6="13000.00000" pt_clust_7="13000.00000" pt_clust_8="13000.00000" pt_clust_9="43.25356" pt_clust_10="108.78918"></scales>
<clustering>
<clus scale="   43.254">  9 10 -1 -1</clus>
<clus scale="   80.518">  5  6 -1 -1</clus>
<clus scale="  108.789">  1  9  2 -1</clus>
<clus scale="  109.062">  7  8 -1 -1</clus>
<clus scale="  231.867">  1  5  2 -1</clus>
<clus scale="  108.789">  1  5  2 -1</clus>
</clustering>
</event>
<event>
10    4  0.3608830E-005  0.9218478E+02  0.7546771E-02  0.1304228E+00
          2   -1    0    0  503    0 -0.00000000000E+00  0.00000000000E+00  0.38776677813E+03  0.38776677813E+03  0.00000000000E+00 0. -1.
         21   -1    0    0  501  502  0.00000000000E+00 -0.00000000000E+00 -0.33465409305E+03  0.33465409305E+03  0.00000000000E+00 0.  1.
         24    2    1    2    0    0  0.13242183742E+02  0.77341886904E+01  0.24172994450E+03  0.25495279640E+03  0.79576310665E+02 0.  0.
         23    2    1    2    0    0 -0.15285960049E+02 -0.47867454552E+02  0.40068871754E+01  0.10345248584E+03  0.90340510860E+02 0.  0.
        -11    1    3    3    0    0  0.29230248605E+02  0.32976746371E+02  0.19152376918E+03  0.19652793031E+03  0.00000000000E+00 0.  1.
         12    1    3    3    0    0 -0.15988064863E+02 -0.25242557681E+02  0.50206175328E+02  0.58424866088E+02  0.00000000000E+00 0. -1.
        -13    1    4    4    0    0 -0.19218663690E+02 -0.71373641604E+02  0.17645783457E+02  0.75992943249E+02  0.00000000000E+00 0.  1.
         13    1    4    4    0    0  0.39327036412E+01  0.23506187052E+02 -0.13638896282E+02  0.27459542594E+02  0.00000000000E+00 0. -1.
         21    1    1    2  503  502  0.67997448398E+02  0.70670298515E+01 -0.25710007519E+03  0.26603391619E+03  0.00000000000E+00 0.  1.
          1    1    1    2  501    0 -0.65953672091E+02  0.33066236010E+02  0.64475928593E+02  0.97981672746E+02  0.00000000000E+00 0. -1.
<scales pt_clust_5="13000.00000" pt_clust_6="13000.00000" pt_clust_7="13000.00000" pt_clust_8="13000.00000" pt_clust_9="68.36370" pt_clust_10="61.15559"></scales>
<clustering>
<clus scale="   68.364">  2  9  1 -1</clus>
<clus scale="   61.156">  2 10  1 -1</clus>
<clus scale="   79.576">  5  6 -1 -1</clus>
<clus scale="   81.664">  1  5  2 -1</clus>
<clus scale="   90.341">  7  8 -1 -1</clus>
<clus scale="   68.364">  2  5  1 -1</clus>
</clustering>
</event>
<event>
10    4  0.3403565E-005  0.4491914E+03  0.7546771E-02  0.1062900E+00
         -1   -1    0    0    0  501 -0.00000000000E+00  0.00000000000E+00  0.32615135230E+03  0.32615135230E+03  0.00000000000E+00 0.  1.
         21   -1    0    0  503  502  0.00000000000E+00 -0.00000000000E+00 -0.98884206197E+03  0.98884206197E+03  0.00000000000E+00 0.  1.
         24    2    1    2    0    0 -0.13388715042E+03 -0.53121934309E+02 -0.45370351638E+02  0.16658161224E+03  0.70308290952E+02 0.  0.
         23    2    1    2    0    0 -0.16375713549E+03  0.40411029069E+03 -0.34472505430E+03  0.56335654313E+03  0.91726251206E+02 0.  0.
        -13    1    3    3    0    0 -0.94302290027E+01 -0.24414476573E+02 -0.26894327856E+02  0.37527333455E+02  0.00000000000E+00 0.  1.
         14    1    3    3    0    0 -0.12445692141E+03 -0.28707457736E+02 -0.18476023781E+02  0.12905427878E+03  0.00000000000E+00 0. -1.
        -13    1    4    4    0    0 -0.14472269317E+03  0.23974782412E+03 -0.22149345336E+03  0.35704765364E+03  0.00000000000E+00 0.  1.
         13    1    4    4    0    0 -0.19034442311E+02  0.16436246657E+03 -0.12323160094E+03  0.20630888949E+03  0.00000000000E+00 0. -1.
         21    1    1    2  503  501 -0.32516588149E+02 -0.21954833208E+02 -0.62451780788E+02  0.73753427918E+02  0.00000000000E+00 0. -1.
         -2    1    1    2    0  502  0.33016087405E+03 -0.32903352318E+03 -0.21014352295E+03  0.51130183098E+03  0.00000000000E+00 0.  1.
<scales pt_clust_5="13000.00000" pt_clust_6="13000.00000" pt_clust_7="13000.00000" pt_clust_8="13000.00000" pt_clust_9="39.23446" pt_clust_10="439.72654"></scales>
<clustering>
<clus scale="   39.234">  2  9  1 -1</clus>
<clus scale="   70.308">  5  6 -1 -1</clus>
<clus scale="   91.726">  7  8 -1 -1</clus>
<clus scale="  164.262">  1  5  2 -1</clus>
<clus scale="  439.727">  2 10  1 -1</clus>
<clus scale="   39.234">  2  5  1 -1</clus>
</clustering>
</event>
<event>
10    4  0.3403565E-005  0.3927463E+03  0.7546771E-02  0.1094081E+00
         21   -1    0    0  501  502  0.00000000000E+00  0.00000000000E+00  0.40956797468E+03  0.40956797468E+03  0.00000000000E+00 0. -1.
          2   -1    0    0  503    0 -0.00000000000E+00 -0.00000000000E+00 -0.89445242189E+03  0.89445242189E+03  0.00000000000E+00 0. -1.
         24    2    1    2    0    0 -0.14454087909E+02 -0.67877069333E+02 -0.36895161436E+03  0.38366540673E+03  0.79105204493E+02 0.  0.
         23    2    1    2    0    0 -0.32172263992E+03  0.15633153421E+03 -0.78709844858E+02  0.37736265928E+03  0.90897366931E+02 0.  0.
        -11    1    3    3    0    0 -0.22399083546E+01 -0.65659279693E+02 -0.14296058234E+03  0.15733367822E+03  0.00000000000E+00 0.  1.
         12    1    3    3    0    0 -0.12214179554E+02 -0.22177896396E+01 -0.22599103203E+03  0.22633172851E+03  0.00000000000E+00 0. -1.
        -11    1    4    4    0    0 -0.67825906912E+02  0.39530807302E+02 -0.57059971894E+02  0.97050908120E+02  0.00000000000E+00 0.  1.
         11    1    4    4    0    0 -0.25389673301E+03  0.11680072691E+03 -0.21649872964E+02  0.28031175116E+03  0.00000000000E+00 0. -1.
         21    1    1    2  503  502 -0.75583709714E+02 -0.22446548624E+02  0.77421824589E+02  0.11050286712E+03  0.00000000000E+00 0. -1.
          1    1    1    2  501    0  0.41176043754E+03 -0.66007916257E+02 -0.11464481258E+03  0.43248946344E+03  0.00000000000E+00 0. -1.
<scales pt_clust_5="13000.00000" pt_clust_6="13000.00000" pt_clust_7="13000.00000" pt_clust_8="13000.00000" pt_clust_9="78.84634" pt_clust_10="382.08284"></scales>
<clustering>
<clus scale="   78.846">  1  9  2 -1</clus>
<clus scale="   79.105">  5  6 -1 -1</clus>
<clus scale="   90.897">  7  8 -1 -1</clus>
<clus scale="  105.826">  2  5  1 -1</clus>
<clus scale="  382.083">  1 10  2 -1</clus>
<clus scale="   78.846">  1  5  2 -1</clus>
</clustering>
</event>
<event>
10    4  0.3403565E-005  0.1429135E+03  0.7546771E-02  0.1212809E+00
         21   -1    0    0  501  502  0.00000000000E+00  0.00000000000E+00  0.34137354612E+03  0.34137354612E+03  0.00000000000E+00 0.  1.
          2   -1    0    0  503    0 -0.00000000000E+00 -0.00000000000E+00 -0.16340500567E+03  0.16340500567E+03  0.00000000000E+00 0. -1.
         23    2    1    2    0    0 -0.76068612396E+02 -0.26220681197E+02 -0.19294102559E+01  0.12496294741E+03  0.95593188499E+02 0.  0.
         24    2    1    2    0    0  0.13647749522E+03  0.54816370035E+02  0.25153663073E+02  0.16936960717E+03  0.80139977170E+02 0.  0.
        -13    1    4    4    0    0  0.13600234666E+03  0.60350219973E+02  0.39534233616E+02  0.15395370400E+03  0.00000000000E+00 0.  1.
         14    1    4    4    0    0  0.47514855857E+00 -0.55338499380E+01 -0.14380570543E+02  0.15415903166E+02  0.00000000000E+00 0. -1.
        -11    1    3    3    0    0 -0.58988446205E+02 -0.60320021126E+02 -0.12732747742E+02  0.85324466593E+02  0.00000000000E+00 0.  1.
         11    1    3    3    0    0 -0.17080166191E+02  0.34099339929E+02  0.10803337486E+02  0.39638480818E+02  0.00000000000E+00 0. -1.
         21    1    1    2  503  502 -0.27761195319E+02  0.42657979167E+02  0.10747792586E+03  0.11891968592E+03  0.00000000000E+00 0.  1.
          1    1    1    2  501    0 -0.32647687508E+02 -0.71253668005E+02  0.47266361775E+02  0.91526311295E+02  0.00000000000E+00 0. -1.
<scales pt_clust_5="13000.00000" pt_clust_6="13000.00000" pt_clust_7="13000.00000" pt_clust_8="13000.00000" pt_clust_9="50.89585" pt_clust_10="71.30916"></scales>
<clustering>
<clus scale="   50.896">  1  9  2 -1</clus>
<clus scale="   71.309">  1 10  2 -1</clus>
<clus scale="   80.140">  5  6 -1 -1</clus>
<clus scale="   95.593">  7  8 -1 -1</clus>
<clus scale="  133.074">  1  5  2 -1</clus>
<clus scale="   50.896">  1  5  2 -1</clus>
</clustering>
</event>
<event>
10    4  0.3403565E-005  0.1129621E+03  0.7546771E-02  0.1266410E+00
          2   -1    0    0  503    0 -0.00000000000E+00  0.00000000000E+00  0.62931301163E+03  0.62931301163E+03  0.00000000000E+00 0. -1.
         21   -1    0    0  501  502  0.00000000000E+00 -0.00000000000E+00 -0.63128846497E+02  0.63128846497E+02  0.00000000000E+00 0. -1.
         24    2    1    2    0    0 -0.44852829555E+02 -0.69376038030E+02  0.12586802916E+03  0.16136800539E+03  0.58069453460E+02 0.  0.
         23    2    1    2    0    0  0.62030762514E+02  0.55473186250E+01  0.51615157521E+02  0.12026712281E+03  0.89002629745E+02 0.  0.
        -11    1    3    3    0    0 -0.55649329203E+02 -0.37371111087E+02  0.88037527655E+02  0.11065285383E+03  0.00000000000E+00 0.  1.
         12    1    3    3    0    0  0.10796499648E+02 -0.32004926943E+02  0.37830501509E+02  0.50715151559E+02  0.00000000000E+00 0. -1.
        -13    1    4    4    0    0  0.30233126700E+02 -0.14863421060E+02  0.70418415275E+02  0.78062260059E+02  0.00000000000E+00 0.  1.
         13    1    4    4    0    0  0.31797635814E+02  0.20410739685E+02 -0.18803257754E+02  0.42204862753E+02  0.00000000000E+00 0. -1.
         21    1    1    2  503  502  0.31898939182E+02 -0.84784189841E+01  0.42863841823E+02  0.54099305405E+02  0.00000000000E+00 0.  1.
          1    1    1    2  501    0 -0.49076872141E+02  0.72307138389E+02  0.34583713662E+03  0.35670742452E+03  0.00000000000E+00 0. -1.
<scales pt_clust_5="13000.00000" pt_clust_6="13000.00000" pt_clust_7="13000.00000" pt_clust_8="13000.00000" pt_clust_9="33.00645" pt_clust_10="85.05779"></scales>
<clustering>
<clus scale="   33.006">  2  9  1 -1</clus>
<clus scale="   58.069">  5  6 -1 -1</clus>
<clus scale="   85.058">  2 10  1 -1</clus>
<clus scale="   89.003">  7  8 -1 -1</clus>
<clus scale="   90.615">  1  5  2 -1</clus>
<clus scale="   33.006">  2  5  1 -1</clus>
</clustering>
</event>
<event>
10    4  0.3403565E-005  0.2584013E+03  0.7546771E-02  0.1143992E+00
         21   -1    0    0  503  502  0.00000000000E+00  0.00000000000E+00  0.49317593994E+03  0.49317593994E+03  0.00000000000E+00 0.  1.
          2   -1    0    0  502    0 -0.00000000000E+00 -0.00000000000E+00 -0.31974070822E+03  0.31974070822E+03  0.00000000000E+00 0. -1.
         23    2    1    2    0    0  0.19948977358E+02  0.51178455886E+02 -0.71368536686E+02  0.12807032617E+03  0.91056819470E+02 0.  0.
         24    2    1    2    0    0 -0.16942651590E+03  0.19815164664E+03  0.71967007627E+01  0.27485771216E+03  0.86749928405E+02 0.  0.
        -13    1    4    4    0    0 -0.17727646389E+03  0.19762157792E+03  0.21149328935E+01  0.26549144177E+03  0.00000000000E+00 0.  1.
         14    1    4    4    0    0  0.78499479967E+01  0.53006871567E+00  0.50817678692E+01  0.93662703928E+01  0.00000000000E+00 0. -1.
        -13    1    3    3    0    0  0.27348783699E+02 -0.40568226856E+01  0.10039654332E+02  0.29414425699E+02  0.00000000000E+00 0.  1.
         13    1    3    3    0    0 -0.73998063412E+01  0.55235278571E+02 -0.81408191018E+02  0.98655900470E+02  0.00000000000E+00 0. -1.
         21    1    1    2  503  501  0.10718165360E+03 -0.31388369961E+02  0.69869364788E+02  0.13173786385E+03  0.00000000000E+00 0.  1.
          1    1    1    2  501    0  0.42295884940E+02 -0.21794173256E+03  0.16773770286E+03  0.27825074597E+03  0.00000000000E+00 0. -1.
<scales pt_clust_5="13000.00000" pt_clust_6="13000.00000" pt_clust_7="13000.00000" pt_clust_8="13000.00000" pt_clust_9="112.61574" pt_clust_10="243.40441"></scales>
<clustering>
<clus scale="   86.750">  5  6 -1 -1</clus>
<clus scale="   91.057">  7  8 -1 -1</clus>
<clus scale="  106.342">  2  7  1 -1</clus>
<clus scale="  112.616">  1  9  2 -1</clus>
<clus scale="  243.404">  1 10  2 -1</clus>
<clus scale="  112.616">  1  5  2 -1</clus>
</clustering>
</event>
<event>
10    4  0.3403565E-005  0.1619970E+03  0.7546771E-02  0.1189526E+00
         21   -1    0    0  503  502  0.00000000000E+00  0.00000000000E+00  0.15889319519E+03  0.15889319519E+03  0.00000000000E+00 0.  1.
         -3   -1    0    0    0  501 -0.00000000000E+00 -0.00000000000E+00 -0.55507560196E+03  0.55507560196E+03  0.00000000000E+00 0.  1.
         24    2    1    2    0    0  0.57436342820E+02  0.11029991269E+03 -0.18621552390E+03  0.23607644283E+03  0.74772062303E+02 0.  0.
         23    2    1    2    0    0 -0.54199629082E+02 -0.14568382316E+03 -0.25202774091E+02  0.18363756604E+03  0.94478567497E+02 0.  0.
        -13    1    3    3    0    0  0.19776708294E+02  0.98983338966E+02 -0.15870514374E+03  0.18808546524E+03  0.00000000000E+00 0.  1.
         14    1    3    3    0    0  0.37659634527E+02  0.11316573728E+02 -0.27510380152E+02  0.47990977587E+02  0.00000000000E+00 0. -1.
        -11    1    4    4    0    0 -0.48055561698E+01 -0.26340860535E+02  0.32554354458E+02  0.42151160102E+02  0.00000000000E+00 0.  1.
         11    1    4    4    0    0 -0.49394072912E+02 -0.11934296262E+03 -0.57757128549E+02  0.14148640594E+03  0.00000000000E+00 0. -1.
         21    1    1    2  503  501 -0.20504528977E+02 -0.18927033566E+02  0.47506020004E+02  0.55095283327E+02  0.00000000000E+00 0.  1.
         -4    1    1    2    0  502  0.17267815239E+02  0.54310944028E+02 -0.23227012879E+03  0.23915950496E+03  0.00000000000E+00 0.  1.
<scales pt_clust_5="13000.00000" pt_clust_6="13000.00000" pt_clust_7="13000.00000" pt_clust_8="13000.00000" pt_clust_9="27.90463" pt_clust_10="56.21534"></scales>
<clustering>
<clus scale="   27.905">  1  9  2 -1</clus>
<clus scale="   56.215">  1 10  2 -1</clus>
<clus scale="   74.772">  5  6 -1 -1</clus>
<clus scale="   94.479">  7  8 -1 -1</clus>
<clus scale="  151.353">  2  5  1 -1</clus>
<clus scale="   27.905">  1  5  2 -1</clus>
</clustering>
</event>
<event>
10    4  0.3403565E-005  0.1261547E+03  0.7546771E-02  0.1244516E+00
         21   -1    0    0  501  502  0.00000000000E+00  0.00000000000E+00  0.99870761873E+02  0.99870761873E+02  0.00000000000E+00 0.  1.
         -1   -1    0    0    0  501 -0.00000000000E+00 -0.00000000000E+00 -0.62622242168E+03  0.62622242168E+03  0.00000000000E+00 0.  1.
         23    2    1    2    0    0  0.34189778156E+02 -0.24938682871E+02 -0.83330309836E+01  0.10267057113E+03  0.93171497448E+02 0.  0.
         24    2    1    2    0    0  0.76569024707E+02 -0.48630116962E+01 -0.45220005670E+03  0.46571785821E+03  0.80757462493E+02 0.  0.
        -13    1    4    4    0    0  0.92250121720E+02  0.34240015821E+01 -0.40242320353E+03  0.41287557870E+03  0.00000000000E+00 0.  1.
         14    1    4    4    0    0 -0.15681097014E+02 -0.82870132784E+01 -0.49776853166E+02  0.52842279509E+02  0.00000000000E+00 0. -1.
        -11    1    3    3    0    0  0.65305111914E+02 -0.22936545053E+02  0.35410244057E+01  0.69306432565E+02  0.00000000000E+00 0.  1.
         11    1    3    3    0    0 -0.31115333758E+02 -0.20021378182E+01 -0.11874055389E+02  0.33364138564E+02  0.00000000000E+00 0. -1.
         21    1    1    2  503  502 -0.19618364435E+02 -0.82910911906E+01  0.18207633920E+02  0.28020355980E+02  0.00000000000E+00 0.  1.
         -2    1    1    2    0  503 -0.91140438427E+02  0.38092785758E+02 -0.84026206042E+02  0.12968439823E+03  0.00000000000E+00 0.  1.
<scales pt_clust_5="13000.00000" pt_clust_6="13000.00000" pt_clust_7="13000.00000" pt_clust_8="13000.00000" pt_clust_9="21.29841" pt_clust_10="96.91875"></scales>
<clustering>
<clus scale="   21.298">  1  9  2 -1</clus>
<clus scale="   80.757">  5  6 -1 -1</clus>
<clus scale="   93.171">  7  8 -1 -1</clus>
<clus scale="  100.364">  2  7  1 -1</clus>
<clus scale="   96.919">  1 10  2 -1</clus>
<clus scale="   21.298">  1  5  2 -1</clus>
</clustering>
</event>
<event>
10    4  0.3403565E-005  0.2274009E+03  0.7546771E-02  0.1129338E+00
         21   -1    0    0  503  502  0.00000000000E+00  0.00000000000E+00  0.10035743394E+03  0.10035743394E+03  0.00000000000E+00 0. -1.
          2   -1    0    0  502    0 -0.00000000000E+00 -0.00000000000E+00 -0.17180797879E+04  0.17180797879E+04  0.00000000000E+00 0. -1.
         23    2    1    2    0    0 -0.16407684763E+03 -0.10271088692E+03 -0.10374987355E+04  0.10593999201E+04  0.91944692562E+02 0.  0.
         24    2    1    2    0    0  0.18731488974E+03  0.16618775897E+03 -0.53639676622E+03  0.59728456626E+03  0.79511779792E+02 0.  0.
        -13    1    4    4    0    0  0.12245582227E+03  0.10000106291E+03 -0.41823192855E+03  0.44711697245E+03  0.00000000000E+00 0.  1.
         14    1    4    4    0    0  0.64859067469E+02  0.66186696067E+02 -0.11816483767E+03  0.15016759381E+03  0.00000000000E+00 0. -1.
        -11    1    3    3    0    0 -0.34216998980E+00 -0.31723707212E+02 -0.95091017568E+02  0.10024376440E+03  0.00000000000E+00 0.  1.
         11    1    3    3    0    0 -0.16373467764E+03 -0.70987179709E+02 -0.94240771788E+03  0.95915615573E+03  0.00000000000E+00 0. -1.
         21    1    1    2  503  501 -0.12124264578E+02  0.39263322026E+02  0.13903521459E+02  0.43381034532E+02  0.00000000000E+00 0. -1.
          1    1    1    2  501    0 -0.11113777533E+02 -0.10274019408E+03 -0.57730373783E+02  0.11837170096E+03  0.00000000000E+00 0. -1.
<scales pt_clust_5="13000.00000" pt_clust_6="13000.00000" pt_clust_7="13000.00000" pt_clust_8="13000.00000" pt_clust_9="41.09265" pt_clust_10="87.65741"></scales>
<clustering>
<clus scale="   41.093">  1  9  2 -1</clus>
<clus scale="   79.512">  5  6 -1 -1</clus>
<clus scale="   87.657">  1 10  2 -1</clus>
<clus scale="   91.945">  7  8 -1 -1</clus>
<clus scale="  222.664">  1  5  2 -1</clus>
<clus scale="   41.093">  1  5  2 -1</clus>
</clustering>
</event>
<event>
10    4  0.3403565E-005  0.1361210E+03  0.7546771E-02  0.1235149E+00
         21   -1    0    0  501  502  0.00000000000E+00  0.00000000000E+00  0.82078002363E+03  0.82078002363E+03  0.00000000000E+00 0. -1.
          2   -1    0    0  503    0 -0.00000000000E+00 -0.00000000000E+00 -0.35014417675E+03  0.35014417675E+03  0.00000000000E+00 0. -1.
         24    2    1    2    0    0 -0.51797532597E+02 -0.23919878099E+02 -0.29061778673E+03  0.30627062314E+03  0.78024686348E+02 0.  0.
         23    2    1    2    0    0 -0.66471633989E+02 -0.27958367402E+02  0.20374298715E+03  0.23443244715E+03  0.90814200608E+02 0.  0.
        -11    1    3    3    0    0  0.12807677423E+02 -0.24821262990E+02 -0.13342330642E+03  0.13631548112E+03  0.00000000000E+00 0.  1.
         12    1    3    3    0    0 -0.64605210021E+02  0.90138489106E+00 -0.15719448031E+03  0.16995514202E+03  0.00000000000E+00 0. -1.
        -11    1    4    4    0    0 -0.47555933446E+02 -0.19964399428E+01  0.19558117998E+03  0.20128971792E+03  0.00000000000E+00 0.  1.
         11    1    4    4    0    0 -0.18915700543E+02 -0.25961927460E+02  0.81618071658E+01  0.33142729228E+02  0.00000000000E+00 0. -1.
         21    1    1    2  503  502  0.14082069404E+03 -0.59190689640E+01  0.54994651504E+03  0.56772059382E+03  0.00000000000E+00 0. -1.
          1    1    1    2  501    0 -0.22551527452E+02  0.57797314465E+02  0.75641314288E+01  0.62500536270E+02  0.00000000000E+00 0. -1.
<scales pt_clust_5="13000.00000" pt_clust_6="13000.00000" pt_clust_7="13000.00000" pt_clust_8="13000.00000" pt_clust_9="101.39873" pt_clust_10="62.04115"></scales>
<clustering>
<clus scale="   62.041">  1 10  2 -1</clus>
<clus scale="   78.025">  5  6 -1 -1</clus>
<clus scale="   90.814">  7  8 -1 -1</clus>
<clus scale="   96.639">  2  5  1 -1</clus>
<clus scale="  101.399">  1  9  2 -1</clus>
<clus scale="   62.041">  1  5  2 -1</clus>
</clustering>
</event>
<event>
10    4  0.3403565E-005  0.1535238E+03  0.7546771E-02  0.1207691E+00
         -1   -1    0    0    0  501 -0.00000000000E+00  0.00000000000E+00  0.73034349665E+02  0.73034349665E+02  0.00000000000E+00 0.  1.
         21   -1    0    0  501  502  0.00000000000E+00 -0.00000000000E+00 -0.13167564024E+04  0.13167564024E+04  0.00000000000E+00 0.  1.
         24    2    1    2    0    0 -0.27689908913E+02 -0.10276753227E+03 -0.14791861239E+03  0.19939004217E+03  0.80923274029E+02 0.  0.
         23    2    1    2    0    0  0.88312939027E+02 -0.20175707378E+02 -0.24809017131E+03  0.27942141635E+03  0.91221491157E+02 0.  0.
        -11    1    3    3    0    0 -0.14507495683E+02 -0.11349747156E+03 -0.11436080649E+03  0.16177310513E+03  0.00000000000E+00 0.  1.
         12    1    3    3    0    0 -0.13182413230E+02  0.10729939286E+02 -0.33557805898E+02  0.37616937041E+02  0.00000000000E+00 0. -1.
        -11    1    4    4    0    0  0.10274566119E+03 -0.42147165284E+01 -0.22739738799E+03  0.24956763971E+03  0.00000000000E+00 0.  1.
         11    1    4    4    0    0 -0.14432722165E+02 -0.15960990850E+02 -0.20692783319E+02  0.29853776637E+02  0.00000000000E+00 0. -1.
         21    1    1    2  503  502  0.77679605793E+02  0.55116857369E+02 -0.66593439445E+03  0.67271138449E+03  0.00000000000E+00 0.  1.
         -2    1    1    2    0  503 -0.13830263591E+03  0.67826382281E+02 -0.18177887456E+03  0.23826790902E+03  0.00000000000E+00 0.  1.
<scales pt_clust_5="13000.00000" pt_clust_6="13000.00000" pt_clust_7="13000.00000" pt_clust_8="13000.00000" pt_clust_9="95.24699" pt_clust_10="123.48361"></scales>
<clustering>
<clus scale="   80.923">  5  6 -1 -1</clus>
<clus scale="   91.221">  7  8 -1 -1</clus>
<clus scale="   95.247">  2  9  1 -1</clus>
<clus scale="  119.736">  1  5  2 -1</clus>
<clus scale="  123.484">  2 10  1 -1</clus>
<clus scale="   95.247">  2  5  1 -1</clus>
</clustering>
</event>
<event>
10    4  0.3403565E-005  0.1123002E+03  0.7546771E-02  0.1260488E+00
          2   -1    0    0  503    0 -0.00000000000E+00  0.00000000000E+00  0.60671738902E+03  0.60671738902E+03  0.00000000000E+00 0. -1.
         21   -1    0    0  501  502  0.00000000000E+00 -0.00000000000E+00 -0.40940075644E+03  0.40940075644E+03  0.00000000000E+00 0.  1.
         23    2    1    2    0    0  0.13806314478E+02 -0.57659741327E+02  0.47672392633E+03  0.48904240052E+03  0.91550573377E+02 0.  0.
         24    2    1    2    0    0 -0.18344194424E+02  0.95114458724E+02  0.82590833233E+02  0.15065202470E+03  0.80569951509E+02 0.  0.
        -13    1    4    4    0    0  0.83232241762E+01  0.66713621670E+02  0.95970233004E+01  0.67912342275E+02  0.00000000000E+00 0.  1.
         14    1    4    4    0    0 -0.26667418600E+02  0.28400837054E+02  0.72993809932E+02  0.82739682430E+02  0.00000000000E+00 0. -1.
        -13    1    3    3    0    0  0.18253359687E+01  0.25193413007E+02  0.11947637179E+03  0.12211733426E+03  0.00000000000E+00 0.  1.
         13    1    3    3    0    0  0.11980978509E+02 -0.82853154334E+02  0.35724755453E+03  0.36692506626E+03  0.00000000000E+00 0. -1.
         21    1    1    2  503  502  0.80952360428E+01 -0.67556870028E+02 -0.29716190504E+03  0.30485186787E+03  0.00000000000E+00 0.  1.
          1    1    1    2  501    0 -0.35573560967E+01  0.30102152631E+02 -0.64836221938E+02  0.71571852363E+02  0.00000000000E+00 0. -1.
<scales pt_clust_5="13000.00000" pt_clust_6="13000.00000" pt_clust_7="13000.00000" pt_clust_8="13000.00000" pt_clust_9="41.29903" pt_clust_10="30.31162"></scales>
<clustering>
<clus scale="   30.312">  2 10  1 -1</clus>
<clus scale="   41.299">  2  9  1 -1</clus>
<clus scale="   80.570">  5  6 -1 -1</clus>
<clus scale="   91.551">  7  8 -1 -1</clus>
<clus scale="  103.544">  2  5  1 -1</clus>
<clus scale="   30.312">  2  5  1 -1</clus>
</clustering>
</event>
<event>
10    4  0.3403565E-005  0.2352492E+03  0.7546771E-02  0.1123533E+00
          2   -1    0    0  503    0 -0.00000000000E+00  0.00000000000E+00  0.85973285703E+03  0.85973285703E+03  0.00000000000E+00 0. -1.
         21   -1    0    0  501  502  0.00000000000E+00 -0.00000000000E+00 -0.13222428493E+03  0.13222428493E+03  0.00000000000E+00 0.  1.
         24    2    1    2    0    0  0.14981012746E+03 -0.16020861986E+03  0.59465200985E+03  0.63893050114E+03  0.80692603769E+02 0.  0.
         23    2    1    2    0    0 -0.11653747713E+03  0.18038654598E+03  0.11025816622E+03  0.25736941333E+03  0.89229267346E+02 0.  0.
        -13    1    3    3    0    0  0.13493581142E+03 -0.15150562798E+03  0.45454741754E+03  0.49777001045E+03  0.00000000000E+00 0.  1.
         14    1    3    3    0    0  0.14874316039E+02 -0.87029918811E+01  0.14010459231E+03  0.14116049069E+03  0.00000000000E+00 0. -1.
        -11    1    4    4    0    0 -0.91778186680E+02  0.17205866739E+03  0.12058773282E+03  0.22927891722E+03  0.00000000000E+00 0. -1.
         11    1    4    4    0    0 -0.24759290454E+02  0.83278785856E+01 -0.10329566596E+02  0.28090496107E+02  0.00000000000E+00 0.  1.
         21    1    1    2  503  502  0.13974613066E+02 -0.28046106990E+02 -0.15023823445E+02  0.34750384150E+02  0.00000000000E+00 0.  1.
          1    1    1    2  501    0 -0.47247263395E+02  0.78681808709E+01  0.37622219472E+02  0.60906843348E+02  0.00000000000E+00 0. -1.
<scales pt_clust_5="13000.00000" pt_clust_6="13000.00000" pt_clust_7="13000.00000" pt_clust_8="13000.00000" pt_clust_9="31.33487" pt_clust_10="45.98546"></scales>
<clustering>
<clus scale="   31.335">  2  9  1 -1</clus>
<clus scale="   45.985">  2 10  1 -1</clus>
<clus scale="   80.693">  5  6 -1 -1</clus>
<clus scale="   89.229">  7  8 -1 -1</clus>
<clus scale="  232.146">  1  5  2 -1</clus>
<clus scale="   31.335">  2  5  1 -1</clus>
</clustering>
</event>
<event>
10    4  0.3403565E-005  0.1289921E+03  0.7546771E-02  0.1237516E+00
         21   -1    0    0  503  502  0.00000000000E+00  0.00000000000E+00  0.47827292271E+03  0.47827292271E+03  0.00000000000E+00 0. -1.
         -3   -1    0    0    0  501 -0.00000000000E+00 -0.00000000000E+00 -0.13182051156E+03  0.13182051156E+03  0.00000000000E+00 0.  1.
         23    2    1    2    0    0 -0.69590545503E+02  0.21326136262E+02 -0.65985130737E+02  0.14552348521E+03  0.10735641181E+03 0.  0.
         24    2    1    2    0    0  0.51446304409E+02 -0.51916289434E+02  0.15554314078E+03  0.19007885882E+03  0.81205175835E+02 0.  0.
        -13    1    4    4    0    0  0.41806778731E+02  0.10742492539E+02  0.84332188250E+02  0.94737140915E+02  0.00000000000E+00 0.  1.
         14    1    4    4    0    0  0.96395256782E+01 -0.62658781973E+02  0.71210952530E+02  0.95341717909E+02  0.00000000000E+00 0. -1.
        -11    1    3    3    0    0 -0.28806340514E+02  0.36791587162E+02 -0.85735560098E+02  0.97642267513E+02  0.00000000000E+00 0.  1.
         11    1    3    3    0    0 -0.40784204989E+02 -0.15465450900E+02  0.19750429361E+02  0.47881217696E+02  0.00000000000E+00 0. -1.
         21    1    1    2  503  501  0.42184050389E+02 -0.13425832300E+02  0.15036652895E+03  0.15674769571E+03  0.00000000000E+00 0. -1.
         -4    1    1    2    0  502 -0.24039809295E+02  0.44015985472E+02  0.10652787216E+03  0.11774339453E+03  0.00000000000E+00 0.  1.
<scales pt_clust_5="13000.00000" pt_clust_6="13000.00000" pt_clust_7="13000.00000" pt_clust_8="13000.00000" pt_clust_9="44.26903" pt_clust_10="40.50276"></scales>
<clustering>
<clus scale="   44.269">  1  9  2 -1</clus>
<clus scale="   40.503">  1 10  2 -1</clus>
<clus scale="   81.205">  5  6 -1 -1</clus>
<clus scale="  107.356">  7  8 -1 -1</clus>
<clus scale="  108.203">  1  5  2 -1</clus>
<clus scale="   44.269">  1  5  2 -1</clus>
</clustering>
</event>
<event>
10    4  0.3403565E-005  0.9009355E+02  0.7546771E-02  0.1302703E+00
         -1   -1    0    0    0  501 -0.00000000000E+00  0.00000000000E+00  0.50480737131E+03  0.50480737131E+03  0.00000000000E+00 0.  1.
         21   -1    0    0  501  502  0.00000000000E+00 -0.00000000000E+00 -0.95797597850E+02  0.95797597850E+02  0.00000000000E+00 0.  1.
         23    2    1    2    0    0 -0.95848720703E+01  0.17178518634E+02  0.21869856706E+03  0.23515880800E+03  0.84164306395E+02 0.  0.
         24    2    1    2    0    0  0.51668812299E+02 -0.33365236391E+02  0.13809315054E+03  0.17295424320E+03  0.84027060241E+02 0.  0.
        -11    1    4    4    0    0  0.72602025984E+02 -0.38706340327E+02  0.10428516919E+03  0.13283309630E+03  0.00000000000E+00 0.  1.
         12    1    4    4    0    0 -0.20933213685E+02  0.53411039353E+01  0.33807981346E+02  0.40121146906E+02  0.00000000000E+00 0. -1.
        -13    1    3    3    0    0  0.32121488158E+02 -0.12883726898E+02  0.76944742189E+02  0.84369862930E+02  0.00000000000E+00 0. -1.
         13    1    3    3    0    0 -0.41706360228E+02  0.30062245533E+02  0.14175382487E+03  0.15078894507E+03  0.00000000000E+00 0.  1.
         21    1    1    2  503  502 -0.29570851302E+01 -0.22048616466E+02 -0.61988086056E+02  0.65859005864E+02  0.00000000000E+00 0.  1.
         -2    1    1    2    0  503 -0.39126855099E+02  0.38235334223E+02  0.11420614192E+03  0.12663291209E+03  0.00000000000E+00 0.  1.
<scales pt_clust_5="13000.00000" pt_clust_6="13000.00000" pt_clust_7="13000.00000" pt_clust_8="13000.00000" pt_clust_9="22.24603" pt_clust_10="52.23115"></scales>
<clustering>
<clus scale="   22.246">  2  9  1 -1</clus>
<clus scale="   52.231">  2 10  1 -1</clus>
<clus scale="   84.027">  5  6 -1 -1</clus>
<clus scale="   84.164">  7  8 -1 -1</clus>
<clus scale="   89.965">  2  5  1 -1</clus>
<clus scale="   22.246">  2  5  1 -1</clus>
</clustering>
</event>
<event>
10    4  0.3403565E-005  0.2185449E+03  0.7546771E-02  0.1174415E+00
         21   -1    0    0  501  502  0.00000000000E+00  0.00000000000E+00  0.64280382143E+03  0.64280382143E+03  0.00000000000E+00 0. -1.
          2   -1    0    0  503    0 -0.00000000000E+00 -0.00000000000E+00 -0.53895228549E+03  0.53895228549E+03  0.00000000000E+00 0. -1.
         24    2    1    2    0    0 -0.21656070920E+02 -0.20500646967E+02 -0.25058525639E+03  0.26508775338E+03  0.81174406912E+02 0.  0.
         23    2    1    2    0    0  0.75853427999E+02  0.17771081721E+03 -0.10562521957E+03  0.23858981469E+03  0.91834283183E+02 0.  0.
        -13    1    3    3    0    0 -0.39215681281E+02 -0.38183830543E+02 -0.21351983018E+03  0.22042366582E+03  0.00000000000E+00 0.  1.
         14    1    3    3    0    0  0.17559610362E+02  0.17683183575E+02 -0.37065426215E+02  0.44664087564E+02  0.00000000000E+00 0. -1.
        -11    1    4    4    0    0  0.82228129677E+01  0.83431910191E+02 -0.33221023214E+01  0.83901934751E+02  0.00000000000E+00 0. -1.
         11    1    4    4    0    0  0.67630615031E+02  0.94278907022E+02 -0.10230311725E+03  0.15468787993E+03  0.00000000000E+00 0.  1.
         21    1    1    2  503  502 -0.72749579924E+02  0.14141317880E+03  0.29807258214E+03  0.33784234894E+03  0.00000000000E+00 0. -1.
          1    1    1    2  501    0  0.18552222845E+02 -0.29862334905E+03  0.16198942977E+03  0.34023618991E+03  0.00000000000E+00 0. -1.
<scales pt_clust_5="13000.00000" pt_clust_6="13000.00000" pt_clust_7="13000.00000" pt_clust_8="13000.00000" pt_clust_9="158.45311" pt_clust_10="198.31368"></scales>
<clustering>
<clus scale="   81.174">  5  6 -1 -1</clus>
<clus scale="   86.479">  2  5  1 -1</clus>
<clus scale="   91.834">  7  8 -1 -1</clus>
<clus scale="  158.453">  1  9  2 -1</clus>
<clus scale="  198.314">  1 10  2 -1</clus>
<clus scale="  158.453">  1  5  2 -1</clus>
</clustering>
</event>
<event>
10    4  0.3403565E-005  0.2121952E+03  0.7546771E-02  0.1139839E+00
          4   -1    0    0  503    0 -0.00000000000E+00  0.00000000000E+00  0.25527867154E+03  0.25527867154E+03  0.00000000000E+00 0. -1.
         21   -1    0    0  501  502  0.00000000000E+00 -0.00000000000E+00 -0.74868901581E+03  0.74868901581E+03  0.00000000000E+00 0. -1.
         24    2    1    2    0    0  0.10863633707E+02  0.76787555312E+02  0.12308888646E+03  0.16677922488E+03  0.81548075966E+02 0.  0.
         23    2    1    2    0    0  0.27778636482E+02  0.20932097123E+02  0.77120588357E+02  0.12420208536E+03  0.90932763750E+02 0.  0.
        -11    1    3    3    0    0 -0.31369033334E+02  0.36556740137E+02  0.83125629373E+02  0.96074355373E+02  0.00000000000E+00 0.  1.
         12    1    3    3    0    0  0.42232667041E+02  0.40230815175E+02  0.39963257084E+02  0.70704869505E+02  0.00000000000E+00 0. -1.
        -13    1    4    4    0    0  0.26240044748E+02 -0.16734361209E+01 -0.14358747623E+02  0.29958537517E+02  0.00000000000E+00 0.  1.
         13    1    4    4    0    0  0.15385917340E+01  0.22605533244E+02  0.91479335980E+02  0.94243547838E+02  0.00000000000E+00 0. -1.
         21    1    1    2  503  502  0.21084714585E+01  0.30322211998E+02 -0.11249419451E+03  0.11652821972E+03  0.00000000000E+00 0. -1.
          3    1    1    2  501    0 -0.40750741648E+02 -0.12804186443E+03 -0.58112562458E+03  0.59645815740E+03  0.00000000000E+00 0. -1.
<scales pt_clust_5="13000.00000" pt_clust_6="13000.00000" pt_clust_7="13000.00000" pt_clust_8="13000.00000" pt_clust_9="30.39543" pt_clust_10="107.15812"></scales>
<clustering>
<clus scale="   30.395">  2  9  1 -1</clus>
<clus scale="   81.548">  5  6 -1 -1</clus>
<clus scale="   90.933">  7  8 -1 -1</clus>
<clus scale="   95.607">  5  7 -1 -1</clus>
<clus scale="  107.158">  2 10  1 -1</clus>
<clus scale="   30.395">  2  5  1 -1</clus>
</clustering>
</event>
<event>
10    4  0.3403565E-005  0.9388611E+02  0.7546771E-02  0.1300809E+00
         21   -1    0    0  501  502  0.00000000000E+00  0.00000000000E+00  0.50621535901E+02  0.50621535901E+02  0.00000000000E+00 0. -1.
          2   -1    0    0  503    0 -0.00000000000E+00 -0.00000000000E+00 -0.45334684740E+03  0.45334684740E+03  0.00000000000E+00 0. -1.
         23    2    1    2    0    0  0.24526539693E+02  0.22957084499E+02 -0.20467165104E+03  0.22705963554E+03  0.92395965679E+02 0.  0.
         24    2    1    2    0    0  0.35763927484E+02 -0.64479396668E+01 -0.91231961795E+02  0.12705086298E+03  0.80610275381E+02 0.  0.
        -13    1    4    4    0    0 -0.21229693323E+02  0.16038469573E+02 -0.34335163337E+02  0.43437723538E+02  0.00000000000E+00 0.  1.
         14    1    4    4    0    0  0.56993620807E+02 -0.22486409240E+02 -0.56896798458E+02  0.83613139446E+02  0.00000000000E+00 0. -1.
        -11    1    3    3    0    0  0.38003244002E+02  0.40840442980E+02 -0.19472226149E+03  0.20255603535E+03  0.00000000000E+00 0. -1.
         11    1    3    3    0    0 -0.13476704309E+02 -0.17883358481E+02 -0.99493895430E+01  0.24503600181E+02  0.00000000000E+00 0.  1.
         21    1    1    2  503  502 -0.42126345125E+02  0.13190595375E+02 -0.77123598594E+01  0.44811842793E+02  0.00000000000E+00 0. -1.
          1    1    1    2  501    0 -0.18164122052E+02 -0.29699740208E+02 -0.99109338813E+02  0.10504604199E+03  0.00000000000E+00 0. -1.
<scales pt_clust_5="13000.00000" pt_clust_6="13000.00000" pt_clust_7="13000.00000" pt_clust_8="13000.00000" pt_clust_9="49.22399" pt_clust_10="34.81395"></scales>
<clustering>
<clus scale="   34.814">  1 10  2 -1</clus>
<clus scale="   49.224">  1  9  2 -1</clus>
<clus scale="   80.610">  5  6 -1 -1</clus>
<clus scale="   82.314">  1  5  2 -1</clus>
<clus scale="   92.396">  7  8 -1 -1</clus>
<clus scale="   34.814">  1  5  2 -1</clus>
</clustering>
</event>
<event>
10    4  0.3403565E-005  0.1363537E+03  0.7546771E-02  0.1223762E+00
         21   -1    0    0  501  502  0.00000000000E+00  0.00000000000E+00  0.90944500589E+02  0.90944500589E+02  0.00000000000E+00 0. -1.
          2   -1    0    0  503    0 -0.00000000000E+00 -0.00000000000E+00 -0.45352308173E+03  0.45352308173E+03  0.00000000000E+00 0. -1.
         23    2    1    2    0    0 -0.11951898593E+02 -0.83748326996E+02 -0.12181244229E+03  0.17972156361E+03  0.10151324631E+03 0.  0.
         24    2    1    2    0    0 -0.68889888644E+02  0.95773649252E+02 -0.77781968734E+02  0.16273214635E+03  0.80705068909E+02 0.  0.
        -13    1    4    4    0    0 -0.46879014755E+02  0.49492218701E+02 -0.87139038116E+02  0.11063604160E+03  0.00000000000E+00 0.  1.
         14    1    4    4    0    0 -0.22010873889E+02  0.46281430551E+02  0.93570693819E+01  0.52096104755E+02  0.00000000000E+00 0. -1.
        -11    1    3    3    0    0 -0.41664921021E+01  0.21506891219E+02 -0.53503471443E+01  0.22550659434E+02  0.00000000000E+00 0.  1.
         11    1    3    3    0    0 -0.77854064910E+01 -0.10525521821E+03 -0.11646209514E+03  0.15717090418E+03  0.00000000000E+00 0. -1.
         21    1    1    2  503  502  0.51593452262E+02 -0.12960023019E+02 -0.21238970332E+02  0.57279493483E+02  0.00000000000E+00 0. -1.
          1    1    1    2  501    0  0.29248334975E+02  0.93470076209E+00 -0.14174519978E+03  0.14473437887E+03  0.00000000000E+00 0. -1.
<scales pt_clust_5="13000.00000" pt_clust_6="13000.00000" pt_clust_7="13000.00000" pt_clust_8="13000.00000" pt_clust_9="58.88739" pt_clust_10="29.26328"></scales>
<clustering>
<clus scale="   29.263">  1 10  2 -1</clus>
<clus scale="   58.887">  1  9  2 -1</clus>
<clus scale="   80.705">  5  6 -1 -1</clus>
<clus scale="  101.513">  7  8 -1 -1</clus>
<clus scale="  121.658">  1  5  2 -1</clus>
<clus scale="   29.263">  1  5  2 -1</clus>
</clustering>
</event>
<event>
10    4  0.3403565E-005  0.1268340E+03  0.7546771E-02  0.1250346E+00
         21   -1    0    0  501  502  0.00000000000E+00  0.00000000000E+00  0.11989106480E+03  0.11989106480E+03  0.00000000000E+00 0. -1.
         -1   -1    0    0    0  501 -0.00000000000E+00 -0.00000000000E+00 -0.39726532722E+03  0.39726532722E+03  0.00000000000E+00 0.  1.
         23    2    1    2    0    0  0.11018344136E+01  0.27400593461E+02 -0.16493920702E+03  0.18746772369E+03  0.84777348694E+02 0.  0.
         24    2    1    2    0    0  0.84688945955E+02  0.75746479155E+02 -0.19327955485E+02  0.14450443778E+03  0.87167746352E+02 0.  0.
        -11    1    4    4    0    0  0.12905261829E+02 -0.19157786917E+02 -0.99181918182E+01  0.25138359361E+02  0.00000000000E+00 0.  1.
         12    1    4    4    0    0  0.71783684125E+02  0.94904266072E+02 -0.94097636663E+01  0.11936607842E+03  0.00000000000E+00 0. -1.
        -11    1    3    3    0    0 -0.33175506248E+02 -0.11007053355E+02 -0.45255924342E+02  0.57182760745E+02  0.00000000000E+00 0. -1.
         11    1    3    3    0    0  0.34277340661E+02  0.38407646816E+02 -0.11968328268E+03  0.13028496294E+03  0.00000000000E+00 0.  1.
         21    1    1    2  503  502 -0.19912463551E+02 -0.35657029473E+02  0.13342707947E+02  0.42964611145E+02  0.00000000000E+00 0. -1.
         -2    1    1    2    0  503 -0.65878316817E+02 -0.67490043144E+02 -0.10644980786E+03  0.14221961940E+03  0.00000000000E+00 0.  1.
<scales pt_clust_5="13000.00000" pt_clust_6="13000.00000" pt_clust_7="13000.00000" pt_clust_8="13000.00000" pt_clust_9="40.84030" pt_clust_10="92.13390"></scales>
<clustering>
<clus scale="   40.840">  1  9  2 -1</clus>
<clus scale="   84.777">  7  8 -1 -1</clus>
<clus scale="   87.168">  5  6 -1 -1</clus>
<clus scale="   87.858">  2  7  1 -1</clus>
<clus scale="   92.134">  1 10  2 -1</clus>
<clus scale="   40.840">  1  5  2 -1</clus>
</clustering>
</event>
<event>
10    4  0.3403565E-005  0.2439551E+03  0.7546771E-02  0.1131928E+00
          2   -1    0    0  503    0 -0.00000000000E+00  0.00000000000E+00  0.23698331390E+04  0.23698331390E+04  0.00000000000E+00 0. -1.
         21   -1    0    0  501  502  0.00000000000E+00 -0.00000000000E+00 -0.65846355826E+02  0.65846355826E+02  0.00000000000E+00 0. -1.
         24    2    1    2    0    0  0.52627790252E+02  0.13468423655E+03  0.33366004636E+03  0.37235276378E+03  0.80050148511E+02 0.  0.
         23    2    1    2    0    0  0.52683069064E+02 -0.25099390028E+03  0.55919234837E+03  0.62217962912E+03  0.92940651334E+02 0.  0.
        -13    1    3    3    0    0  0.13023505811E+02  0.11281111011E+03  0.18609316060E+03  0.21800601526E+03  0.00000000000E+00 0.  1.
         14    1    3    3    0    0  0.39604284441E+02  0.21873126445E+02  0.14756688575E+03  0.15434674852E+03  0.00000000000E+00 0. -1.
        -11    1    4    4    0    0  0.23887840229E+02 -0.12182711584E+03  0.37757995814E+03  0.39746584741E+03  0.00000000000E+00 0.  1.
         11    1    4    4    0    0  0.28795228834E+02 -0.12916678444E+03  0.18161239022E+03  0.22471378171E+03  0.00000000000E+00 0. -1.
         21    1    1    2  503  502  0.27645261330E+02  0.25194652640E+01  0.10589364635E+02  0.29710988247E+02  0.00000000000E+00 0. -1.
          1    1    1    2  501    0 -0.13295612065E+03  0.11379019846E+03  0.14005450238E+04  0.14114361137E+04  0.00000000000E+00 0. -1.
<scales pt_clust_5="13000.00000" pt_clust_6="13000.00000" pt_clust_7="13000.00000" pt_clust_8="13000.00000" pt_clust_9="27.75983" pt_clust_10="225.55746"></scales>
<clustering>
<clus scale="   27.760">  2  9  1 -1</clus>
<clus scale="   80.050">  5  6 -1 -1</clus>
<clus scale="   92.941">  7  8 -1 -1</clus>
<clus scale="  169.240">  1  5  2 -1</clus>
<clus scale="  225.557">  2 10  1 -1</clus>
<clus scale="   27.760">  2  5  1 -1</clus>
</clustering>
</event>
<event>
10    4  0.3403565E-005  0.1438933E+03  0.7546771E-02  0.1210524E+00
         21   -1    0    0  503  502  0.00000000000E+00  0.00000000000E+00  0.14602746604E+03  0.14602746604E+03  0.00000000000E+00 0. -1.
          2   -1    0    0  502    0 -0.00000000000E+00 -0.00000000000E+00 -0.38233602773E+03  0.38233602773E+03  0.00000000000E+00 0. -1.
         23    2    1    2    0    0 -0.23154915172E+02  0.66076770090E+02 -0.68092309543E+02  0.13380510064E+03  0.91460115325E+02 0.  0.
         24    2    1    2    0    0  0.47447609272E+02 -0.14834788539E+03 -0.17884105032E+03  0.25027219866E+03  0.79960499082E+02 0.  0.
        -11    1    4    4    0    0  0.18518265958E+02 -0.30182717891E+02 -0.17929532804E+01  0.35456132260E+02  0.00000000000E+00 0.  1.
         12    1    4    4    0    0  0.28929343313E+02 -0.11816516750E+03 -0.17704809704E+03  0.21481606640E+03  0.00000000000E+00 0. -1.
        -13    1    3    3    0    0  0.27762574136E+02  0.32457958166E+02 -0.57893079778E+02  0.71943646399E+02  0.00000000000E+00 0.  1.
         13    1    3    3    0    0 -0.50917489308E+02  0.33618811924E+02 -0.10199229765E+02  0.61861454238E+02  0.00000000000E+00 0. -1.
         21    1    1    2  503  501 -0.16972862377E+02 -0.27143680002E+02  0.13122166143E+02  0.34598391084E+02  0.00000000000E+00 0. -1.
          1    1    1    2  501    0 -0.73198317222E+01  0.10941479530E+03 -0.24973679684E+01  0.10968780340E+03  0.00000000000E+00 0. -1.
<scales pt_clust_5="13000.00000" pt_clust_6="13000.00000" pt_clust_7="13000.00000" pt_clust_8="13000.00000" pt_clust_9="32.01339" pt_clust_10="98.61845"></scales>
<clustering>
<clus scale="   32.013">  1  9  2 -1</clus>
<clus scale="   79.960">  5  6 -1 -1</clus>
<clus scale="   91.460">  7  8 -1 -1</clus>
<clus scale="   98.618">  1 10  2 -1</clus>
<clus scale="  136.872">  1  5  2 -1</clus>
<clus scale="   32.013">  1  5  2 -1</clus>
</clustering>
</event>
<event>
10    4  0.3403565E-005  0.9471180E+02  0.7546771E-02  0.1294900E+00
          2   -1    0    0  502    0 -0.00000000000E+00  0.00000000000E+00  0.40439211048E+03  0.40439211048E+03  0.00000000000E+00 0. -1.
         21   -1    0    0  503  502  0.00000000000E+00 -0.00000000000E+00 -0.11481197068E+03  0.11481197068E+03  0.00000000000E+00 0.  1.
         24    2    1    2    0    0  0.34586386161E+02  0.24973614329E+02  0.34803674896E+03  0.35968916059E+03  0.80167412941E+02 0.  0.
         23    2    1    2    0    0  0.13814902382E+02 -0.20677885608E+02 -0.47130462787E+02  0.10117866332E+03  0.86008225812E+02 0.  0.
        -11    1    3    3    0    0  0.47843811566E+02  0.29629393164E+02  0.13594544902E+03  0.14713292070E+03  0.00000000000E+00 0.  1.
         12    1    3    3    0    0 -0.13257425406E+02 -0.46557788350E+01  0.21209129995E+03  0.21255623990E+03  0.00000000000E+00 0. -1.
        -13    1    4    4    0    0 -0.11861307002E+01 -0.51770073735E+02 -0.41149704561E+02  0.66142615809E+02  0.00000000000E+00 0.  1.
         13    1    4    4    0    0  0.15001033082E+02  0.31092188128E+02 -0.59807582261E+01  0.35036047509E+02  0.00000000000E+00 0. -1.
         21    1    1    2  503  501 -0.19342390853E+02  0.85729048180E+01 -0.15576297649E+02  0.26272491876E+02  0.00000000000E+00 0.  1.
          1    1    1    2  501    0 -0.29058897690E+02 -0.12868633539E+02  0.42501512680E+01  0.32063765373E+02  0.00000000000E+00 0. -1.
<scales pt_clust_5="13000.00000" pt_clust_6="13000.00000" pt_clust_7="13000.00000" pt_clust_8="13000.00000" pt_clust_9="21.15710" pt_clust_10="33.96571"></scales>
<clustering>
<clus scale="   21.157">  2  9  1 -1</clus>
<clus scale="   33.966">  2 10  1 -1</clus>
<clus scale="   80.167">  5  6 -1 -1</clus>
<clus scale="   86.008">  7  8 -1 -1</clus>
<clus scale="   89.441">  1  5  2 -1</clus>
<clus scale="   21.157">  2  5  1 -1</clus>
</clustering>
</event>
<event>
10    4  0.3403565E-005  0.4820661E+03  0.7546771E-02  0.1046805E+00
         21   -1    0    0  503  502  0.00000000000E+00  0.00000000000E+00  0.46794078790E+03  0.46794078790E+03  0.00000000000E+00 0. -1.
          2   -1    0    0  502    0 -0.00000000000E+00 -0.00000000000E+00 -0.92974837629E+03  0.92974837629E+03  0.00000000000E+00 0. -1.
         24    2    1    2    0    0  0.13934879878E+03 -0.12916484120E+03 -0.27949349044E+03  0.34793977718E+03  0.82727464728E+02 0.  0.
         23    2    1    2    0    0 -0.20059972123E+02  0.54749911630E+03 -0.14080286738E+03  0.57304802527E+03  0.91656461719E+02 0.  0.
        -11    1    3    3    0    0  0.14504176308E+03 -0.13457604665E+03 -0.25853757116E+03  0.32556028791E+03  0.00000000000E+00 0.  1.
         12    1    3    3    0    0 -0.56929642934E+01  0.54112054429E+01 -0.20955919283E+02  0.22379489265E+02  0.00000000000E+00 0. -1.
        -11    1    4    4    0    0 -0.14358691298E+02  0.26140016543E+02 -0.25084898679E+02  0.38970817574E+02  0.00000000000E+00 0.  1.
         11    1    4    4    0    0 -0.57012808251E+01  0.52135909976E+03 -0.11571796871E+03  0.53407720770E+03  0.00000000000E+00 0. -1.
         21    1    1    2  503  501  0.32967485027E+02 -0.10254423514E+02  0.14711704474E+02  0.37529222203E+02  0.00000000000E+00 0. -1.
          1    1    1    2  501    0 -0.15225631169E+03 -0.40807985158E+03 -0.56222935034E+02  0.43917213953E+03  0.00000000000E+00 0. -1.
<scales pt_clust_5="13000.00000" pt_clust_6="13000.00000" pt_clust_7="13000.00000" pt_clust_8="13000.00000" pt_clust_9="34.52547" pt_clust_10="473.27248"></scales>
<clustering>
<clus scale="   34.525">  1  9  2 -1</clus>
<clus scale="   82.727">  5  6 -1 -1</clus>
<clus scale="   91.656">  7  8 -1 -1</clus>
<clus scale="  209.451">  2  5  1 -1</clus>
<clus scale="  473.272">  1 10  2 -1</clus>
<clus scale="   34.525">  1  5  2 -1</clus>
</clustering>
</event>
<event>
10    4  0.3403565E-005  0.1822770E+03  0.7546771E-02  0.1193093E+00
         21   -1    0    0  503  502  0.00000000000E+00  0.00000000000E+00  0.94475788392E+02  0.94475788392E+02  0.00000000000E+00 0. -1.
          2   -1    0    0  502    0 -0.00000000000E+00 -0.00000000000E+00 -0.12219283184E+04  0.12219283184E+04  0.00000000000E+00 0. -1.
         24    2    1    2    0    0 -0.49921666686E+02  0.18945066668E+02 -0.45410365073E+03  0.46415452788E+03  0.79863707569E+02 0.  0.
         23    2    1    2    0    0  0.41400826011E+02 -0.15172525801E+03 -0.43375676467E+03  0.47043452694E+03  0.91810298608E+02 0.  0.
        -11    1    3    3    0    0 -0.63062568471E+02 -0.69284919623E+01 -0.36417163198E+03  0.36965642032E+03  0.00000000000E+00 0.  1.
         12    1    3    3    0    0  0.13140901784E+02  0.25873558631E+02 -0.89932018753E+02  0.94498107562E+02  0.00000000000E+00 0. -1.
        -11    1    4    4    0    0 -0.26953128035E+02 -0.73142171281E+02 -0.18361547085E+03  0.19947653864E+03  0.00000000000E+00 0.  1.
         11    1    4    4    0    0  0.68353954046E+02 -0.78583086724E+02 -0.25014129381E+03  0.27095798830E+03  0.00000000000E+00 0. -1.
         21    1    1    2  503  501 -0.68365257223E+02 -0.54152205903E+02 -0.34295996522E+02  0.93714914377E+02  0.00000000000E+00 0. -1.
          1    1    1    2  501    0  0.76886097899E+02  0.18693239724E+03 -0.20529611812E+03  0.28810013763E+03  0.00000000000E+00 0. -1.
<scales pt_clust_5="13000.00000" pt_clust_6="13000.00000" pt_clust_7="13000.00000" pt_clust_8="13000.00000" pt_clust_9="87.21393" pt_clust_10="157.46674"></scales>
<clustering>
<clus scale="   79.864">  5  6 -1 -1</clus>
<clus scale="   87.214">  1  9  2 -1</clus>
<clus scale="   91.810">  7  8 -1 -1</clus>
<clus scale="   98.212">  2  5  1 -1</clus>
<clus scale="  157.467">  1 10  2 -1</clus>
<clus scale="   87.214">  1  5  2 -1</clus>
</clustering>
</event>
<event>
10    4  0.3403565E-005  0.9181616E+02  0.7546771E-02  0.1304630E+00
          2   -1    0    0  503    0 -0.00000000000E+00  0.00000000000E+00  0.49823565754E+03  0.49823565754E+03  0.00000000000E+00 0. -1.
         21   -1    0    0  501  502  0.00000000000E+00 -0.00000000000E+00 -0.49204265404E+02  0.49204265404E+02  0.00000000000E+00 0. -1.
         23    2    1    2    0    0  0.10698463927E+01  0.56757319517E+00  0.24045148143E+03  0.25720175282E+03  0.91292716153E+02 0.  0.
         24    2    1    2    0    0  0.38355627062E+02  0.20536457447E+02  0.57396726931E+02  0.10873419839E+03  0.81460674100E+02 0.  0.
        -13    1    4    4    0    0  0.25706857894E+02  0.20136959109E+02  0.77997220018E+02  0.84557116764E+02  0.00000000000E+00 0.  1.
         14    1    4    4    0    0  0.12648769168E+02  0.39949833784E+00 -0.20600493087E+02  0.24177081623E+02  0.00000000000E+00 0. -1.
        -11    1    3    3    0    0  0.36124067454E+02  0.11667765604E+02  0.19538277111E+03  0.19903645960E+03  0.00000000000E+00 0.  1.
         11    1    3    3    0    0 -0.35054221061E+02 -0.11100192409E+02  0.45068710318E+02  0.58165293221E+02  0.00000000000E+00 0. -1.
         21    1    1    2  503  502  0.46854353474E+01 -0.19656355704E+02 -0.36230697172E+01  0.20529302427E+02  0.00000000000E+00 0.  1.
          1    1    1    2  501    0 -0.44110908802E+02 -0.14476749380E+01  0.15480625349E+03  0.16097466930E+03  0.00000000000E+00 0. -1.
<scales pt_clust_5="13000.00000" pt_clust_6="13000.00000" pt_clust_7="13000.00000" pt_clust_8="13000.00000" pt_clust_9="20.20707" pt_clust_10="43.83010"></scales>
<clustering>
<clus scale="   20.207">  2  9  1 -1</clus>
<clus scale="   43.830">  2 10  1 -1</clus>
<clus scale="   81.461">  5  6 -1 -1</clus>
<clus scale="   82.047">  2  5  1 -1</clus>
<clus scale="   91.293">  7  8 -1 -1</clus>
<clus scale="   20.207">  2  5  1 -1</clus>
</clustering>
</event>
<event>
10    4  0.3403565E-005  0.1694464E+03  0.7546771E-02  0.1182687E+00
          4   -1    0    0  502    0 -0.00000000000E+00  0.00000000000E+00  0.43702609771E+03  0.43702609771E+03  0.00000000000E+00 0. -1.
         21   -1    0    0  503  502  0.00000000000E+00 -0.00000000000E+00 -0.93261260694E+02  0.93261260694E+02  0.00000000000E+00 0. -1.
         23    2    1    2    0    0 -0.11166406207E+02  0.13355581779E+03  0.19157793965E+03  0.25762309956E+03  0.10819292663E+03 0.  0.
         24    2    1    2    0    0  0.26526652524E+02 -0.12378146402E+03  0.10120205562E+03  0.18158197584E+03  0.81881889068E+02 0.  0.
        -11    1    4    4    0    0  0.19788858363E+02 -0.53763202040E+02  0.95039153187E+02  0.11097081349E+03  0.00000000000E+00 0.  1.
         12    1    4    4    0    0  0.67377941613E+01 -0.70018261984E+02  0.61629024366E+01  0.70611162346E+02  0.00000000000E+00 0. -1.
        -13    1    3    3    0    0 -0.15874212191E+01  0.15146047163E+03  0.16238400411E+03  0.22206161119E+03  0.00000000000E+00 0. -1.
         13    1    3    3    0    0 -0.95789849879E+01 -0.17904653842E+02  0.29193935539E+02  0.35561488367E+02  0.00000000000E+00 0.  1.
         21    1    1    2  503  501  0.84167983493E+00  0.27579969959E+02  0.24074185965E+01  0.27697632248E+02  0.00000000000E+00 0. -1.
          3    1    1    2  501    0 -0.16201926152E+02 -0.37354323727E+02  0.48577423142E+02  0.63384650755E+02  0.00000000000E+00 0. -1.
<scales pt_clust_5="13000.00000" pt_clust_6="13000.00000" pt_clust_7="13000.00000" pt_clust_8="13000.00000" pt_clust_9="27.59281" pt_clust_10="38.37366"></scales>
<clustering>
<clus scale="   27.593">  2  9  1 -1</clus>
<clus scale="   38.374">  2 10  1 -1</clus>
<clus scale="   81.882">  5  6 -1 -1</clus>
<clus scale="  108.193">  7  8 -1 -1</clus>
<clus scale="  153.984">  2  5  1 -1</clus>
<clus scale="   27.593">  2  5  1 -1</clus>
</clustering>
</event>
<event>
10    4  0.3403565E-005  0.2388831E+03  0.7546771E-02  0.1134276E+00
          2   -1    0    0  503    0 -0.00000000000E+00  0.00000000000E+00  0.13846679932E+04  0.13846679932E+04  0.00000000000E+00 0. -1.
         21   -1    0    0  501  502  0.00000000000E+00 -0.00000000000E+00 -0.16414268360E+03  0.16414268360E+03  0.00000000000E+00 0.  1.
         24    2    1    2    0    0 -0.23051796941E+02 -0.14003656665E+03  0.67040798699E+03  0.69035987821E+03  0.83715393275E+02 0.  0.
         23    2    1    2    0    0 -0.16801570089E+03  0.11155750778E+02  0.31920963371E+03  0.37245047694E+03  0.92037171842E+02 0.  0.
        -13    1    3    3    0    0  0.29594866758E+02 -0.27853332847E+02  0.18099986370E+03  0.18550637442E+03  0.00000000000E+00 0.  1.
         14    1    3    3    0    0 -0.52646663699E+02 -0.11218323380E+03  0.48940812329E+03  0.50485350379E+03  0.00000000000E+00 0. -1.
        -13    1    4    4    0    0 -0.34607106781E+02  0.25301553170E+02  0.15278963433E+03  0.15868992655E+03  0.00000000000E+00 0.  1.
         13    1    4    4    0    0 -0.13340859411E+03 -0.14145802392E+02  0.16641999939E+03  0.21376055039E+03  0.00000000000E+00 0. -1.
         21    1    1    2  503  502  0.25348836414E+03  0.20630072787E+03  0.16021384506E+03  0.36398463872E+03  0.00000000000E+00 0.  1.
          1    1    1    2  501    0 -0.62420866313E+02 -0.77419911999E+02  0.70693843828E+02  0.12201568293E+03  0.00000000000E+00 0. -1.
<scales pt_clust_5="13000.00000" pt_clust_6="13000.00000" pt_clust_7="13000.00000" pt_clust_8="13000.00000" pt_clust_9="220.44115" pt_clust_10="99.44952"></scales>
<clustering>
<clus scale="   83.715">  5  6 -1 -1</clus>
<clus scale="   92.037">  7  8 -1 -1</clus>
<clus scale="   99.450">  2 10  1 -1</clus>
<clus scale="  170.207">  1  5  2 -1</clus>
<clus scale="  220.441">  2  9  1 -1</clus>
<clus scale="   99.450">  2  5  1 -1</clus>
</clustering>
</event>
<event>
10    4  0.3403565E-005  0.2864604E+03  0.7546771E-02  0.1105885E+00
          2   -1    0    0  503    0 -0.00000000000E+00  0.00000000000E+00  0.73921976377E+03  0.73921976377E+03  0.00000000000E+00 0. -1.
         21   -1    0    0  501  502  0.00000000000E+00 -0.00000000000E+00 -0.33124454663E+03  0.33124454663E+03  0.00000000000E+00 0. -1.
         23    2    1    2    0    0 -0.31646276619E+02 -0.11949929516E+03 -0.45718732291E+02  0.16418170899E+03  0.97897204853E+02 0.  0.
         24    2    1    2    0    0 -0.24798679801E+03  0.69057872092E+02  0.30011347175E+03  0.40352627968E+03  0.80615884150E+02 0.  0.
        -11    1    4    4    0    0 -0.17266766185E+02  0.28043965216E+02  0.20891113598E+02  0.39000561879E+02  0.00000000000E+00 0.  1.
         12    1    4    4    0    0 -0.23072003182E+03  0.41013906876E+02  0.27922235815E+03  0.36452571780E+03  0.00000000000E+00 0. -1.
        -13    1    3    3    0    0 -0.16643616568E+02 -0.59569344044E+02 -0.73824411764E+02  0.96309711320E+02  0.00000000000E+00 0.  1.
         13    1    3    3    0    0 -0.15002660051E+02 -0.59929951118E+02  0.28105679473E+02  0.67871997674E+02  0.00000000000E+00 0. -1.
         21    1    1    2  503  502 -0.25171302416E+01 -0.13811996767E+03  0.28302809711E+02  0.14101244786E+03  0.00000000000E+00 0.  1.
          1    1    1    2  501    0  0.28215020487E+03  0.18856139074E+03  0.12527766796E+03  0.36174387386E+03  0.00000000000E+00 0. -1.
<scales pt_clust_5="13000.00000" pt_clust_6="13000.00000" pt_clust_7="13000.00000" pt_clust_8="13000.00000" pt_clust_9="138.14290" pt_clust_10="274.88297"></scales>
<clustering>
<clus scale="   80.616">  5  6 -1 -1</clus>
<clus scale="   97.897">  7  8 -1 -1</clus>
<clus scale="  138.143">  2  9  1 -1</clus>
<clus scale="  200.776">  1  7  2 -1</clus>
<clus scale="  274.883">  2 10  1 -1</clus>
<clus scale="  138.143">  2  5  1 -1</clus>
</clustering>
</event>
<event>
10    4  0.3403565E-005  0.3440899E+03  0.7546771E-02  0.1065067E+00
         -1   -1    0    0    0  501 -0.00000000000E+00  0.00000000000E+00  0.40843763359E+03  0.40843763359E+03  0.00000000000E+00 0.  1.
         21   -1    0    0  503  502  0.00000000000E+00 -0.00000000000E+00 -0.12627078419E+04  0.12627078419E+04  0.00000000000E+00 0.  1.
         24    2    1    2    0    0 -0.89557830770E+01  0.11107199605E+03 -0.30610969549E+02  0.14008180559E+03  0.79175036747E+02 0.  0.
         23    2    1    2    0    0  0.99566466543E+02  0.17995322742E+03 -0.14702357538E+03  0.26889780578E+03  0.91615789673E+02 0.  0.
        -11    1    3    3    0    0  0.33131553242E+02  0.50398235106E+02 -0.44273656714E+00  0.60314823532E+02  0.00000000000E+00 0.  1.
         12    1    3    3    0    0 -0.42087336319E+02  0.60673760948E+02 -0.30168232982E+02  0.79766982062E+02  0.00000000000E+00 0. -1.
        -13    1    4    4    0    0  0.79502769417E+02  0.16942619706E+03 -0.15686242132E+03  0.24419612163E+03  0.00000000000E+00 0.  1.
         13    1    4    4    0    0  0.20063697126E+02  0.10527030359E+02  0.98388459404E+01  0.24701684153E+02  0.00000000000E+00 0. -1.
         21    1    1    2  503  501 -0.10822636304E+03 -0.15123138238E+03 -0.94282248112E+03  0.96098808919E+03  0.00000000000E+00 0.  1.
         -2    1    1    2    0  502  0.17615679572E+02 -0.13979384109E+03  0.26618681773E+03  0.30117777493E+03  0.00000000000E+00 0.  1.
<scales pt_clust_5="13000.00000" pt_clust_6="13000.00000" pt_clust_7="13000.00000" pt_clust_8="13000.00000" pt_clust_9="274.94284" pt_clust_10="140.89943"></scales>
<clustering>
<clus scale="   79.175">  5  6 -1 -1</clus>
<clus scale="   91.616">  7  8 -1 -1</clus>
<clus scale="  123.810">  5  7 -1 -1</clus>
<clus scale="  140.899">  2 10  1 -1</clus>
<clus scale="  274.943">  2  9  1 -1</clus>
<clus scale="  140.899">  2  5  1 -1</clus>
</clustering>
</event>
<event>
10    4  0.3403565E-005  0.1028457E+03  0.7546771E-02  0.1279287E+00
         21   -1    0    0  501  502  0.00000000000E+00  0.00000000000E+00  0.23643318181E+03  0.23643318181E+03  0.00000000000E+00 0.  1.
          2   -1    0    0  503    0 -0.00000000000E+00 -0.00000000000E+00 -0.69603798522E+03  0.69603798522E+03  0.00000000000E+00 0. -1.
         24    2    1    2    0    0 -0.43516673679E+02  0.39555608385E+02 -0.57041158061E+03  0.57916138069E+03  0.81241532112E+02 0.  0.
         23    2    1    2    0    0 -0.41789918055E+02 -0.18209627208E+01 -0.66292359646E+02  0.12058392029E+03  0.91630190046E+02 0.  0.
        -13    1    3    3    0    0  0.22707266115E+02  0.60376792380E+01 -0.88431073273E+02  0.91499334562E+02  0.00000000000E+00 0.  1.
         14    1    3    3    0    0 -0.66223939794E+02  0.33517929147E+02 -0.48198050734E+03  0.48766204613E+03  0.00000000000E+00 0. -1.
        -13    1    4    4    0    0 -0.98728079687E+01  0.31006191049E+02 -0.67336087493E+02  0.74786395149E+02  0.00000000000E+00 0. -1.
         13    1    4    4    0    0 -0.31917110087E+02 -0.32827153769E+02  0.10437278471E+01  0.45797525137E+02  0.00000000000E+00 0.  1.
         21    1    1    2  503  502  0.10665370437E+03 -0.53417648264E+02  0.16500868991E+03  0.20360826493E+03  0.00000000000E+00 0.  1.
          1    1    1    2  501    0 -0.21347112637E+02  0.15683002600E+02  0.12090446936E+02  0.29117601130E+02  0.00000000000E+00 0. -1.
<scales pt_clust_5="13000.00000" pt_clust_6="13000.00000" pt_clust_7="13000.00000" pt_clust_8="13000.00000" pt_clust_9="97.06106" pt_clust_10="26.48879"></scales>
<clustering>
<clus scale="   26.489">  1 10  2 -1</clus>
<clus scale="   81.242">  5  6 -1 -1</clus>
<clus scale="   91.630">  7  8 -1 -1</clus>
<clus scale="   97.061">  1  9  2 -1</clus>
<clus scale="   93.709">  2  5  1 -1</clus>
<clus scale="   26.489">  1  5  2 -1</clus>
</clustering>
</event>
<event>
10    4  0.3403565E-005  0.1359331E+03  0.7546771E-02  0.1235159E+00
         21   -1    0    0  503  502  0.00000000000E+00  0.00000000000E+00  0.16568094832E+03  0.16568094832E+03  0.00000000000E+00 0. -1.
          2   -1    0    0  502    0 -0.00000000000E+00 -0.00000000000E+00 -0.88815692122E+03  0.88815692122E+03  0.00000000000E+00 0. -1.
         23    2    1    2    0    0 -0.67792486213E+02 -0.36449795928E+01 -0.20136950419E+02  0.11697724325E+03  0.93107849313E+02 0.  0.
         24    2    1    2    0    0 -0.85436957767E+02  0.34186995336E+02 -0.70939733276E+03  0.71982585396E+03  0.80227550755E+02 0.  0.
        -13    1    4    4    0    0 -0.71959652223E+01  0.39964678367E+02 -0.17178403811E+03  0.17651830835E+03  0.00000000000E+00 0.  1.
         14    1    4    4    0    0 -0.78240992544E+02 -0.57776830309E+01 -0.53761329465E+03  0.54330754561E+03  0.00000000000E+00 0. -1.
        -13    1    3    3    0    0 -0.72864510448E+02 -0.34193977808E+02 -0.27660626675E+02  0.85109196150E+02  0.00000000000E+00 0.  1.
         13    1    3    3    0    0  0.50720242347E+01  0.30548998215E+02  0.75236762564E+01  0.31868047104E+02  0.00000000000E+00 0. -1.
         21    1    1    2  503  501  0.65674256714E+02  0.81521750628E+01  0.74718962158E+02  0.99812270083E+02  0.00000000000E+00 0. -1.
          1    1    1    2  501    0  0.87555187266E+02 -0.38694190806E+02 -0.67660651881E+02  0.11722250224E+03  0.00000000000E+00 0. -1.
<scales pt_clust_5="13000.00000" pt_clust_6="13000.00000" pt_clust_7="13000.00000" pt_clust_8="13000.00000" pt_clust_9="66.17829" pt_clust_10="109.73304"></scales>
<clustering>
<clus scale="   66.178">  1  9  2 -1</clus>
<clus scale="   80.228">  5  6 -1 -1</clus>
<clus scale="   93.108">  7  8 -1 -1</clus>
<clus scale="   97.021">  2  7  1 -1</clus>
<clus scale="  109.733">  1 10  2 -1</clus>
<clus scale="   66.178">  1  5  2 -1</clus>
</clustering>
</event>
<event>
10    4  0.3403565E-005  0.1569498E+03  0.7546771E-02  0.1214554E+00
         21   -1    0    0  503  502  0.00000000000E+00  0.00000000000E+00  0.32529898015E+02  0.32529898015E+02  0.00000000000E+00 0.  1.
          2   -1    0    0  502    0 -0.00000000000E+00 -0.00000000000E+00 -0.20240919224E+04  0.20240919224E+04  0.00000000000E+00 0. -1.
         23    2    1    2    0    0 -0.34060449173E+02 -0.20766803457E+02 -0.51581620124E+03  0.52557356819E+03  0.92573472403E+02 0.  0.
         24    2    1    2    0    0 -0.13392862189E+03  0.71919995170E+02 -0.98850180821E+03  0.10032202513E+04  0.78776178086E+02 0.  0.
        -13    1    4    4    0    0 -0.12202174924E+03  0.74059920410E+02 -0.69689712888E+03  0.71136473580E+03  0.00000000000E+00 0.  1.
         14    1    4    4    0    0 -0.11906872651E+02 -0.21399252400E+01 -0.29160467933E+03  0.29185551546E+03  0.00000000000E+00 0. -1.
        -13    1    3    3    0    0 -0.10037841194E+02  0.36619595951E+02 -0.16800164448E+03  0.17223909432E+03  0.00000000000E+00 0. -1.
         13    1    3    3    0    0 -0.24022607980E+02 -0.57386399408E+02 -0.34781455676E+03  0.35333447387E+03  0.00000000000E+00 0.  1.
         21    1    1    2  503  501  0.62361957715E+02 -0.10925467293E+01 -0.66601900163E+02  0.91247030273E+02  0.00000000000E+00 0.  1.
          1    1    1    2  501    0  0.10562711335E+03 -0.50060644984E+02 -0.42064211473E+03  0.43658097065E+03  0.00000000000E+00 0. -1.
<scales pt_clust_5="13000.00000" pt_clust_6="13000.00000" pt_clust_7="13000.00000" pt_clust_8="13000.00000" pt_clust_9="62.37153" pt_clust_10="135.74818"></scales>
<clustering>
<clus scale="   62.372">  1  9  2 -1</clus>
<clus scale="   78.776">  5  6 -1 -1</clus>
<clus scale="   92.573">  7  8 -1 -1</clus>
<clus scale="   96.816">  2  7  1 -1</clus>
<clus scale="  135.748">  1 10  2 -1</clus>
<clus scale="   62.372">  1  5  2 -1</clus>
</clustering>
</event>
<event>
10    4  0.3403565E-005  0.1599789E+03  0.7546771E-02  0.1202409E+00
         21   -1    0    0  501  502  0.00000000000E+00  0.00000000000E+00  0.16688926500E+03  0.16688926500E+03  0.00000000000E+00 0. -1.
          2   -1    0    0  503    0 -0.00000000000E+00 -0.00000000000E+00 -0.63426349467E+03  0.63426349467E+03  0.00000000000E+00 0. -1.
         24    2    1    2    0    0  0.74255324845E+02  0.30268506269E+02 -0.28731451582E+02  0.11637808445E+03  0.79298969033E+02 0.  0.
         23    2    1    2    0    0 -0.64449214226E+00  0.10779066539E+03 -0.38887885503E+03  0.41426243341E+03  0.93634165407E+02 0.  0.
        -11    1    3    3    0    0  0.89537207325E+02  0.23520780066E+02 -0.13095195539E+02  0.93496645591E+02  0.00000000000E+00 0.  1.
         12    1    3    3    0    0 -0.15281882480E+02  0.67477262035E+01 -0.15636256043E+02  0.22881438855E+02  0.00000000000E+00 0. -1.
        -11    1    4    4    0    0 -0.22509654374E+02  0.22678622848E+02 -0.26896590892E+02  0.41766386915E+02  0.00000000000E+00 0.  1.
         11    1    4    4    0    0  0.21865162232E+02  0.85112042539E+02 -0.36198226414E+03  0.37249604649E+03  0.00000000000E+00 0. -1.
         21    1    1    2  503  502  0.26367568482E+02 -0.33725183346E+02  0.70520634277E+02  0.82497251579E+02  0.00000000000E+00 0. -1.
          1    1    1    2  501    0 -0.99978401185E+02 -0.10433398831E+03 -0.12028455734E+03  0.18801499024E+03  0.00000000000E+00 0. -1.
<scales pt_clust_5="13000.00000" pt_clust_6="13000.00000" pt_clust_7="13000.00000" pt_clust_8="13000.00000" pt_clust_9="42.80931" pt_clust_10="129.71461"></scales>
<clustering>
<clus scale="   42.809">  1  9  2 -1</clus>
<clus scale="   79.299">  5  6 -1 -1</clus>
<clus scale="   93.634">  7  8 -1 -1</clus>
<clus scale="  118.567">  2  5  1 -1</clus>
<clus scale="  129.715">  1 10  2 -1</clus>
<clus scale="   42.809">  1  5  2 -1</clus>
</clustering>
</event>
<event>
10    4  0.3403565E-005  0.1132190E+03  0.7546771E-02  0.1257959E+00
         21   -1    0    0  503  502  0.00000000000E+00  0.00000000000E+00  0.38515226622E+03  0.38515226622E+03  0.00000000000E+00 0. -1.
          2   -1    0    0  502    0 -0.00000000000E+00 -0.00000000000E+00 -0.20859586105E+03  0.20859586105E+03  0.00000000000E+00 0. -1.
         24    2    1    2    0    0  0.16033329533E+02  0.61306118088E+02 -0.74979577813E+02  0.12705426782E+03  0.80655701045E+02 0.  0.
         23    2    1    2    0    0 -0.16038927932E+02 -0.11464851858E+03  0.18391816998E+03  0.23510147053E+03  0.89695474659E+02 0.  0.
        -11    1    3    3    0    0  0.35317847616E+02  0.43242572154E+01 -0.51240572467E+02  0.62383057215E+02  0.00000000000E+00 0.  1.
         12    1    3    3    0    0 -0.19284518083E+02  0.56981860872E+02 -0.23739005345E+02  0.64671210604E+02  0.00000000000E+00 0. -1.
        -13    1    4    4    0    0  0.14241230084E+02 -0.11018194519E+03  0.16565076629E+03  0.19945688770E+03  0.00000000000E+00 0. -1.
         13    1    4    4    0    0 -0.30280158016E+02 -0.44665733923E+01  0.18267403695E+02  0.35644582830E+02  0.00000000000E+00 0.  1.
         21    1    1    2  503  501  0.14742711852E+02 -0.36281402882E+02  0.12035392492E+03  0.12656522031E+03  0.00000000000E+00 0. -1.
          1    1    1    2  501    0 -0.14737113453E+02  0.89623803378E+02 -0.52736111922E+02  0.10502716861E+03  0.00000000000E+00 0. -1.
<scales pt_clust_5="13000.00000" pt_clust_6="13000.00000" pt_clust_7="13000.00000" pt_clust_8="13000.00000" pt_clust_9="39.16233" pt_clust_10="87.01590"></scales>
<clustering>
<clus scale="   39.162">  1  9  2 -1</clus>
<clus scale="   80.656">  5  6 -1 -1</clus>
<clus scale="   87.016">  1 10  2 -1</clus>
<clus scale="   89.695">  7  8 -1 -1</clus>
<clus scale="  106.201">  2  5  1 -1</clus>
<clus scale="   39.162">  1  5  2 -1</clus>
</clustering>
</event>
<event>
10    4  0.3403565E-005  0.6960629E+03  0.7546771E-02  0.1027723E+00
          2   -1    0    0  503    0 -0.00000000000E+00  0.00000000000E+00  0.76113551190E+03  0.76113551190E+03  0.00000000000E+00 0. -1.
         21   -1    0    0  501  502  0.00000000000E+00 -0.00000000000E+00 -0.19397508125E+04  0.19397508125E+04  0.00000000000E+00 0. -1.
         23    2    1    2    0    0 -0.78915587577E+02  0.14274075246E+02  0.10720853445E+03  0.16210256972E+03  0.91390120165E+02 0.  0.
         24    2    1    2    0    0  0.48397698531E+03 -0.56666410900E+03  0.34309319569E+02  0.75037216344E+03  0.80866059119E+02 0.  0.
        -11    1    4    4    0    0  0.59966817438E+02 -0.63880320279E+02 -0.21768554546E+02  0.90280587501E+02  0.00000000000E+00 0.  1.
         12    1    4    4    0    0  0.42401016787E+03 -0.50278378872E+03  0.56077874114E+02  0.66009157594E+03  0.00000000000E+00 0. -1.
        -13    1    3    3    0    0  0.27496760114E-01  0.29654315037E+02  0.20660732865E+01  0.29726214276E+02  0.00000000000E+00 0. -1.
         13    1    3    3    0    0 -0.78943084337E+02 -0.15380239790E+02  0.10514246116E+03  0.13237635544E+03  0.00000000000E+00 0.  1.
         21    1    1    2  503  502 -0.45637843914E+03  0.42016212478E+03 -0.14617787570E+04  0.15879592644E+04  0.00000000000E+00 0. -1.
          1    1    1    2  501    0  0.51317041406E+02  0.13222790897E+03  0.14164560243E+03  0.20045232685E+03  0.00000000000E+00 0. -1.
<scales pt_clust_5="13000.00000" pt_clust_6="13000.00000" pt_clust_7="13000.00000" pt_clust_8="13000.00000" pt_clust_9="691.34956" pt_clust_10="139.34265"></scales>
<clustering>
<clus scale="   80.866">  5  6 -1 -1</clus>
<clus scale="   91.390">  7  8 -1 -1</clus>
<clus scale="  121.588">  1  7  2 -1</clus>
<clus scale="  139.343">  2 10  1 -1</clus>
<clus scale="  691.350">  2  9  1 -1</clus>
<clus scale="  139.343">  2  5  1 -1</clus>
</clustering>
</event>
<event>
10    4  0.3403565E-005  0.1965270E+03  0.7546771E-02  0.1153531E+00
          2   -1    0    0  502    0 -0.00000000000E+00  0.00000000000E+00  0.83310944557E+03  0.83310944557E+03  0.00000000000E+00 0. -1.
         21   -1    0    0  503  502  0.00000000000E+00 -0.00000000000E+00 -0.99878593022E+02  0.99878593022E+02  0.00000000000E+00 0. -1.
         23    2    1    2    0    0 -0.17607571994E+03 -0.10755027004E+03  0.47618091517E+03  0.52678990129E+03  0.90496499361E+02 0.  0.
         24    2    1    2    0    0  0.86779300654E+02  0.11093787206E+03  0.18077415428E+03  0.24336882769E+03  0.81922115177E+02 0.  0.
        -13    1    4    4    0    0  0.78189824891E+02  0.79853876895E+02  0.17905885179E+03  0.21107430629E+03  0.00000000000E+00 0.  1.
         14    1    4    4    0    0  0.85894757623E+01  0.31083995167E+02  0.17153024847E+01  0.32294521393E+02  0.00000000000E+00 0. -1.
        -11    1    3    3    0    0 -0.58694947691E+02  0.51424649512E+01  0.88221026726E+02  0.10608718767E+03  0.00000000000E+00 0.  1.
         11    1    3    3    0    0 -0.11738077225E+03 -0.11269273499E+03  0.38795988844E+03  0.42070271363E+03  0.00000000000E+00 0. -1.
         21    1    1    2  503  501  0.15582361490E+02  0.23093619892E+02 -0.23174550163E+02  0.36237895145E+02  0.00000000000E+00 0. -1.
          1    1    1    2  501    0  0.73714057794E+02 -0.26481221910E+02  0.99450333269E+02  0.12659141447E+03  0.00000000000E+00 0. -1.
<scales pt_clust_5="13000.00000" pt_clust_6="13000.00000" pt_clust_7="13000.00000" pt_clust_8="13000.00000" pt_clust_9="27.85902" pt_clust_10="79.82342"></scales>
<clustering>
<clus scale="   27.859">  2  9  1 -1</clus>
<clus scale="   79.823">  2 10  1 -1</clus>
<clus scale="   81.922">  5  6 -1 -1</clus>
<clus scale="   90.496">  7  8 -1 -1</clus>
<clus scale="  192.729">  2  5  1 -1</clus>
<clus scale="   27.859">  2  5  1 -1</clus>
</clustering>
</event>
<event>
10    4  0.3403565E-005  0.1489939E+03  0.7546771E-02  0.1211265E+00
         21   -1    0    0  503  502  0.00000000000E+00  0.00000000000E+00  0.39226359745E+03  0.39226359745E+03  0.00000000000E+00 0. -1.
          2   -1    0    0  502    0 -0.00000000000E+00 -0.00000000000E+00 -0.40853270259E+03  0.40853270259E+03  0.00000000000E+00 0. -1.
         23    2    1    2    0    0  0.69003048446E+02  0.66006561782E+02 -0.35761640131E+03  0.38893419160E+03  0.11942373307E+03 0.  0.
         24    2    1    2    0    0  0.18175254032E+02 -0.40263632383E+02  0.16800200325E+03  0.19226891673E+03  0.82408514689E+02 0.  0.
        -11    1    4    4    0    0  0.65573860942E+01 -0.30338656650E+02  0.86995418591E+01  0.32235313373E+02  0.00000000000E+00 0.  1.
         12    1    4    4    0    0  0.11617867937E+02 -0.99249757331E+01  0.15930246139E+03  0.16003360336E+03  0.00000000000E+00 0. -1.
        -11    1    3    3    0    0  0.10153436094E+03  0.35865329792E+02 -0.27135802682E+03  0.29194302021E+03  0.00000000000E+00 0. -1.
         11    1    3    3    0    0 -0.32531312492E+02  0.30141231990E+02 -0.86258374487E+02  0.96991171390E+02  0.00000000000E+00 0.  1.
         21    1    1    2  503  501 -0.28249473721E+02 -0.17737276756E+02  0.15322182100E+03  0.15681061885E+03  0.00000000000E+00 0.  1.
          1    1    1    2  501    0 -0.58928828757E+02 -0.80056526425E+01  0.20123471917E+02  0.62782572859E+02  0.00000000000E+00 0. -1.
<scales pt_clust_5="13000.00000" pt_clust_6="13000.00000" pt_clust_7="13000.00000" pt_clust_8="13000.00000" pt_clust_9="33.35632" pt_clust_10="64.82298"></scales>
<clustering>
<clus scale="   33.356">  1  9  2 -1</clus>
<clus scale="   64.823">  1 10  2 -1</clus>
<clus scale="   82.409">  5  6 -1 -1</clus>
<clus scale="  119.424">  7  8 -1 -1</clus>
<clus scale="  121.360">  1  5  2 -1</clus>
<clus scale="   33.356">  1  5  2 -1</clus>
</clustering>
</event>
<event>
10    4  0.3403565E-005  0.2375560E+03  0.7546771E-02  0.1164080E+00
          2   -1    0    0  503    0 -0.00000000000E+00  0.00000000000E+00  0.71911555034E+03  0.71911555034E+03  0.00000000000E+00 0. -1.
         21   -1    0    0  501  502  0.00000000000E+00 -0.00000000000E+00 -0.13292904829E+03  0.13292904829E+03  0.00000000000E+00 0. -1.
         24    2    1    2    0    0  0.16558393901E+02 -0.23079821563E+02  0.19774260787E+03  0.21514916852E+03  0.79875948656E+02 0.  0.
         23    2    1    2    0    0  0.20030095320E+03 -0.55830130252E+02  0.20838203738E+03  0.30849809018E+03  0.92252495077E+02 0.  0.
        -11    1    3    3    0    0 -0.45435298005E-01  0.29422617285E+02  0.60617636844E+02  0.67380934758E+02  0.00000000000E+00 0.  1.
         12    1    3    3    0    0  0.16603829199E+02 -0.52502438848E+02  0.13712497103E+03  0.14776823376E+03  0.00000000000E+00 0. -1.
        -11    1    4    4    0    0  0.19695370120E+03 -0.30706948056E+02  0.19845156114E+03  0.28127690839E+03  0.00000000000E+00 0. -1.
         11    1    4    4    0    0  0.33472519928E+01 -0.25123182196E+02  0.99304762383E+01  0.27221181787E+02  0.00000000000E+00 0.  1.
         21    1    1    2  503  502 -0.15077091473E+02 -0.35207951390E+02  0.65957452555E+01  0.38864152941E+02  0.00000000000E+00 0. -1.
          1    1    1    2  501    0 -0.20178225562E+03  0.11411790320E+03  0.17346611154E+03  0.28953318699E+03  0.00000000000E+00 0. -1.
<scales pt_clust_5="13000.00000" pt_clust_6="13000.00000" pt_clust_7="13000.00000" pt_clust_8="13000.00000" pt_clust_9="38.30037" pt_clust_10="218.91170"></scales>
<clustering>
<clus scale="   38.300">  2  9  1 -1</clus>
<clus scale="   79.876">  5  6 -1 -1</clus>
<clus scale="   85.317">  1  5  2 -1</clus>
<clus scale="   92.252">  7  8 -1 -1</clus>
<clus scale="  218.912">  2 10  1 -1</clus>
<clus scale="   38.300">  2  5  1 -1</clus>
</clustering>
</event>
<event>
10    4  0.3403565E-005  0.2451807E+03  0.7546771E-02  0.1144716E+00
         21   -1    0    0  501  502  0.00000000000E+00  0.00000000000E+00  0.29479859385E+03  0.29479859385E+03  0.00000000000E+00 0. -1.
          2   -1    0    0  503    0 -0.00000000000E+00 -0.00000000000E+00 -0.51366380694E+03  0.51366380694E+03  0.00000000000E+00 0. -1.
         24    2    1    2    0    0 -0.10734605259E+02 -0.87950717105E+02 -0.69731022074E+02  0.13851440964E+03  0.80456608488E+02 0.  0.
         23    2    1    2    0    0  0.15642297418E+03 -0.11356028095E+03 -0.12044457181E+03  0.24519850025E+03  0.90836806346E+02 0.  0.
        -11    1    3    3    0    0  0.83439350128E+01 -0.63207503709E+02 -0.82922782184E+02  0.10459922362E+03  0.00000000000E+00 0.  1.
         12    1    3    3    0    0 -0.19078540272E+02 -0.24743213396E+02  0.13191760111E+02  0.33915186022E+02  0.00000000000E+00 0. -1.
        -11    1    4    4    0    0  0.52083836359E+02 -0.91312923849E+02 -0.75537882841E+02  0.12944785752E+03  0.00000000000E+00 0.  1.
         11    1    4    4    0    0  0.10433913783E+03 -0.22247357099E+02 -0.44906688966E+02  0.11575064274E+03  0.00000000000E+00 0. -1.
         21    1    1    2  503  502  0.12921734349E+02 -0.20064057216E+02  0.11447530878E+03  0.11693645253E+03  0.00000000000E+00 0. -1.
          1    1    1    2  501    0 -0.15861010327E+03  0.22157505527E+03 -0.14316492799E+03  0.30781303836E+03  0.00000000000E+00 0. -1.
<scales pt_clust_5="13000.00000" pt_clust_6="13000.00000" pt_clust_7="13000.00000" pt_clust_8="13000.00000" pt_clust_9="23.86499" pt_clust_10="227.73297"></scales>
<clustering>
<clus scale="   23.865">  1  9  2 -1</clus>
<clus scale="   80.457">  5  6 -1 -1</clus>
<clus scale="   90.837">  7  8 -1 -1</clus>
<clus scale="  122.349">  2  5  1 -1</clus>
<clus scale="  227.733">  1 10  2 -1</clus>
<clus scale="   23.865">  1  5  2 -1</clus>
</clustering>
</event>
<event>
10    4  0.3403565E-005  0.2077799E+03  0.7546771E-02  0.1160459E+00
         21   -1    0    0  503  502  0.00000000000E+00  0.00000000000E+00  0.35708990097E+03  0.35708990097E+03  0.00000000000E+00 0. -1.
          2   -1    0    0  502    0 -0.00000000000E+00 -0.00000000000E+00 -0.28827651574E+03  0.28827651574E+03  0.00000000000E+00 0. -1.
         23    2    1    2    0    0  0.28715715268E+02 -0.92426135034E+02  0.23496506250E+02  0.13467835464E+03  0.90658649129E+02 0.  0.
         24    2    1    2    0    0 -0.18348833586E+03 -0.40898850936E+02 -0.50608830680E+02  0.21062518789E+03  0.80380536381E+02 0.  0.
        -11    1    4    4    0    0 -0.47751213793E+02 -0.46568777288E+02 -0.30303213986E+02  0.73260591143E+02  0.00000000000E+00 0.  1.
         12    1    4    4    0    0 -0.13573712206E+03  0.56699263521E+01 -0.20305616694E+02  0.13736459675E+03  0.00000000000E+00 0. -1.
        -11    1    3    3    0    0  0.47838984066E+01 -0.10400943425E+03  0.27746757520E+02  0.10775310042E+03  0.00000000000E+00 0. -1.
         11    1    3    3    0    0  0.23931816862E+02  0.11583299216E+02 -0.42502512703E+01  0.26925254221E+02  0.00000000000E+00 0.  1.
         21    1    1    2  503  501  0.14646046311E+02 -0.24604194017E+02  0.83828424620E+02  0.88583733326E+02  0.00000000000E+00 0. -1.
          1    1    1    2  501    0  0.14012657428E+03  0.15792917999E+03  0.12097285035E+02  0.21147914085E+03  0.00000000000E+00 0. -1.
<scales pt_clust_5="13000.00000" pt_clust_6="13000.00000" pt_clust_7="13000.00000" pt_clust_8="13000.00000" pt_clust_9="28.63343" pt_clust_10="191.60234"></scales>
<clustering>
<clus scale="   28.633">  1  9  2 -1</clus>
<clus scale="   80.381">  5  6 -1 -1</clus>
<clus scale="   90.659">  7  8 -1 -1</clus>
<clus scale="  138.671">  2  7  1 -1</clus>
<clus scale="  191.602">  1 10  2 -1</clus>
<clus scale="   28.633">  1  5  2 -1</clus>
</clustering>
</event>
<event>
10    4  0.3403565E-005  0.2237960E+03  0.7546771E-02  0.1131653E+00
         21   -1    0    0  501  502  0.00000000000E+00  0.00000000000E+00  0.31243583254E+03  0.31243583254E+03  0.00000000000E+00 0.  1.
          2   -1    0    0  503    0 -0.00000000000E+00 -0.00000000000E+00 -0.49701546522E+03  0.49701546522E+03  0.00000000000E+00 0. -1.
         24    2    1    2    0    0 -0.19731932819E+03  0.84299285162E+02 -0.30999954461E+03  0.38600839875E+03  0.82834047889E+02 0.  0.
         23    2    1    2    0    0  0.95672330886E+02 -0.16493168333E+03  0.90888012949E+02  0.22989845870E+03  0.90758004334E+02 0.  0.
        -13    1    3    3    0    0 -0.16966440063E+03  0.99348545328E+02 -0.28263193832E+03  0.34429196166E+03  0.00000000000E+00 0.  1.
         14    1    3    3    0    0 -0.27654927558E+02 -0.15049260167E+02 -0.27367606286E+02  0.41716437092E+02  0.00000000000E+00 0. -1.
        -11    1    4    4    0    0  0.30703894557E+02 -0.97411498807E+02  0.41597878230E+01  0.10222051201E+03  0.00000000000E+00 0. -1.
         11    1    4    4    0    0  0.64968436329E+02 -0.67520184522E+02  0.86728225126E+02  0.12767794669E+03  0.00000000000E+00 0.  1.
         21    1    1    2  503  502 -0.16036100931E+02 -0.22445949500E+02 -0.12355038428E+02  0.30226216379E+02  0.00000000000E+00 0. -1.
          1    1    1    2  501    0  0.11768309824E+03  0.10307834767E+03  0.46886937411E+02  0.16331822393E+03  0.00000000000E+00 0. -1.
<scales pt_clust_5="13000.00000" pt_clust_6="13000.00000" pt_clust_7="13000.00000" pt_clust_8="13000.00000" pt_clust_9="27.58581" pt_clust_10="153.15910"></scales>
<clustering>
<clus scale="   27.586">  2  9  1 -1</clus>
<clus scale="   82.834">  5  6 -1 -1</clus>
<clus scale="   90.758">  7  8 -1 -1</clus>
<clus scale="  153.159">  1 10  2 -1</clus>
<clus scale="  220.701">  2  5  1 -1</clus>
<clus scale="  153.159">  1  5  2 -1</clus>
</clustering>
</event>
<event>
10    4  0.3403565E-005  0.1050128E+03  0.7546771E-02  0.1276551E+00
         -1   -1    0    0    0  501 -0.00000000000E+00  0.00000000000E+00  0.28974437919E+03  0.28974437919E+03  0.00000000000E+00 0.  1.
         21   -1    0    0  501  502  0.00000000000E+00 -0.00000000000E+00 -0.49843583398E+03  0.49843583398E+03  0.00000000000E+00 0.  1.
         23    2    1    2    0    0  0.43967547552E+02  0.61544024447E+01  0.15679411167E+03  0.18800936334E+03  0.93766227073E+02 0.  0.
         24    2    1    2    0    0 -0.88371263485E+02  0.73908037159E+02 -0.16813743957E+03  0.21888016911E+03  0.79790047500E+02 0.  0.
        -13    1    4    4    0    0 -0.38150654621E+02  0.60226283262E+02 -0.14568400931E+03  0.16219281184E+03  0.00000000000E+00 0.  1.
         14    1    4    4    0    0 -0.50220608864E+02  0.13681753897E+02 -0.22453430256E+02  0.56687357274E+02  0.00000000000E+00 0. -1.
        -11    1    3    3    0    0  0.23700719207E+02  0.49394291487E+02  0.97905308585E+02  0.11219166445E+03  0.00000000000E+00 0.  1.
         11    1    3    3    0    0  0.20266828344E+02 -0.43239889042E+02  0.58888803088E+02  0.75817698888E+02  0.00000000000E+00 0. -1.
         21    1    1    2  503  502  0.67795228320E+01 -0.45699479724E+02 -0.28022215276E+03  0.28400503389E+03  0.00000000000E+00 0.  1.
         -2    1    1    2    0  503  0.37624193101E+02 -0.34362959880E+02  0.82874025862E+02  0.97285646838E+02  0.00000000000E+00 0.  1.
<scales pt_clust_5="13000.00000" pt_clust_6="13000.00000" pt_clust_7="13000.00000" pt_clust_8="13000.00000" pt_clust_9="46.19961" pt_clust_10="52.15723"></scales>
<clustering>
<clus scale="   46.200">  2  9  1 -1</clus>
<clus scale="   52.157">  2 10  1 -1</clus>
<clus scale="   79.790">  5  6 -1 -1</clus>
<clus scale="   92.747">  2  5  1 -1</clus>
<clus scale="   93.766">  7  8 -1 -1</clus>
<clus scale="   46.200">  2  5  1 -1</clus>
</clustering>
</event>
<event>
10    4  0.3403565E-005  0.1105653E+03  0.7546771E-02  0.1262910E+00
         21   -1    0    0  503  502  0.00000000000E+00  0.00000000000E+00  0.76855698063E+02  0.76855698063E+02  0.00000000000E+00 0.  1.
          2   -1    0    0  502    0 -0.00000000000E+00 -0.00000000000E+00 -0.31404473692E+03  0.31404473692E+03  0.00000000000E+00 0. -1.
         23    2    1    2    0    0 -0.49986657758E+02 -0.75843336043E+01 -0.99915786425E+02  0.14305619973E+03  0.89026534443E+02 0.  0.
         24    2    1    2    0    0  0.77410019575E+02 -0.35502753665E+02 -0.14395229694E+03  0.18542187458E+03  0.80039060028E+02 0.  0.
        -11    1    4    4    0    0  0.61141678906E+02 -0.22107725545E+02 -0.33809476979E+02  0.73281219707E+02  0.00000000000E+00 0.  1.
         12    1    4    4    0    0  0.16268340669E+02 -0.13395028120E+02 -0.11014281996E+03  0.11214065487E+03  0.00000000000E+00 0. -1.
        -11    1    3    3    0    0  0.36635747790E+01  0.32545243872E+02 -0.18488978153E+02  0.37609267368E+02  0.00000000000E+00 0. -1.
         11    1    3    3    0    0 -0.53650232537E+02 -0.40129577476E+02 -0.81426808272E+02  0.10544693236E+03  0.00000000000E+00 0.  1.
         21    1    1    2  503  501 -0.49471431159E+01  0.25437806745E+02  0.18139720948E+02  0.31632352317E+02  0.00000000000E+00 0.  1.
          1    1    1    2  501    0 -0.22476218702E+02  0.17649280524E+02 -0.11460676447E+02  0.30790008359E+02  0.00000000000E+00 0. -1.
<scales pt_clust_5="13000.00000" pt_clust_6="13000.00000" pt_clust_7="13000.00000" pt_clust_8="13000.00000" pt_clust_9="25.91440" pt_clust_10="32.37658"></scales>
<clustering>
<clus scale="   25.914">  1  9  2 -1</clus>
<clus scale="   32.377">  1 10  2 -1</clus>
<clus scale="   80.039">  5  6 -1 -1</clus>
<clus scale="   89.027">  7  8 -1 -1</clus>
<clus scale="  103.466">  1  5  2 -1</clus>
<clus scale="   25.914">  1  5  2 -1</clus>
</clustering>
</event>
<event>
10    4  0.3403565E-005  0.1106078E+03  0.7546771E-02  0.1263966E+00
         21   -1    0    0  501  502  0.00000000000E+00  0.00000000000E+00  0.12030425656E+03  0.12030425656E+03  0.00000000000E+00 0.  1.
          2   -1    0    0  503    0 -0.00000000000E+00 -0.00000000000E+00 -0.47356861972E+03  0.47356861972E+03  0.00000000000E+00 0. -1.
         23    2    1    2    0    0 -0.40539552213E+02 -0.22480784705E+01 -0.36894586386E+02  0.10691594530E+03  0.91767639741E+02 0.  0.
         24    2    1    2    0    0  0.89822513882E+02  0.64749974281E+02  0.76842234373E+00  0.13673685520E+03  0.80223026169E+02 0.  0.
        -11    1    4    4    0    0  0.87083757998E+02  0.26081329219E+02  0.20574465729E+02  0.93204749240E+02  0.00000000000E+00 0.  1.
         12    1    4    4    0    0  0.27387558839E+01  0.38668645061E+02 -0.19806043386E+02  0.43532105960E+02  0.00000000000E+00 0. -1.
        -11    1    3    3    0    0 -0.14580844528E+02 -0.44579301501E+02 -0.32504895507E+02  0.57065605941E+02  0.00000000000E+00 0. -1.
         11    1    3    3    0    0 -0.25958707685E+02  0.42331223030E+02 -0.43896908786E+01  0.49850339356E+02  0.00000000000E+00 0.  1.
         21    1    1    2  503  502 -0.16819466805E+02  0.16722479595E+02 -0.21635377089E+01  0.23816311277E+02  0.00000000000E+00 0.  1.
          1    1    1    2  501    0 -0.32463494864E+02 -0.79224375405E+02 -0.31497466140E+03  0.32640376450E+03  0.00000000000E+00 0. -1.
<scales pt_clust_5="13000.00000" pt_clust_6="13000.00000" pt_clust_7="13000.00000" pt_clust_8="13000.00000" pt_clust_9="23.71784" pt_clust_10="85.15054"></scales>
<clustering>
<clus scale="   23.718">  1  9  2 -1</clus>
<clus scale="   80.223">  5  6 -1 -1</clus>
<clus scale="   85.151">  1 10  2 -1</clus>
<clus scale="   91.768">  7  8 -1 -1</clus>
<clus scale="  101.235">  1  5  2 -1</clus>
<clus scale="   23.718">  1  5  2 -1</clus>
</clustering>
</event>
<event>
10    4  0.3403565E-005  0.1496677E+03  0.7546771E-02  0.1219804E+00
         21   -1    0    0  503  502  0.00000000000E+00  0.00000000000E+00  0.25921588200E+03  0.25921588200E+03  0.00000000000E+00 0. -1.
          4   -1    0    0  502    0 -0.00000000000E+00 -0.00000000000E+00 -0.47323019280E+03  0.47323019280E+03  0.00000000000E+00 0. -1.
         23    2    1    2    0    0 -0.78047051078E+01  0.41522521172E+02 -0.35585739477E+03  0.36968962209E+03  0.90834454264E+02 0.  0.
         24    2    1    2    0    0 -0.69219610395E+02  0.79630143359E+02 -0.92685107263E+01  0.13195550981E+03  0.78702205076E+02 0.  0.
        -13    1    4    4    0    0 -0.14631850074E+02 -0.15372143628E+02  0.39684090684E+01  0.21590324380E+02  0.00000000000E+00 0.  1.
         14    1    4    4    0    0 -0.54587760322E+02  0.95002286987E+02 -0.13236919795E+02  0.11036518543E+03  0.00000000000E+00 0. -1.
        -13    1    3    3    0    0 -0.37913835935E+02  0.24812532554E+01 -0.70331525365E+02  0.79938345199E+02  0.00000000000E+00 0.  1.
         13    1    3    3    0    0  0.30109130827E+02  0.39041267917E+02 -0.28552586940E+03  0.28975127689E+03  0.00000000000E+00 0. -1.
         21    1    1    2  503  501 -0.16005995990E+02 -0.19594105628E+02  0.61463766120E+02  0.66467401248E+02  0.00000000000E+00 0.  1.
          3    1    1    2  501    0  0.93030311493E+02 -0.10155855890E+03  0.89647828580E+02  0.16433354165E+03  0.00000000000E+00 0. -1.
<scales pt_clust_5="13000.00000" pt_clust_6="13000.00000" pt_clust_7="13000.00000" pt_clust_8="13000.00000" pt_clust_9="25.30061" pt_clust_10="127.30429"></scales>
<clustering>
<clus scale="   25.301">  1  9  2 -1</clus>
<clus scale="   78.702">  5  6 -1 -1</clus>
<clus scale="   90.834">  7  8 -1 -1</clus>
<clus scale="   99.940">  2  7  1 -1</clus>
<clus scale="  127.304">  1 10  2 -1</clus>
<clus scale="   25.301">  1  5  2 -1</clus>
</clustering>
</event>
<event>
10    4  0.3403565E-005  0.1610982E+03  0.7546771E-02  0.1209986E+00
         -1   -1    0    0    0  501 -0.00000000000E+00  0.00000000000E+00  0.32301457400E+03  0.32301457400E+03  0.00000000000E+00 0.  1.
         21   -1    0    0  501  502  0.00000000000E+00 -0.00000000000E+00 -0.27955312514E+03  0.27955312514E+03  0.00000000000E+00 0. -1.
         23    2    1    2    0    0  0.10975182251E+02 -0.31268530598E+02  0.16997497923E+02  0.98568621141E+02  0.91261615736E+02 0.  0.
         24    2    1    2    0    0  0.11947973000E+03  0.52934492584E+02 -0.10822598179E+03  0.18832176908E+03  0.81699199432E+02 0.  0.
        -13    1    4    4    0    0  0.48569268975E+02  0.47514104468E+02 -0.12526060670E+02  0.69090275785E+02  0.00000000000E+00 0.  1.
         14    1    4    4    0    0  0.70910461023E+02  0.54203881164E+01 -0.95699921121E+02  0.11923149329E+03  0.00000000000E+00 0. -1.
        -11    1    3    3    0    0  0.49503957998E+02 -0.29156722160E+02  0.30307380999E+01  0.57532092592E+02  0.00000000000E+00 0.  1.
         11    1    3    3    0    0 -0.38528775747E+02 -0.21118084384E+01  0.13966759823E+02  0.41036528549E+02  0.00000000000E+00 0. -1.
         21    1    1    2  503  502  0.17946700048E+02 -0.17554662654E+02 -0.63365720809E+02  0.68157646652E+02  0.00000000000E+00 0. -1.
         -2    1    1    2    0  503 -0.14840161230E+03 -0.41112993321E+01  0.19805565353E+03  0.24751966227E+03  0.00000000000E+00 0.  1.
<scales pt_clust_5="13000.00000" pt_clust_6="13000.00000" pt_clust_7="13000.00000" pt_clust_8="13000.00000" pt_clust_9="25.10478" pt_clust_10="138.84480"></scales>
<clustering>
<clus scale="   25.105">  2  9  1 -1</clus>
<clus scale="   81.699">  5  6 -1 -1</clus>
<clus scale="   91.262">  7  8 -1 -1</clus>
<clus scale="   98.663">  1  7  2 -1</clus>
<clus scale="  138.845">  2 10  1 -1</clus>
<clus scale="   25.105">  2  5  1 -1</clus>
</clustering>
</event>
<event>
10    4  0.3403565E-005  0.1005830E+03  0.7546771E-02  0.1283538E+00
         21   -1    0    0  501  502  0.00000000000E+00  0.00000000000E+00  0.21549318210E+03  0.21549318210E+03  0.00000000000E+00 0. -1.
          4   -1    0    0  503    0 -0.00000000000E+00 -0.00000000000E+00 -0.12622576423E+03  0.12622576423E+03  0.00000000000E+00 0. -1.
         24    2    1    2    0    0 -0.10700021821E+02 -0.35518298665E+02 -0.65585969415E+02  0.11193886529E+03  0.82781339517E+02 0.  0.
         23    2    1    2    0    0  0.16383969467E+01  0.62426745970E+02  0.88346328570E+02  0.14189881562E+03  0.91817303081E+02 0.  0.
        -13    1    3    3    0    0 -0.92256857787E+01  0.21755918953E+02 -0.45421033967E+02  0.51200621229E+02  0.00000000000E+00 0.  1.
         14    1    3    3    0    0 -0.14743360418E+01 -0.57274217618E+02 -0.20164935448E+02  0.60738244065E+02  0.00000000000E+00 0. -1.
        -13    1    4    4    0    0  0.22517989371E+02  0.57138088268E+02  0.10004208545E+03  0.11738926628E+03  0.00000000000E+00 0. -1.
         13    1    4    4    0    0 -0.20879592424E+02  0.52886577014E+01 -0.11695756876E+02  0.24509549343E+02  0.00000000000E+00 0.  1.
         21    1    1    2  503  502  0.29572279018E+02 -0.11261832408E+02  0.37124027510E+02  0.48780549137E+02  0.00000000000E+00 0. -1.
          3    1    1    2  501    0 -0.20510654144E+02 -0.15646614898E+02  0.29383031199E+02  0.39100716280E+02  0.00000000000E+00 0. -1.
<scales pt_clust_5="13000.00000" pt_clust_6="13000.00000" pt_clust_7="13000.00000" pt_clust_8="13000.00000" pt_clust_9="28.89225" pt_clust_10="25.79735"></scales>
<clustering>
<clus scale="   25.797">  1 10  2 -1</clus>
<clus scale="   28.892">  1  9  2 -1</clus>
<clus scale="   82.781">  5  6 -1 -1</clus>
<clus scale="   91.817">  7  8 -1 -1</clus>
<clus scale="   92.408">  2  5  1 -1</clus>
<clus scale="   25.797">  1  5  2 -1</clus>
</clustering>
</event>
<event>
10    4  0.3403565E-005  0.1010569E+03  0.7546771E-02  0.1284343E+00
         -1   -1    0    0    0  501 -0.00000000000E+00  0.00000000000E+00  0.34561712574E+03  0.34561712574E+03  0.00000000000E+00 0.  1.
         21   -1    0    0  503  502  0.00000000000E+00 -0.00000000000E+00 -0.10843742296E+03  0.10843742296E+03  0.00000000000E+00 0.  1.
         23    2    1    2    0    0  0.40784878457E+02 -0.32367772758E+02  0.11292701199E+03  0.15697178495E+03  0.95794322423E+02 0.  0.
         24    2    1    2    0    0 -0.13207158940E+02 -0.83321742366E+02  0.47376035651E+02  0.12797804980E+03  0.83767241081E+02 0.  0.
        -11    1    4    4    0    0 -0.23846654404E+02 -0.79221554985E+02  0.66207950205E+02  0.10596325010E+03  0.00000000000E+00 0.  1.
         12    1    4    4    0    0  0.10639495464E+02 -0.41001873817E+01 -0.18831914553E+02  0.22014799705E+02  0.00000000000E+00 0. -1.
        -11    1    3    3    0    0  0.65648758220E+02 -0.28589586363E+02  0.11054594459E+03  0.13171002152E+03  0.00000000000E+00 0.  1.
         11    1    3    3    0    0 -0.24863879764E+02 -0.37781863949E+01  0.23810674005E+01  0.25261763424E+02  0.00000000000E+00 0. -1.
         21    1    1    2  503  501  0.14568891103E+02  0.68170183648E+02  0.42595927988E+00  0.69710888445E+02  0.00000000000E+00 0.  1.
         -2    1    1    2    0  502 -0.42146610620E+02  0.47519331477E+02  0.76450695868E+02  0.99393825509E+02  0.00000000000E+00 0.  1.
<scales pt_clust_5="13000.00000" pt_clust_6="13000.00000" pt_clust_7="13000.00000" pt_clust_8="13000.00000" pt_clust_9="85.14856" pt_clust_10="63.51714"></scales>
<clustering>
<clus scale="   63.517">  2 10  1 -1</clus>
<clus scale="   83.767">  5  6 -1 -1</clus>
<clus scale="   85.149">  2  9  1 -1</clus>
<clus scale="   89.738">  2  5  1 -1</clus>
<clus scale="   95.794">  7  8 -1 -1</clus>
<clus scale="   63.517">  2  5  1 -1</clus>
</clustering>
</event>
<event>
10    4  0.3403565E-005  0.1622637E+03  0.7546771E-02  0.1201784E+00
         21   -1    0    0  501  502  0.00000000000E+00  0.00000000000E+00  0.36623501226E+03  0.36623501226E+03  0.00000000000E+00 0. -1.
          2   -1    0    0  503    0 -0.00000000000E+00 -0.00000000000E+00 -0.32825247060E+03  0.32825247060E+03  0.00000000000E+00 0. -1.
         23    2    1    2    0    0  0.76660461467E+02  0.25251334847E+02 -0.90831613444E+02  0.14999462081E+03  0.87940593625E+02 0.  0.
         24    2    1    2    0    0  0.13041871799E+01  0.11929519573E+03 -0.11821407010E+03  0.18620108027E+03  0.80394224285E+02 0.  0.
        -11    1    4    4    0    0  0.23040749263E+02  0.16451891046E+02 -0.40497636200E+00  0.28314393009E+02  0.00000000000E+00 0.  1.
         12    1    4    4    0    0 -0.21736562083E+02  0.10284330468E+03 -0.11780909374E+03  0.15788668727E+03  0.00000000000E+00 0. -1.
        -11    1    3    3    0    0  0.75498565288E+02 -0.13328412297E+02 -0.77875961423E+02  0.10928103817E+03  0.00000000000E+00 0. -1.
         11    1    3    3    0    0  0.11618961783E+01  0.38579747144E+02 -0.12955652021E+02  0.40713582644E+02  0.00000000000E+00 0.  1.
         21    1    1    2  503  502 -0.11127875426E+02 -0.11737861757E+03  0.25954146485E+03  0.28506725776E+03  0.00000000000E+00 0. -1.
          1    1    1    2  501    0 -0.66836773220E+02 -0.27167913007E+02 -0.12513239643E+02  0.73224524020E+02  0.00000000000E+00 0. -1.
<scales pt_clust_5="13000.00000" pt_clust_6="13000.00000" pt_clust_7="13000.00000" pt_clust_8="13000.00000" pt_clust_9="140.94781" pt_clust_10="72.14745"></scales>
<clustering>
<clus scale="   72.147">  1 10  2 -1</clus>
<clus scale="   80.394">  5  6 -1 -1</clus>
<clus scale="   87.941">  7  8 -1 -1</clus>
<clus scale="  115.174">  2  7  1 -1</clus>
<clus scale="  140.948">  1  9  2 -1</clus>
<clus scale="   72.147">  1  5  2 -1</clus>
</clustering>
</event>
<event>
10    4  0.3403565E-005  0.1435338E+03  0.7546771E-02  0.1228568E+00
         21   -1    0    0  501  502  0.00000000000E+00  0.00000000000E+00  0.45457474781E+02  0.45457474781E+02  0.00000000000E+00 0.  1.
          2   -1    0    0  503    0 -0.00000000000E+00 -0.00000000000E+00 -0.10390720150E+04  0.10390720150E+04  0.00000000000E+00 0. -1.
         23    2    1    2    0    0 -0.83710091406E+02 -0.10507052694E+03 -0.39487768299E+03  0.42675753823E+03  0.90257503155E+02 0.  0.
         24    2    1    2    0    0  0.30811145129E+02  0.22413859544E+02 -0.16292225372E+03  0.18549272984E+03  0.80076115670E+02 0.  0.
        -11    1    4    4    0    0  0.22077160983E+02  0.30104644311E+02 -0.20489464730E+02  0.42585312152E+02  0.00000000000E+00 0.  1.
         12    1    4    4    0    0  0.87339841457E+01 -0.76907847672E+01 -0.14243278899E+03  0.14290741769E+03  0.00000000000E+00 0. -1.
        -13    1    3    3    0    0 -0.38086387732E+02 -0.84427742367E+02 -0.14606380218E+03  0.17295447643E+03  0.00000000000E+00 0.  1.
         13    1    3    3    0    0 -0.45623703673E+02 -0.20642784576E+02 -0.24881388081E+03  0.25380306179E+03  0.00000000000E+00 0. -1.
         21    1    1    2  503  502 -0.76383802040E+01  0.10674713906E+03 -0.19095912902E+03  0.21890337025E+03  0.00000000000E+00 0. -1.
          1    1    1    2  501    0  0.60537326481E+02 -0.24090471659E+02 -0.24485547451E+03  0.25337585149E+03  0.00000000000E+00 0. -1.
<scales pt_clust_5="13000.00000" pt_clust_6="13000.00000" pt_clust_7="13000.00000" pt_clust_8="13000.00000" pt_clust_9="111.60441" pt_clust_10="65.15461"></scales>
<clustering>
<clus scale="   65.155">  1 10  2 -1</clus>
<clus scale="   80.076">  5  6 -1 -1</clus>
<clus scale="   90.258">  7  8 -1 -1</clus>
<clus scale="   94.385">  1  5  2 -1</clus>
<clus scale="  111.604">  1  9  2 -1</clus>
<clus scale="   65.155">  1  5  2 -1</clus>
</clustering>
</event>
<event>
10    4  0.3403565E-005  0.1411038E+03  0.7546771E-02  0.1214724E+00
          2   -1    0    0  502    0 -0.00000000000E+00  0.00000000000E+00  0.17482247433E+04  0.17482247433E+04  0.00000000000E+00 0. -1.
         21   -1    0    0  503  502  0.00000000000E+00 -0.00000000000E+00 -0.11758039336E+03  0.11758039336E+03  0.00000000000E+00 0. -1.
         24    2    1    2    0    0  0.85488967631E+02 -0.74839272504E+02  0.13083419914E+04  0.13156867251E+04  0.79771623020E+02 0.  0.
         23    2    1    2    0    0 -0.34681658016E+02  0.66016774550E+02  0.18445507971E+03  0.21962514707E+03  0.93008047345E+02 0.  0.
        -11    1    3    3    0    0  0.63460282213E+02 -0.45139759872E+02  0.46048775761E+03  0.46702653056E+03  0.00000000000E+00 0.  1.
         12    1    3    3    0    0  0.22028685418E+02 -0.29699512632E+02  0.84785423383E+03  0.84866019458E+03  0.00000000000E+00 0. -1.
        -13    1    4    4    0    0  0.22716205668E+02 -0.78535916089E+01  0.53876773205E+02  0.58995013282E+02  0.00000000000E+00 0.  1.
         13    1    4    4    0    0 -0.57397863684E+02  0.73870366159E+02  0.13057830651E+03  0.16063013379E+03  0.00000000000E+00 0. -1.
         21    1    1    2  503  501  0.13776806623E+02 -0.17101871423E+02 -0.89799894292E+02  0.92446175810E+02  0.00000000000E+00 0. -1.
          1    1    1    2  501    0 -0.64584116239E+02  0.25924369377E+02  0.22764717313E+03  0.23804708869E+03  0.00000000000E+00 0. -1.
<scales pt_clust_5="13000.00000" pt_clust_6="13000.00000" pt_clust_7="13000.00000" pt_clust_8="13000.00000" pt_clust_9="21.96075" pt_clust_10="65.86187"></scales>
<clustering>
<clus scale="   21.961">  2  9  1 -1</clus>
<clus scale="   65.862">  2 10  1 -1</clus>
<clus scale="   79.772">  5  6 -1 -1</clus>
<clus scale="   93.008">  7  8 -1 -1</clus>
<clus scale="  132.753">  1  5  2 -1</clus>
<clus scale="   21.961">  2  5  1 -1</clus>
</clustering>
</event>
<event>
10    4  0.3403565E-005  0.9769382E+02  0.7546771E-02  0.1286497E+00
          4   -1    0    0  503    0 -0.00000000000E+00  0.00000000000E+00  0.24183873991E+03  0.24183873991E+03  0.00000000000E+00 0. -1.
         21   -1    0    0  501  502  0.00000000000E+00 -0.00000000000E+00 -0.54814524793E+03  0.54814524793E+03  0.00000000000E+00 0.  1.
         23    2    1    2    0    0  0.16093439575E+02  0.51896114035E+02  0.20978640610E+03  0.23185040201E+03  0.82413999294E+02 0.  0.
         24    2    1    2    0    0 -0.18341402117E+02 -0.15432976286E+02 -0.18036716044E+03  0.19862211142E+03  0.79648269230E+02 0.  0.
        -11    1    4    4    0    0 -0.10107475978E+02 -0.33641795937E+02 -0.17420256876E+03  0.17770893750E+03  0.00000000000E+00 0.  1.
         12    1    4    4    0    0 -0.82339261395E+01  0.18208819651E+02 -0.61645916754E+01  0.20913173917E+02  0.00000000000E+00 0. -1.
        -13    1    3    3    0    0 -0.33129734615E+02  0.23525677792E+02  0.10617888200E+03  0.11368813401E+03  0.00000000000E+00 0.  1.
         13    1    3    3    0    0  0.49223174190E+02  0.28370436243E+02  0.10360752410E+03  0.11816226800E+03  0.00000000000E+00 0. -1.
         21    1    1    2  503  502 -0.18295940955E+02 -0.72762951219E+02 -0.28016239515E+03  0.29003474995E+03  0.00000000000E+00 0.  1.
          3    1    1    2  501    0  0.20543903497E+02  0.36299813469E+02 -0.55563358542E+02  0.69476724457E+02  0.00000000000E+00 0. -1.
<scales pt_clust_5="13000.00000" pt_clust_6="13000.00000" pt_clust_7="13000.00000" pt_clust_8="13000.00000" pt_clust_9="51.82864" pt_clust_10="41.71005"></scales>
<clustering>
<clus scale="   41.710">  2 10  1 -1</clus>
<clus scale="   51.829">  2  9  1 -1</clus>
<clus scale="   79.648">  5  6 -1 -1</clus>
<clus scale="   82.414">  7  8 -1 -1</clus>
<clus scale="   95.372">  2  5  1 -1</clus>
<clus scale="   41.710">  2  5  1 -1</clus>
</clustering>
</event>
<event>
10    4  0.3403565E-005  0.1005470E+03  0.7546771E-02  0.1285241E+00
          2   -1    0    0  503    0 -0.00000000000E+00  0.00000000000E+00  0.66135562940E+03  0.66135562940E+03  0.00000000000E+00 0. -1.
         21   -1    0    0  501  502  0.00000000000E+00 -0.00000000000E+00 -0.41559697542E+03  0.41559697542E+03  0.00000000000E+00 0. -1.
         24    2    1    2    0    0 -0.35869107702E+02 -0.19773797319E+02  0.32853082310E+03  0.34048370153E+03  0.79492473452E+02 0.  0.
         23    2    1    2    0    0 -0.25552927925E+02  0.77512620123E+02  0.27154876107E+03  0.29800055436E+03  0.91675745734E+02 0.  0.
        -11    1    3    3    0    0 -0.50121076965E+02 -0.28838232172E+02  0.31025685492E+03  0.31559955959E+03  0.00000000000E+00 0.  1.
         12    1    3    3    0    0  0.14251969263E+02  0.90644348524E+01  0.18273968181E+02  0.24884141941E+02  0.00000000000E+00 0. -1.
        -13    1    4    4    0    0 -0.62066184744E+01  0.95857884856E+02  0.21019758636E+03  0.23110664532E+03  0.00000000000E+00 0. -1.
         13    1    4    4    0    0 -0.19346309451E+02 -0.18345264734E+02  0.61351174717E+02  0.66893909040E+02  0.00000000000E+00 0.  1.
         21    1    1    2  503  502  0.41481774896E+02  0.33683095896E+02 -0.33956154361E+03  0.34374020786E+03  0.00000000000E+00 0. -1.
          1    1    1    2  501    0  0.19940260732E+02 -0.91421918699E+02 -0.14759386581E+02  0.94728141061E+02  0.00000000000E+00 0. -1.
<scales pt_clust_5="13000.00000" pt_clust_6="13000.00000" pt_clust_7="13000.00000" pt_clust_8="13000.00000" pt_clust_9="53.43490" pt_clust_10="83.58091"></scales>
<clustering>
<clus scale="   53.435">  2  9  1 -1</clus>
<clus scale="   79.492">  5  6 -1 -1</clus>
<clus scale="   83.581">  2 10  1 -1</clus>
<clus scale="   89.579">  1  5  2 -1</clus>
<clus scale="   91.676">  7  8 -1 -1</clus>
<clus scale="   53.435">  2  5  1 -1</clus>
</clustering>
</event>
<event>
10    4  0.3403565E-005  0.1231276E+03  0.7546771E-02  0.1241006E+00
         -1   -1    0    0    0  501 -0.00000000000E+00  0.00000000000E+00  0.31199568969E+03  0.31199568969E+03  0.00000000000E+00 0.  1.
         21   -1    0    0  501  502  0.00000000000E+00 -0.00000000000E+00 -0.15171140291E+03  0.15171140291E+03  0.00000000000E+00 0.  1.
         24    2    1    2    0    0 -0.90510466724E+02 -0.56818869396E+02  0.19716278163E+03  0.23780981964E+03  0.79119020159E+02 0.  0.
         23    2    1    2    0    0  0.53000910779E+01  0.59232774046E+02  0.30595823620E+02  0.11163575782E+03  0.89385823896E+02 0.  0.
        -13    1    3    3    0    0 -0.64894092825E+02 -0.11323984970E+02  0.16194793189E+03  0.17483308773E+03  0.00000000000E+00 0.  1.
         14    1    3    3    0    0 -0.25616373898E+02 -0.45494884426E+02  0.35214849740E+02  0.62976731916E+02  0.00000000000E+00 0. -1.
        -11    1    4    4    0    0  0.42033083831E+02  0.56420042904E+02  0.23000447455E+02  0.74020415838E+02  0.00000000000E+00 0. -1.
         11    1    4    4    0    0 -0.36732992753E+02  0.28127311419E+01  0.75953761647E+01  0.37615341979E+02  0.00000000000E+00 0.  1.
         21    1    1    2  503  502  0.22430405112E+02  0.99993768935E+01 -0.34280906904E+02  0.42169790015E+02  0.00000000000E+00 0.  1.
         -2    1    1    2    0  503  0.62779970534E+02 -0.12413281543E+02 -0.33193411578E+02  0.72091725122E+02  0.00000000000E+00 0.  1.
<scales pt_clust_5="13000.00000" pt_clust_6="13000.00000" pt_clust_7="13000.00000" pt_clust_8="13000.00000" pt_clust_9="21.78123" pt_clust_10="92.21123"></scales>
<clustering>
<clus scale="   21.781">  9 10 -1 -1</clus>
<clus scale="   79.119">  5  6 -1 -1</clus>
<clus scale="   89.386">  7  8 -1 -1</clus>
<clus scale="   92.211">  2  9  1 -1</clus>
<clus scale="  115.890">  1  5  2 -1</clus>
<clus scale="   92.211">  2  5  1 -1</clus>
</clustering>
</event>
<event>
10    4  0.3403565E-005  0.1388150E+03  0.7546771E-02  0.1224187E+00
          2   -1    0    0  503    0 -0.00000000000E+00  0.00000000000E+00  0.36820140767E+03  0.36820140767E+03  0.00000000000E+00 0. -1.
         21   -1    0    0  501  502  0.00000000000E+00 -0.00000000000E+00 -0.14809756061E+03  0.14809756061E+03  0.00000000000E+00 0. -1.
         23    2    1    2    0    0  0.67642756974E+02  0.25710319588E+02  0.18852464419E+03  0.22122864909E+03  0.90354914686E+02 0.  0.
         24    2    1    2    0    0  0.70132096763E+02 -0.64317044286E+02  0.39087648194E+02  0.12998404929E+03  0.79453229294E+02 0.  0.
        -13    1    4    4    0    0  0.67035326299E+02 -0.10627249347E+02  0.34147898667E+02  0.75978631101E+02  0.00000000000E+00 0.  1.
         14    1    4    4    0    0  0.30967704647E+01 -0.53689794939E+02  0.49397495276E+01  0.54005418184E+02  0.00000000000E+00 0. -1.
        -13    1    3    3    0    0  0.88769386768E+02  0.26558657959E+02  0.13557055966E+03  0.16420944853E+03  0.00000000000E+00 0. -1.
         13    1    3    3    0    0 -0.21126629794E+02 -0.84833837084E+00  0.52954084530E+02  0.57019200563E+02  0.00000000000E+00 0.  1.
         21    1    1    2  503  502 -0.11751850644E+03  0.44746864473E+02 -0.34868897593E+02  0.13049414261E+03  0.00000000000E+00 0. -1.
          1    1    1    2  501    0 -0.20256347302E+02 -0.61401397751E+01  0.27360452277E+02  0.34592127302E+02  0.00000000000E+00 0. -1.
<scales pt_clust_5="13000.00000" pt_clust_6="13000.00000" pt_clust_7="13000.00000" pt_clust_8="13000.00000" pt_clust_9="113.82788" pt_clust_10="21.16652"></scales>
<clustering>
<clus scale="   21.167">  2 10  1 -1</clus>
<clus scale="   79.453">  5  6 -1 -1</clus>
<clus scale="   90.355">  7  8 -1 -1</clus>
<clus scale="  114.282">  1  7  2 -1</clus>
<clus scale="  113.828">  2  9  1 -1</clus>
<clus scale="   21.167">  2  5  1 -1</clus>
</clustering>
</event>
<event>
10    4  0.3403565E-005  0.1357861E+03  0.7546771E-02  0.1230709E+00
         21   -1    0    0  501  502  0.00000000000E+00  0.00000000000E+00  0.49505513864E+03  0.49505513864E+03  0.00000000000E+00 0.  1.
          2   -1    0    0  503    0 -0.00000000000E+00 -0.00000000000E+00 -0.40546080119E+03  0.40546080119E+03  0.00000000000E+00 0. -1.
         24    2    1    2    0    0 -0.76748181320E+02 -0.19215918548E+02  0.15761100503E+02  0.11153391271E+03  0.77018611605E+02 0.  0.
         23    2    1    2    0    0 -0.42894556809E+02  0.63489769881E+02 -0.17929469292E+03  0.21547339220E+03  0.91713150400E+02 0.  0.
        -13    1    3    3    0    0 -0.69247521843E+02  0.13130901218E+02  0.28422792595E+02  0.75996677474E+02  0.00000000000E+00 0.  1.
         14    1    3    3    0    0 -0.75006594769E+01 -0.32346819765E+02 -0.12661692092E+02  0.35537235235E+02  0.00000000000E+00 0. -1.
        -11    1    4    4    0    0 -0.69407228173E+02  0.54440463555E+02 -0.15522739449E+03  0.17854039149E+03  0.00000000000E+00 0. -1.
         11    1    4    4    0    0  0.26512671365E+02  0.90493063263E+01 -0.24067298429E+02  0.36933000711E+02  0.00000000000E+00 0.  1.
         21    1    1    2  503  502  0.80764862409E+02 -0.58978540164E+02  0.40442458148E+03  0.41660613690E+03  0.00000000000E+00 0.  1.
          1    1    1    2  501    0  0.38877875719E+02  0.14704688830E+02 -0.15129665161E+03  0.15690249801E+03  0.00000000000E+00 0. -1.
<scales pt_clust_5="13000.00000" pt_clust_6="13000.00000" pt_clust_7="13000.00000" pt_clust_8="13000.00000" pt_clust_9="100.13271" pt_clust_10="41.56584"></scales>
<clustering>
<clus scale="   41.566">  1 10  2 -1</clus>
<clus scale="   77.019">  5  6 -1 -1</clus>
<clus scale="   91.713">  7  8 -1 -1</clus>
<clus scale="  106.657">  2  5  1 -1</clus>
<clus scale="  100.133">  1  9  2 -1</clus>
<clus scale="   41.566">  1  5  2 -1</clus>
</clustering>
</event>
<event>
10    4  0.3403565E-005  0.1757579E+03  0.7546771E-02  0.1181656E+00
          2   -1    0    0  502    0 -0.00000000000E+00  0.00000000000E+00  0.11474276594E+04  0.11474276594E+04  0.00000000000E+00 0. -1.
         21   -1    0    0  503  502  0.00000000000E+00 -0.00000000000E+00 -0.64443553232E+02  0.64443553232E+02  0.00000000000E+00 0. -1.
         23    2    1    2    0    0  0.72723474325E+02  0.77188868823E+02  0.36086537592E+03  0.38681781921E+03  0.90318218165E+02 0.  0.
         24    2    1    2    0    0 -0.77817562142E+02  0.11385877357E+03  0.40264162911E+03  0.43410000032E+03  0.85458384557E+02 0.  0.
        -11    1    4    4    0    0 -0.83353959832E+02  0.48333981047E+02  0.23072032957E+03  0.25003185161E+03  0.00000000000E+00 0.  1.
         12    1    4    4    0    0  0.55363976893E+01  0.65524792519E+02  0.17192129953E+03  0.18406814870E+03  0.00000000000E+00 0. -1.
        -11    1    3    3    0    0  0.45790193919E+02 -0.94066073696E+01  0.15421347716E+03  0.16114286413E+03  0.00000000000E+00 0.  1.
         11    1    3    3    0    0  0.26933280406E+02  0.86595476193E+02  0.20665189876E+03  0.22567495508E+03  0.00000000000E+00 0. -1.
         21    1    1    2  503  501  0.23513005981E+02 -0.89162189616E+01  0.29722264651E+01  0.25321819465E+02  0.00000000000E+00 0.  1.
          1    1    1    2  501    0 -0.18418918164E+02 -0.18213142343E+03  0.31650487466E+03  0.36563157362E+03  0.00000000000E+00 0. -1.
<scales pt_clust_5="13000.00000" pt_clust_6="13000.00000" pt_clust_7="13000.00000" pt_clust_8="13000.00000" pt_clust_9="25.14678" pt_clust_10="153.58292"></scales>
<clustering>
<clus scale="   25.147">  2  9  1 -1</clus>
<clus scale="   85.458">  5  6 -1 -1</clus>
<clus scale="   90.318">  7  8 -1 -1</clus>
<clus scale="  141.207">  1  7  2 -1</clus>
<clus scale="  153.583">  2 10  1 -1</clus>
<clus scale="   25.147">  2  5  1 -1</clus>
</clustering>
</event>
<event>
10    4  0.3403565E-005  0.1513737E+03  0.7546771E-02  0.1224453E+00
         -1   -1    0    0    0  501 -0.00000000000E+00  0.00000000000E+00  0.60368021769E+03  0.60368021769E+03  0.00000000000E+00 0.  1.
         21   -1    0    0  501  502  0.00000000000E+00 -0.00000000000E+00 -0.10345046453E+03  0.10345046453E+03  0.00000000000E+00 0.  1.
         24    2    1    2    0    0  0.22050272543E+02 -0.17354862970E+02  0.38122840164E+02  0.91767770628E+02  0.78616582194E+02 0.  0.
         23    2    1    2    0    0  0.10451681946E+03  0.24236584509E+01  0.42908664282E+02  0.14336039133E+03  0.88212293143E+02 0.  0.
        -11    1    3    3    0    0 -0.65808787956E+01 -0.19876526437E+02 -0.18710730587E+02  0.28079809615E+02  0.00000000000E+00 0.  1.
         12    1    3    3    0    0  0.28631151338E+02  0.25216634661E+01  0.56833570751E+02  0.63687961013E+02  0.00000000000E+00 0. -1.
        -13    1    4    4    0    0  0.41149252827E+02  0.44495094164E+02  0.16046342763E+02  0.62694174601E+02  0.00000000000E+00 0.  1.
         13    1    4    4    0    0  0.63367566634E+02 -0.42071435713E+02  0.26862321519E+02  0.80666216730E+02  0.00000000000E+00 0. -1.
         21    1    1    2  503  502  0.17614972349E+02 -0.34616451179E+02  0.17991277875E+02  0.42805046696E+02  0.00000000000E+00 0. -1.
         -2    1    1    2    0  503 -0.14418206435E+03  0.49547655699E+02  0.40120697084E+03  0.42919747357E+03  0.00000000000E+00 0.  1.
<scales pt_clust_5="13000.00000" pt_clust_6="13000.00000" pt_clust_7="13000.00000" pt_clust_8="13000.00000" pt_clust_9="38.84052" pt_clust_10="123.01467"></scales>
<clustering>
<clus scale="   38.841">  2  9  1 -1</clus>
<clus scale="   78.617">  5  6 -1 -1</clus>
<clus scale="   87.646">  1  5  2 -1</clus>
<clus scale="   88.212">  7  8 -1 -1</clus>
<clus scale="  123.015">  2 10  1 -1</clus>
<clus scale="   38.841">  2  5  1 -1</clus>
</clustering>
</event>
<event>
10    4  0.3403565E-005  0.1412415E+03  0.7546771E-02  0.1213012E+00
          2   -1    0    0  503    0 -0.00000000000E+00  0.00000000000E+00  0.14875107816E+04  0.14875107816E+04  0.00000000000E+00 0. -1.
         21   -1    0    0  501  502  0.00000000000E+00 -0.00000000000E+00 -0.53222351867E+02  0.53222351867E+02  0.00000000000E+00 0.  1.
         24    2    1    2    0    0 -0.32892457291E+02 -0.99601146118E+02  0.10024308916E+04  0.10111633628E+04  0.81125531389E+02 0.  0.
         23    2    1    2    0    0  0.66754868634E+02  0.12247614245E+03  0.31539410627E+03  0.35583633049E+03  0.87689417099E+02 0.  0.
        -11    1    3    3    0    0 -0.41740563635E+02 -0.79494406766E+02  0.48339786491E+03  0.49166567011E+03  0.00000000000E+00 0.  1.
         12    1    3    3    0    0  0.88481063442E+01 -0.20106739352E+02  0.51903302670E+03  0.51949769274E+03  0.00000000000E+00 0. -1.
        -11    1    4    4    0    0  0.15472581839E+02  0.64885806448E+02  0.62366775951E+02  0.91319129484E+02  0.00000000000E+00 0.  1.
         11    1    4    4    0    0  0.51282286795E+02  0.57590335998E+02  0.25302733032E+03  0.26451720100E+03  0.00000000000E+00 0. -1.
         21    1    1    2  503  502 -0.35503447181E+02 -0.49256566548E+02  0.69960021904E+01  0.61119948925E+02  0.00000000000E+00 0.  1.
          1    1    1    2  501    0  0.16410358383E+01  0.26381570221E+02  0.10946742962E+03  0.11261349117E+03  0.00000000000E+00 0. -1.
<scales pt_clust_5="13000.00000" pt_clust_6="13000.00000" pt_clust_7="13000.00000" pt_clust_8="13000.00000" pt_clust_9="49.55535" pt_clust_10="26.43257"></scales>
<clustering>
<clus scale="   26.433">  2 10  1 -1</clus>
<clus scale="   49.555">  2  9  1 -1</clus>
<clus scale="   81.126">  5  6 -1 -1</clus>
<clus scale="   87.689">  7  8 -1 -1</clus>
<clus scale="  137.263">  1  5  2 -1</clus>
<clus scale="   26.433">  2  5  1 -1</clus>
</clustering>
</event>
<event>
10    4  0.3403565E-005  0.1986827E+03  0.7546771E-02  0.1169743E+00
          2   -1    0    0  502    0 -0.00000000000E+00  0.00000000000E+00  0.74143919144E+03  0.74143919144E+03  0.00000000000E+00 0. -1.
         21   -1    0    0  503  502  0.00000000000E+00 -0.00000000000E+00 -0.18598737614E+03  0.18598737614E+03  0.00000000000E+00 0.  1.
         23    2    1    2    0    0 -0.20383940849E+02 -0.64051060746E+02 -0.23977692297E+02  0.11457709508E+03  0.89637813233E+02 0.  0.
         24    2    1    2    0    0 -0.79651750236E+02  0.20584103245E+03  0.25813750968E+03  0.34910482611E+03  0.80772976639E+02 0.  0.
        -11    1    4    4    0    0 -0.72021334980E+02  0.86263919652E+02  0.15203771834E+03  0.18906084820E+03  0.00000000000E+00 0.  1.
         12    1    4    4    0    0 -0.76304152555E+01  0.11957711280E+03  0.10609979135E+03  0.16004397791E+03  0.00000000000E+00 0. -1.
        -11    1    3    3    0    0 -0.31522840082E+02 -0.12193222107E+02  0.25268011597E+02  0.42199958795E+02  0.00000000000E+00 0. -1.
         11    1    3    3    0    0  0.11138899233E+02 -0.51857838639E+02 -0.49245703894E+02  0.72377136283E+02  0.00000000000E+00 0.  1.
         21    1    1    2  503  501 -0.12347464684E+02 -0.43449007030E+02 -0.47691736236E+02  0.65686968275E+02  0.00000000000E+00 0. -1.
          1    1    1    2  501    0  0.11238315577E+03 -0.98340964672E+02  0.36898373415E+03  0.39805767811E+03  0.00000000000E+00 0. -1.
<scales pt_clust_5="13000.00000" pt_clust_6="13000.00000" pt_clust_7="13000.00000" pt_clust_8="13000.00000" pt_clust_9="45.16942" pt_clust_10="181.52290"></scales>
<clustering>
<clus scale="   45.169">  2  9  1 -1</clus>
<clus scale="   80.773">  5  6 -1 -1</clus>
<clus scale="   89.638">  7  8 -1 -1</clus>
<clus scale="  128.026">  1  7  2 -1</clus>
<clus scale="  181.523">  2 10  1 -1</clus>
<clus scale="   45.169">  2  5  1 -1</clus>
</clustering>
</event>
<event>
10    4  0.3403565E-005  0.7895218E+03  0.7546771E-02  0.1008599E+00
          2   -1    0    0  502    0 -0.00000000000E+00  0.00000000000E+00  0.29547381308E+04  0.29547381308E+04  0.00000000000E+00 0. -1.
         21   -1    0    0  503  502  0.00000000000E+00 -0.00000000000E+00 -0.93921685658E+03  0.93921685658E+03  0.00000000000E+00 0.  1.
         23    2    1    2    0    0  0.11359737089E+03 -0.34680553504E+02  0.39043782052E+02  0.15400092194E+03  0.89915313363E+02 0.  0.
         24    2    1    2    0    0  0.87784360439E+02  0.32187803391E+03  0.69897457448E+03  0.77886092981E+03  0.82142130282E+02 0.  0.
        -11    1    4    4    0    0  0.22489617796E+02  0.10198777876E+02  0.61521731888E+02  0.66292695475E+02  0.00000000000E+00 0.  1.
         12    1    4    4    0    0  0.65294742643E+02  0.31167925603E+03  0.63745284259E+03  0.71256823434E+03  0.00000000000E+00 0. -1.
        -13    1    3    3    0    0  0.37962252080E+02 -0.41968965778E+02  0.52076710939E+02  0.76905854742E+02  0.00000000000E+00 0.  1.
         13    1    3    3    0    0  0.75635118812E+02  0.72884122735E+01 -0.13032928887E+02  0.77095067199E+02  0.00000000000E+00 0. -1.
         21    1    1    2  503  501 -0.76713982210E+03  0.22646263731E+03 -0.55639919785E+03  0.97435563329E+03  0.00000000000E+00 0.  1.
          1    1    1    2  501    0  0.56575809077E+03 -0.51366011771E+03  0.18339021155E+04  0.19867375023E+04  0.00000000000E+00 0. -1.
<scales pt_clust_5="13000.00000" pt_clust_6="13000.00000" pt_clust_7="13000.00000" pt_clust_8="13000.00000" pt_clust_9="789.52178" pt_clust_10="13000.00000"></scales>
<clustering>
<clus scale="   82.142">  5  6 -1 -1</clus>
<clus scale="   89.915">  7  8 -1 -1</clus>
<clus scale="  148.969">  1  7  2 -1</clus>
<clus scale="  344.073">  1  5  2 -1</clus>
<clus scale="  789.522">  2  9  1 -1</clus>
<clus scale="  789.522">  2  5  1 -1</clus>
</clustering>
</event>
<event>
10    4  0.3403565E-005  0.1240915E+03  0.7546771E-02  0.1242068E+00
          2   -1    0    0  503    0 -0.00000000000E+00  0.00000000000E+00  0.19528518552E+04  0.19528518552E+04  0.00000000000E+00 0. -1.
         21   -1    0    0  501  502  0.00000000000E+00 -0.00000000000E+00 -0.40538689209E+02  0.40538689209E+02  0.00000000000E+00 0. -1.
         24    2    1    2    0    0 -0.35780194464E+02 -0.69980640790E+02  0.11638676638E+04  0.11691228062E+04  0.77991567770E+02 0.  0.
         23    2    1    2    0    0 -0.52082215973E+02  0.10545422045E+03  0.39976405612E+03  0.42760881302E+03  0.95941891673E+02 0.  0.
        -11    1    3    3    0    0 -0.11428613259E+02 -0.40340673066E+02  0.19319367544E+03  0.19769112103E+03  0.00000000000E+00 0.  1.
         12    1    3    3    0    0 -0.24351581205E+02 -0.29639967724E+02  0.97067398840E+03  0.97143168517E+03  0.00000000000E+00 0. -1.
        -11    1    4    4    0    0  0.17178688470E+01  0.57084723220E+02  0.71715036954E+02  0.91676950341E+02  0.00000000000E+00 0. -1.
         11    1    4    4    0    0 -0.53800084820E+02  0.48369497229E+02  0.32804901917E+03  0.33593186268E+03  0.00000000000E+00 0.  1.
         21    1    1    2  503  502  0.50831209959E+02 -0.64443849764E+01  0.69546707056E+01  0.51707924424E+02  0.00000000000E+00 0. -1.
          1    1    1    2  501    0  0.37031200478E+02 -0.29029194683E+02  0.34172677533E+03  0.34495100077E+03  0.00000000000E+00 0. -1.
<scales pt_clust_5="13000.00000" pt_clust_6="13000.00000" pt_clust_7="13000.00000" pt_clust_8="13000.00000" pt_clust_9="75.73717" pt_clust_10="47.05323"></scales>
<clustering>
<clus scale="   47.053">  2 10  1 -1</clus>
<clus scale="   75.737">  2  9  1 -1</clus>
<clus scale="   77.992">  5  6 -1 -1</clus>
<clus scale="   95.942">  7  8 -1 -1</clus>
<clus scale="  110.800">  1  5  2 -1</clus>
<clus scale="   47.053">  2  5  1 -1</clus>
</clustering>
</event>
<event>
10    4  0.3403565E-005  0.1065510E+03  0.7546771E-02  0.1271780E+00
         21   -1    0    0  501  502  0.00000000000E+00  0.00000000000E+00  0.79170864378E+02  0.79170864378E+02  0.00000000000E+00 0.  1.
         -1   -1    0    0    0  501 -0.00000000000E+00 -0.00000000000E+00 -0.37212286135E+03  0.37212286135E+03  0.00000000000E+00 0.  1.
         23    2    1    2    0    0  0.43492235168E+02  0.15798989642E+02 -0.17521818704E+03  0.20291164406E+03  0.91271789915E+02 0.  0.
         24    2    1    2    0    0 -0.54374659013E+02 -0.61469332473E+02 -0.63833829449E+02  0.13136501321E+03  0.80292755197E+02 0.  0.
        -11    1    4    4    0    0 -0.49590097999E+02 -0.79771411999E+02 -0.61576905446E+02  0.11231371811E+03  0.00000000000E+00 0.  1.
         12    1    4    4    0    0 -0.47845610138E+01  0.18302079526E+02 -0.22569240024E+01  0.19051295101E+02  0.00000000000E+00 0. -1.
        -13    1    3    3    0    0  0.20227090998E+02 -0.36982871146E+02 -0.52622260921E+02  0.67423811171E+02  0.00000000000E+00 0.  1.
         13    1    3    3    0    0  0.23265144170E+02  0.52781860787E+02 -0.12259592612E+03  0.13548783289E+03  0.00000000000E+00 0. -1.
         21    1    1    2  503  502  0.12110787372E+02 -0.25813904741E+02 -0.18334131532E+01  0.28572543683E+02  0.00000000000E+00 0. -1.
         -2    1    1    2    0  503 -0.12283635272E+01  0.71484247572E+02 -0.52066567339E+02  0.88444524773E+02  0.00000000000E+00 0.  1.
<scales pt_clust_5="13000.00000" pt_clust_6="13000.00000" pt_clust_7="13000.00000" pt_clust_8="13000.00000" pt_clust_9="28.51366" pt_clust_10="64.38359"></scales>
<clustering>
<clus scale="   28.514">  1  9  2 -1</clus>
<clus scale="   64.384">  1 10  2 -1</clus>
<clus scale="   80.293">  5  6 -1 -1</clus>
<clus scale="   91.272">  7  8 -1 -1</clus>
<clus scale="   97.311">  1  5  2 -1</clus>
<clus scale="   28.514">  1  5  2 -1</clus>
</clustering>
</event>
<event>
10    4  0.3403565E-005  0.1540764E+03  0.7546771E-02  0.1197416E+00
          2   -1    0    0  502    0 -0.00000000000E+00  0.00000000000E+00  0.67139901235E+03  0.67139901235E+03  0.00000000000E+00 0. -1.
         21   -1    0    0  503  502  0.00000000000E+00 -0.00000000000E+00 -0.83121171171E+02  0.83121171171E+02  0.00000000000E+00 0.  1.
         24    2    1    2    0    0  0.68113536741E+02 -0.86738209193E+02  0.31845736885E+03  0.34648131869E+03  0.80444002916E+02 0.  0.
         23    2    1    2    0    0 -0.16074592501E+03  0.82801500803E+02  0.17621544295E+03  0.26846998123E+03  0.91262848664E+02 0.  0.
        -13    1    3    3    0    0  0.18720153238E+02  0.13831723111E+02  0.39268328327E+02  0.45648245433E+02  0.00000000000E+00 0.  1.
         14    1    3    3    0    0  0.49393383503E+02 -0.10056993230E+03  0.27918904052E+03  0.30083307326E+03  0.00000000000E+00 0. -1.
        -11    1    4    4    0    0 -0.14379219763E+03  0.33777242286E+02  0.14934703974E+03  0.21005150910E+03  0.00000000000E+00 0.  1.
         11    1    4    4    0    0 -0.16953727377E+02  0.49024258517E+02  0.26868403209E+02  0.58418472131E+02  0.00000000000E+00 0. -1.
         21    1    1    2  503  501  0.24063204588E+02 -0.12894655933E+02  0.76865733214E+01  0.28361829562E+02  0.00000000000E+00 0.  1.
          1    1    1    2  501    0  0.68569183683E+02  0.16831364323E+02  0.85918456060E+02  0.11120705404E+03  0.00000000000E+00 0. -1.
<scales pt_clust_5="13000.00000" pt_clust_6="13000.00000" pt_clust_7="13000.00000" pt_clust_8="13000.00000" pt_clust_9="27.30037" pt_clust_10="74.19840"></scales>
<clustering>
<clus scale="   27.300">  2  9  1 -1</clus>
<clus scale="   74.198">  2 10  1 -1</clus>
<clus scale="   80.444">  5  6 -1 -1</clus>
<clus scale="   91.263">  7  8 -1 -1</clus>
<clus scale="  147.925">  1  5  2 -1</clus>
<clus scale="   27.300">  2  5  1 -1</clus>
</clustering>
</event>
<event>
10    4  0.3403565E-005  0.9824468E+02  0.7546771E-02  0.1288323E+00
         21   -1    0    0  503  502  0.00000000000E+00  0.00000000000E+00  0.18114740930E+03  0.18114740930E+03  0.00000000000E+00 0.  1.
          2   -1    0    0  502    0 -0.00000000000E+00 -0.00000000000E+00 -0.30796470250E+03  0.30796470250E+03  0.00000000000E+00 0. -1.
         24    2    1    2    0    0 -0.37270554559E+02 -0.27782690166E+01 -0.25070220913E+03  0.26932621505E+03  0.91039548727E+02 0.  0.
         23    2    1    2    0    0  0.22982024013E+02  0.64154563896E+02  0.63928152562E+02  0.12480918619E+03  0.82743838273E+02 0.  0.
        -11    1    3    3    0    0  0.30550770955E+02 -0.99692558206E+00 -0.77395162375E+02  0.83212707117E+02  0.00000000000E+00 0.  1.
         12    1    3    3    0    0 -0.67821325514E+02 -0.17813434345E+01 -0.17330704676E+03  0.18611350793E+03  0.00000000000E+00 0. -1.
        -11    1    4    4    0    0 -0.27281053623E+02  0.46512254658E+02  0.32528598110E+02  0.62974244061E+02  0.00000000000E+00 0. -1.
         11    1    4    4    0    0  0.50263077637E+02  0.17642309238E+02  0.31399554452E+02  0.61834942133E+02  0.00000000000E+00 0.  1.
         21    1    1    2  503  501  0.19776825411E+02 -0.15478028132E+02  0.32987750661E+02  0.41459424403E+02  0.00000000000E+00 0.  1.
          1    1    1    2  501    0 -0.54882948656E+01 -0.45898266747E+02  0.26969012714E+02  0.53517286158E+02  0.00000000000E+00 0. -1.
<scales pt_clust_5="13000.00000" pt_clust_6="13000.00000" pt_clust_7="13000.00000" pt_clust_8="13000.00000" pt_clust_9="25.11359" pt_clust_10="50.22616"></scales>
<clustering>
<clus scale="   25.114">  1  9  2 -1</clus>
<clus scale="   50.226">  1 10  2 -1</clus>
<clus scale="   82.744">  7  8 -1 -1</clus>
<clus scale="   90.611">  1  7  2 -1</clus>
<clus scale="   91.040">  5  6 -1 -1</clus>
<clus scale="   25.114">  1  5  2 -1</clus>
</clustering>
</event>
<event>
10    4  0.3403565E-005  0.8863879E+02  0.7546771E-02  0.1310468E+00
         -3   -1    0    0    0  501 -0.00000000000E+00  0.00000000000E+00  0.31573727806E+03  0.31573727806E+03  0.00000000000E+00 0.  1.
         21   -1    0    0  503  502  0.00000000000E+00 -0.00000000000E+00 -0.25218593793E+03  0.25218593793E+03  0.00000000000E+00 0. -1.
         23    2    1    2    0    0  0.11936040011E+02  0.59318919428E+01  0.26651110571E+03  0.28102658093E+03  0.88148246292E+02 0.  0.
         24    2    1    2    0    0  0.23953759596E+02  0.40180086984E+00 -0.21755777650E+02  0.87650601291E+02  0.81457780493E+02 0.  0.
        -11    1    4    4    0    0  0.27051166943E+02 -0.25855202840E+02  0.16704496217E+02  0.40979230602E+02  0.00000000000E+00 0.  1.
         12    1    4    4    0    0 -0.30974073464E+01  0.26257003710E+02 -0.38460273867E+02  0.46671370689E+02  0.00000000000E+00 0. -1.
        -13    1    3    3    0    0  0.43879435905E+02 -0.14833671674E+02  0.18986508409E+03  0.19543334635E+03  0.00000000000E+00 0.  1.
         13    1    3    3    0    0 -0.31943395894E+02  0.20765563616E+02  0.76646021624E+02  0.85593234571E+02  0.00000000000E+00 0. -1.
         21    1    1    2  503  501 -0.17912782574E+02  0.12392279665E+02 -0.16928773655E+03  0.17068325671E+03  0.00000000000E+00 0. -1.
         -4    1    1    2    0  502 -0.17977017034E+02 -0.18725972478E+02 -0.11916251383E+02  0.28562777066E+02  0.00000000000E+00 0.  1.
<scales pt_clust_5="13000.00000" pt_clust_6="13000.00000" pt_clust_7="13000.00000" pt_clust_8="13000.00000" pt_clust_9="21.78156" pt_clust_10="27.32944"></scales>
<clustering>
<clus scale="   21.782">  2  9  1 -1</clus>
<clus scale="   27.329">  2 10  1 -1</clus>
<clus scale="   81.458">  5  6 -1 -1</clus>
<clus scale="   81.988">  2  5  1 -1</clus>
<clus scale="   88.148">  7  8 -1 -1</clus>
<clus scale="   21.782">  2  5  1 -1</clus>
</clustering>
</event>
<event>
10    4  0.3403565E-005  0.9158582E+02  0.7546771E-02  0.1306847E+00
         21   -1    0    0  503  502  0.00000000000E+00  0.00000000000E+00  0.29347988098E+03  0.29347988098E+03  0.00000000000E+00 0. -1.
         -3   -1    0    0    0  501 -0.00000000000E+00 -0.00000000000E+00 -0.12546485760E+03  0.12546485760E+03  0.00000000000E+00 0.  1.
         23    2    1    2    0    0 -0.61948412042E+01 -0.16403435344E+01 -0.86620844815E+02  0.12603817592E+03  0.91331178955E+02 0.  0.
         24    2    1    2    0    0  0.81302449351E+01 -0.31978211504E+02  0.13564577125E+03  0.16044945791E+03  0.79092012175E+02 0.  0.
        -11    1    4    4    0    0  0.19216240008E+01 -0.53238284217E+02  0.54008797783E+02  0.75861438051E+02  0.00000000000E+00 0.  1.
         12    1    4    4    0    0  0.62086209342E+01  0.21260072714E+02  0.81636973469E+02  0.84588019855E+02  0.00000000000E+00 0. -1.
        -13    1    3    3    0    0 -0.30459442922E+02  0.35490054085E+02 -0.38340236687E+02  0.60475576486E+02  0.00000000000E+00 0.  1.
         13    1    3    3    0    0  0.24264601718E+02 -0.37130397619E+02 -0.48280608128E+02  0.65562599438E+02  0.00000000000E+00 0. -1.
         21    1    1    2  503  501  0.15985672536E+02  0.21663520204E+02  0.10057522171E+03  0.10411640147E+03  0.00000000000E+00 0. -1.
         -4    1    1    2    0  502 -0.17921076267E+02  0.11955034834E+02  0.18414875228E+02  0.28340703275E+02  0.00000000000E+00 0.  1.
<scales pt_clust_5="13000.00000" pt_clust_6="13000.00000" pt_clust_7="13000.00000" pt_clust_8="13000.00000" pt_clust_9="27.76054" pt_clust_10="21.54270"></scales>
<clustering>
<clus scale="   21.543">  1 10  2 -1</clus>
<clus scale="   27.761">  1  9  2 -1</clus>
<clus scale="   79.092">  5  6 -1 -1</clus>
<clus scale="   79.386">  1  5  2 -1</clus>
<clus scale="   91.331">  7  8 -1 -1</clus>
<clus scale="   21.543">  1  5  2 -1</clus>
</clustering>
</event>
<event>
10    4  0.3403565E-005  0.1738938E+03  0.7546771E-02  0.1192059E+00
         21   -1    0    0  501  502  0.00000000000E+00  0.00000000000E+00  0.19865423238E+03  0.19865423238E+03  0.00000000000E+00 0. -1.
          2   -1    0    0  503    0 -0.00000000000E+00 -0.00000000000E+00 -0.71308727699E+03  0.71308727699E+03  0.00000000000E+00 0. -1.
         24    2    1    2    0    0  0.62345163939E+01  0.87261880312E+02 -0.24729267735E+03  0.27390172764E+03  0.78835164637E+02 0.  0.
         23    2    1    2    0    0 -0.16147701283E+03 -0.56982048751E+02 -0.12451295915E+03  0.22998185178E+03  0.89813114851E+02 0.  0.
        -11    1    3    3    0    0 -0.17666599056E+01  0.10048490247E+03 -0.19502798122E+03  0.21939974971E+03  0.00000000000E+00 0.  1.
         12    1    3    3    0    0  0.80011762995E+01 -0.13223022161E+02 -0.52264696127E+02  0.54501977932E+02  0.00000000000E+00 0. -1.
        -13    1    4    4    0    0 -0.74208851470E+02 -0.53126554614E+02 -0.19391226662E+02  0.93302755121E+02  0.00000000000E+00 0.  1.
         13    1    4    4    0    0 -0.87268161358E+02 -0.38554941371E+01 -0.10512173249E+03  0.13667909666E+03  0.00000000000E+00 0. -1.
         21    1    1    2  503  502  0.11797710542E+03  0.13960960207E+02  0.10194089236E+03  0.15654217115E+03  0.00000000000E+00 0. -1.
          1    1    1    2  501    0  0.37265391016E+02 -0.44240791768E+02 -0.24456830047E+03  0.25131575880E+03  0.00000000000E+00 0. -1.
<scales pt_clust_5="13000.00000" pt_clust_6="13000.00000" pt_clust_7="13000.00000" pt_clust_8="13000.00000" pt_clust_9="148.90487" pt_clust_10="57.84428"></scales>
<clustering>
<clus scale="   57.844">  1 10  2 -1</clus>
<clus scale="   78.835">  5  6 -1 -1</clus>
<clus scale="   89.813">  7  8 -1 -1</clus>
<clus scale="  115.714">  2  5  1 -1</clus>
<clus scale="  148.905">  1  9  2 -1</clus>
<clus scale="   57.844">  1  5  2 -1</clus>
</clustering>
</event>
<event>
10    4  0.3403565E-005  0.9794851E+02  0.7546771E-02  0.1290338E+00
          2   -1    0    0  503    0 -0.00000000000E+00  0.00000000000E+00  0.74180153451E+03  0.74180153451E+03  0.00000000000E+00 0. -1.
         21   -1    0    0  501  502  0.00000000000E+00 -0.00000000000E+00 -0.63556746221E+02  0.63556746221E+02  0.00000000000E+00 0.  1.
         24    2    1    2    0    0 -0.20478855099E+02 -0.41169976290E+02  0.28675120793E+03  0.30108402162E+03  0.79441691619E+02 0.  0.
         23    2    1    2    0    0 -0.36031846665E+02  0.27225462433E+02  0.10543868719E+03  0.14597851182E+03  0.90293351803E+02 0.  0.
        -13    1    3    3    0    0  0.12736524988E+02  0.18999502951E+02  0.63567269484E+02  0.67557367702E+02  0.00000000000E+00 0.  1.
         14    1    3    3    0    0 -0.33215380087E+02 -0.60169479242E+02  0.22318393845E+03  0.23352665391E+03  0.00000000000E+00 0. -1.
        -13    1    4    4    0    0 -0.55093651182E+01  0.33607398771E+02  0.10936957682E+03  0.11454918023E+03  0.00000000000E+00 0. -1.
         13    1    4    4    0    0 -0.30522481547E+02 -0.63819363385E+01 -0.39308896377E+01  0.31429331596E+02  0.00000000000E+00 0.  1.
         21    1    1    2  503  502  0.66140632728E+02 -0.33025184464E+02  0.60046879972E+01  0.74170765026E+02  0.00000000000E+00 0.  1.
          1    1    1    2  501    0 -0.96299309637E+01  0.46969698322E+02  0.28005020517E+03  0.28412498227E+03  0.00000000000E+00 0. -1.
<scales pt_clust_5="13000.00000" pt_clust_6="13000.00000" pt_clust_7="13000.00000" pt_clust_8="13000.00000" pt_clust_9="61.20738" pt_clust_10="47.94675"></scales>
<clustering>
<clus scale="   47.947">  2 10  1 -1</clus>
<clus scale="   61.207">  2  9  1 -1</clus>
<clus scale="   79.442">  5  6 -1 -1</clus>
<clus scale="   88.045">  1  5  2 -1</clus>
<clus scale="   90.293">  7  8 -1 -1</clus>
<clus scale="   47.947">  2  5  1 -1</clus>
</clustering>
</event>
<event>
10    4  0.3403565E-005  0.1442723E+03  0.7546771E-02  0.1209365E+00
         21   -1    0    0  501  502  0.00000000000E+00  0.00000000000E+00  0.11117077148E+03  0.11117077148E+03  0.00000000000E+00 0. -1.
          2   -1    0    0  503    0 -0.00000000000E+00 -0.00000000000E+00 -0.46665991634E+03  0.46665991634E+03  0.00000000000E+00 0. -1.
         24    2    1    2    0    0 -0.95234992733E+02 -0.53416399926E+02 -0.11181304408E+03  0.17662219141E+03  0.82281383363E+02 0.  0.
         23    2    1    2    0    0  0.47091366465E+02  0.12203058592E+03 -0.14998911648E+03  0.21866450121E+03  0.90600045962E+02 0.  0.
        -11    1    3    3    0    0 -0.59421778871E+02 -0.35222347741E+02 -0.13451063665E+02  0.70373949003E+02  0.00000000000E+00 0.  1.
         12    1    3    3    0    0 -0.35813213862E+02 -0.18194052185E+02 -0.98361980418E+02  0.10624824240E+03  0.00000000000E+00 0. -1.
        -13    1    4    4    0    0 -0.24597831520E+02  0.44042771800E+02 -0.68217121487E+02  0.84843354055E+02  0.00000000000E+00 0.  1.
         13    1    4    4    0    0  0.71689197985E+02  0.77987814125E+02 -0.81771994994E+02  0.13382114715E+03  0.00000000000E+00 0. -1.
         21    1    1    2  503  502 -0.12671659608E+02  0.34308273689E+02 -0.28590150837E+02  0.46422250329E+02  0.00000000000E+00 0.  1.
          1    1    1    2  501    0  0.60815285876E+02 -0.10292245969E+03 -0.65096833460E+02  0.13612174489E+03  0.00000000000E+00 0. -1.
<scales pt_clust_5="13000.00000" pt_clust_6="13000.00000" pt_clust_7="13000.00000" pt_clust_8="13000.00000" pt_clust_9="36.57361" pt_clust_10="111.12195"></scales>
<clustering>
<clus scale="   36.574">  2  9  1 -1</clus>
<clus scale="   82.281">  5  6 -1 -1</clus>
<clus scale="   90.600">  7  8 -1 -1</clus>
<clus scale="  111.122">  1 10  2 -1</clus>
<clus scale="  139.199">  2  5  1 -1</clus>
<clus scale="  111.122">  1  5  2 -1</clus>
</clustering>
</event>
<event>
10    4  0.3403565E-005  0.4374835E+03  0.7546771E-02  0.1031522E+00
         21   -1    0    0  501  502  0.00000000000E+00  0.00000000000E+00  0.38177480535E+03  0.38177480535E+03  0.00000000000E+00 0. -1.
         -1   -1    0    0    0  501 -0.00000000000E+00 -0.00000000000E+00 -0.13471328127E+04  0.13471328127E+04  0.00000000000E+00 0.  1.
         24    2    1    2    0    0 -0.14721348271E+03  0.26899834753E+02 -0.33836984722E+03  0.37845160274E+03  0.79599318514E+02 0.  0.
         23    2    1    2    0    0 -0.25155433070E+03  0.15200730724E+03 -0.72846928904E+03  0.79083274816E+03  0.91450138029E+02 0.  0.
        -13    1    3    3    0    0 -0.14241726447E+03  0.14193989116E+02 -0.33524185200E+03  0.36451508320E+03  0.00000000000E+00 0.  1.
         14    1    3    3    0    0 -0.47962182465E+01  0.12705845637E+02 -0.31279952134E+01  0.13936519539E+02  0.00000000000E+00 0. -1.
        -13    1    4    4    0    0 -0.22900659085E+03  0.16267696770E+03 -0.68994604869E+03  0.74493849718E+03  0.00000000000E+00 0. -1.
         13    1    4    4    0    0 -0.22547739846E+02 -0.10669660459E+02 -0.38523240345E+02  0.45894250981E+02  0.00000000000E+00 0.  1.
         21    1    1    2  503  502  0.20586209687E+03  0.50754129401E+02  0.14455885633E+03  0.25661731727E+03  0.00000000000E+00 0. -1.
         -2    1    1    2    0  503  0.19290571654E+03 -0.22966127140E+03 -0.43077727407E+02  0.30300594986E+03  0.00000000000E+00 0.  1.
<scales pt_clust_5="13000.00000" pt_clust_6="13000.00000" pt_clust_7="13000.00000" pt_clust_8="13000.00000" pt_clust_9="212.02638" pt_clust_10="391.58040"></scales>
<clustering>
<clus scale="   79.599">  5  6 -1 -1</clus>
<clus scale="   91.450">  7  8 -1 -1</clus>
<clus scale="  107.319">  5  7 -1 -1</clus>
<clus scale="  212.026">  1  9  2 -1</clus>
<clus scale="  391.580">  1 10  2 -1</clus>
<clus scale="  212.026">  1  5  2 -1</clus>
</clustering>
</event>
<event>
10    4  0.3403565E-005  0.2695816E+03  0.7546771E-02  0.1134447E+00
         21   -1    0    0  501  502  0.00000000000E+00  0.00000000000E+00  0.14249686154E+03  0.14249686154E+03  0.00000000000E+00 0.  1.
          2   -1    0    0  503    0 -0.00000000000E+00 -0.00000000000E+00 -0.16361092107E+04  0.16361092107E+04  0.00000000000E+00 0. -1.
         23    2    1    2    0    0  0.47767801227E+02 -0.27598877249E+02 -0.64759557573E+02  0.13327289366E+03  0.10258851314E+03 0.  0.
         24    2    1    2    0    0 -0.10487159006E+03 -0.26141061303E+03 -0.46372514852E+03  0.54846268257E+03  0.80229307552E+02 0.  0.
        -13    1    4    4    0    0 -0.55213063419E+02 -0.19916718684E+03 -0.27818817674E+03  0.34656126783E+03  0.00000000000E+00 0.  1.
         14    1    4    4    0    0 -0.49658526646E+02 -0.62243426189E+02 -0.18553697179E+03  0.20190141474E+03  0.00000000000E+00 0. -1.
        -13    1    3    3    0    0  0.70070839978E+02  0.10127317057E+02 -0.28230471756E+02  0.76219713340E+02  0.00000000000E+00 0.  1.
         13    1    3    3    0    0 -0.22303038752E+02 -0.37726194307E+02 -0.36529085817E+02  0.57053180324E+02  0.00000000000E+00 0. -1.
         21    1    1    2  503  502  0.24576369902E+02  0.41875877264E+02  0.38992622791E+02  0.62273683738E+02  0.00000000000E+00 0. -1.
          1    1    1    2  501    0  0.32527418936E+02  0.24713361302E+03 -0.10041202658E+04  0.10345968122E+04  0.00000000000E+00 0. -1.
<scales pt_clust_5="13000.00000" pt_clust_6="13000.00000" pt_clust_7="13000.00000" pt_clust_8="13000.00000" pt_clust_9="48.55499" pt_clust_10="257.36662"></scales>
<clustering>
<clus scale="   48.555">  1  9  2 -1</clus>
<clus scale="   80.229">  5  6 -1 -1</clus>
<clus scale="  102.589">  7  8 -1 -1</clus>
<clus scale="  117.938">  2  7  1 -1</clus>
<clus scale="  257.367">  1 10  2 -1</clus>
<clus scale="   48.555">  1  5  2 -1</clus>
</clustering>
</event>
<event>
10    4  0.3403565E-005  0.1554655E+03  0.7546771E-02  0.1215523E+00
         21   -1    0    0  503  502  0.00000000000E+00  0.00000000000E+00  0.12951273963E+03  0.12951273963E+03  0.00000000000E+00 0.  1.
          2   -1    0    0  502    0 -0.00000000000E+00 -0.00000000000E+00 -0.60198205135E+03  0.60198205135E+03  0.00000000000E+00 0. -1.
         23    2    1    2    0    0  0.28643001902E+02 -0.27239744320E+02 -0.16085245005E+03  0.18868056059E+03  0.90357169210E+02 0.  0.
         24    2    1    2    0    0  0.98248685818E+02 -0.84484521798E+02 -0.97766901666E+02  0.18197299832E+03  0.82251847199E+02 0.  0.
        -13    1    4    4    0    0  0.10007732016E+03 -0.97635557041E+02 -0.85431605379E+02  0.16384972141E+03  0.00000000000E+00 0.  1.
         14    1    4    4    0    0 -0.18286343377E+01  0.13151035242E+02 -0.12335296287E+02  0.18123276910E+02  0.00000000000E+00 0. -1.
        -13    1    3    3    0    0  0.11035551934E+00 -0.57039711959E+02 -0.10084039741E+03  0.11585476541E+03  0.00000000000E+00 0.  1.
         13    1    3    3    0    0  0.28532646383E+02  0.29799967639E+02 -0.60012052644E+02  0.72825795179E+02  0.00000000000E+00 0. -1.
         21    1    1    2  503  501 -0.33686901463E+02 -0.10672177495E+02  0.46518498721E+02  0.58418091598E+02  0.00000000000E+00 0.  1.
          1    1    1    2  501    0 -0.93204786257E+02  0.12239644361E+03 -0.26036845873E+03  0.30242314047E+03  0.00000000000E+00 0. -1.
<scales pt_clust_5="13000.00000" pt_clust_6="13000.00000" pt_clust_7="13000.00000" pt_clust_8="13000.00000" pt_clust_9="35.33699" pt_clust_10="131.92483"></scales>
<clustering>
<clus scale="   35.337">  1  9  2 -1</clus>
<clus scale="   82.252">  5  6 -1 -1</clus>
<clus scale="   90.357">  7  8 -1 -1</clus>
<clus scale="   97.591">  2  7  1 -1</clus>
<clus scale="  131.925">  1 10  2 -1</clus>
<clus scale="   35.337">  1  5  2 -1</clus>
</clustering>
</event>
<event>
10    4  0.3403565E-005  0.1140278E+03  0.7546771E-02  0.1261344E+00
          2   -1    0    0  502    0 -0.00000000000E+00  0.00000000000E+00  0.79864811080E+02  0.79864811080E+02  0.00000000000E+00 0. -1.
         21   -1    0    0  503  502  0.00000000000E+00 -0.00000000000E+00 -0.43820831697E+03  0.43820831697E+03  0.00000000000E+00 0.  1.
         23    2    1    2    0    0 -0.29097775663E+02  0.75839273207E+02 -0.79621148144E+02  0.15081223138E+03  0.99027905126E+02 0.  0.
         24    2    1    2    0    0  0.26452266542E+02 -0.20662866457E+02 -0.10857222665E+03  0.13848734238E+03  0.79146314785E+02 0.  0.
        -13    1    4    4    0    0 -0.27444994585E+02 -0.13452702440E+02 -0.29172143937E+02  0.42251827328E+02  0.00000000000E+00 0.  1.
         14    1    4    4    0    0  0.53897261127E+02 -0.72101640174E+01 -0.79400082714E+02  0.96235515051E+02  0.00000000000E+00 0. -1.
        -13    1    3    3    0    0  0.40122266710E+01  0.86074313199E+02 -0.77824192732E+02  0.11610982013E+03  0.00000000000E+00 0.  1.
         13    1    3    3    0    0 -0.33110002334E+02 -0.10235039992E+02 -0.17969554128E+01  0.34702411256E+02  0.00000000000E+00 0. -1.
         21    1    1    2  503  501  0.36438094582E+02  0.47002941984E+00 -0.15850087798E+03  0.16263604762E+03  0.00000000000E+00 0. -1.
          1    1    1    2  501    0 -0.33792585461E+02 -0.55646436170E+02 -0.11649253117E+02  0.66137506672E+02  0.00000000000E+00 0. -1.
<scales pt_clust_5="13000.00000" pt_clust_6="13000.00000" pt_clust_7="13000.00000" pt_clust_8="13000.00000" pt_clust_9="36.44113" pt_clust_10="62.54770"></scales>
<clustering>
<clus scale="   36.441">  2  9  1 -1</clus>
<clus scale="   62.548">  2 10  1 -1</clus>
<clus scale="   79.146">  5  6 -1 -1</clus>
<clus scale="   97.262">  2  5  1 -1</clus>
<clus scale="   99.028">  7  8 -1 -1</clus>
<clus scale="   36.441">  2  5  1 -1</clus>
</clustering>
</event>
<event>
10    4  0.3403565E-005  0.3541547E+03  0.7546771E-02  0.1098371E+00
          2   -1    0    0  502    0 -0.00000000000E+00  0.00000000000E+00  0.38684981853E+03  0.38684981853E+03  0.00000000000E+00 0. -1.
         21   -1    0    0  503  502  0.00000000000E+00 -0.00000000000E+00 -0.70363134603E+03  0.70363134603E+03  0.00000000000E+00 0. -1.
         24    2    1    2    0    0  0.66785168348E+02  0.89999708333E+02 -0.11427498280E+03  0.17783408307E+03  0.77498278666E+02 0.  0.
         23    2    1    2    0    0  0.30356823248E+03 -0.12618082393E+03  0.11243427489E+03  0.35924491940E+03  0.91324552291E+02 0.  0.
        -11    1    3    3    0    0  0.18617677424E+02  0.30549392581E+02 -0.91122172608E+02  0.97893481093E+02  0.00000000000E+00 0.  1.
         12    1    3    3    0    0  0.48167490924E+02  0.59450315751E+02 -0.23152810195E+02  0.79940601979E+02  0.00000000000E+00 0. -1.
        -11    1    4    4    0    0  0.14789061105E+02 -0.35356134252E+02  0.93361107158E+01  0.39445348533E+02  0.00000000000E+00 0.  1.
         11    1    4    4    0    0  0.28877917137E+03 -0.90824689680E+02  0.10309816417E+03  0.31979957087E+03  0.00000000000E+00 0. -1.
         21    1    1    2  503  501 -0.30567141343E+02 -0.17289704586E+02 -0.18083966783E+03  0.18421799444E+03  0.00000000000E+00 0. -1.
          1    1    1    2  501    0 -0.33978625948E+03  0.53470820186E+02 -0.13410115175E+03  0.36918416765E+03  0.00000000000E+00 0. -1.
<scales pt_clust_5="13000.00000" pt_clust_6="13000.00000" pt_clust_7="13000.00000" pt_clust_8="13000.00000" pt_clust_9="35.11814" pt_clust_10="342.17740"></scales>
<clustering>
<clus scale="   35.118">  2  9  1 -1</clus>
<clus scale="   77.498">  5  6 -1 -1</clus>
<clus scale="   91.325">  7  8 -1 -1</clus>
<clus scale="  129.021">  1  5  2 -1</clus>
<clus scale="  342.177">  2 10  1 -1</clus>
<clus scale="   35.118">  2  5  1 -1</clus>
</clustering>
</event>
<event>
10    4  0.3403565E-005  0.5086730E+03  0.7546771E-02  0.1011540E+00
          2   -1    0    0  502    0 -0.00000000000E+00  0.00000000000E+00  0.21718418827E+04  0.21718418827E+04  0.00000000000E+00 0. -1.
         21   -1    0    0  503  502  0.00000000000E+00 -0.00000000000E+00 -0.15978041018E+03  0.15978041018E+03  0.00000000000E+00 0. -1.
         24    2    1    2    0    0 -0.40051198118E+02 -0.95051245119E+01  0.11128948392E+03  0.14548803454E+03  0.84184161815E+02 0.  0.
         23    2    1    2    0    0 -0.42764620899E+03 -0.95986544849E+02  0.40537690675E+03  0.60338428426E+03  0.87449763391E+02 0.  0.
        -11    1    3    3    0    0  0.17573053047E+02 -0.26915889897E+02  0.51044539265E+02  0.60322651725E+02  0.00000000000E+00 0.  1.
         12    1    3    3    0    0 -0.57624251164E+02  0.17410765385E+02  0.60244944653E+02  0.85165382813E+02  0.00000000000E+00 0. -1.
        -13    1    4    4    0    0 -0.26100596160E+02 -0.29253996291E+02  0.45471154639E+02  0.60038848449E+02  0.00000000000E+00 0.  1.
         13    1    4    4    0    0 -0.40154561283E+03 -0.66732548558E+02  0.35990575211E+03  0.54334543581E+03  0.00000000000E+00 0. -1.
         21    1    1    2  503  501  0.48465722174E+02  0.50981143034E+01  0.34841564690E+02  0.59907024841E+02  0.00000000000E+00 0. -1.
          1    1    1    2  501    0  0.41923168493E+03  0.10039355506E+03  0.14605535172E+04  0.15228429493E+04  0.00000000000E+00 0. -1.
<scales pt_clust_5="13000.00000" pt_clust_6="13000.00000" pt_clust_7="13000.00000" pt_clust_8="13000.00000" pt_clust_9="48.73312" pt_clust_10="441.30738"></scales>
<clustering>
<clus scale="   48.733">  2  9  1 -1</clus>
<clus scale="   84.184">  5  6 -1 -1</clus>
<clus scale="   87.450">  7  8 -1 -1</clus>
<clus scale="   87.798">  5  7 -1 -1</clus>
<clus scale="  441.307">  2 10  1 -1</clus>
<clus scale="   48.733">  2  5  1 -1</clus>
</clustering>
</event>
<event>
10    4  0.3403565E-005  0.2533305E+03  0.7546771E-02  0.1111218E+00
         -1   -1    0    0    0  501 -0.00000000000E+00  0.00000000000E+00  0.78137438101E+02  0.78137438101E+02  0.00000000000E+00 0.  1.
         21   -1    0    0  501  502  0.00000000000E+00 -0.00000000000E+00 -0.70568394665E+03  0.70568394665E+03  0.00000000000E+00 0.  1.
         24    2    1    2    0    0  0.81944820174E+02  0.34971487648E+02 -0.19432620609E+03  0.22836405457E+03  0.80308832319E+02 0.  0.
         23    2    1    2    0    0  0.94206833295E+02 -0.16470867097E+02 -0.13216190228E+03  0.18609975528E+03  0.89555198613E+02 0.  0.
        -13    1    3    3    0    0  0.90919326310E+02  0.45733216156E+02 -0.18611126171E+03  0.21212084455E+03  0.00000000000E+00 0.  1.
         14    1    3    3    0    0 -0.89745061358E+01 -0.10761728507E+02 -0.82149443741E+01  0.16243210025E+02  0.00000000000E+00 0. -1.
        -11    1    4    4    0    0  0.20705420077E+01  0.21538416411E+02 -0.57888865618E+02  0.61800576763E+02  0.00000000000E+00 0. -1.
         11    1    4    4    0    0  0.92136291287E+02 -0.38009283508E+02 -0.74273036662E+02  0.12429917852E+03  0.00000000000E+00 0.  1.
         21    1    1    2  503  502 -0.74177762316E+01  0.19457386845E+02 -0.10871763379E+03  0.11069388964E+03  0.00000000000E+00 0.  1.
         -2    1    1    2    0  503 -0.16873387724E+03 -0.37958007396E+02 -0.19234076639E+03  0.25866368526E+03  0.00000000000E+00 0.  1.
<scales pt_clust_5="13000.00000" pt_clust_6="13000.00000" pt_clust_7="13000.00000" pt_clust_8="13000.00000" pt_clust_9="20.82338" pt_clust_10="174.24782"></scales>
<clustering>
<clus scale="   20.823">  2  9  1 -1</clus>
<clus scale="   80.309">  5  6 -1 -1</clus>
<clus scale="   89.555">  7  8 -1 -1</clus>
<clus scale="  112.980">  5  7 -1 -1</clus>
<clus scale="  174.248">  2 10  1 -1</clus>
<clus scale="   20.823">  2  5  1 -1</clus>
</clustering>
</event>
<event>
10    4  0.3403565E-005  0.3020319E+03  0.7546771E-02  0.1096460E+00
         21   -1    0    0  501  502  0.00000000000E+00  0.00000000000E+00  0.17351230297E+03  0.17351230297E+03  0.00000000000E+00 0. -1.
          2   -1    0    0  503    0 -0.00000000000E+00 -0.00000000000E+00 -0.14246462672E+04  0.14246462672E+04  0.00000000000E+00 0. -1.
         24    2    1    2    0    0 -0.17307316897E+03  0.98577194818E+02 -0.17650051097E+03  0.27799920916E+03  0.80370048929E+02 0.  0.
         23    2    1    2    0    0 -0.15851318104E+03 -0.12673990628E+03 -0.65170022247E+03  0.68868477038E+03  0.91564734366E+02 0.  0.
        -11    1    3    3    0    0 -0.12073143123E+03  0.10554016454E+03 -0.14686080934E+03  0.21744632013E+03  0.00000000000E+00 0.  1.
         12    1    3    3    0    0 -0.52341737740E+02 -0.69629697229E+01 -0.29639701629E+02  0.60552889028E+02  0.00000000000E+00 0. -1.
        -11    1    4    4    0    0 -0.16590506260E+03 -0.99924086175E+02 -0.59075504907E+03  0.62169191791E+03  0.00000000000E+00 0. -1.
         11    1    4    4    0    0  0.73918815651E+01 -0.26815820108E+02 -0.60945173398E+02  0.66992852467E+02  0.00000000000E+00 0.  1.
         21    1    1    2  503  502 -0.34019491020E+02 -0.42247111160E+02  0.15371840099E+02  0.56377634206E+02  0.00000000000E+00 0. -1.
          1    1    1    2  501    0  0.36560584103E+03  0.70409822624E+02 -0.43830507086E+03  0.57509695640E+03  0.00000000000E+00 0. -1.
<scales pt_clust_5="13000.00000" pt_clust_6="13000.00000" pt_clust_7="13000.00000" pt_clust_8="13000.00000" pt_clust_9="54.24154" pt_clust_10="287.81797"></scales>
<clustering>
<clus scale="   54.242">  1  9  2 -1</clus>
<clus scale="   80.370">  5  6 -1 -1</clus>
<clus scale="   91.565">  7  8 -1 -1</clus>
<clus scale="  218.637">  2  5  1 -1</clus>
<clus scale="  287.818">  1 10  2 -1</clus>
<clus scale="   54.242">  1  5  2 -1</clus>
</clustering>
</event>
<event>
10    4  0.3403565E-005  0.1448367E+03  0.7546771E-02  0.1210189E+00
          2   -1    0    0  502    0 -0.00000000000E+00  0.00000000000E+00  0.42196073360E+03  0.42196073360E+03  0.00000000000E+00 0. -1.
         21   -1    0    0  503  502  0.00000000000E+00 -0.00000000000E+00 -0.24369586534E+03  0.24369586534E+03  0.00000000000E+00 0.  1.
         23    2    1    2    0    0  0.11689617956E+03 -0.93986772881E+02  0.85717532986E+02  0.19727786603E+03  0.95251407831E+02 0.  0.
         24    2    1    2    0    0 -0.83677848248E+02 -0.28351920770E+01  0.11134135571E+02  0.11620004021E+03  0.79802630084E+02 0.  0.
        -11    1    4    4    0    0 -0.54451650585E+02  0.34790409922E+02 -0.74828389646E+01  0.65048810543E+02  0.00000000000E+00 0.  1.
         12    1    4    4    0    0 -0.29226197663E+02 -0.37625601999E+02  0.18616974535E+02  0.51151229668E+02  0.00000000000E+00 0. -1.
        -11    1    3    3    0    0  0.43079823872E+02 -0.90027892939E+02  0.69439827762E+02  0.12158446616E+03  0.00000000000E+00 0.  1.
         11    1    3    3    0    0  0.73816355683E+02 -0.39588799419E+01  0.16277705224E+02  0.75693399871E+02  0.00000000000E+00 0. -1.
         21    1    1    2  503  501  0.19420308786E+02  0.17634038068E+02 -0.12351230650E+03  0.12626716734E+03  0.00000000000E+00 0.  1.
          1    1    1    2  501    0 -0.52638640093E+02  0.79187926890E+02  0.20492550620E+03  0.22591152535E+03  0.00000000000E+00 0. -1.
<scales pt_clust_5="13000.00000" pt_clust_6="13000.00000" pt_clust_7="13000.00000" pt_clust_8="13000.00000" pt_clust_9="26.23181" pt_clust_10="95.46214"></scales>
<clustering>
<clus scale="   26.232">  2  9  1 -1</clus>
<clus scale="   79.803">  5  6 -1 -1</clus>
<clus scale="   95.251">  7  8 -1 -1</clus>
<clus scale="   95.462">  2 10  1 -1</clus>
<clus scale="  135.179">  2  5  1 -1</clus>
<clus scale="   26.232">  2  5  1 -1</clus>
</clustering>
</event>
<event>
10    4  0.3403565E-005  0.2259020E+03  0.7546771E-02  0.1162409E+00
         -1   -1    0    0    0  501 -0.00000000000E+00  0.00000000000E+00  0.99907137616E+03  0.99907137616E+03  0.00000000000E+00 0.  1.
         21   -1    0    0  501  502  0.00000000000E+00 -0.00000000000E+00 -0.14186168964E+03  0.14186168964E+03  0.00000000000E+00 0.  1.
         24    2    1    2    0    0  0.44461070968E+02  0.52843698422E+02  0.91680839736E+02  0.14003388617E+03  0.80217638994E+02 0.  0.
         23    2    1    2    0    0  0.22377151535E+02  0.17283241433E+03  0.62584285974E+03  0.65604940625E+03  0.91377010258E+02 0.  0.
        -11    1    3    3    0    0  0.18676716409E+00  0.60842021447E+02  0.51492757200E+02  0.79707531010E+02  0.00000000000E+00 0.  1.
         12    1    3    3    0    0  0.44274303804E+02 -0.79983230246E+01  0.40188082537E+02  0.60326355157E+02  0.00000000000E+00 0. -1.
        -11    1    4    4    0    0  0.28589824017E+02  0.84042698639E+01  0.63819210423E+02  0.70433666725E+02  0.00000000000E+00 0. -1.
         11    1    4    4    0    0 -0.62126724817E+01  0.16442814447E+03  0.56202364932E+03  0.58561573953E+03  0.00000000000E+00 0.  1.
         21    1    1    2  503  502  0.87768420420E+01 -0.28951107015E+02 -0.51870343261E+02  0.60047748198E+02  0.00000000000E+00 0.  1.
         -2    1    1    2    0  503 -0.75615064546E+02 -0.19672500574E+03  0.19155633030E+03  0.28480202518E+03  0.00000000000E+00 0.  1.
<scales pt_clust_5="13000.00000" pt_clust_6="13000.00000" pt_clust_7="13000.00000" pt_clust_8="13000.00000" pt_clust_9="30.25227" pt_clust_10="206.59616"></scales>
<clustering>
<clus scale="   30.252">  2  9  1 -1</clus>
<clus scale="   80.218">  5  6 -1 -1</clus>
<clus scale="   91.377">  7  8 -1 -1</clus>
<clus scale="  103.127">  1  5  2 -1</clus>
<clus scale="  206.596">  2 10  1 -1</clus>
<clus scale="   30.252">  2  5  1 -1</clus>
</clustering>
</event>
<event>
10    4  0.3403565E-005  0.1005494E+03  0.7546771E-02  0.1284608E+00
          2   -1    0    0  503    0 -0.00000000000E+00  0.00000000000E+00  0.50154443272E+03  0.50154443272E+03  0.00000000000E+00 0. -1.
         21   -1    0    0  501  502  0.00000000000E+00 -0.00000000000E+00 -0.24838127228E+03  0.24838127228E+03  0.00000000000E+00 0.  1.
         24    2    1    2    0    0 -0.41175636807E+02  0.49198443788E+02  0.41648276845E+03  0.42891753142E+03  0.79977699392E+02 0.  0.
         23    2    1    2    0    0  0.62434106969E+02 -0.49399226213E+02 -0.16259449975E+03  0.20264397010E+03  0.91045625961E+02 0.  0.
        -11    1    3    3    0    0 -0.32902334486E+02 -0.15947772601E+02  0.16493105789E+03  0.16893533947E+03  0.00000000000E+00 0.  1.
         12    1    3    3    0    0 -0.82733023205E+01  0.65146216389E+02  0.25155171057E+03  0.25998219195E+03  0.00000000000E+00 0. -1.
        -11    1    4    4    0    0  0.32745087599E+02 -0.54478595099E+02 -0.16029332015E+03  0.17243580420E+03  0.00000000000E+00 0.  1.
         11    1    4    4    0    0  0.29689019371E+02  0.50793688856E+01 -0.23011795969E+01  0.30208165899E+02  0.00000000000E+00 0. -1.
         21    1    1    2  503  502  0.29188084113E+02 -0.11299927811E+02  0.41220480268E+02  0.51756744645E+02  0.00000000000E+00 0. -1.
          1    1    1    2  501    0 -0.50446554276E+02  0.11500710236E+02 -0.41945588539E+02  0.66607458832E+02  0.00000000000E+00 0. -1.
<scales pt_clust_5="13000.00000" pt_clust_6="13000.00000" pt_clust_7="13000.00000" pt_clust_8="13000.00000" pt_clust_9="31.29908" pt_clust_10="50.90185"></scales>
<clustering>
<clus scale="   31.299">  1  9  2 -1</clus>
<clus scale="   50.902">  2 10  1 -1</clus>
<clus scale="   79.978">  5  6 -1 -1</clus>
<clus scale="   90.649">  1  5  2 -1</clus>
<clus scale="   91.046">  7  8 -1 -1</clus>
<clus scale="   50.902">  2  5  1 -1</clus>
</clustering>
</event>
<event>
10    4  0.3403565E-005  0.1599652E+03  0.7546771E-02  0.1206924E+00
         -1   -1    0    0    0  501 -0.00000000000E+00  0.00000000000E+00  0.49436054960E+03  0.49436054960E+03  0.00000000000E+00 0.  1.
         21   -1    0    0  501  502  0.00000000000E+00 -0.00000000000E+00 -0.31471312262E+03  0.31471312262E+03  0.00000000000E+00 0.  1.
         24    2    1    2    0    0 -0.56553570918E+02  0.51455575749E+02  0.38687379004E+03  0.40167357321E+03  0.76317411743E+02 0.  0.
         23    2    1    2    0    0 -0.68157659668E+02 -0.12608155559E+03 -0.47393367023E+02  0.17410513783E+03  0.86743544720E+02 0.  0.
        -13    1    3    3    0    0 -0.43157203249E+02  0.56795074950E+02  0.37814999280E+03  0.38481897275E+03  0.00000000000E+00 0.  1.
         14    1    3    3    0    0 -0.13396367669E+02 -0.53394992008E+01  0.87237972376E+01  0.16854600460E+02  0.00000000000E+00 0. -1.
        -11    1    4    4    0    0 -0.51583762663E+02 -0.13732320346E+03 -0.35924276620E+02  0.15102682023E+03  0.00000000000E+00 0.  1.
         11    1    4    4    0    0 -0.16573897005E+02  0.11241647867E+02 -0.11469090403E+02  0.23078317603E+02  0.00000000000E+00 0. -1.
         21    1    1    2  503  502  0.21237123820E+02 -0.59057058425E+01 -0.72441888645E+02  0.75721331342E+02  0.00000000000E+00 0.  1.
         -2    1    1    2    0  503  0.10347410677E+03  0.80531685685E+02 -0.87391107383E+02  0.15757362984E+03  0.00000000000E+00 0.  1.
<scales pt_clust_5="13000.00000" pt_clust_6="13000.00000" pt_clust_7="13000.00000" pt_clust_8="13000.00000" pt_clust_9="22.04298" pt_clust_10="134.40390"></scales>
<clustering>
<clus scale="   22.043">  2  9  1 -1</clus>
<clus scale="   76.317">  5  6 -1 -1</clus>
<clus scale="   86.744">  7  8 -1 -1</clus>
<clus scale="  107.602">  1  5  2 -1</clus>
<clus scale="  134.404">  2 10  1 -1</clus>
<clus scale="   22.043">  2  5  1 -1</clus>
</clustering>
</event>
<event>
10    4  0.3403565E-005  0.1397734E+03  0.7546771E-02  0.1216498E+00
         21   -1    0    0  503  502  0.00000000000E+00  0.00000000000E+00  0.18805153360E+03  0.18805153360E+03  0.00000000000E+00 0.  1.
          2   -1    0    0  502    0 -0.00000000000E+00 -0.00000000000E+00 -0.39189388501E+03  0.39189388501E+03  0.00000000000E+00 0. -1.
         24    2    1    2    0    0 -0.79303208077E+00  0.11587322448E+03 -0.65233467918E+02  0.15256730710E+03  0.74794015846E+02 0.  0.
         23    2    1    2    0    0 -0.14310880339E+03 -0.61588121095E+02  0.24677641011E+02  0.18085260664E+03  0.88461591064E+02 0.  0.
        -13    1    3    3    0    0 -0.14177707943E+02  0.10918048352E+03 -0.29732579706E+02  0.11404127183E+03  0.00000000000E+00 0.  1.
         14    1    3    3    0    0  0.13384675862E+02  0.66927409586E+01 -0.35500888212E+02  0.38526035266E+02  0.00000000000E+00 0. -1.
        -13    1    4    4    0    0 -0.19999492788E+02 -0.43638824290E+02 -0.14959068797E+02  0.50280219138E+02  0.00000000000E+00 0. -1.
         13    1    4    4    0    0 -0.12310931060E+03 -0.17949296805E+02  0.39636709808E+02  0.13057238750E+03  0.00000000000E+00 0.  1.
         21    1    1    2  503  501  0.33922783160E+02  0.52046371837E+01  0.72343182847E+01  0.35073905209E+02  0.00000000000E+00 0. -1.
          1    1    1    2  501    0  0.10997905231E+03 -0.59489740568E+02 -0.17052084278E+03  0.21145159967E+03  0.00000000000E+00 0. -1.
<scales pt_clust_5="13000.00000" pt_clust_6="13000.00000" pt_clust_7="13000.00000" pt_clust_8="13000.00000" pt_clust_9="34.31972" pt_clust_10="128.41796"></scales>
<clustering>
<clus scale="   34.320">  1  9  2 -1</clus>
<clus scale="   74.794">  5  6 -1 -1</clus>
<clus scale="   88.462">  7  8 -1 -1</clus>
<clus scale="  128.418">  1 10  2 -1</clus>
<clus scale="  131.550">  2  5  1 -1</clus>
<clus scale="   34.320">  1  5  2 -1</clus>
</clustering>
</event>
<event>
10    4  0.3403565E-005  0.2980512E+03  0.7546771E-02  0.1086494E+00
         21   -1    0    0  503  502  0.00000000000E+00  0.00000000000E+00  0.14638722120E+03  0.14638722120E+03  0.00000000000E+00 0. -1.
          2   -1    0    0  502    0 -0.00000000000E+00 -0.00000000000E+00 -0.12605241330E+04  0.12605241330E+04  0.00000000000E+00 0. -1.
         23    2    1    2    0    0  0.78355580058E+02 -0.25413107184E+03 -0.62725749570E+03  0.68705685156E+03  0.88729661131E+02 0.  0.
         24    2    1    2    0    0 -0.80699429248E+02  0.34245393025E+03 -0.19672397656E+03  0.41118067799E+03  0.81130356641E+02 0.  0.
        -11    1    4    4    0    0 -0.46837745598E+02  0.67702750918E+02 -0.63455541755E+02  0.10394249696E+03  0.00000000000E+00 0.  1.
         12    1    4    4    0    0 -0.33861683650E+02  0.27475117934E+03 -0.13326843481E+03  0.30723818103E+03  0.00000000000E+00 0. -1.
        -11    1    3    3    0    0  0.55808595406E+02 -0.86715366185E+02 -0.32284012093E+03  0.33890986668E+03  0.00000000000E+00 0.  1.
         11    1    3    3    0    0  0.22546984652E+02 -0.16741570566E+03 -0.30441737477E+03  0.34814698488E+03  0.00000000000E+00 0. -1.
         21    1    1    2  503  501  0.14556060621E+02 -0.14234627243E+02 -0.21033728824E+02  0.29273217482E+02  0.00000000000E+00 0. -1.
          1    1    1    2  501    0 -0.12212211431E+02 -0.74088231168E+02 -0.26912171068E+03  0.27940060713E+03  0.00000000000E+00 0. -1.
<scales pt_clust_5="13000.00000" pt_clust_6="13000.00000" pt_clust_7="13000.00000" pt_clust_8="13000.00000" pt_clust_9="20.35936" pt_clust_10="75.51228"></scales>
<clustering>
<clus scale="   20.359">  1  9  2 -1</clus>
<clus scale="   75.512">  1 10  2 -1</clus>
<clus scale="   81.130">  5  6 -1 -1</clus>
<clus scale="   88.730">  7  8 -1 -1</clus>
<clus scale="  295.878">  1  5  2 -1</clus>
<clus scale="   20.359">  1  5  2 -1</clus>
</clustering>
</event>
<event>
10    4  0.3403565E-005  0.3201823E+03  0.7546771E-02  0.1075565E+00
          2   -1    0    0  503    0 -0.00000000000E+00  0.00000000000E+00  0.15272423255E+04  0.15272423255E+04  0.00000000000E+00 0. -1.
         21   -1    0    0  501  502  0.00000000000E+00 -0.00000000000E+00 -0.13541512074E+03  0.13541512074E+03  0.00000000000E+00 0.  1.
         24    2    1    2    0    0  0.18749573236E+03  0.13607830021E+03  0.21874909463E+03  0.32710343506E+03  0.73983358855E+02 0.  0.
         23    2    1    2    0    0  0.52638122179E+02  0.36052631767E+02  0.88084065667E+02  0.14065395330E+03  0.89186141248E+02 0.  0.
        -11    1    3    3    0    0  0.26537648445E+02  0.59065436203E+02  0.56822611926E+02  0.86149763580E+02  0.00000000000E+00 0.  1.
         12    1    3    3    0    0  0.16095808392E+03  0.77012864006E+02  0.16192648270E+03  0.24095367148E+03  0.00000000000E+00 0. -1.
        -13    1    4    4    0    0  0.56798958020E+02  0.56353415711E+02  0.89292807447E+02  0.11989593219E+03  0.00000000000E+00 0.  1.
         13    1    4    4    0    0 -0.41608358413E+01 -0.20300783944E+02 -0.12087417798E+01  0.20758021108E+02  0.00000000000E+00 0. -1.
         21    1    1    2  503  502 -0.39601849361E+02 -0.25496435110E+02 -0.27814497356E+02  0.54699368729E+02  0.00000000000E+00 0.  1.
          1    1    1    2  501    0 -0.20053200518E+03 -0.14663449687E+03  0.11128085418E+04  0.11402006892E+04  0.00000000000E+00 0. -1.
<scales pt_clust_5="13000.00000" pt_clust_6="13000.00000" pt_clust_7="13000.00000" pt_clust_8="13000.00000" pt_clust_9="47.09963" pt_clust_10="255.26397"></scales>
<clustering>
<clus scale="   47.100">  2  9  1 -1</clus>
<clus scale="   73.983">  5  6 -1 -1</clus>
<clus scale="   89.186">  7  8 -1 -1</clus>
<clus scale="   92.983">  5  7 -1 -1</clus>
<clus scale="  255.264">  2 10  1 -1</clus>
<clus scale="   47.100">  2  5  1 -1</clus>
</clustering>
</event>
<event>
10    4  0.3403565E-005  0.1559687E+03  0.7546771E-02  0.1209495E+00
          2   -1    0    0  503    0 -0.00000000000E+00  0.00000000000E+00  0.12561129935E+04  0.12561129935E+04  0.00000000000E+00 0. -1.
         21   -1    0    0  501  502  0.00000000000E+00 -0.00000000000E+00 -0.11045102080E+03  0.11045102080E+03  0.00000000000E+00 0. -1.
         23    2    1    2    0    0 -0.60008345310E+02 -0.46494472764E+01  0.30330089852E+03  0.32155561762E+03  0.88226760782E+02 0.  0.
         24    2    1    2    0    0  0.46234704103E+02  0.12932336930E+03  0.18641483874E+03  0.25029884634E+03  0.95062288350E+02 0.  0.
        -13    1    4    4    0    0  0.49834963624E+02  0.42799648178E+02  0.13357006972E+03  0.14884991437E+03  0.00000000000E+00 0.  1.
         14    1    4    4    0    0 -0.36002595215E+01  0.86523721119E+02  0.52844769028E+02  0.10144893197E+03  0.00000000000E+00 0. -1.
        -11    1    3    3    0    0 -0.75194841780E+02 -0.23213150295E+02  0.18835361179E+03  0.20413279416E+03  0.00000000000E+00 0. -1.
         11    1    3    3    0    0  0.15186496470E+02  0.18563703018E+02  0.11494728673E+03  0.11742282347E+03  0.00000000000E+00 0.  1.
         21    1    1    2  503  502 -0.26329654992E+02 -0.74222803722E+01 -0.61147276084E+02  0.66987538770E+02  0.00000000000E+00 0. -1.
          1    1    1    2  501    0  0.40103296199E+02 -0.11725164165E+03  0.71709351154E+03  0.72772201157E+03  0.00000000000E+00 0. -1.
<scales pt_clust_5="13000.00000" pt_clust_6="13000.00000" pt_clust_7="13000.00000" pt_clust_8="13000.00000" pt_clust_9="27.35582" pt_clust_10="123.65036"></scales>
<clustering>
<clus scale="   27.356">  2  9  1 -1</clus>
<clus scale="   88.227">  7  8 -1 -1</clus>
<clus scale="   95.062">  5  6 -1 -1</clus>
<clus scale="  109.868">  1  7  2 -1</clus>
<clus scale="  123.650">  2 10  1 -1</clus>
<clus scale="   27.356">  2  5  1 -1</clus>
</clustering>
</event>
<event>
10    4  0.3403565E-005  0.4291743E+03  0.7546771E-02  0.1034121E+00
         21   -1    0    0  503  502  0.00000000000E+00  0.00000000000E+00  0.33868158385E+03  0.33868158385E+03  0.00000000000E+00 0. -1.
          2   -1    0    0  502    0 -0.00000000000E+00 -0.00000000000E+00 -0.19529680820E+04  0.19529680820E+04  0.00000000000E+00 0. -1.
         24    2    1    2    0    0  0.76344254766E+02 -0.31710657420E+03 -0.16067639252E+03  0.37249809216E+03  0.80949990229E+02 0.  0.
         23    2    1    2    0    0 -0.11757256521E+02 -0.57081037151E+02 -0.35370257389E+02  0.11320234829E+03  0.90372776143E+02 0.  0.
        -13    1    3    3    0    0 -0.12085865417E+02 -0.65183898632E+02 -0.51914953549E+02  0.84203154251E+02  0.00000000000E+00 0.  1.
         14    1    3    3    0    0  0.88430120183E+02 -0.25192267557E+03 -0.10876143897E+03  0.28829493791E+03  0.00000000000E+00 0. -1.
        -11    1    4    4    0    0  0.11697071118E+02 -0.25947097857E+02 -0.60474928340E+02  0.66837791089E+02  0.00000000000E+00 0. -1.
         11    1    4    4    0    0 -0.23454327639E+02 -0.31133939294E+02  0.25104670951E+02  0.46364557202E+02  0.00000000000E+00 0.  1.
         21    1    1    2  503  501 -0.28140310949E+02  0.16598026386E+02  0.17226440164E+03  0.17533509533E+03  0.00000000000E+00 0. -1.
          1    1    1    2  501    0 -0.36446687296E+02  0.35758958496E+03 -0.15905042499E+04  0.16306141301E+04  0.00000000000E+00 0. -1.
<scales pt_clust_5="13000.00000" pt_clust_6="13000.00000" pt_clust_7="13000.00000" pt_clust_8="13000.00000" pt_clust_9="32.67065" pt_clust_10="361.81201"></scales>
<clustering>
<clus scale="   32.671">  1  9  2 -1</clus>
<clus scale="   80.950">  5  6 -1 -1</clus>
<clus scale="   90.373">  7  8 -1 -1</clus>
<clus scale="  101.046">  5  7 -1 -1</clus>
<clus scale="  361.812">  1 10  2 -1</clus>
<clus scale="   32.671">  1  5  2 -1</clus>
</clustering>
</event>
<event>
10    4  0.3403565E-005  0.9884427E+02  0.7546771E-02  0.1290428E+00
         21   -1    0    0  501  502  0.00000000000E+00  0.00000000000E+00  0.14416496869E+03  0.14416496869E+03  0.00000000000E+00 0. -1.
          2   -1    0    0  503    0 -0.00000000000E+00 -0.00000000000E+00 -0.11418245898E+04  0.11418245898E+04  0.00000000000E+00 0. -1.
         24    2    1    2    0    0  0.52199239331E+02 -0.58234151604E+01 -0.83086436023E+03  0.83612547989E+03  0.77534252270E+02 0.  0.
         23    2    1    2    0    0  0.15369992459E+02  0.52212290795E+01 -0.26080969066E+03  0.27704081212E+03  0.92013145453E+02 0.  0.
        -11    1    3    3    0    0  0.33638815215E+02 -0.23992690359E+02 -0.17752238108E+03  0.18226742678E+03  0.00000000000E+00 0.  1.
         12    1    3    3    0    0  0.18560424116E+02  0.18169275199E+02 -0.65334197914E+03  0.65385805311E+03  0.00000000000E+00 0. -1.
        -13    1    4    4    0    0 -0.35140913616E+02 -0.91207057990E+01 -0.15128274068E+03  0.15557807915E+03  0.00000000000E+00 0.  1.
         13    1    4    4    0    0  0.50510906075E+02  0.14341934878E+02 -0.10952694998E+03  0.12146273297E+03  0.00000000000E+00 0. -1.
         21    1    1    2  503  502 -0.16966129901E+02 -0.14182607860E+02  0.11423803447E+03  0.11635860281E+03  0.00000000000E+00 0. -1.
          1    1    1    2  501    0 -0.50603101888E+02  0.14784793941E+02 -0.20223604648E+02  0.56464663618E+02  0.00000000000E+00 0. -1.
<scales pt_clust_5="13000.00000" pt_clust_6="13000.00000" pt_clust_7="13000.00000" pt_clust_8="13000.00000" pt_clust_9="22.11325" pt_clust_10="61.53505"></scales>
<clustering>
<clus scale="   22.113">  1  9  2 -1</clus>
<clus scale="   61.535">  1 10  2 -1</clus>
<clus scale="   77.534">  5  6 -1 -1</clus>
<clus scale="   85.530">  2  5  1 -1</clus>
<clus scale="   92.013">  7  8 -1 -1</clus>
<clus scale="   22.113">  1  5  2 -1</clus>
</clustering>
</event>
<event>
10    4  0.3403565E-005  0.3648367E+03  0.7546771E-02  0.1107238E+00
         21   -1    0    0  503  502  0.00000000000E+00  0.00000000000E+00  0.47564325189E+03  0.47564325189E+03  0.00000000000E+00 0.  1.
         -3   -1    0    0    0  501 -0.00000000000E+00 -0.00000000000E+00 -0.41439960629E+03  0.41439960629E+03  0.00000000000E+00 0.  1.
         23    2    1    2    0    0 -0.18595285118E+02  0.65679669207E+01  0.86172254469E+02  0.12687372218E+03  0.91007478378E+02 0.  0.
         24    2    1    2    0    0 -0.33270279328E+03  0.69909352080E+02  0.18322356563E+02  0.34963413424E+03  0.79560372772E+02 0.  0.
        -11    1    4    4    0    0 -0.33451748100E+03  0.75508334823E+02  0.19993009267E+02  0.34351590086E+03  0.00000000000E+00 0.  1.
         12    1    4    4    0    0  0.18146877243E+01 -0.55989827430E+01 -0.16706527044E+01  0.61182333848E+01  0.00000000000E+00 0. -1.
        -11    1    3    3    0    0 -0.45868921081E+02 -0.17362295015E+02  0.73658237589E+02  0.88492616495E+02  0.00000000000E+00 0.  1.
         11    1    3    3    0    0  0.27273635963E+02  0.23930261935E+02  0.12514016880E+02  0.38381105683E+02  0.00000000000E+00 0. -1.
         21    1    1    2  503  501 -0.17986765869E+02 -0.16723039484E+02  0.22974097424E+02  0.33630238603E+02  0.00000000000E+00 0.  1.
         -4    1    1    2    0  502  0.36928484426E+03 -0.59754279517E+02 -0.66225062859E+02  0.37990476316E+03  0.00000000000E+00 0.  1.
<scales pt_clust_5="13000.00000" pt_clust_6="13000.00000" pt_clust_7="13000.00000" pt_clust_8="13000.00000" pt_clust_9="24.55980" pt_clust_10="356.05630"></scales>
<clustering>
<clus scale="   24.560">  1  9  2 -1</clus>
<clus scale="   79.560">  5  6 -1 -1</clus>
<clus scale="   91.007">  7  8 -1 -1</clus>
<clus scale="   93.875">  2  7  1 -1</clus>
<clus scale="  356.056">  1 10  2 -1</clus>
<clus scale="   24.560">  1  5  2 -1</clus>
</clustering>
</event>
<event>
10    4  0.3403565E-005  0.9401344E+02  0.7546771E-02  0.1300649E+00
          2   -1    0    0  503    0 -0.00000000000E+00  0.00000000000E+00  0.78909166591E+03  0.78909166591E+03  0.00000000000E+00 0. -1.
         21   -1    0    0  501  502  0.00000000000E+00 -0.00000000000E+00 -0.17435707989E+03  0.17435707989E+03  0.00000000000E+00 0. -1.
         24    2    1    2    0    0  0.10804630184E+01 -0.73244095027E+01  0.46237994048E+03  0.46960949918E+03  0.81749972406E+02 0.  0.
         23    2    1    2    0    0  0.66249527386E+00  0.21926497975E+02  0.35134081849E+02  0.10235664692E+03  0.93601651950E+02 0.  0.
        -13    1    3    3    0    0  0.37355368210E+02  0.14789376154E+01  0.13408121306E+03  0.13919548300E+03  0.00000000000E+00 0.  1.
         14    1    3    3    0    0 -0.36274905191E+02 -0.88033471181E+01  0.32829872741E+03  0.33041401618E+03  0.00000000000E+00 0. -1.
        -13    1    4    4    0    0 -0.33338168320E+02  0.17448885452E+02 -0.15916796384E+02  0.40856351741E+02  0.00000000000E+00 0.  1.
         13    1    4    4    0    0  0.34000663594E+02  0.44776125223E+01  0.51050878232E+02  0.61500295178E+02  0.00000000000E+00 0. -1.
         21    1    1    2  503  502 -0.10040069623E+01 -0.64335280849E+02 -0.12693544803E+03  0.14231178573E+03  0.00000000000E+00 0. -1.
          1    1    1    2  501    0 -0.73895132998E+00  0.49733192377E+02  0.24415601173E+03  0.24917081397E+03  0.00000000000E+00 0. -1.
<scales pt_clust_5="13000.00000" pt_clust_6="13000.00000" pt_clust_7="13000.00000" pt_clust_8="13000.00000" pt_clust_9="25.42461" pt_clust_10="49.73871"></scales>
<clustering>
<clus scale="   49.739">  2 10  1 -1</clus>
<clus scale="   25.425">  2  9  1 -1</clus>
<clus scale="   81.750">  5  6 -1 -1</clus>
<clus scale="   82.221">  1  5  2 -1</clus>
<clus scale="   93.602">  7  8 -1 -1</clus>
<clus scale="   49.739">  2  5  1 -1</clus>
</clustering>
</event>
<event>
10    4  0.3403565E-005  0.1051666E+03  0.7546771E-02  0.1274587E+00
         21   -1    0    0  501  502  0.00000000000E+00  0.00000000000E+00  0.68715742785E+02  0.68715742785E+02  0.00000000000E+00 0. -1.
          2   -1    0    0  503    0 -0.00000000000E+00 -0.00000000000E+00 -0.55550253976E+03  0.55550253976E+03  0.00000000000E+00 0. -1.
         24    2    1    2    0    0 -0.19884257621E+02  0.33228711626E+02 -0.55748728000E+02  0.10456651155E+03  0.79540578865E+02 0.  0.
         23    2    1    2    0    0  0.83950356738E+02 -0.10464472315E+02 -0.94557397411E+02  0.15585700828E+03  0.90515954650E+02 0.  0.
        -11    1    3    3    0    0 -0.10295828486E+02 -0.22414486634E+02  0.76742438681E+00  0.24677970651E+02  0.00000000000E+00 0.  1.
         12    1    3    3    0    0 -0.95884291354E+01  0.55643198260E+02 -0.56516152387E+02  0.79888540896E+02  0.00000000000E+00 0. -1.
        -13    1    4    4    0    0  0.71392208734E+02 -0.31164380681E+02 -0.24385171070E+02  0.81625379994E+02  0.00000000000E+00 0. -1.
         13    1    4    4    0    0  0.12558148004E+02  0.20699908366E+02 -0.70172226341E+02  0.74231628281E+02  0.00000000000E+00 0.  1.
         21    1    1    2  503  502  0.97977409441E+00 -0.49783952929E+02 -0.57515870028E+02  0.76075470630E+02  0.00000000000E+00 0.  1.
          1    1    1    2  501    0 -0.65045873211E+02  0.27019713618E+02 -0.27896480153E+03  0.28771929209E+03  0.00000000000E+00 0. -1.
<scales pt_clust_5="13000.00000" pt_clust_6="13000.00000" pt_clust_7="13000.00000" pt_clust_8="13000.00000" pt_clust_9="49.79359" pt_clust_10="69.04321"></scales>
<clustering>
<clus scale="   49.794">  1  9  2 -1</clus>
<clus scale="   69.043">  1 10  2 -1</clus>
<clus scale="   79.541">  5  6 -1 -1</clus>
<clus scale="   90.516">  7  8 -1 -1</clus>
<clus scale="   95.883">  2  5  1 -1</clus>
<clus scale="   49.794">  1  5  2 -1</clus>
</clustering>
</event>
<event>
10    4  0.3403565E-005  0.3911120E+03  0.7546771E-02  0.1087088E+00
          2   -1    0    0  502    0 -0.00000000000E+00  0.00000000000E+00  0.16267146992E+04  0.16267146992E+04  0.00000000000E+00 0. -1.
         21   -1    0    0  503  502  0.00000000000E+00 -0.00000000000E+00 -0.17229320936E+03  0.17229320936E+03  0.00000000000E+00 0.  1.
         23    2    1    2    0    0 -0.54929921056E+02  0.27073093635E+02  0.27971664058E+02  0.12837284036E+03  0.10930198317E+03 0.  0.
         24    2    1    2    0    0  0.20532976665E+03  0.34060802301E+03  0.51189348801E+03  0.65318507213E+03  0.80259933788E+02 0.  0.
        -13    1    4    4    0    0  0.65966216859E+02  0.16068217574E+03  0.17453199863E+03  0.24623509481E+03  0.00000000000E+00 0.  1.
         14    1    4    4    0    0  0.13936354979E+03  0.17992584726E+03  0.33736148938E+03  0.40694997732E+03  0.00000000000E+00 0. -1.
        -11    1    3    3    0    0 -0.45361421421E+02  0.64319052957E+02  0.39723172858E+02  0.88161950912E+02  0.00000000000E+00 0. -1.
         11    1    3    3    0    0 -0.95684996348E+01 -0.37245959322E+02 -0.11751508800E+02  0.40210889447E+02  0.00000000000E+00 0.  1.
         21    1    1    2  503  501 -0.29348769582E+02 -0.12285647945E+02  0.34302619612E+01  0.32000845591E+02  0.00000000000E+00 0. -1.
          1    1    1    2  501    0 -0.12105107601E+03 -0.35539546870E+03  0.91112607581E+03  0.98544915049E+03  0.00000000000E+00 0. -1.
<scales pt_clust_5="13000.00000" pt_clust_6="13000.00000" pt_clust_7="13000.00000" pt_clust_8="13000.00000" pt_clust_9="31.81646" pt_clust_10="382.78859"></scales>
<clustering>
<clus scale="   31.816">  2  9  1 -1</clus>
<clus scale="   80.260">  5  6 -1 -1</clus>
<clus scale="  109.302">  7  8 -1 -1</clus>
<clus scale="  128.889">  1  7  2 -1</clus>
<clus scale="  382.789">  2 10  1 -1</clus>
<clus scale="   31.816">  2  5  1 -1</clus>
</clustering>
</event>
<event>
10    4  0.3403565E-005  0.1345593E+03  0.7546771E-02  0.1239187E+00
         21   -1    0    0  501  502  0.00000000000E+00  0.00000000000E+00  0.99263832738E+02  0.99263832738E+02  0.00000000000E+00 0. -1.
          2   -1    0    0  503    0 -0.00000000000E+00 -0.00000000000E+00 -0.80102790585E+03  0.80102790585E+03  0.00000000000E+00 0. -1.
         23    2    1    2    0    0 -0.23192446298E+02 -0.46291151172E+01 -0.48091269568E+03  0.48969038065E+03  0.89220680148E+02 0.  0.
         24    2    1    2    0    0 -0.57532565439E+02 -0.71805339460E+02 -0.23626130144E+03  0.26605390804E+03  0.80618090804E+02 0.  0.
        -11    1    4    4    0    0  0.11975326204E+02 -0.21907500159E+02 -0.15738967795E+02  0.29513761336E+02  0.00000000000E+00 0.  1.
         12    1    4    4    0    0 -0.69507891643E+02 -0.49897839301E+02 -0.22052233365E+03  0.23654014671E+03  0.00000000000E+00 0. -1.
        -11    1    3    3    0    0 -0.28691422065E+02  0.38888214806E+02 -0.24004591297E+03  0.24486227003E+03  0.00000000000E+00 0.  1.
         11    1    3    3    0    0  0.54989757663E+01 -0.43517329923E+02 -0.24086678271E+03  0.24482811062E+03  0.00000000000E+00 0. -1.
         21    1    1    2  503  502  0.18420059346E+02 -0.19546334003E+02 -0.74158652239E+01  0.27863108518E+02  0.00000000000E+00 0. -1.
          1    1    1    2  501    0  0.62304952391E+02  0.95980788580E+02  0.22825789229E+02  0.11668434138E+03  0.00000000000E+00 0. -1.
<scales pt_clust_5="13000.00000" pt_clust_6="13000.00000" pt_clust_7="13000.00000" pt_clust_8="13000.00000" pt_clust_9="26.85810" pt_clust_10="107.73541"></scales>
<clustering>
<clus scale="   26.858">  1  9  2 -1</clus>
<clus scale="   80.618">  5  6 -1 -1</clus>
<clus scale="   89.221">  7  8 -1 -1</clus>
<clus scale="   92.131">  2  7  1 -1</clus>
<clus scale="  107.735">  1 10  2 -1</clus>
<clus scale="   26.858">  1  5  2 -1</clus>
</clustering>
</event>
<event>
10    4  0.3403565E-005  0.1455004E+03  0.7546771E-02  0.1210548E+00
          2   -1    0    0  502    0 -0.00000000000E+00  0.00000000000E+00  0.66271285479E+03  0.66271285479E+03  0.00000000000E+00 0. -1.
         21   -1    0    0  503  502  0.00000000000E+00 -0.00000000000E+00 -0.10169939688E+03  0.10169939688E+03  0.00000000000E+00 0. -1.
         23    2    1    2    0    0 -0.28565902215E+02  0.10640514916E+03  0.21819802710E+03  0.26509080460E+03  0.10258990749E+03 0.  0.
         24    2    1    2    0    0 -0.12456413712E+03 -0.83618598783E+02  0.19288663942E+03  0.25802410692E+03  0.82842560122E+02 0.  0.
        -13    1    4    4    0    0 -0.44860392078E+02 -0.63831366204E+02  0.14022105078E+03  0.16046445454E+03  0.00000000000E+00 0.  1.
         14    1    4    4    0    0 -0.79703745038E+02 -0.19787232578E+02  0.52665588647E+02  0.97559652386E+02  0.00000000000E+00 0. -1.
        -11    1    3    3    0    0 -0.55567653014E+02  0.56870565046E+02  0.18050579246E+03  0.19724189804E+03  0.00000000000E+00 0.  1.
         11    1    3    3    0    0  0.27001750799E+02  0.49534584115E+02  0.37692234633E+02  0.67848906559E+02  0.00000000000E+00 0. -1.
         21    1    1    2  503  501  0.35471755039E+02 -0.72205924115E+01 -0.14088184878E+02  0.38844038326E+02  0.00000000000E+00 0. -1.
          1    1    1    2  501    0  0.11765828429E+03 -0.15565957967E+02  0.16401697627E+03  0.20245330181E+03  0.00000000000E+00 0. -1.
<scales pt_clust_5="13000.00000" pt_clust_6="13000.00000" pt_clust_7="13000.00000" pt_clust_8="13000.00000" pt_clust_9="36.19920" pt_clust_10="127.90997"></scales>
<clustering>
<clus scale="   36.199">  2  9  1 -1</clus>
<clus scale="   82.843">  5  6 -1 -1</clus>
<clus scale="  102.590">  7  8 -1 -1</clus>
<clus scale="  127.910">  2 10  1 -1</clus>
<clus scale="  132.320">  2  5  1 -1</clus>
<clus scale="   36.199">  2  5  1 -1</clus>
</clustering>
</event>
<event>
10    4  0.3403565E-005  0.1729780E+03  0.7546771E-02  0.1186697E+00
         21   -1    0    0  501  502  0.00000000000E+00  0.00000000000E+00  0.25292533949E+03  0.25292533949E+03  0.00000000000E+00 0. -1.
          2   -1    0    0  503    0 -0.00000000000E+00 -0.00000000000E+00 -0.36695592756E+03  0.36695592756E+03  0.00000000000E+00 0. -1.
         24    2    1    2    0    0  0.10710135272E+03  0.52797529009E+02  0.72760336469E+02  0.15992116226E+03  0.77604334634E+02 0.  0.
         23    2    1    2    0    0 -0.56272679713E+02 -0.16805560510E+03 -0.17854106012E+03  0.26736776695E+03  0.90550051172E+02 0.  0.
        -11    1    3    3    0    0  0.13876234794E+02  0.40644701445E+02  0.33850140635E+01  0.43081318084E+02  0.00000000000E+00 0.  1.
         12    1    3    3    0    0  0.93225117922E+02  0.12152827564E+02  0.69375322406E+02  0.11683984418E+03  0.00000000000E+00 0. -1.
        -11    1    4    4    0    0 -0.35985973318E+02 -0.70037333082E+01 -0.34812549593E+02  0.50556465116E+02  0.00000000000E+00 0.  1.
         11    1    4    4    0    0 -0.20286706395E+02 -0.16105187180E+03 -0.14372851052E+03  0.21681130183E+03  0.00000000000E+00 0. -1.
         21    1    1    2  503  502 -0.12518313277E+02 -0.29465140562E+02  0.23300771616E+02  0.39595815860E+02  0.00000000000E+00 0. -1.
          1    1    1    2  501    0 -0.38310359725E+02  0.14472321666E+03 -0.31550636031E+02  0.15299652197E+03  0.00000000000E+00 0. -1.
<scales pt_clust_5="13000.00000" pt_clust_6="13000.00000" pt_clust_7="13000.00000" pt_clust_8="13000.00000" pt_clust_9="32.01410" pt_clust_10="147.38407"></scales>
<clustering>
<clus scale="   32.014">  1  9  2 -1</clus>
<clus scale="   77.604">  5  6 -1 -1</clus>
<clus scale="   90.550">  7  8 -1 -1</clus>
<clus scale="  132.365">  2  5  1 -1</clus>
<clus scale="  147.384">  1 10  2 -1</clus>
<clus scale="   32.014">  1  5  2 -1</clus>
</clustering>
</event>
<event>
10    4  0.3403565E-005  0.2621834E+03  0.7546771E-02  0.1113993E+00
          2   -1    0    0  503    0 -0.00000000000E+00  0.00000000000E+00  0.19757142297E+04  0.19757142297E+04  0.00000000000E+00 0. -1.
         21   -1    0    0  501  502  0.00000000000E+00 -0.00000000000E+00 -0.23734888776E+03  0.23734888776E+03  0.00000000000E+00 0.  1.
         24    2    1    2    0    0  0.22115012721E+03  0.31543812235E+02 -0.61347315876E+02  0.24558428611E+03  0.81521515952E+02 0.  0.
         23    2    1    2    0    0 -0.37554213907E+03 -0.12931591666E+03  0.15228687292E+04  0.15766540730E+04  0.94627664514E+02 0.  0.
        -13    1    3    3    0    0  0.12316992685E+03  0.54702212134E+02 -0.52062501342E+02  0.14447721945E+03  0.00000000000E+00 0.  1.
         14    1    3    3    0    0  0.97980200358E+02 -0.23158399899E+02 -0.92848145340E+01  0.10110706666E+03  0.00000000000E+00 0. -1.
        -13    1    4    4    0    0 -0.42079686604E+02  0.82375081373E+01  0.10063655270E+03  0.10939045801E+03  0.00000000000E+00 0.  1.
         13    1    4    4    0    0 -0.33346245246E+03 -0.13755342480E+03  0.14222321765E+04  0.14672636150E+04  0.00000000000E+00 0. -1.
         21    1    1    2  503  502 -0.36233218063E+02 -0.21346440522E+02  0.12587246307E+02  0.43897099947E+02  0.00000000000E+00 0. -1.
          1    1    1    2  501    0  0.19062522992E+03  0.11911854495E+03  0.26425668225E+03  0.34692765838E+03  0.00000000000E+00 0. -1.
<scales pt_clust_5="13000.00000" pt_clust_6="13000.00000" pt_clust_7="13000.00000" pt_clust_8="13000.00000" pt_clust_9="42.05373" pt_clust_10="244.51123"></scales>
<clustering>
<clus scale="   42.054">  2  9  1 -1</clus>
<clus scale="   81.522">  5  6 -1 -1</clus>
<clus scale="   94.628">  7  8 -1 -1</clus>
<clus scale="  213.001">  1  5  2 -1</clus>
<clus scale="  244.511">  2 10  1 -1</clus>
<clus scale="   42.054">  2  5  1 -1</clus>
</clustering>
</event>
<event>
10    4  0.3403565E-005  0.2598503E+03  0.7546771E-02  0.1146478E+00
          2   -1    0    0  503    0 -0.00000000000E+00  0.00000000000E+00  0.14618294353E+04  0.14618294353E+04  0.00000000000E+00 0. -1.
         21   -1    0    0  501  502  0.00000000000E+00 -0.00000000000E+00 -0.39108789040E+03  0.39108789040E+03  0.00000000000E+00 0.  1.
         23    2    1    2    0    0  0.28336919195E+02 -0.27111511500E+02  0.91464808913E+02  0.13444790714E+03  0.90401401652E+02 0.  0.
         24    2    1    2    0    0 -0.22454307280E+02  0.25205361518E+03  0.70569858727E+03  0.75385821936E+03  0.79098027669E+02 0.  0.
        -13    1    4    4    0    0  0.74337859596E+01  0.22153583855E+03  0.61122867632E+03  0.65017988564E+03  0.00000000000E+00 0.  1.
         14    1    4    4    0    0 -0.29888093239E+02  0.30517776628E+02  0.94469910948E+02  0.10367833372E+03  0.00000000000E+00 0. -1.
        -11    1    3    3    0    0 -0.32926869898E+02 -0.95035728174E+01  0.38750204299E+02  0.51730793448E+02  0.00000000000E+00 0.  1.
         11    1    3    3    0    0  0.61263789093E+02 -0.17607938683E+02  0.52714604614E+02  0.82717113696E+02  0.00000000000E+00 0. -1.
         21    1    1    2  503  502 -0.25121428966E+03  0.47668361633E+02 -0.22845370863E+03  0.34288772071E+03  0.00000000000E+00 0.  1.
          1    1    1    2  501    0  0.24533167774E+03 -0.27261046531E+03  0.50203185733E+03  0.62172347846E+03  0.00000000000E+00 0. -1.
<scales pt_clust_5="13000.00000" pt_clust_6="13000.00000" pt_clust_7="13000.00000" pt_clust_8="13000.00000" pt_clust_9="13000.00000" pt_clust_10="259.85035"></scales>
<clustering>
<clus scale="   79.098">  5  6 -1 -1</clus>
<clus scale="   90.401">  7  8 -1 -1</clus>
<clus scale="   98.542">  1  7  2 -1</clus>
<clus scale="  250.318">  1  5  2 -1</clus>
<clus scale="  259.850">  1 10  2 -1</clus>
<clus scale="  259.850">  2  5  1 -1</clus>
</clustering>
</event>
<event>
10    4  0.3403565E-005  0.3885862E+03  0.7546771E-02  0.1048035E+00
         21   -1    0    0  501  502  0.00000000000E+00  0.00000000000E+00  0.78871048628E+03  0.78871048628E+03  0.00000000000E+00 0. -1.
          2   -1    0    0  503    0 -0.00000000000E+00 -0.00000000000E+00 -0.80753216422E+03  0.80753216422E+03  0.00000000000E+00 0. -1.
         24    2    1    2    0    0 -0.21633704190E+03 -0.30782759660E+03 -0.28258036317E+03  0.47735629567E+03  0.80360602511E+02 0.  0.
         23    2    1    2    0    0  0.58225665181E+02  0.41108050186E+03  0.13969841906E+03  0.44757885882E+03  0.91835611158E+02 0.  0.
        -11    1    3    3    0    0 -0.13511197236E+03 -0.16726680242E+03 -0.20631761649E+03  0.29799393810E+03  0.00000000000E+00 0.  1.
         12    1    3    3    0    0 -0.81225069538E+02 -0.14056079418E+03 -0.76262746680E+02  0.17936235757E+03  0.00000000000E+00 0. -1.
        -13    1    4    4    0    0  0.46170277677E+02  0.38794720801E+03  0.10570963039E+03  0.40473356260E+03  0.00000000000E+00 0. -1.
         13    1    4    4    0    0  0.12055387503E+02  0.23133293852E+02  0.33988788668E+02  0.42845296211E+02  0.00000000000E+00 0.  1.
         21    1    1    2  503  502  0.29250174946E+03 -0.14655024657E+03  0.30125786154E+03  0.44473649203E+03  0.00000000000E+00 0. -1.
          1    1    1    2  501    0 -0.13439037274E+03  0.43297341307E+02 -0.17719759535E+03  0.22657100399E+03  0.00000000000E+00 0. -1.
<scales pt_clust_5="13000.00000" pt_clust_6="13000.00000" pt_clust_7="13000.00000" pt_clust_8="13000.00000" pt_clust_9="259.24576" pt_clust_10="141.19296"></scales>
<clustering>
<clus scale="   80.361">  5  6 -1 -1</clus>
<clus scale="   91.836">  7  8 -1 -1</clus>
<clus scale="  141.193">  1 10  2 -1</clus>
<clus scale="  259.246">  1  9  2 -1</clus>
<clus scale="  386.035">  2  5  1 -1</clus>
<clus scale="  141.193">  1  5  2 -1</clus>
</clustering>
</event>
<event>
10    4  0.3403565E-005  0.1584518E+03  0.7546771E-02  0.1216244E+00
          2   -1    0    0  502    0 -0.00000000000E+00  0.00000000000E+00  0.65096244389E+03  0.65096244389E+03  0.00000000000E+00 0. -1.
         21   -1    0    0  503  502  0.00000000000E+00 -0.00000000000E+00 -0.16161809642E+03  0.16161809642E+03  0.00000000000E+00 0. -1.
         23    2    1    2    0    0 -0.52752795859E+01  0.68403750161E+01  0.69403109078E+02  0.11337566475E+03  0.89233572738E+02 0.  0.
         24    2    1    2    0    0 -0.48817017916E+01  0.14186893743E+03  0.18088573961E+03  0.24354109462E+03  0.80261993213E+02 0.  0.
        -13    1    4    4    0    0  0.35580120018E+02  0.78553049647E+02  0.11401261442E+03  0.14295244942E+03  0.00000000000E+00 0.  1.
         14    1    4    4    0    0 -0.40461821809E+02  0.63315887786E+02  0.66873125196E+02  0.10058864520E+03  0.00000000000E+00 0. -1.
        -13    1    3    3    0    0  0.87259547255E+01 -0.28872322896E+02  0.68678109770E+02  0.75009573235E+02  0.00000000000E+00 0.  1.
         13    1    3    3    0    0 -0.14001234311E+02  0.35712697913E+02  0.72499930757E+00  0.38366091519E+02  0.00000000000E+00 0. -1.
         21    1    1    2  503  501 -0.34866743391E+02 -0.17909470447E+02 -0.90298253299E+02  0.98438881929E+02  0.00000000000E+00 0. -1.
          1    1    1    2  501    0  0.45023724769E+02 -0.13079984200E+03  0.32935375208E+03  0.35722489900E+03  0.00000000000E+00 0. -1.
<scales pt_clust_5="13000.00000" pt_clust_6="13000.00000" pt_clust_7="13000.00000" pt_clust_8="13000.00000" pt_clust_9="39.19744" pt_clust_10="136.61998"></scales>
<clustering>
<clus scale="   39.197">  2  9  1 -1</clus>
<clus scale="   80.262">  5  6 -1 -1</clus>
<clus scale="   89.234">  7  8 -1 -1</clus>
<clus scale="   90.784">  1  7  2 -1</clus>
<clus scale="  136.620">  2 10  1 -1</clus>
<clus scale="   39.197">  2  5  1 -1</clus>
</clustering>
</event>
<event>
10    4  0.3403565E-005  0.2153116E+03  0.7546771E-02  0.1179514E+00
          2   -1    0    0  503    0 -0.00000000000E+00  0.00000000000E+00  0.37882743065E+03  0.37882743065E+03  0.00000000000E+00 0. -1.
         21   -1    0    0  501  502  0.00000000000E+00 -0.00000000000E+00 -0.43504480120E+03  0.43504480120E+03  0.00000000000E+00 0. -1.
         24    2    1    2    0    0  0.87925396630E+01 -0.29595685384E+01  0.10507951799E+02  0.81273249342E+02  0.80055332164E+02 0.  0.
         23    2    1    2    0    0 -0.47191748354E+02  0.55447238386E+02  0.12837310308E+03  0.17500287125E+03  0.94047296573E+02 0.  0.
        -11    1    3    3    0    0  0.78852841485E+01 -0.38970402514E+02  0.19295142310E+02  0.44194711165E+02  0.00000000000E+00 0.  1.
         12    1    3    3    0    0  0.90725551455E+00  0.36010833976E+02 -0.87871905116E+01  0.37078538176E+02  0.00000000000E+00 0. -1.
        -13    1    4    4    0    0 -0.35864917969E+02  0.28256119303E+02  0.13691981316E+03  0.14433203336E+03  0.00000000000E+00 0. -1.
         13    1    4    4    0    0 -0.11326830385E+02  0.27191119083E+02 -0.85467100763E+01  0.30670837887E+02  0.00000000000E+00 0.  1.
         21    1    1    2  503  502  0.17701018458E+03  0.12240727631E+03 -0.24788821262E+03  0.32827536108E+03  0.00000000000E+00 0. -1.
          1    1    1    2  501    0 -0.13861097589E+03 -0.17489494616E+03  0.52789787192E+02  0.22932075018E+03  0.00000000000E+00 0. -1.
<scales pt_clust_5="13000.00000" pt_clust_6="13000.00000" pt_clust_7="13000.00000" pt_clust_8="13000.00000" pt_clust_9="13000.00000" pt_clust_10="215.31157"></scales>
<clustering>
<clus scale="   80.055">  5  6 -1 -1</clus>
<clus scale="   80.591">  1  5  2 -1</clus>
<clus scale="   94.047">  7  8 -1 -1</clus>
<clus scale="  116.776">  1  7  2 -1</clus>
<clus scale="  215.312">  1 10  2 -1</clus>
<clus scale="  215.312">  2  5  1 -1</clus>
</clustering>
</event>
<event>
10    4  0.3403565E-005  0.9425410E+02  0.7546771E-02  0.1299204E+00
          2   -1    0    0  503    0 -0.00000000000E+00  0.00000000000E+00  0.55783143688E+03  0.55783143688E+03  0.00000000000E+00 0. -1.
         21   -1    0    0  501  502  0.00000000000E+00 -0.00000000000E+00 -0.54333407583E+02  0.54333407583E+02  0.00000000000E+00 0.  1.
         24    2    1    2    0    0 -0.35685051123E+02 -0.10866658929E+02  0.12465373247E+03  0.15285185846E+03  0.80209915009E+02 0.  0.
         23    2    1    2    0    0 -0.98043115724E+00 -0.45124828577E+02  0.81503833728E+02  0.13029067959E+03  0.91080046528E+02 0.  0.
        -11    1    3    3    0    0 -0.25591265530E+02  0.30291941810E+02  0.31962792127E+02  0.50932648572E+02  0.00000000000E+00 0.  1.
         12    1    3    3    0    0 -0.10093785593E+02 -0.41158600739E+02  0.92690940339E+02  0.10191920988E+03  0.00000000000E+00 0. -1.
        -13    1    4    4    0    0 -0.43106140392E+02 -0.79190649754E+01  0.47364512737E+02  0.64530984778E+02  0.00000000000E+00 0.  1.
         13    1    4    4    0    0  0.42125709235E+02 -0.37205763602E+02  0.34139320991E+02  0.65759694810E+02  0.00000000000E+00 0. -1.
         21    1    1    2  503  502  0.58205385366E+01 -0.25246816354E+02  0.83061521877E+01  0.27207950474E+02  0.00000000000E+00 0. -1.
          1    1    1    2  501    0  0.30844943744E+02  0.81238303860E+02  0.28903431091E+03  0.30181435594E+03  0.00000000000E+00 0. -1.
<scales pt_clust_5="13000.00000" pt_clust_6="13000.00000" pt_clust_7="13000.00000" pt_clust_8="13000.00000" pt_clust_9="25.90908" pt_clust_10="83.85580"></scales>
<clustering>
<clus scale="   25.909">  2  9  1 -1</clus>
<clus scale="   80.210">  5  6 -1 -1</clus>
<clus scale="   83.856">  2 10  1 -1</clus>
<clus scale="   83.797">  1  5  2 -1</clus>
<clus scale="   91.080">  7  8 -1 -1</clus>
<clus scale="   25.909">  2  5  1 -1</clus>
</clustering>
</event>
<event>
10    4  0.3403565E-005  0.1305964E+03  0.7546771E-02  0.1242943E+00
          4   -1    0    0  502    0 -0.00000000000E+00  0.00000000000E+00  0.23840560722E+03  0.23840560722E+03  0.00000000000E+00 0. -1.
         21   -1    0    0  503  502  0.00000000000E+00 -0.00000000000E+00 -0.25467786397E+03  0.25467786397E+03  0.00000000000E+00 0. -1.
         24    2    1    2    0    0  0.44123259101E+02  0.16393372982E+02  0.90498473392E+02  0.13004277600E+03  0.80656960219E+02 0.  0.
         23    2    1    2    0    0 -0.11423025456E+03 -0.73687193265E+02  0.57529541255E+02  0.17263001270E+03  0.89516030180E+02 0.  0.
        -13    1    3    3    0    0  0.31769138805E+02  0.27238025440E+02  0.40471806571E+01  0.42042453325E+02  0.00000000000E+00 0.  1.
         14    1    3    3    0    0  0.12354120296E+02 -0.10844652458E+02  0.86451292735E+02  0.88000322674E+02  0.00000000000E+00 0. -1.
        -11    1    4    4    0    0 -0.10773956540E+03 -0.93032248450E+02  0.49693417976E+02  0.15077217580E+03  0.00000000000E+00 0. -1.
         11    1    4    4    0    0 -0.64906891563E+01  0.19345055186E+02  0.78361232797E+01  0.21857836899E+02  0.00000000000E+00 0.  1.
         21    1    1    2  503  501  0.16221603446E+02  0.22451638948E+02 -0.78680692276E+02  0.83413834865E+02  0.00000000000E+00 0.  1.
          3    1    1    2  501    0  0.53885392015E+02  0.34842181334E+02 -0.85619579122E+02  0.10699684763E+03  0.00000000000E+00 0. -1.
<scales pt_clust_5="13000.00000" pt_clust_6="13000.00000" pt_clust_7="13000.00000" pt_clust_8="13000.00000" pt_clust_9="21.43159" pt_clust_10="100.53049"></scales>
<clustering>
<clus scale="   21.432">  9 10 -1 -1</clus>
<clus scale="   80.657">  5  6 -1 -1</clus>
<clus scale="   89.516">  7  8 -1 -1</clus>
<clus scale="   93.387">  1  5  2 -1</clus>
<clus scale="  100.530">  2  9  1 -1</clus>
<clus scale="  100.530">  2  5  1 -1</clus>
</clustering>
</event>
<event>
10    4  0.3403565E-005  0.1070476E+03  0.7546771E-02  0.1270212E+00
          2   -1    0    0  503    0 -0.00000000000E+00  0.00000000000E+00  0.54391943708E+03  0.54391943708E+03  0.00000000000E+00 0. -1.
         21   -1    0    0  501  502  0.00000000000E+00 -0.00000000000E+00 -0.22619570060E+03  0.22619570060E+03  0.00000000000E+00 0.  1.
         23    2    1    2    0    0 -0.64554981754E+02  0.54011229109E+01  0.23501819625E+03  0.26050666593E+03  0.91834920522E+02 0.  0.
         24    2    1    2    0    0  0.17538528708E+02 -0.42012526334E+02  0.16127555552E+02  0.95346007347E+02  0.82207729021E+02 0.  0.
        -13    1    4    4    0    0  0.15369058365E+01 -0.37290666049E+02 -0.28979655034E+02  0.47252261954E+02  0.00000000000E+00 0.  1.
         14    1    4    4    0    0  0.16001622871E+02 -0.47218602853E+01  0.45107210586E+02  0.48093745393E+02  0.00000000000E+00 0. -1.
        -11    1    3    3    0    0 -0.79048119564E+02 -0.17457046079E+02  0.14011588963E+03  0.16182032070E+03  0.00000000000E+00 0.  1.
         11    1    3    3    0    0  0.14493137811E+02  0.22858168990E+02  0.94902306615E+02  0.98686345226E+02  0.00000000000E+00 0. -1.
         21    1    1    2  503  502 -0.10937508978E+02  0.44961256501E+02 -0.16708551976E+03  0.17337449237E+03  0.00000000000E+00 0.  1.
          1    1    1    2  501    0  0.57953962024E+02 -0.83498530783E+01  0.23366350444E+03  0.24088797203E+03  0.00000000000E+00 0. -1.
<scales pt_clust_5="13000.00000" pt_clust_6="13000.00000" pt_clust_7="13000.00000" pt_clust_8="13000.00000" pt_clust_9="46.27249" pt_clust_10="57.50668"></scales>
<clustering>
<clus scale="   46.272">  2  9  1 -1</clus>
<clus scale="   57.507">  2 10  1 -1</clus>
<clus scale="   82.208">  5  6 -1 -1</clus>
<clus scale="   91.835">  7  8 -1 -1</clus>
<clus scale="   98.912">  2  5  1 -1</clus>
<clus scale="   46.272">  2  5  1 -1</clus>
</clustering>
</event>
<event>
10    4  0.3403565E-005  0.4960452E+03  0.7546771E-02  0.1069968E+00
          2   -1    0    0  503    0 -0.00000000000E+00  0.00000000000E+00  0.42355313283E+03  0.42355313283E+03  0.00000000000E+00 0. -1.
         21   -1    0    0  501  502  0.00000000000E+00 -0.00000000000E+00 -0.12702844044E+04  0.12702844044E+04  0.00000000000E+00 0. -1.
         23    2    1    2    0    0 -0.17398571152E+02  0.13742218346E+02 -0.13528073476E+03  0.16842287090E+03  0.97845937075E+02 0.  0.
         24    2    1    2    0    0  0.26188993253E+03  0.27609764097E+03 -0.18416547117E+03  0.43018288353E+03  0.79524514500E+02 0.  0.
        -13    1    4    4    0    0  0.26309407786E+02  0.13265436075E+02  0.47549046283E+01  0.29845700701E+02  0.00000000000E+00 0.  1.
         14    1    4    4    0    0  0.23558052474E+03  0.26283220489E+03 -0.18892037580E+03  0.40033718283E+03  0.00000000000E+00 0. -1.
        -13    1    3    3    0    0  0.40453927494E+02  0.70185753641E+01 -0.68010120015E+02  0.79442791205E+02  0.00000000000E+00 0. -1.
         13    1    3    3    0    0 -0.57852498647E+02  0.67236429817E+01 -0.67270614741E+02  0.88980079693E+02  0.00000000000E+00 0.  1.
         21    1    1    2  503  502  0.67073453674E+02  0.28620953600E+03 -0.88792278163E+02  0.30708112177E+03  0.00000000000E+00 0. -1.
          1    1    1    2  501    0 -0.31156481505E+03 -0.57604939531E+03 -0.43849278747E+03  0.78815066103E+03  0.00000000000E+00 0. -1.
<scales pt_clust_5="13000.00000" pt_clust_6="13000.00000" pt_clust_7="13000.00000" pt_clust_8="13000.00000" pt_clust_9="296.53628" pt_clust_10="489.62940"></scales>
<clustering>
<clus scale="   79.525">  5  6 -1 -1</clus>
<clus scale="   97.846">  7  8 -1 -1</clus>
<clus scale="  100.326">  1  7  2 -1</clus>
<clus scale="  296.536">  1  9  2 -1</clus>
<clus scale="  489.629">  2 10  1 -1</clus>
<clus scale="  489.629">  2  5  1 -1</clus>
</clustering>
</event>
<event>
10    4  0.3403565E-005  0.1351681E+03  0.7546771E-02  0.1222992E+00
         21   -1    0    0  503  502  0.00000000000E+00  0.00000000000E+00  0.13252061889E+03  0.13252061889E+03  0.00000000000E+00 0.  1.
         -1   -1    0    0    0  501 -0.00000000000E+00 -0.00000000000E+00 -0.55952725917E+03  0.55952725917E+03  0.00000000000E+00 0.  1.
         23    2    1    2    0    0 -0.25105175092E+02 -0.50170983169E+02 -0.71107734285E+02  0.12974565823E+03  0.92899023598E+02 0.  0.
         24    2    1    2    0    0  0.44140549446E+02  0.13145843978E+03 -0.20194585470E+03  0.25783323237E+03  0.80412300000E+02 0.  0.
        -11    1    4    4    0    0  0.53461229081E+02  0.11003306602E+03 -0.11534714010E+03  0.16813786415E+03  0.00000000000E+00 0.  1.
         12    1    4    4    0    0 -0.93206796344E+01  0.21425373755E+02 -0.86598714602E+02  0.89695368220E+02  0.00000000000E+00 0. -1.
        -11    1    3    3    0    0 -0.22873721222E+02 -0.75934259877E+02 -0.38579359433E+02  0.88190622630E+02  0.00000000000E+00 0.  1.
         11    1    3    3    0    0 -0.22314538696E+01  0.25763276708E+02 -0.32528374852E+02  0.41555035598E+02  0.00000000000E+00 0. -1.
         21    1    1    2  503  501 -0.26957652552E+02  0.18380620282E+02  0.60005371918E+02  0.68302319815E+02  0.00000000000E+00 0.  1.
         -2    1    1    2    0  502  0.79222781979E+01 -0.99668076892E+02 -0.21395842321E+03  0.23616666764E+03  0.00000000000E+00 0.  1.
<scales pt_clust_5="13000.00000" pt_clust_6="13000.00000" pt_clust_7="13000.00000" pt_clust_8="13000.00000" pt_clust_9="32.62763" pt_clust_10="96.74767"></scales>
<clustering>
<clus scale="   32.628">  1  9  2 -1</clus>
<clus scale="   80.412">  5  6 -1 -1</clus>
<clus scale="   92.899">  7  8 -1 -1</clus>
<clus scale="   96.748">  1 10  2 -1</clus>
<clus scale="  126.911">  1  5  2 -1</clus>
<clus scale="   32.628">  1  5  2 -1</clus>
</clustering>
</event>
<event>
10    4  0.3403565E-005  0.1939260E+03  0.7546771E-02  0.1178108E+00
          2   -1    0    0  502    0 -0.00000000000E+00  0.00000000000E+00  0.88694434560E+03  0.88694434560E+03  0.00000000000E+00 0. -1.
         21   -1    0    0  503  502  0.00000000000E+00 -0.00000000000E+00 -0.16149427346E+03  0.16149427346E+03  0.00000000000E+00 0. -1.
         23    2    1    2    0    0 -0.52378456516E+02 -0.59111099528E+02  0.11737147150E+02  0.12197751413E+03  0.92212409884E+02 0.  0.
         24    2    1    2    0    0 -0.12404948073E+03 -0.84292377021E+02  0.35729299301E+03  0.39617556190E+03  0.82482207192E+02 0.  0.
        -13    1    4    4    0    0 -0.55044629929E+02  0.20756958505E+01  0.75375660517E+02  0.93357966964E+02  0.00000000000E+00 0.  1.
         14    1    4    4    0    0 -0.69004850798E+02 -0.86368072872E+02  0.28191733249E+03  0.30281759494E+03  0.00000000000E+00 0. -1.
        -11    1    3    3    0    0 -0.73009755823E+02 -0.67126709921E+02  0.76857018528E+01  0.99476075733E+02  0.00000000000E+00 0. -1.
         11    1    3    3    0    0  0.20631299308E+02  0.80156103934E+01  0.40514452967E+01  0.22501438400E+02  0.00000000000E+00 0.  1.
         21    1    1    2  503  501  0.48191456152E+01  0.26085027810E+02 -0.59590930909E+02  0.65228305872E+02  0.00000000000E+00 0. -1.
          1    1    1    2  501    0  0.17160879163E+03  0.11731844874E+03  0.41601086289E+03  0.46505723714E+03  0.00000000000E+00 0. -1.
<scales pt_clust_5="13000.00000" pt_clust_6="13000.00000" pt_clust_7="13000.00000" pt_clust_8="13000.00000" pt_clust_9="26.52646" pt_clust_10="175.51067"></scales>
<clustering>
<clus scale="   26.526">  2  9  1 -1</clus>
<clus scale="   82.482">  5  6 -1 -1</clus>
<clus scale="   92.212">  7  8 -1 -1</clus>
<clus scale="  113.852">  1  7  2 -1</clus>
<clus scale="  175.511">  2 10  1 -1</clus>
<clus scale="   26.526">  2  5  1 -1</clus>
</clustering>
</event>
<event>
10    4  0.3403565E-005  0.1076223E+03  0.7546771E-02  0.1267620E+00
         21   -1    0    0  501  502  0.00000000000E+00  0.00000000000E+00  0.20038240105E+03  0.20038240105E+03  0.00000000000E+00 0. -1.
          2   -1    0    0  503    0 -0.00000000000E+00 -0.00000000000E+00 -0.61617347542E+03  0.61617347542E+03  0.00000000000E+00 0. -1.
         24    2    1    2    0    0  0.33524333119E+01 -0.52420670657E+02 -0.41897082031E+03  0.43069468828E+03  0.84865780602E+02 0.  0.
         23    2    1    2    0    0 -0.18700810321E+02  0.77806163648E+02 -0.10666491552E+03  0.16152492380E+03  0.91155786423E+02 0.  0.
        -13    1    3    3    0    0  0.36010961324E+02 -0.51619977293E+01 -0.96139177441E+02  0.10279191114E+03  0.00000000000E+00 0.  1.
         14    1    3    3    0    0 -0.32658528012E+02 -0.47258672927E+02 -0.32283164287E+03  0.32790277714E+03  0.00000000000E+00 0. -1.
        -13    1    4    4    0    0  0.20984496758E+02 -0.48298816135E+01 -0.88712365932E+00  0.21551423363E+02  0.00000000000E+00 0.  1.
         13    1    4    4    0    0 -0.39685307079E+02  0.82636045261E+02 -0.10577779186E+03  0.13997350044E+03  0.00000000000E+00 0. -1.
         21    1    1    2  503  502  0.74362364757E+02  0.24210584709E+02  0.12337283960E+03  0.14607111712E+03  0.00000000000E+00 0. -1.
          1    1    1    2  501    0 -0.59013987748E+02 -0.49596077700E+02 -0.13528178135E+02  0.78265147267E+02  0.00000000000E+00 0. -1.
<scales pt_clust_5="13000.00000" pt_clust_6="13000.00000" pt_clust_7="13000.00000" pt_clust_8="13000.00000" pt_clust_9="31.19811" pt_clust_10="77.08710"></scales>
<clustering>
<clus scale="   77.087">  1 10  2 -1</clus>
<clus scale="   31.198">  1  9  2 -1</clus>
<clus scale="   84.866">  5  6 -1 -1</clus>
<clus scale="   91.156">  7  8 -1 -1</clus>
<clus scale="  102.349">  2  5  1 -1</clus>
<clus scale="   77.087">  1  5  2 -1</clus>
</clustering>
</event>
<event>
10    4  0.3403565E-005  0.1889474E+03  0.7546771E-02  0.1160864E+00
         21   -1    0    0  501  502  0.00000000000E+00  0.00000000000E+00  0.47042300202E+02  0.47042300202E+02  0.00000000000E+00 0. -1.
          2   -1    0    0  503    0 -0.00000000000E+00 -0.00000000000E+00 -0.24242832785E+04  0.24242832785E+04  0.00000000000E+00 0. -1.
         24    2    1    2    0    0 -0.96638753121E+02  0.92529046113E+02 -0.91615285395E+03  0.92967274775E+03  0.83992220638E+02 0.  0.
         23    2    1    2    0    0  0.26153951152E+03 -0.48907563075E+02 -0.10598484568E+04  0.10970220512E+04  0.96869828423E+02 0.  0.
        -11    1    3    3    0    0 -0.33980084402E+02  0.25613633668E+02 -0.10408968739E+03  0.11245162243E+03  0.00000000000E+00 0.  1.
         12    1    3    3    0    0 -0.62658668719E+02  0.66915412445E+02 -0.81206316656E+03  0.81722112533E+03  0.00000000000E+00 0. -1.
        -13    1    4    4    0    0  0.15751025033E+03 -0.24337065704E+02 -0.80565431357E+03  0.82126770587E+03  0.00000000000E+00 0. -1.
         13    1    4    4    0    0  0.10402926119E+03 -0.24570497372E+02 -0.25419414319E+03  0.27575434531E+03  0.00000000000E+00 0.  1.
         21    1    1    2  503  502 -0.37574985587E+02 -0.28988146824E+02 -0.42578377704E+02  0.63758218655E+02  0.00000000000E+00 0. -1.
          1    1    1    2  501    0 -0.12732577282E+03 -0.14633336214E+02 -0.35866128987E+03  0.38087256111E+03  0.00000000000E+00 0. -1.
<scales pt_clust_5="13000.00000" pt_clust_6="13000.00000" pt_clust_7="13000.00000" pt_clust_8="13000.00000" pt_clust_9="47.45727" pt_clust_10="140.74326"></scales>
<clustering>
<clus scale="   47.457">  1  9  2 -1</clus>
<clus scale="   83.992">  5  6 -1 -1</clus>
<clus scale="   96.870">  7  8 -1 -1</clus>
<clus scale="  140.743">  1 10  2 -1</clus>
<clus scale="  182.680">  2  5  1 -1</clus>
<clus scale="   47.457">  1  5  2 -1</clus>
</clustering>
</event>
<event>
10    4  0.3403565E-005  0.2256419E+03  0.7546771E-02  0.1157157E+00
         21   -1    0    0  501  502  0.00000000000E+00  0.00000000000E+00  0.14315612896E+03  0.14315612896E+03  0.00000000000E+00 0. -1.
          2   -1    0    0  503    0 -0.00000000000E+00 -0.00000000000E+00 -0.99810152969E+03  0.99810152969E+03  0.00000000000E+00 0. -1.
         24    2    1    2    0    0  0.74780584835E+02  0.47360412681E+02 -0.32358073185E+03  0.34494787001E+03  0.80308146795E+02 0.  0.
         23    2    1    2    0    0  0.17025025819E+03 -0.32212052123E+02 -0.26162751817E+03  0.32577374622E+03  0.87503192758E+02 0.  0.
        -11    1    3    3    0    0  0.37782529354E+02 -0.13895404303E+02 -0.18091864975E+03  0.18534335599E+03  0.00000000000E+00 0.  1.
         12    1    3    3    0    0  0.36998055481E+02  0.61255816984E+02 -0.14266208210E+03  0.15960451401E+03  0.00000000000E+00 0. -1.
        -11    1    4    4    0    0  0.15099468491E+03 -0.39010169419E+02 -0.26250339124E+03  0.30533460105E+03  0.00000000000E+00 0. -1.
         11    1    4    4    0    0  0.19255573286E+02  0.67981172961E+01  0.87587306874E+00  0.20439145163E+02  0.00000000000E+00 0.  1.
         21    1    1    2  503  502 -0.41564602182E+00 -0.54802908270E+02  0.44321593019E+02  0.70483580529E+02  0.00000000000E+00 0. -1.
          1    1    1    2  501    0 -0.24461519701E+03  0.39654547711E+02 -0.31405874372E+03  0.40005246190E+03  0.00000000000E+00 0. -1.
<scales pt_clust_5="13000.00000" pt_clust_6="13000.00000" pt_clust_7="13000.00000" pt_clust_8="13000.00000" pt_clust_9="54.80448" pt_clust_10="207.98434"></scales>
<clustering>
<clus scale="   54.804">  1  9  2 -1</clus>
<clus scale="   80.308">  5  6 -1 -1</clus>
<clus scale="   87.503">  7  8 -1 -1</clus>
<clus scale="  116.947">  2  5  1 -1</clus>
<clus scale="  207.984">  1 10  2 -1</clus>
<clus scale="   54.804">  1  5  2 -1</clus>
</clustering>
</event>
<event>
10    4  0.3403565E-005  0.1129070E+03  0.7546771E-02  0.1256494E+00
         -1   -1    0    0    0  501 -0.00000000000E+00  0.00000000000E+00  0.70557565087E+02  0.70557565087E+02  0.00000000000E+00 0.  1.
         21   -1    0    0  503  502  0.00000000000E+00 -0.00000000000E+00 -0.32757303560E+03  0.32757303560E+03  0.00000000000E+00 0.  1.
         24    2    1    2    0    0  0.23177719797E+02 -0.73300839259E+02 -0.69438422601E+02  0.13127499125E+03  0.80630075421E+02 0.  0.
         23    2    1    2    0    0 -0.15751841794E+02  0.70895755964E+02 -0.13813811559E+03  0.17735826923E+03  0.84258459237E+02 0.  0.
        -13    1    3    3    0    0 -0.23790836480E+02 -0.56254852769E+02 -0.32912256361E+02  0.69381762584E+02  0.00000000000E+00 0.  1.
         14    1    3    3    0    0  0.46968556276E+02 -0.17045986490E+02 -0.36526166240E+02  0.61893228663E+02  0.00000000000E+00 0. -1.
        -11    1    4    4    0    0 -0.47664131869E+02  0.25717200440E+02 -0.52628384957E+02  0.75518148603E+02  0.00000000000E+00 0.  1.
         11    1    4    4    0    0  0.31912290075E+02  0.45178555524E+02 -0.85509730630E+02  0.10184012063E+03  0.00000000000E+00 0. -1.
         21    1    1    2  503  501  0.18247153200E+02 -0.92000690938E+01 -0.56811055217E+02  0.60374629325E+02  0.00000000000E+00 0.  1.
         -2    1    1    2    0  502 -0.25673031203E+02  0.11605152389E+02  0.73721228957E+01  0.29122710882E+02  0.00000000000E+00 0.  1.
<scales pt_clust_5="13000.00000" pt_clust_6="13000.00000" pt_clust_7="13000.00000" pt_clust_8="13000.00000" pt_clust_9="20.43526" pt_clust_10="27.34872"></scales>
<clustering>
<clus scale="   20.435">  2  9  1 -1</clus>
<clus scale="   27.349">  2 10  1 -1</clus>
<clus scale="   80.630">  5  6 -1 -1</clus>
<clus scale="   84.258">  7  8 -1 -1</clus>
<clus scale="  110.226">  1  5  2 -1</clus>
<clus scale="   20.435">  2  5  1 -1</clus>
</clustering>
</event>
<event>
10    4  0.3403565E-005  0.1428334E+03  0.7546771E-02  0.1211785E+00
          4   -1    0    0  503    0 -0.00000000000E+00  0.00000000000E+00  0.15052009482E+04  0.15052009482E+04  0.00000000000E+00 0. -1.
         21   -1    0    0  501  502  0.00000000000E+00 -0.00000000000E+00 -0.28881704893E+02  0.28881704893E+02  0.00000000000E+00 0.  1.
         23    2    1    2    0    0 -0.80693379705E+02  0.61831691485E+02  0.56364463829E+03  0.57994894766E+03  0.91164269471E+02 0.  0.
         24    2    1    2    0    0  0.30769800725E+02 -0.13893854426E+03  0.48218265995E+03  0.50913616791E+03  0.80428976111E+02 0.  0.
        -13    1    4    4    0    0  0.44987728135E+02 -0.81010086026E+02  0.19596179048E+03  0.21676612524E+03  0.00000000000E+00 0.  1.
         14    1    4    4    0    0 -0.14217927411E+02 -0.57928458229E+02  0.28622086947E+03  0.29237004268E+03  0.00000000000E+00 0. -1.
        -11    1    3    3    0    0 -0.99340088056E+02  0.42067631824E+02  0.48110280068E+03  0.49304973742E+03  0.00000000000E+00 0.  1.
         11    1    3    3    0    0  0.18646708352E+02  0.19764059661E+02  0.82541837604E+02  0.86899210248E+02  0.00000000000E+00 0. -1.
         21    1    1    2  503  502  0.15553991913E+02  0.15787845276E+02  0.24796875699E+02  0.33257597137E+02  0.00000000000E+00 0. -1.
          3    1    1    2  501    0  0.34369587067E+02  0.61319007495E+02  0.40569506936E+03  0.41173994037E+03  0.00000000000E+00 0. -1.
<scales pt_clust_5="13000.00000" pt_clust_6="13000.00000" pt_clust_7="13000.00000" pt_clust_8="13000.00000" pt_clust_9="22.16264" pt_clust_10="72.91884"></scales>
<clustering>
<clus scale="   22.163">  2  9  1 -1</clus>
<clus scale="   72.919">  2 10  1 -1</clus>
<clus scale="   80.429">  5  6 -1 -1</clus>
<clus scale="   91.164">  7  8 -1 -1</clus>
<clus scale="  136.232">  2  5  1 -1</clus>
<clus scale="   22.163">  2  5  1 -1</clus>
</clustering>
</event>
<event>
10    4  0.3403565E-005  0.1531716E+03  0.7546771E-02  0.1199834E+00
          2   -1    0    0  503    0 -0.00000000000E+00  0.00000000000E+00  0.51497005233E+03  0.51497005233E+03  0.00000000000E+00 0. -1.
         21   -1    0    0  501  502  0.00000000000E+00 -0.00000000000E+00 -0.28977025259E+03  0.28977025259E+03  0.00000000000E+00 0. -1.
         24    2    1    2    0    0 -0.71554530298E+02  0.92727137310E+02  0.40101818206E+03  0.43131407096E+03  0.10722813375E+03 0.  0.
         23    2    1    2    0    0  0.27866189216E+02 -0.86993120674E+02  0.52350915151E+02  0.13973245254E+03  0.91870628770E+02 0.  0.
        -13    1    3    3    0    0 -0.82472791478E+02  0.36855613340E+02  0.31851080348E+03  0.33107284622E+03  0.00000000000E+00 0.  1.
         14    1    3    3    0    0  0.10918261181E+02  0.55871523970E+02  0.82507378577E+02  0.10024122474E+03  0.00000000000E+00 0. -1.
        -13    1    4    4    0    0 -0.87224456485E+01 -0.77688425217E+02  0.38518683678E+01  0.78271382770E+02  0.00000000000E+00 0.  1.
         13    1    4    4    0    0  0.36588634865E+02 -0.93046954573E+01  0.48499046784E+02  0.61461069774E+02  0.00000000000E+00 0. -1.
         21    1    1    2  503  502  0.20378718338E+02 -0.11543214908E+02 -0.15291609859E+03  0.15469929276E+03  0.00000000000E+00 0. -1.
          1    1    1    2  501    0  0.23309622743E+02  0.58091982720E+01 -0.75253198876E+02  0.78994488657E+02  0.00000000000E+00 0. -1.
<scales pt_clust_5="13000.00000" pt_clust_6="13000.00000" pt_clust_7="13000.00000" pt_clust_8="13000.00000" pt_clust_9="23.42089" pt_clust_10="34.87714"></scales>
<clustering>
<clus scale="   23.421">  2  9  1 -1</clus>
<clus scale="   34.877">  2 10  1 -1</clus>
<clus scale="   91.871">  7  8 -1 -1</clus>
<clus scale="  107.228">  5  6 -1 -1</clus>
<clus scale="  142.842">  2  7  1 -1</clus>
<clus scale="   23.421">  2  5  1 -1</clus>
</clustering>
</event>
<event>
10    4  0.3403565E-005  0.1369840E+03  0.7546771E-02  0.1231164E+00
         21   -1    0    0  503  502  0.00000000000E+00  0.00000000000E+00  0.98415938366E+02  0.98415938366E+02  0.00000000000E+00 0.  1.
          2   -1    0    0  502    0 -0.00000000000E+00 -0.00000000000E+00 -0.15207628715E+04  0.15207628715E+04  0.00000000000E+00 0. -1.
         24    2    1    2    0    0  0.68314983869E+02  0.26428952558E+02 -0.68968211845E+03  0.69734213230E+03  0.72520331097E+02 0.  0.
         23    2    1    2    0    0 -0.10856105173E+02  0.85007962289E+02 -0.64306843838E+03  0.65521559266E+03  0.91794595501E+02 0.  0.
        -11    1    3    3    0    0  0.13048106964E+02 -0.17244841158E+02 -0.60874951890E+02  0.64601837509E+02  0.00000000000E+00 0.  1.
         12    1    3    3    0    0  0.55266876905E+02  0.43673793716E+02 -0.62880716656E+03  0.63274029479E+03  0.00000000000E+00 0. -1.
        -11    1    4    4    0    0 -0.35996099990E+02  0.13916736335E+01 -0.13628208436E+03  0.14096262798E+03  0.00000000000E+00 0.  1.
         11    1    4    4    0    0  0.25139994817E+02  0.83616288655E+02 -0.50678635402E+03  0.51425296469E+03  0.00000000000E+00 0. -1.
         21    1    1    2  503  501  0.98850879000E+01 -0.33174314324E+02  0.69104803641E+02  0.77289869840E+02  0.00000000000E+00 0.  1.
          1    1    1    2  501    0 -0.67343966596E+02 -0.78262600523E+02 -0.15870117995E+03  0.18933121506E+03  0.00000000000E+00 0. -1.
<scales pt_clust_5="13000.00000" pt_clust_6="13000.00000" pt_clust_7="13000.00000" pt_clust_8="13000.00000" pt_clust_9="34.61575" pt_clust_10="101.67779"></scales>
<clustering>
<clus scale="   34.616">  1  9  2 -1</clus>
<clus scale="   72.520">  5  6 -1 -1</clus>
<clus scale="   91.795">  7  8 -1 -1</clus>
<clus scale="  102.913">  2  5  1 -1</clus>
<clus scale="  101.678">  1 10  2 -1</clus>
<clus scale="   34.616">  1  5  2 -1</clus>
</clustering>
</event>
<event>
10    4  0.3403565E-005  0.3417522E+03  0.7546771E-02  0.1066573E+00
         21   -1    0    0  501  502  0.00000000000E+00  0.00000000000E+00  0.27852409485E+03  0.27852409485E+03  0.00000000000E+00 0.  1.
          2   -1    0    0  503    0 -0.00000000000E+00 -0.00000000000E+00 -0.61107791410E+03  0.61107791410E+03  0.00000000000E+00 0. -1.
         23    2    1    2    0    0  0.24686030256E+03  0.19947296625E+03 -0.17550087518E+03  0.37390114497E+03  0.90950732668E+02 0.  0.
         24    2    1    2    0    0 -0.23981383340E+03 -0.25347634434E+03 -0.70901009059E+02  0.36296753738E+03  0.70409859186E+02 0.  0.
        -13    1    4    4    0    0 -0.74335838022E+02 -0.70599717765E+02  0.10966621132E+02  0.10310384931E+03  0.00000000000E+00 0.  1.
         14    1    4    4    0    0 -0.16547799538E+03 -0.18287662658E+03 -0.81867630191E+02  0.25986368807E+03  0.00000000000E+00 0. -1.
        -11    1    3    3    0    0  0.10182890994E+03  0.79286499189E+02 -0.22002284023E+02  0.13091820483E+03  0.00000000000E+00 0.  1.
         11    1    3    3    0    0  0.14503139262E+03  0.12018646706E+03 -0.15349859116E+03  0.24298294013E+03  0.00000000000E+00 0. -1.
         21    1    1    2  503  502  0.86846005705E+01  0.26206146465E+02  0.24901001495E+02  0.37178545898E+02  0.00000000000E+00 0. -1.
          1    1    1    2  501    0 -0.15731069728E+02  0.27797231631E+02 -0.11105293650E+03  0.11555478072E+03  0.00000000000E+00 0. -1.
<scales pt_clust_5="13000.00000" pt_clust_6="13000.00000" pt_clust_7="13000.00000" pt_clust_8="13000.00000" pt_clust_9="27.60769" pt_clust_10="32.10892"></scales>
<clustering>
<clus scale="   27.608">  1  9  2 -1</clus>
<clus scale="   32.109">  1 10  2 -1</clus>
<clus scale="   70.410">  5  6 -1 -1</clus>
<clus scale="   90.951">  7  8 -1 -1</clus>
<clus scale="  336.868">  1  5  2 -1</clus>
<clus scale="   27.608">  1  5  2 -1</clus>
</clustering>
</event>
<event>
10    4  0.3403565E-005  0.1104930E+03  0.7546771E-02  0.1266767E+00
         21   -1    0    0  503  502  0.00000000000E+00  0.00000000000E+00  0.56498337979E+02  0.56498337979E+02  0.00000000000E+00 0. -1.
         -3   -1    0    0    0  501 -0.00000000000E+00 -0.00000000000E+00 -0.32284055622E+03  0.32284055622E+03  0.00000000000E+00 0.  1.
         24    2    1    2    0    0  0.40354533849E+02 -0.71404723396E+02 -0.16102072385E+03  0.19381554467E+03  0.70069029665E+02 0.  0.
         23    2    1    2    0    0 -0.14718439146E+02  0.34065478530E+02 -0.49526811766E+02  0.10817633765E+03  0.88725000223E+02 0.  0.
        -11    1    3    3    0    0  0.32330178765E+02 -0.54889251121E+02 -0.16332612615E+03  0.17530970832E+03  0.00000000000E+00 0.  1.
         12    1    3    3    0    0  0.80243550841E+01 -0.16515472275E+02  0.23054023007E+01  0.18505836343E+02  0.00000000000E+00 0. -1.
        -13    1    4    4    0    0 -0.52018523665E+02  0.14406284759E+02 -0.29200694619E+02  0.61368953153E+02  0.00000000000E+00 0.  1.
         13    1    4    4    0    0  0.37300084519E+02  0.19659193771E+02 -0.20326117147E+02  0.46807384493E+02  0.00000000000E+00 0. -1.
         21    1    1    2  503  501 -0.11296355525E+02  0.18598754218E+02 -0.65247219135E+01  0.22717687001E+02  0.00000000000E+00 0. -1.
         -4    1    1    2    0  502 -0.14339739178E+02  0.18740490648E+02 -0.49269960707E+02  0.54629324886E+02  0.00000000000E+00 0.  1.
<scales pt_clust_5="13000.00000" pt_clust_6="13000.00000" pt_clust_7="13000.00000" pt_clust_8="13000.00000" pt_clust_9="21.76054" pt_clust_10="24.79548"></scales>
<clustering>
<clus scale="   21.761">  1  9  2 -1</clus>
<clus scale="   24.795">  1 10  2 -1</clus>
<clus scale="   70.069">  5  6 -1 -1</clus>
<clus scale="   88.725">  7  8 -1 -1</clus>
<clus scale="   96.157">  2  5  1 -1</clus>
<clus scale="   21.761">  1  5  2 -1</clus>
</clustering>
</event>
<event>
10    4  0.3403565E-005  0.1017283E+03  0.7546771E-02  0.1282546E+00
         21   -1    0    0  503  502  0.00000000000E+00  0.00000000000E+00  0.77708575676E+03  0.77708575676E+03  0.00000000000E+00 0.  1.
         -1   -1    0    0    0  501 -0.00000000000E+00 -0.00000000000E+00 -0.31569680325E+02  0.31569680325E+02  0.00000000000E+00 0.  1.
         24    2    1    2    0    0 -0.13114785448E+02 -0.52791297120E+02  0.23808888228E+03  0.25735267891E+03  0.81149040824E+02 0.  0.
         23    2    1    2    0    0  0.86256332462E+01  0.24559345400E+02  0.27895404642E+03  0.29519921092E+03  0.93003500557E+02 0.  0.
        -11    1    3    3    0    0  0.27337602091E+02 -0.50174672694E+02  0.14171239922E+03  0.15279805745E+03  0.00000000000E+00 0.  1.
         12    1    3    3    0    0 -0.40452387539E+02 -0.26166244261E+01  0.96376483062E+02  0.10455462146E+03  0.00000000000E+00 0. -1.
        -13    1    4    4    0    0 -0.41395885674E+02  0.16997055758E+02  0.10763564608E+03  0.11656736920E+03  0.00000000000E+00 0. -1.
         13    1    4    4    0    0  0.50021518920E+02  0.75622896420E+01  0.17131840035E+03  0.17863184172E+03  0.00000000000E+00 0.  1.
         21    1    1    2  503  501  0.31834813430E+02  0.36850375380E+02  0.22123679165E+03  0.22653283093E+03  0.00000000000E+00 0.  1.
         -2    1    1    2    0  502 -0.27345661229E+02 -0.86184236599E+01  0.72363560789E+01  0.29570716321E+02  0.00000000000E+00 0.  1.
<scales pt_clust_5="13000.00000" pt_clust_6="13000.00000" pt_clust_7="13000.00000" pt_clust_8="13000.00000" pt_clust_9="41.73442" pt_clust_10="28.67165"></scales>
<clustering>
<clus scale="   28.672">  1 10  2 -1</clus>
<clus scale="   41.734">  1  9  2 -1</clus>
<clus scale="   81.149">  5  6 -1 -1</clus>
<clus scale="   91.017">  2  5  1 -1</clus>
<clus scale="   93.004">  7  8 -1 -1</clus>
<clus scale="   28.672">  1  5  2 -1</clus>
</clustering>
</event>
<event>
10    4  0.3403565E-005  0.1704811E+03  0.7546771E-02  0.1189126E+00
          2   -1    0    0  503    0 -0.00000000000E+00  0.00000000000E+00  0.25405995683E+03  0.25405995683E+03  0.00000000000E+00 0. -1.
         21   -1    0    0  501  502  0.00000000000E+00 -0.00000000000E+00 -0.66244791659E+03  0.66244791659E+03  0.00000000000E+00 0.  1.
         23    2    1    2    0    0 -0.90208226752E+01 -0.89621314984E+02 -0.34079817973E+03  0.36425849859E+03  0.91801411461E+02 0.  0.
         24    2    1    2    0    0  0.14587765085E+03  0.32265358707E+02  0.12035470429E+03  0.20375156958E+03  0.68615631387E+02 0.  0.
        -11    1    4    4    0    0  0.68642871310E+02  0.50157183985E+02  0.58533334010E+02  0.10321694666E+03  0.00000000000E+00 0.  1.
         12    1    4    4    0    0  0.77234779540E+02 -0.17891825278E+02  0.61821370277E+02  0.10053462292E+03  0.00000000000E+00 0. -1.
        -11    1    3    3    0    0 -0.36804881650E+02 -0.86060758876E+02 -0.30354867697E+03  0.31765209400E+03  0.00000000000E+00 0.  1.
         11    1    3    3    0    0  0.27784058975E+02 -0.35605561081E+01 -0.37249502753E+02  0.46606404584E+02  0.00000000000E+00 0. -1.
         21    1    1    2  503  502  0.22365374035E+02 -0.49316763381E+01 -0.17559281828E+03  0.17708012090E+03  0.00000000000E+00 0.  1.
          1    1    1    2  501    0 -0.15922220221E+03  0.62287632615E+02 -0.12351666042E+02  0.17141768435E+03  0.00000000000E+00 0. -1.
<scales pt_clust_5="13000.00000" pt_clust_6="13000.00000" pt_clust_7="13000.00000" pt_clust_8="13000.00000" pt_clust_9="22.90265" pt_clust_10="156.06311"></scales>
<clustering>
<clus scale="   22.903">  2  9  1 -1</clus>
<clus scale="   68.616">  5  6 -1 -1</clus>
<clus scale="   91.801">  7  8 -1 -1</clus>
<clus scale="  131.016">  1  7  2 -1</clus>
<clus scale="  156.063">  2 10  1 -1</clus>
<clus scale="   22.903">  2  5  1 -1</clus>
</clustering>
</event>
<event>
10    4  0.3403565E-005  0.1226611E+03  0.7546771E-02  0.1242767E+00
         -1   -1    0    0    0  501 -0.00000000000E+00  0.00000000000E+00  0.32494200820E+03  0.32494200820E+03  0.00000000000E+00 0.  1.
         21   -1    0    0  501  502  0.00000000000E+00 -0.00000000000E+00 -0.24676749702E+03  0.24676749702E+03  0.00000000000E+00 0.  1.
         23    2    1    2    0    0  0.55076744001E+02 -0.59278683361E+02  0.25124605653E+03  0.27957832257E+03  0.92152305983E+02 0.  0.
         24    2    1    2    0    0 -0.25532647153E+02  0.84908955138E+02 -0.21807730339E+02  0.12073700120E+03  0.78996200048E+02 0.  0.
        -11    1    4    4    0    0 -0.15133596606E+02  0.99501368576E+02 -0.20916705770E+02  0.10279618998E+03  0.00000000000E+00 0.  1.
         12    1    4    4    0    0 -0.10399050546E+02 -0.14592413438E+02 -0.89102456875E+00  0.17940811213E+02  0.00000000000E+00 0. -1.
        -13    1    3    3    0    0  0.57319084718E+02 -0.81428931831E+02  0.19199825434E+03  0.21628564003E+03  0.00000000000E+00 0.  1.
         13    1    3    3    0    0 -0.22423407165E+01  0.22150248470E+02  0.59247802188E+02  0.63292682541E+02  0.00000000000E+00 0. -1.
         21    1    1    2  503  502  0.10850339175E+02  0.17329076090E+02 -0.52840123143E+02  0.56657791627E+02  0.00000000000E+00 0.  1.
         -2    1    1    2    0  503 -0.40394436023E+02 -0.42959347867E+02 -0.98423691867E+02  0.11473638983E+03  0.00000000000E+00 0.  1.
<scales pt_clust_5="13000.00000" pt_clust_6="13000.00000" pt_clust_7="13000.00000" pt_clust_8="13000.00000" pt_clust_9="20.44570" pt_clust_10="47.88572"></scales>
<clustering>
<clus scale="   20.446">  2  9  1 -1</clus>
<clus scale="   47.886">  2 10  1 -1</clus>
<clus scale="   78.996">  5  6 -1 -1</clus>
<clus scale="   92.152">  7  8 -1 -1</clus>
<clus scale="  113.111">  2  5  1 -1</clus>
<clus scale="   20.446">  2  5  1 -1</clus>
</clustering>
</event>
<event>
10    4  0.3403565E-005  0.1388040E+03  0.7546771E-02  0.1223525E+00
          2   -1    0    0  502    0 -0.00000000000E+00  0.00000000000E+00  0.77376675426E+03  0.77376675426E+03  0.00000000000E+00 0. -1.
         21   -1    0    0  503  502  0.00000000000E+00 -0.00000000000E+00 -0.15922840418E+03  0.15922840418E+03  0.00000000000E+00 0. -1.
         23    2    1    2    0    0  0.33452314212E+02  0.69552020081E+02  0.16566750723E+03  0.20435588795E+03  0.91427923334E+02 0.  0.
         24    2    1    2    0    0  0.10693654343E+03 -0.52582314038E+02  0.36396563513E+03  0.39164937304E+03  0.81962941501E+02 0.  0.
        -11    1    4    4    0    0  0.10877942432E+02 -0.46232815831E+02  0.14114843895E+03  0.14892509764E+03  0.00000000000E+00 0.  1.
         12    1    4    4    0    0  0.96058601001E+02 -0.63494982077E+01  0.22281719618E+03  0.24272427540E+03  0.00000000000E+00 0. -1.
        -13    1    3    3    0    0  0.42062643458E+02  0.43332262315E+01  0.11113454353E+03  0.11890723102E+03  0.00000000000E+00 0.  1.
         13    1    3    3    0    0 -0.86103292465E+01  0.65218793849E+02  0.54532963705E+02  0.85448656931E+02  0.00000000000E+00 0. -1.
         21    1    1    2  503  501 -0.29447240762E+02 -0.41730153708E+01 -0.10913081957E+03  0.11311096245E+03  0.00000000000E+00 0. -1.
          1    1    1    2  501    0 -0.11094161688E+03 -0.12796690672E+02  0.19403602729E+03  0.22387893500E+03  0.00000000000E+00 0. -1.
<scales pt_clust_5="13000.00000" pt_clust_6="13000.00000" pt_clust_7="13000.00000" pt_clust_8="13000.00000" pt_clust_9="29.74145" pt_clust_10="112.02064"></scales>
<clustering>
<clus scale="   29.741">  2  9  1 -1</clus>
<clus scale="   81.963">  5  6 -1 -1</clus>
<clus scale="   91.428">  7  8 -1 -1</clus>
<clus scale="  115.901">  1  7  2 -1</clus>
<clus scale="  112.021">  2 10  1 -1</clus>
<clus scale="   29.741">  2  5  1 -1</clus>
</clustering>
</event>
<event>
10    4  0.3403565E-005  0.2540299E+03  0.7546771E-02  0.1122348E+00
         21   -1    0    0  501  502  0.00000000000E+00  0.00000000000E+00  0.23242858181E+03  0.23242858181E+03  0.00000000000E+00 0. -1.
          2   -1    0    0  503    0 -0.00000000000E+00 -0.00000000000E+00 -0.85792200222E+03  0.85792200222E+03  0.00000000000E+00 0. -1.
         23    2    1    2    0    0  0.76173994511E+01  0.16931164409E+03 -0.44162473212E+02  0.20077020130E+03  0.98152392172E+02 0.  0.
         24    2    1    2    0    0 -0.23321491773E+03 -0.18120213559E+03 -0.52935323897E+03  0.61144121166E+03  0.80137955531E+02 0.  0.
        -13    1    4    4    0    0 -0.40892205866E+02 -0.69614363916E+00 -0.53076616209E+02  0.67005852765E+02  0.00000000000E+00 0.  1.
         14    1    4    4    0    0 -0.19232271186E+03 -0.18050599195E+03 -0.47627662276E+03  0.54443535890E+03  0.00000000000E+00 0. -1.
        -13    1    3    3    0    0  0.49165643531E+01  0.37714529670E+02  0.31115123362E+02  0.49139691239E+02  0.00000000000E+00 0.  1.
         13    1    3    3    0    0  0.27008350980E+01  0.13159711442E+03 -0.75277596574E+02  0.15163051006E+03  0.00000000000E+00 0. -1.
         21    1    1    2  503  502 -0.15241965752E+02 -0.18401599847E+02  0.12525195802E+02  0.26978082341E+02  0.00000000000E+00 0. -1.
          1    1    1    2  501    0  0.24083948403E+03  0.30292091344E+02 -0.64502904033E+02  0.25116108873E+03  0.00000000000E+00 0. -1.
<scales pt_clust_5="13000.00000" pt_clust_6="13000.00000" pt_clust_7="13000.00000" pt_clust_8="13000.00000" pt_clust_9="23.89428" pt_clust_10="241.05828"></scales>
<clustering>
<clus scale="   23.894">  1  9  2 -1</clus>
<clus scale="   80.138">  5  6 -1 -1</clus>
<clus scale="   98.152">  7  8 -1 -1</clus>
<clus scale="  189.884">  2  7  1 -1</clus>
<clus scale="  241.058">  1 10  2 -1</clus>
<clus scale="   23.894">  1  5  2 -1</clus>
</clustering>
</event>
<event>
10    4  0.3403565E-005  0.1340943E+03  0.7546771E-02  0.1225549E+00
         21   -1    0    0  501  502  0.00000000000E+00  0.00000000000E+00  0.27485909446E+03  0.27485909446E+03  0.00000000000E+00 0.  1.
         -3   -1    0    0    0  501 -0.00000000000E+00 -0.00000000000E+00 -0.31220307557E+03  0.31220307557E+03  0.00000000000E+00 0.  1.
         23    2    1    2    0    0  0.78444301472E+02  0.29432318120E+02 -0.19037564865E+03  0.22739339679E+03  0.91897222599E+02 0.  0.
         24    2    1    2    0    0  0.56390536822E+02 -0.80435222417E+02  0.10000487682E+03  0.16041164109E+03  0.77982059233E+02 0.  0.
        -11    1    4    4    0    0 -0.30449271414E+01 -0.63487117850E+02  0.53145535317E+02  0.82851274211E+02  0.00000000000E+00 0.  1.
         12    1    4    4    0    0  0.59435463963E+02 -0.16948104567E+02  0.46859341499E+02  0.77560366881E+02  0.00000000000E+00 0. -1.
        -11    1    3    3    0    0  0.32016442538E+02  0.57580454732E+02 -0.13286542178E+03  0.14830300626E+03  0.00000000000E+00 0.  1.
         11    1    3    3    0    0  0.46427858934E+02 -0.28148136612E+02 -0.57510226864E+02  0.79090390528E+02  0.00000000000E+00 0. -1.
         21    1    1    2  503  502 -0.14499796758E+02 -0.17150685422E+02  0.56624389057E+02  0.60915610089E+02  0.00000000000E+00 0.  1.
         -4    1    1    2    0  503 -0.12033504154E+03  0.68153589719E+02 -0.35975983348E+01  0.13834152206E+03  0.00000000000E+00 0.  1.
<scales pt_clust_5="13000.00000" pt_clust_6="13000.00000" pt_clust_7="13000.00000" pt_clust_8="13000.00000" pt_clust_9="22.45863" pt_clust_10="109.08759"></scales>
<clustering>
<clus scale="   22.459">  1  9  2 -1</clus>
<clus scale="   77.982">  5  6 -1 -1</clus>
<clus scale="   91.897">  7  8 -1 -1</clus>
<clus scale="  123.237">  2  7  1 -1</clus>
<clus scale="  109.088">  1 10  2 -1</clus>
<clus scale="   22.459">  1  5  2 -1</clus>
</clustering>
</event>
<event>
10    4  0.3403565E-005  0.3443331E+03  0.7546771E-02  0.1099684E+00
          2   -1    0    0  503    0 -0.00000000000E+00  0.00000000000E+00  0.67443090264E+03  0.67443090264E+03  0.00000000000E+00 0. -1.
         21   -1    0    0  501  502  0.00000000000E+00 -0.00000000000E+00 -0.42244327418E+03  0.42244327418E+03  0.00000000000E+00 0. -1.
         23    2    1    2    0    0  0.70962224008E+02  0.77817072979E+02  0.15480277541E+03  0.20563738025E+03  0.85039395566E+02 0.  0.
         24    2    1    2    0    0  0.26803228268E+03 -0.80207331736E+02  0.25712396471E+03  0.38894984737E+03  0.83034510386E+02 0.  0.
        -11    1    4    4    0    0  0.13656500418E+03 -0.83008724027E+02  0.12938904607E+03  0.20562581033E+03  0.00000000000E+00 0.  1.
         12    1    4    4    0    0  0.13146727849E+03  0.28013922917E+01  0.12773491864E+03  0.18332403703E+03  0.00000000000E+00 0. -1.
        -11    1    3    3    0    0  0.14175824373E+02  0.28168872727E+02  0.11717326605E+03  0.12134254680E+03  0.00000000000E+00 0. -1.
         11    1    3    3    0    0  0.56786399635E+02  0.49648200253E+02  0.37629509365E+02  0.84294833454E+02  0.00000000000E+00 0.  1.
         21    1    1    2  503  502  0.53208222525E+02 -0.43590281113E+02 -0.68239251132E+02  0.96890778441E+02  0.00000000000E+00 0. -1.
          1    1    1    2  501    0 -0.39220272921E+03  0.45980539869E+02 -0.91699860536E+02  0.40539617076E+03  0.00000000000E+00 0. -1.
<scales pt_clust_5="13000.00000" pt_clust_6="13000.00000" pt_clust_7="13000.00000" pt_clust_8="13000.00000" pt_clust_9="68.78392" pt_clust_10="334.17146"></scales>
<clustering>
<clus scale="   68.784">  2  9  1 -1</clus>
<clus scale="   83.035">  5  6 -1 -1</clus>
<clus scale="   85.039">  7  8 -1 -1</clus>
<clus scale="  135.671">  1  7  2 -1</clus>
<clus scale="  334.171">  2 10  1 -1</clus>
<clus scale="   68.784">  2  5  1 -1</clus>
</clustering>
</event>
<event>
10    4  0.3403565E-005  0.1009525E+03  0.7546771E-02  0.1284664E+00
         21   -1    0    0  503  502  0.00000000000E+00  0.00000000000E+00  0.12152951957E+03  0.12152951957E+03  0.00000000000E+00 0.  1.
          2   -1    0    0  502    0 -0.00000000000E+00 -0.00000000000E+00 -0.39376123420E+03  0.39376123420E+03  0.00000000000E+00 0. -1.
         23    2    1    2    0    0 -0.12079044168E+02 -0.41094578449E+02 -0.20767971382E+03  0.23156443896E+03  0.93040626458E+02 0.  0.
         24    2    1    2    0    0 -0.53381350238E+02  0.32316402014E+02 -0.26724728052E+02  0.10525507302E+03  0.80439423878E+02 0.  0.
        -11    1    4    4    0    0 -0.28337978120E+02 -0.45886441884E+01  0.24210443826E+02  0.37553192270E+02  0.00000000000E+00 0.  1.
         12    1    4    4    0    0 -0.25043372118E+02  0.36905046203E+02 -0.50935171879E+02  0.67701880746E+02  0.00000000000E+00 0. -1.
        -13    1    3    3    0    0  0.17746495165E+02  0.24413557173E+02 -0.69193797611E+02  0.75490009222E+02  0.00000000000E+00 0.  1.
         13    1    3    3    0    0 -0.29825539333E+02 -0.65508135622E+02 -0.13848591621E+03  0.15607442974E+03  0.00000000000E+00 0. -1.
         21    1    1    2  503  501  0.22252306813E+02  0.10458478590E+02  0.63612968265E+02  0.68199374370E+02  0.00000000000E+00 0.  1.
          1    1    1    2  501    0  0.43208087593E+02 -0.16803021552E+01 -0.10144024102E+03  0.11027186743E+03  0.00000000000E+00 0. -1.
<scales pt_clust_5="13000.00000" pt_clust_6="13000.00000" pt_clust_7="13000.00000" pt_clust_8="13000.00000" pt_clust_9="24.58750" pt_clust_10="44.98270"></scales>
<clustering>
<clus scale="   24.587">  1  9  2 -1</clus>
<clus scale="   44.983">  1 10  2 -1</clus>
<clus scale="   80.439">  5  6 -1 -1</clus>
<clus scale="   89.473">  1  5  2 -1</clus>
<clus scale="   93.041">  7  8 -1 -1</clus>
<clus scale="   24.587">  1  5  2 -1</clus>
</clustering>
</event>
<event>
10    4  0.3403565E-005  0.4376264E+03  0.7546771E-02  0.1095012E+00
          2   -1    0    0  502    0 -0.00000000000E+00  0.00000000000E+00  0.12620600291E+04  0.12620600291E+04  0.00000000000E+00 0. -1.
         21   -1    0    0  503  502  0.00000000000E+00 -0.00000000000E+00 -0.27914403647E+03  0.27914403647E+03  0.00000000000E+00 0. -1.
         24    2    1    2    0    0 -0.27155606088E+02  0.19633173777E+02  0.35749981756E+01  0.74124110632E+02  0.66020562785E+02 0.  0.
         23    2    1    2    0    0  0.43878638555E+03 -0.29373761217E+02  0.74152721230E+03  0.86694782824E+03  0.91321521640E+02 0.  0.
        -11    1    3    3    0    0 -0.37191079947E+02 -0.35410064014E+00  0.23646252883E+02  0.44073201499E+02  0.00000000000E+00 0.  1.
         12    1    3    3    0    0  0.10035473859E+02  0.19987274417E+02 -0.20071254707E+02  0.30050909133E+02  0.00000000000E+00 0. -1.
        -11    1    4    4    0    0  0.37036515133E+03 -0.23308841981E+02  0.55009187884E+03  0.66356214675E+03  0.00000000000E+00 0. -1.
         11    1    4    4    0    0  0.68421234219E+02 -0.60649192363E+01  0.19143533346E+03  0.20338568149E+03  0.00000000000E+00 0.  1.
         21    1    1    2  503  501  0.18211529051E+02  0.32888873831E+02 -0.64123499954E+02  0.74331427126E+02  0.00000000000E+00 0.  1.
          1    1    1    2  501    0 -0.42984230851E+03 -0.23148286391E+02  0.30193728209E+03  0.52580069957E+03  0.00000000000E+00 0. -1.
<scales pt_clust_5="13000.00000" pt_clust_6="13000.00000" pt_clust_7="13000.00000" pt_clust_8="13000.00000" pt_clust_9="37.59439" pt_clust_10="427.99207"></scales>
<clustering>
<clus scale="   37.594">  2  9  1 -1</clus>
<clus scale="   66.021">  5  6 -1 -1</clus>
<clus scale="   74.648">  1  5  2 -1</clus>
<clus scale="   91.322">  7  8 -1 -1</clus>
<clus scale="  427.992">  2 10  1 -1</clus>
<clus scale="   37.594">  2  5  1 -1</clus>
</clustering>
</event>
<event>
10    4  0.3403565E-005  0.1398203E+03  0.7546771E-02  0.1229482E+00
         21   -1    0    0  503  502  0.00000000000E+00  0.00000000000E+00  0.87521117727E+03  0.87521117727E+03  0.00000000000E+00 0.  1.
         -1   -1    0    0    0  501 -0.00000000000E+00 -0.00000000000E+00 -0.98695401961E+02  0.98695401961E+02  0.00000000000E+00 0.  1.
         23    2    1    2    0    0  0.66140302728E+01  0.27049100982E+02  0.27377945543E+03  0.28976233341E+03  0.90728277763E+02 0.  0.
         24    2    1    2    0    0  0.27542212794E+02  0.72382583858E+02 -0.30947372070E+02  0.11609609305E+03  0.80763550268E+02 0.  0.
        -13    1    4    4    0    0  0.14727086466E+02  0.88734387860E+02 -0.31525552277E+02  0.95312848614E+02  0.00000000000E+00 0.  1.
         14    1    4    4    0    0  0.12815126328E+02 -0.16351804002E+02  0.57818020738E+00  0.20783244436E+02  0.00000000000E+00 0. -1.
        -13    1    3    3    0    0  0.33376667794E+02  0.43930424205E+02  0.22464588609E+03  0.23132154733E+03  0.00000000000E+00 0.  1.
         13    1    3    3    0    0 -0.26762637521E+02 -0.16881323224E+02  0.49133569344E+02  0.58440786078E+02  0.00000000000E+00 0. -1.
         21    1    1    2  503  501 -0.11960753523E+02  0.33277486272E+02  0.26712037788E+03  0.26945082482E+03  0.00000000000E+00 0.  1.
         -2    1    1    2    0  502 -0.22195489544E+02 -0.13270917111E+03  0.26656331406E+03  0.29859732795E+03  0.00000000000E+00 0.  1.
<scales pt_clust_5="13000.00000" pt_clust_6="13000.00000" pt_clust_7="13000.00000" pt_clust_8="13000.00000" pt_clust_9="35.36171" pt_clust_10="114.13570"></scales>
<clustering>
<clus scale="   35.362">  1  9  2 -1</clus>
<clus scale="   80.764">  5  6 -1 -1</clus>
<clus scale="   90.728">  7  8 -1 -1</clus>
<clus scale="  100.194">  2  7  1 -1</clus>
<clus scale="  114.136">  1 10  2 -1</clus>
<clus scale="   35.362">  1  5  2 -1</clus>
</clustering>
</event>
<event>
10    4  0.3403565E-005  0.2413096E+03  0.7546771E-02  0.1146627E+00
          2   -1    0    0  503    0 -0.00000000000E+00  0.00000000000E+00  0.23861521473E+04  0.23861521473E+04  0.00000000000E+00 0. -1.
         21   -1    0    0  501  502  0.00000000000E+00 -0.00000000000E+00 -0.31349271575E+03  0.31349271575E+03  0.00000000000E+00 0. -1.
         23    2    1    2    0    0  0.64991714524E+02 -0.10505295558E+03 -0.38922310431E+02  0.15789208770E+03  0.90304588350E+02 0.  0.
         24    2    1    2    0    0  0.19269120017E+03 -0.17641147723E+03  0.12362798564E+03  0.29973158994E+03  0.79399239662E+02 0.  0.
        -11    1    4    4    0    0 -0.24898429422E+01 -0.22917809675E+02  0.17285311167E+01  0.23117377403E+02  0.00000000000E+00 0.  1.
         12    1    4    4    0    0  0.19518104311E+03 -0.15349366755E+03  0.12189945452E+03  0.27661421254E+03  0.00000000000E+00 0. -1.
        -13    1    3    3    0    0  0.24214256623E+02 -0.24905449362E+01  0.21136694412E+02  0.32238065831E+02  0.00000000000E+00 0.  1.
         13    1    3    3    0    0  0.40777457901E+02 -0.10256241064E+03 -0.60059004843E+02  0.12565402187E+03  0.00000000000E+00 0. -1.
         21    1    1    2  503  502 -0.65412292593E+02  0.57336071489E+02 -0.10043043147E+03  0.13286257818E+03  0.00000000000E+00 0. -1.
          1    1    1    2  501    0 -0.19227062210E+03  0.22412836131E+03  0.20883841878E+04  0.21091586072E+04  0.00000000000E+00 0. -1.
<scales pt_clust_5="13000.00000" pt_clust_6="13000.00000" pt_clust_7="13000.00000" pt_clust_8="13000.00000" pt_clust_9="86.98387" pt_clust_10="227.87309"></scales>
<clustering>
<clus scale="   79.399">  5  6 -1 -1</clus>
<clus scale="   86.984">  2  9  1 -1</clus>
<clus scale="   90.305">  7  8 -1 -1</clus>
<clus scale="  122.609">  1  7  2 -1</clus>
<clus scale="  227.873">  2 10  1 -1</clus>
<clus scale="   86.984">  2  5  1 -1</clus>
</clustering>
</event>
<event>
10    4  0.3403565E-005  0.1073039E+03  0.7546771E-02  0.1267810E+00
         21   -1    0    0  501  502  0.00000000000E+00  0.00000000000E+00  0.19995077369E+03  0.19995077369E+03  0.00000000000E+00 0.  1.
          2   -1    0    0  503    0 -0.00000000000E+00 -0.00000000000E+00 -0.29046577811E+03  0.29046577811E+03  0.00000000000E+00 0. -1.
         23    2    1    2    0    0  0.35351278047E+02 -0.50833577856E+02 -0.23375024287E+03  0.25708789832E+03  0.87299747582E+02 0.  0.
         24    2    1    2    0    0 -0.15609579790E+02 -0.24475260347E+02  0.78136912806E+02  0.12449373473E+03  0.92469538194E+02 0.  0.
        -13    1    4    4    0    0  0.31053084856E+02 -0.36439908973E+02  0.30626695403E+02  0.56834457122E+02  0.00000000000E+00 0.  1.
         14    1    4    4    0    0 -0.46662664646E+02  0.11964648626E+02  0.47510217403E+02  0.67659277608E+02  0.00000000000E+00 0. -1.
        -11    1    3    3    0    0  0.22222424687E+02  0.21792167988E+02 -0.47943941092E+02  0.57160792787E+02  0.00000000000E+00 0.  1.
         11    1    3    3    0    0  0.13128853360E+02 -0.72625745843E+02 -0.18580630177E+03  0.19992710554E+03  0.00000000000E+00 0. -1.
         21    1    1    2  503  502 -0.22579708099E+02  0.47402097869E+02  0.61002669243E+02  0.80486817274E+02  0.00000000000E+00 0. -1.
          1    1    1    2  501    0  0.28380098423E+01  0.27906740333E+02  0.40956564032E+01  0.28348101476E+02  0.00000000000E+00 0. -1.
<scales pt_clust_5="13000.00000" pt_clust_6="13000.00000" pt_clust_7="13000.00000" pt_clust_8="13000.00000" pt_clust_9="61.99056" pt_clust_10="28.05068"></scales>
<clustering>
<clus scale="   28.051">  1 10  2 -1</clus>
<clus scale="   61.991">  1  9  2 -1</clus>
<clus scale="   87.300">  7  8 -1 -1</clus>
<clus scale="   92.470">  5  6 -1 -1</clus>
<clus scale="  102.882">  2  7  1 -1</clus>
<clus scale="   28.051">  1  5  2 -1</clus>
</clustering>
</event>
<event>
10    4  0.3403565E-005  0.1406498E+03  0.7546771E-02  0.1229450E+00
          2   -1    0    0  503    0 -0.00000000000E+00  0.00000000000E+00  0.22571441956E+03  0.22571441956E+03  0.00000000000E+00 0. -1.
         21   -1    0    0  501  502  0.00000000000E+00 -0.00000000000E+00 -0.27785063074E+03  0.27785063074E+03  0.00000000000E+00 0. -1.
         23    2    1    2    0    0 -0.22935379943E+02 -0.45974905001E+02  0.19612582246E+02  0.10693444818E+03  0.91709319496E+02 0.  0.
         24    2    1    2    0    0  0.98819255280E+02  0.26357980152E+02 -0.22026269386E+02  0.12968185880E+03  0.76630539772E+02 0.  0.
        -11    1    4    4    0    0  0.42129181704E+02 -0.26922868056E+02 -0.82654760123E+01  0.50675702946E+02  0.00000000000E+00 0.  1.
         12    1    4    4    0    0  0.56690073576E+02  0.53280848208E+02 -0.13760793374E+02  0.79006155849E+02  0.00000000000E+00 0. -1.
        -11    1    3    3    0    0 -0.23509924600E+02  0.18042320664E+02  0.29894523028E+02  0.42094232345E+02  0.00000000000E+00 0.  1.
         11    1    3    3    0    0  0.57454465722E+00 -0.64017225665E+02 -0.10281940782E+02  0.64840215836E+02  0.00000000000E+00 0. -1.
         21    1    1    2  503  502  0.41551753724E+02  0.41938368853E+02 -0.11607796354E+03  0.13022852468E+03  0.00000000000E+00 0. -1.
          1    1    1    2  501    0 -0.11743562906E+03 -0.22321444005E+02  0.66355439506E+02  0.13672021865E+03  0.00000000000E+00 0. -1.
<scales pt_clust_5="13000.00000" pt_clust_6="13000.00000" pt_clust_7="13000.00000" pt_clust_8="13000.00000" pt_clust_9="59.03706" pt_clust_10="117.94126"></scales>
<clustering>
<clus scale="   59.037">  2  9  1 -1</clus>
<clus scale="   76.631">  5  6 -1 -1</clus>
<clus scale="   91.709">  7  8 -1 -1</clus>
<clus scale="   98.497">  1  7  2 -1</clus>
<clus scale="  117.941">  2 10  1 -1</clus>
<clus scale="   59.037">  2  5  1 -1</clus>
</clustering>
</event>
<event>
10    4  0.3403565E-005  0.4138276E+03  0.7546771E-02  0.1046447E+00
          2   -1    0    0  503    0 -0.00000000000E+00  0.00000000000E+00  0.58175311419E+03  0.58175311419E+03  0.00000000000E+00 0. -1.
         21   -1    0    0  501  502  0.00000000000E+00 -0.00000000000E+00 -0.10080699459E+04  0.10080699459E+04  0.00000000000E+00 0. -1.
         23    2    1    2    0    0  0.28755899922E+03  0.14097940496E+03  0.22484658994E+03  0.40744779487E+03  0.11354446654E+03 0.  0.
         24    2    1    2    0    0  0.11316760578E+03 -0.41517645668E+03 -0.30615175418E+03  0.53451741201E+03  0.82471631346E+02 0.  0.
        -13    1    4    4    0    0  0.23338229026E+02 -0.18561152762E+02 -0.33835623515E+02  0.45100318674E+02  0.00000000000E+00 0.  1.
         14    1    4    4    0    0  0.89829376750E+02 -0.39661530392E+03 -0.27231613067E+03  0.48941709334E+03  0.00000000000E+00 0. -1.
        -11    1    3    3    0    0  0.97355543011E+02  0.55150887083E+01  0.11072204758E+03  0.14753945160E+03  0.00000000000E+00 0.  1.
         11    1    3    3    0    0  0.19020345621E+03  0.13546431625E+03  0.11412454236E+03  0.25990834327E+03  0.00000000000E+00 0. -1.
         21    1    1    2  503  502 -0.60168239905E+02  0.62774395869E+01 -0.17016349758E+03  0.18059689712E+03  0.00000000000E+00 0.  1.
          1    1    1    2  501    0 -0.34055836509E+03  0.26791961213E+03 -0.17484816992E+03  0.46726095613E+03  0.00000000000E+00 0. -1.
<scales pt_clust_5="13000.00000" pt_clust_6="13000.00000" pt_clust_7="13000.00000" pt_clust_8="13000.00000" pt_clust_9="60.49482" pt_clust_10="405.52662"></scales>
<clustering>
<clus scale="   60.495">  2  9  1 -1</clus>
<clus scale="   82.472">  5  6 -1 -1</clus>
<clus scale="  113.544">  7  8 -1 -1</clus>
<clus scale="  334.517">  1  7  2 -1</clus>
<clus scale="  405.527">  2 10  1 -1</clus>
<clus scale="   60.495">  2  5  1 -1</clus>
</clustering>
</event>
<event>
10    4  0.3403565E-005  0.1086463E+03  0.7546771E-02  0.1268239E+00
         21   -1    0    0  501  502  0.00000000000E+00  0.00000000000E+00  0.42910728678E+02  0.42910728678E+02  0.00000000000E+00 0.  1.
          2   -1    0    0  503    0 -0.00000000000E+00 -0.00000000000E+00 -0.51212910209E+03  0.51212910209E+03  0.00000000000E+00 0. -1.
         23    2    1    2    0    0  0.13455074869E+02  0.63676120898E+02 -0.26967733245E+03  0.29206069500E+03  0.91312094020E+02 0.  0.
         24    2    1    2    0    0 -0.20738140252E+01 -0.49141524558E+02 -0.99383415850E+02  0.13598483029E+03  0.78712264507E+02 0.  0.
        -11    1    4    4    0    0  0.48972301848E+01 -0.63146887416E+02 -0.40780514263E+02  0.75329692667E+02  0.00000000000E+00 0.  1.
         12    1    4    4    0    0 -0.69710442100E+01  0.14005362858E+02 -0.58602901587E+02  0.60655137628E+02  0.00000000000E+00 0. -1.
        -13    1    3    3    0    0  0.33147669795E+02  0.75854271272E+02 -0.16203133823E+03  0.18195272202E+03  0.00000000000E+00 0. -1.
         13    1    3    3    0    0 -0.19692594926E+02 -0.12178150374E+02 -0.10764599422E+03  0.11010797298E+03  0.00000000000E+00 0.  1.
         21    1    1    2  503  502  0.39329472988E+01 -0.35294194794E+02 -0.15961446198E+02  0.38934766281E+02  0.00000000000E+00 0.  1.
          1    1    1    2  501    0 -0.15314208142E+02  0.20759598454E+02 -0.84196178913E+02  0.88059539191E+02  0.00000000000E+00 0. -1.
<scales pt_clust_5="13000.00000" pt_clust_6="13000.00000" pt_clust_7="13000.00000" pt_clust_8="13000.00000" pt_clust_9="29.47736" pt_clust_10="25.79703"></scales>
<clustering>
<clus scale="   25.797">  1 10  2 -1</clus>
<clus scale="   29.477">  1  9  2 -1</clus>
<clus scale="   78.712">  5  6 -1 -1</clus>
<clus scale="   91.312">  7  8 -1 -1</clus>
<clus scale="   98.294">  1  5  2 -1</clus>
<clus scale="   25.797">  1  5  2 -1</clus>
</clustering>
</event>
<event>
10    4  0.3403565E-005  0.1634707E+03  0.7546771E-02  0.1194753E+00
         21   -1    0    0  501  502  0.00000000000E+00  0.00000000000E+00  0.92771961344E+02  0.92771961344E+02  0.00000000000E+00 0.  1.
          2   -1    0    0  503    0 -0.00000000000E+00 -0.00000000000E+00 -0.10941006549E+04  0.10941006549E+04  0.00000000000E+00 0. -1.
         24    2    1    2    0    0  0.32087271150E+02  0.93883233515E+02 -0.17912595081E+03  0.21978730291E+03  0.79854228201E+02 0.  0.
         23    2    1    2    0    0 -0.50370272505E+02  0.10674976604E+03 -0.70307257050E+02  0.16391238004E+03  0.89395083954E+02 0.  0.
        -11    1    3    3    0    0  0.56341664987E+02  0.83240422801E+02 -0.14816737172E+03  0.17904446723E+03  0.00000000000E+00 0.  1.
         12    1    3    3    0    0 -0.24254393837E+02  0.10642810714E+02 -0.30958579087E+02  0.40742835682E+02  0.00000000000E+00 0. -1.
        -11    1    4    4    0    0 -0.54694490104E+02  0.78950437778E+02 -0.90095072368E+01  0.96466730502E+02  0.00000000000E+00 0.  1.
         11    1    4    4    0    0  0.43242175986E+01  0.27799328261E+02 -0.61297749814E+02  0.67445649539E+02  0.00000000000E+00 0. -1.
         21    1    1    2  503  502  0.12079850747E+02  0.17282914722E+02 -0.82365155979E+00  0.21102140585E+02  0.00000000000E+00 0. -1.
          1    1    1    2  501    0  0.62031506078E+01 -0.21791591428E+03 -0.75107183411E+03  0.78207079268E+03  0.00000000000E+00 0. -1.
<scales pt_clust_5="13000.00000" pt_clust_6="13000.00000" pt_clust_7="13000.00000" pt_clust_8="13000.00000" pt_clust_9="21.08606" pt_clust_10="136.86206"></scales>
<clustering>
<clus scale="   21.086">  1  9  2 -1</clus>
<clus scale="   79.854">  5  6 -1 -1</clus>
<clus scale="   89.395">  7  8 -1 -1</clus>
<clus scale="  131.288">  2  5  1 -1</clus>
<clus scale="  136.862">  1 10  2 -1</clus>
<clus scale="   21.086">  1  5  2 -1</clus>
</clustering>
</event>
<event>
10    4  0.3403565E-005  0.1267808E+03  0.7546771E-02  0.1254859E+00
         21   -1    0    0  503  502  0.00000000000E+00  0.00000000000E+00  0.36829805124E+03  0.36829805124E+03  0.00000000000E+00 0. -1.
          2   -1    0    0  502    0 -0.00000000000E+00 -0.00000000000E+00 -0.19631628248E+03  0.19631628248E+03  0.00000000000E+00 0. -1.
         24    2    1    2    0    0  0.11877830002E+02  0.16458240227E+02 -0.11733352225E+03  0.14195397964E+03  0.77277554155E+02 0.  0.
         23    2    1    2    0    0  0.27856816111E+02  0.56363307925E+02  0.82851427647E+02  0.13631789476E+03  0.88121420124E+02 0.  0.
        -13    1    3    3    0    0  0.23188677913E+02  0.35469687373E+02 -0.11119496504E+03  0.11899636026E+03  0.00000000000E+00 0.  1.
         14    1    3    3    0    0 -0.11310847911E+02 -0.19011447146E+02 -0.61385572117E+01  0.22957619382E+02  0.00000000000E+00 0. -1.
        -13    1    4    4    0    0 -0.43715499831E+01 -0.22296232826E+02  0.12226715880E+02  0.25801647790E+02  0.00000000000E+00 0.  1.
         13    1    4    4    0    0  0.32228366094E+02  0.78659540751E+02  0.70624711767E+02  0.11051624697E+03  0.00000000000E+00 0. -1.
         21    1    1    2  503  501  0.47386006581E+02  0.64245473159E+01  0.14665669328E+03  0.15425593703E+03  0.00000000000E+00 0. -1.
          1    1    1    2  501    0 -0.87120652694E+02 -0.79246095468E+02  0.59807170090E+02  0.13208652228E+03  0.00000000000E+00 0. -1.
<scales pt_clust_5="13000.00000" pt_clust_6="13000.00000" pt_clust_7="13000.00000" pt_clust_8="13000.00000" pt_clust_9="47.81954" pt_clust_10="91.14816"></scales>
<clustering>
<clus scale="   47.820">  1  9  2 -1</clus>
<clus scale="   77.278">  5  6 -1 -1</clus>
<clus scale="   80.415">  2  5  1 -1</clus>
<clus scale="   88.121">  7  8 -1 -1</clus>
<clus scale="   91.148">  1 10  2 -1</clus>
<clus scale="   47.820">  1  5  2 -1</clus>
</clustering>
</event>
<event>
10    4  0.3403565E-005  0.1449526E+03  0.7546771E-02  0.1226674E+00
         21   -1    0    0  503  502  0.00000000000E+00  0.00000000000E+00  0.69164614479E+03  0.69164614479E+03  0.00000000000E+00 0. -1.
         -3   -1    0    0    0  501 -0.00000000000E+00 -0.00000000000E+00 -0.18209870232E+03  0.18209870232E+03  0.00000000000E+00 0.  1.
         24    2    1    2    0    0 -0.11950475780E+01 -0.53704618157E+02 -0.19775900322E+02  0.98532254388E+02  0.80199156922E+02 0.  0.
         23    2    1    2    0    0  0.11964419969E+03 -0.92627648660E+02  0.47540112844E+03  0.50695828193E+03  0.90032499031E+02 0.  0.
        -13    1    3    3    0    0 -0.38257894562E+02 -0.11079207946E+02 -0.49692858106E+01  0.40138624123E+02  0.00000000000E+00 0.  1.
         14    1    3    3    0    0  0.37062846984E+02 -0.42625410211E+02 -0.14806614512E+02  0.58393630265E+02  0.00000000000E+00 0. -1.
        -11    1    4    4    0    0  0.93810675150E+02 -0.10886306013E+03  0.41699145342E+03  0.44105949809E+03  0.00000000000E+00 0. -1.
         11    1    4    4    0    0  0.25833524537E+02  0.16235411468E+02  0.58409675026E+02  0.65898783844E+02  0.00000000000E+00 0.  1.
         21    1    1    2  503  501 -0.35116672964E+02  0.34213146979E+02  0.10788121434E+03  0.11849926816E+03  0.00000000000E+00 0.  1.
         -4    1    1    2    0  502 -0.83332479144E+02  0.11211911984E+03 -0.53958999995E+02  0.14975504263E+03  0.00000000000E+00 0.  1.
<scales pt_clust_5="13000.00000" pt_clust_6="13000.00000" pt_clust_7="13000.00000" pt_clust_8="13000.00000" pt_clust_9="49.02775" pt_clust_10="113.60196"></scales>
<clustering>
<clus scale="   49.028">  1  9  2 -1</clus>
<clus scale="   80.199">  5  6 -1 -1</clus>
<clus scale="   90.032">  7  8 -1 -1</clus>
<clus scale="   95.311">  2  5  1 -1</clus>
<clus scale="  113.602">  1 10  2 -1</clus>
<clus scale="   49.028">  1  5  2 -1</clus>
</clustering>
</event>
<event>
10    4  0.3403565E-005  0.1518414E+03  0.7546771E-02  0.1199798E+00
          2   -1    0    0  503    0 -0.00000000000E+00  0.00000000000E+00  0.36826427614E+03  0.36826427614E+03  0.00000000000E+00 0. -1.
         21   -1    0    0  501  502  0.00000000000E+00 -0.00000000000E+00 -0.14002185050E+03  0.14002185050E+03  0.00000000000E+00 0. -1.
         24    2    1    2    0    0  0.94888281070E+02 -0.93512688919E+02  0.79089742479E+02  0.17572559237E+03  0.82920971875E+02 0.  0.
         23    2    1    2    0    0 -0.92665458723E+01  0.11808701063E+03  0.14140915380E+02  0.15042633399E+03  0.91638995616E+02 0.  0.
        -11    1    3    3    0    0  0.62113531832E+02 -0.85105727386E+02  0.19429152304E+02  0.10713807740E+03  0.00000000000E+00 0.  1.
         12    1    3    3    0    0  0.32774749238E+02 -0.84069615331E+01  0.59660590175E+02  0.68587514970E+02  0.00000000000E+00 0. -1.
        -13    1    4    4    0    0  0.25137726671E+02  0.70880387189E+02 -0.25974065297E+02  0.79564983871E+02  0.00000000000E+00 0.  1.
         13    1    4    4    0    0 -0.34404272543E+02  0.47206623441E+02  0.40114980677E+02  0.70861350119E+02  0.00000000000E+00 0. -1.
         21    1    1    2  503  502  0.78977728661E+01 -0.25488536255E+02  0.17339742005E+02  0.31823056885E+02  0.00000000000E+00 0. -1.
          1    1    1    2  501    0 -0.93519508064E+02  0.91421454362E+00  0.11767202577E+03  0.15031114339E+03  0.00000000000E+00 0. -1.
<scales pt_clust_5="13000.00000" pt_clust_6="13000.00000" pt_clust_7="13000.00000" pt_clust_8="13000.00000" pt_clust_9="26.68408" pt_clust_10="90.88944"></scales>
<clustering>
<clus scale="   26.684">  1  9  2 -1</clus>
<clus scale="   82.921">  5  6 -1 -1</clus>
<clus scale="   90.889">  2 10  1 -1</clus>
<clus scale="   91.639">  7  8 -1 -1</clus>
<clus scale="  146.745">  1  5  2 -1</clus>
<clus scale="   90.889">  2  5  1 -1</clus>
</clustering>
</event>
<event>
10    4  0.3403565E-005  0.1229596E+03  0.7546771E-02  0.1241642E+00
         21   -1    0    0  501  502  0.00000000000E+00  0.00000000000E+00  0.41072495529E+02  0.41072495529E+02  0.00000000000E+00 0. -1.
          2   -1    0    0  503    0 -0.00000000000E+00 -0.00000000000E+00 -0.10076584124E+04  0.10076584124E+04  0.00000000000E+00 0. -1.
         24    2    1    2    0    0 -0.27084566330E+02 -0.75663004224E+02 -0.30496476246E+03  0.32584334875E+03  0.81926293958E+02 0.  0.
         23    2    1    2    0    0  0.52818409760E+02  0.64961616930E+02 -0.21005137635E+03  0.24447161493E+03  0.92924666890E+02 0.  0.
        -13    1    3    3    0    0  0.15810238610E+02 -0.68898084554E+02 -0.20530284471E+03  0.21713168296E+03  0.00000000000E+00 0.  1.
         14    1    3    3    0    0 -0.42894804940E+02 -0.67649196706E+01 -0.99661917747E+02  0.10871166579E+03  0.00000000000E+00 0. -1.
        -11    1    4    4    0    0  0.78398063025E+02  0.36345983630E+02 -0.15286278201E+03  0.17559702998E+03  0.00000000000E+00 0. -1.
         11    1    4    4    0    0 -0.25579653264E+02  0.28615633300E+02 -0.57188594334E+02  0.68874584951E+02  0.00000000000E+00 0.  1.
         21    1    1    2  503  502  0.45277723533E+02  0.22095168755E+02 -0.51918477574E+02  0.72344986311E+02  0.00000000000E+00 0. -1.
          1    1    1    2  501    0 -0.71011566963E+02 -0.11393781461E+02 -0.39965130049E+03  0.40607095794E+03  0.00000000000E+00 0. -1.
<scales pt_clust_5="13000.00000" pt_clust_6="13000.00000" pt_clust_7="13000.00000" pt_clust_8="13000.00000" pt_clust_9="50.38123" pt_clust_10="66.92300"></scales>
<clustering>
<clus scale="   50.381">  1  9  2 -1</clus>
<clus scale="   66.923">  1 10  2 -1</clus>
<clus scale="   81.926">  5  6 -1 -1</clus>
<clus scale="   92.925">  7  8 -1 -1</clus>
<clus scale="  114.874">  2  5  1 -1</clus>
<clus scale="   50.381">  1  5  2 -1</clus>
</clustering>
</event>
<event>
10    4  0.3403565E-005  0.1937365E+03  0.7546771E-02  0.1156100E+00
         -1   -1    0    0    0  501 -0.00000000000E+00  0.00000000000E+00  0.25176652374E+03  0.25176652374E+03  0.00000000000E+00 0.  1.
         21   -1    0    0  503  502  0.00000000000E+00 -0.00000000000E+00 -0.49585453715E+03  0.49585453715E+03  0.00000000000E+00 0. -1.
         23    2    1    2    0    0 -0.16972534582E+03  0.24023211901E+02  0.65452815872E+02  0.20572285757E+03  0.93026960047E+02 0.  0.
         24    2    1    2    0    0  0.17019955900E+03  0.47585080969E+02 -0.28610835353E+02  0.19759027251E+03  0.83612834412E+02 0.  0.
        -11    1    4    4    0    0  0.10802520656E+03  0.24043664744E+02 -0.57949235195E+02  0.12492260374E+03  0.00000000000E+00 0.  1.
         12    1    4    4    0    0  0.62174352440E+02  0.23541416225E+02  0.29338399843E+02  0.72667668770E+02  0.00000000000E+00 0. -1.
        -13    1    3    3    0    0 -0.17958682130E+02  0.99489023389E+01  0.48127429426E+02  0.52323459220E+02  0.00000000000E+00 0. -1.
         13    1    3    3    0    0 -0.15176666369E+03  0.14074309562E+02  0.17325386446E+02  0.15339939835E+03  0.00000000000E+00 0.  1.
         21    1    1    2  503  501  0.66869304182E+02 -0.12805642858E+02 -0.23325331219E+03  0.24298682265E+03  0.00000000000E+00 0. -1.
         -2    1    1    2    0  502 -0.67343517358E+02 -0.58802650012E+02 -0.47676681735E+02  0.10132110817E+03  0.00000000000E+00 0.  1.
<scales pt_clust_5="13000.00000" pt_clust_6="13000.00000" pt_clust_7="13000.00000" pt_clust_8="13000.00000" pt_clust_9="68.08442" pt_clust_10="78.81742"></scales>
<clustering>
<clus scale="   68.084">  2  9  1 -1</clus>
<clus scale="   78.817">  2 10  1 -1</clus>
<clus scale="   83.613">  5  6 -1 -1</clus>
<clus scale="   93.027">  7  8 -1 -1</clus>
<clus scale="  189.396">  2  5  1 -1</clus>
<clus scale="   68.084">  2  5  1 -1</clus>
</clustering>
</event>
<event>
10    4  0.3403565E-005  0.1147006E+03  0.7546771E-02  0.1260607E+00
          2   -1    0    0  503    0 -0.00000000000E+00  0.00000000000E+00  0.77829452268E+03  0.77829452268E+03  0.00000000000E+00 0. -1.
         21   -1    0    0  501  502  0.00000000000E+00 -0.00000000000E+00 -0.28337312342E+02  0.28337312342E+02  0.00000000000E+00 0. -1.
         23    2    1    2    0    0  0.30078055560E+02 -0.73394135782E+02  0.35172460545E+03  0.37432758045E+03  0.10059597809E+03 0.  0.
         24    2    1    2    0    0 -0.21831643093E+02  0.25380920291E+02  0.16501150554E+03  0.18631302053E+03  0.79767994228E+02 0.  0.
        -13    1    4    4    0    0 -0.45150296505E+02  0.30995859310E+02  0.73195809771E+02  0.91416186405E+02  0.00000000000E+00 0.  1.
         14    1    4    4    0    0  0.23318653412E+02 -0.56149390185E+01  0.91815695771E+02  0.94896834125E+02  0.00000000000E+00 0. -1.
        -11    1    3    3    0    0  0.28720435867E+02  0.15379453458E+02  0.15660917548E+03  0.15996194819E+03  0.00000000000E+00 0.  1.
         11    1    3    3    0    0  0.13576196926E+01 -0.88773589239E+02  0.19511542997E+03  0.21436563225E+03  0.00000000000E+00 0. -1.
         21    1    1    2  503  502  0.23747080737E+02  0.70757739035E+01  0.54447708939E+02  0.59820928015E+02  0.00000000000E+00 0.  1.
          1    1    1    2  501    0 -0.31993493204E+02  0.40937441587E+02  0.17877339041E+03  0.18617030603E+03  0.00000000000E+00 0. -1.
<scales pt_clust_5="13000.00000" pt_clust_6="13000.00000" pt_clust_7="13000.00000" pt_clust_8="13000.00000" pt_clust_9="24.77883" pt_clust_10="50.76086"></scales>
<clustering>
<clus scale="   24.779">  2  9  1 -1</clus>
<clus scale="   50.761">  2 10  1 -1</clus>
<clus scale="   79.768">  5  6 -1 -1</clus>
<clus scale="   96.952">  2  5  1 -1</clus>
<clus scale="  100.596">  7  8 -1 -1</clus>
<clus scale="   24.779">  2  5  1 -1</clus>
</clustering>
</event>
<event>
10    4  0.3403565E-005  0.9637220E+02  0.7546771E-02  0.1289749E+00
          2   -1    0    0  502    0 -0.00000000000E+00  0.00000000000E+00  0.21231475433E+03  0.21231475433E+03  0.00000000000E+00 0. -1.
         21   -1    0    0  503  502  0.00000000000E+00 -0.00000000000E+00 -0.11269017639E+03  0.11269017639E+03  0.00000000000E+00 0. -1.
         24    2    1    2    0    0  0.11008152278E+01  0.95951661503E+01  0.95094046255E+02  0.13393341192E+03  0.93818986287E+02 0.  0.
         23    2    1    2    0    0 -0.56118172124E+02 -0.35374069379E+02 -0.21271731498E+01  0.11249352074E+03  0.90827822363E+02 0.  0.
        -11    1    3    3    0    0 -0.40199278402E+02 -0.46815596891E+01  0.15897972525E+02  0.43481542240E+02  0.00000000000E+00 0.  1.
         12    1    3    3    0    0  0.41300093630E+02  0.14276725839E+02  0.79196073730E+02  0.90451869681E+02  0.00000000000E+00 0. -1.
        -11    1    4    4    0    0 -0.22213659170E+02  0.30877522844E+02 -0.15175806978E+01  0.38067980271E+02  0.00000000000E+00 0.  1.
         11    1    4    4    0    0 -0.33904512954E+02 -0.66251592223E+02 -0.60959245195E+00  0.74425540466E+02  0.00000000000E+00 0. -1.
         21    1    1    2  503  501  0.19996880218E+02  0.15766068340E+02 -0.20868288797E+02  0.32923086226E+02  0.00000000000E+00 0. -1.
          1    1    1    2  501    0  0.35020476679E+02  0.10012834889E+02  0.27525993627E+02  0.45654911833E+02  0.00000000000E+00 0. -1.
<scales pt_clust_5="13000.00000" pt_clust_6="13000.00000" pt_clust_7="13000.00000" pt_clust_8="13000.00000" pt_clust_9="25.46457" pt_clust_10="38.92642"></scales>
<clustering>
<clus scale="   25.465">  2  9  1 -1</clus>
<clus scale="   38.926">  2 10  1 -1</clus>
<clus scale="   90.828">  7  8 -1 -1</clus>
<clus scale="   93.463">  2  7  1 -1</clus>
<clus scale="   93.819">  5  6 -1 -1</clus>
<clus scale="   25.465">  2  5  1 -1</clus>
</clustering>
</event>
<event>
10    4  0.3403565E-005  0.1593356E+03  0.7546771E-02  0.1210124E+00
         21   -1    0    0  503  502  0.00000000000E+00  0.00000000000E+00  0.39895642087E+03  0.39895642087E+03  0.00000000000E+00 0. -1.
         -3   -1    0    0    0  501 -0.00000000000E+00 -0.00000000000E+00 -0.31822637295E+03  0.31822637295E+03  0.00000000000E+00 0.  1.
         23    2    1    2    0    0  0.60591755294E+02  0.16956491109E+02 -0.16996668363E+03  0.19817248134E+03  0.80154696778E+02 0.  0.
         24    2    1    2    0    0  0.25395245331E+02 -0.11507850729E+03  0.11784768064E+02  0.14522477336E+03  0.84043873746E+02 0.  0.
        -11    1    4    4    0    0  0.13746711578E+02 -0.28662744465E+02 -0.34160590818E+02  0.46663379266E+02  0.00000000000E+00 0.  1.
         12    1    4    4    0    0  0.11648533753E+02 -0.86415762828E+02  0.45945358882E+02  0.98561394098E+02  0.00000000000E+00 0. -1.
        -11    1    3    3    0    0  0.43785327124E+02  0.35568621527E+02 -0.49271649175E+02  0.74899780514E+02  0.00000000000E+00 0. -1.
         11    1    3    3    0    0  0.16806428170E+02 -0.18612130417E+02 -0.12069503446E+03  0.12327270083E+03  0.00000000000E+00 0.  1.
         21    1    1    2  503  501  0.33369570106E+01 -0.32315232052E+02  0.21070929007E+03  0.21319900194E+03  0.00000000000E+00 0. -1.
         -4    1    1    2    0  502 -0.89323957636E+02  0.13043724824E+03  0.28202673414E+02  0.16058653718E+03  0.00000000000E+00 0.  1.
<scales pt_clust_5="13000.00000" pt_clust_6="13000.00000" pt_clust_7="13000.00000" pt_clust_8="13000.00000" pt_clust_9="32.48707" pt_clust_10="135.36788"></scales>
<clustering>
<clus scale="   32.487">  1  9  2 -1</clus>
<clus scale="   80.155">  7  8 -1 -1</clus>
<clus scale="   84.044">  5  6 -1 -1</clus>
<clus scale="  101.674">  2  7  1 -1</clus>
<clus scale="  135.368">  1 10  2 -1</clus>
<clus scale="   32.487">  1  5  2 -1</clus>
</clustering>
</event>
<event>
10    4  0.3403565E-005  0.9773812E+02  0.7546771E-02  0.1291431E+00
         21   -1    0    0  503  502  0.00000000000E+00  0.00000000000E+00  0.73333744080E+03  0.73333744080E+03  0.00000000000E+00 0.  1.
         -1   -1    0    0    0  501 -0.00000000000E+00 -0.00000000000E+00 -0.14631583630E+03  0.14631583630E+03  0.00000000000E+00 0.  1.
         24    2    1    2    0    0  0.22280997128E+02 -0.25853785919E+02 -0.10703715469E+03  0.13810441662E+03  0.80318219135E+02 0.  0.
         23    2    1    2    0    0 -0.46501392684E+02 -0.20854488563E+02  0.20078260653E+03  0.22666412755E+03  0.92009143135E+02 0.  0.
        -11    1    3    3    0    0  0.66168658369E+01 -0.54326352289E+02 -0.69270154185E+02  0.88280743808E+02  0.00000000000E+00 0.  1.
         12    1    3    3    0    0  0.15664131291E+02  0.28472566370E+02 -0.37767000505E+02  0.49823672807E+02  0.00000000000E+00 0. -1.
        -11    1    4    4    0    0 -0.38061467364E+02  0.17329782407E+02  0.17475273584E+03  0.17968727094E+03  0.00000000000E+00 0. -1.
         11    1    4    4    0    0 -0.84399253202E+01 -0.38184270970E+02  0.26029870693E+02  0.46976856612E+02  0.00000000000E+00 0.  1.
         21    1    1    2  503  501  0.47256775320E+01 -0.44579419240E+02  0.25621813973E+03  0.26011034538E+03  0.00000000000E+00 0.  1.
         -2    1    1    2    0  502  0.19494718025E+02  0.91287693721E+02  0.23705801293E+03  0.25477438754E+03  0.00000000000E+00 0.  1.
<scales pt_clust_5="13000.00000" pt_clust_6="13000.00000" pt_clust_7="13000.00000" pt_clust_8="13000.00000" pt_clust_9="44.82919" pt_clust_10="71.65804"></scales>
<clustering>
<clus scale="   44.829">  1  9  2 -1</clus>
<clus scale="   71.658">  1 10  2 -1</clus>
<clus scale="   80.318">  5  6 -1 -1</clus>
<clus scale="   86.822">  2  5  1 -1</clus>
<clus scale="   92.009">  7  8 -1 -1</clus>
<clus scale="   44.829">  1  5  2 -1</clus>
</clustering>
</event>
<event>
10    4  0.3403565E-005  0.2555178E+03  0.7546771E-02  0.1157195E+00
          2   -1    0    0  503    0 -0.00000000000E+00  0.00000000000E+00  0.19557905627E+04  0.19557905627E+04  0.00000000000E+00 0. -1.
         21   -1    0    0  501  502  0.00000000000E+00 -0.00000000000E+00 -0.57589837448E+02  0.57589837448E+02  0.00000000000E+00 0. -1.
         24    2    1    2    0    0 -0.13472463557E+02 -0.52181006470E+01  0.21319290698E+03  0.22809056522E+03  0.79783171841E+02 0.  0.
         23    2    1    2    0    0  0.10817885222E+03  0.21864491122E+03  0.10285263294E+04  0.10609130390E+04  0.90342707865E+02 0.  0.
        -13    1    3    3    0    0 -0.17691883984E+02  0.14174051171E+02  0.11492597456E+02  0.25416260185E+02  0.00000000000E+00 0.  1.
         14    1    3    3    0    0  0.42194204269E+01 -0.19392151818E+02  0.20170030952E+03  0.20267430504E+03  0.00000000000E+00 0. -1.
        -13    1    4    4    0    0  0.41450381685E+02  0.15700037550E+02  0.23434750680E+03  0.23850236742E+03  0.00000000000E+00 0.  1.
         13    1    4    4    0    0  0.66728470532E+02  0.20294487367E+03  0.79417882258E+03  0.82241067161E+03  0.00000000000E+00 0. -1.
         21    1    1    2  503  502  0.42959273277E+02 -0.18269731155E+02  0.34289669810E+02  0.57922911638E+02  0.00000000000E+00 0. -1.
          1    1    1    2  501    0 -0.13766566194E+03 -0.19515707942E+03  0.62219181912E+03  0.66645388430E+03  0.00000000000E+00 0. -1.
<scales pt_clust_5="13000.00000" pt_clust_6="13000.00000" pt_clust_7="13000.00000" pt_clust_8="13000.00000" pt_clust_9="46.68278" pt_clust_10="239.01372"></scales>
<clustering>
<clus scale="   46.683">  2  9  1 -1</clus>
<clus scale="   79.783">  5  6 -1 -1</clus>
<clus scale="   80.464">  1  5  2 -1</clus>
<clus scale="   90.343">  7  8 -1 -1</clus>
<clus scale="  239.014">  2 10  1 -1</clus>
<clus scale="   46.683">  2  5  1 -1</clus>
</clustering>
</event>
<event>
10    4  0.3403565E-005  0.9890225E+02  0.7546771E-02  0.1289320E+00
         21   -1    0    0  501  502  0.00000000000E+00  0.00000000000E+00  0.32831278021E+03  0.32831278021E+03  0.00000000000E+00 0.  1.
          2   -1    0    0  503    0 -0.00000000000E+00 -0.00000000000E+00 -0.85018588363E+02  0.85018588363E+02  0.00000000000E+00 0. -1.
         24    2    1    2    0    0  0.11461267572E+02 -0.24402503628E+02 -0.18231363051E+02  0.86416848165E+02  0.80054020577E+02 0.  0.
         23    2    1    2    0    0  0.24320927040E+01  0.10967289818E+02  0.22557350703E+03  0.24413361421E+03  0.92690981197E+02 0.  0.
        -11    1    3    3    0    0  0.16769827579E+01 -0.47640620627E+02 -0.32262900759E+02  0.57561582416E+02  0.00000000000E+00 0.  1.
         12    1    3    3    0    0  0.97842848142E+01  0.23238116999E+02  0.14031537709E+02  0.28855265749E+02  0.00000000000E+00 0. -1.
        -13    1    4    4    0    0 -0.25868830302E+02 -0.24818494192E+02  0.43187251278E+02  0.56127468392E+02  0.00000000000E+00 0. -1.
         13    1    4    4    0    0  0.28300923006E+02  0.35785784011E+02  0.18238625575E+03  0.18800614582E+03  0.00000000000E+00 0.  1.
         21    1    1    2  503  502  0.18354162151E+02 -0.86120520166E+01 -0.98854545657E+01  0.22555817878E+02  0.00000000000E+00 0.  1.
          1    1    1    2  501    0 -0.32247522427E+02  0.22047265826E+02  0.45837502435E+02  0.60225088315E+02  0.00000000000E+00 0. -1.
<scales pt_clust_5="13000.00000" pt_clust_6="13000.00000" pt_clust_7="13000.00000" pt_clust_8="13000.00000" pt_clust_9="20.27419" pt_clust_10="36.97287"></scales>
<clustering>
<clus scale="   20.274">  2  9  1 -1</clus>
<clus scale="   36.973">  1 10  2 -1</clus>
<clus scale="   80.054">  5  6 -1 -1</clus>
<clus scale="   87.170">  2  5  1 -1</clus>
<clus scale="   92.691">  7  8 -1 -1</clus>
<clus scale="   36.973">  1  5  2 -1</clus>
</clustering>
</event>
<event>
10    4  0.3403565E-005  0.1022226E+03  0.7546771E-02  0.1280300E+00
         -1   -1    0    0    0  501 -0.00000000000E+00  0.00000000000E+00  0.60200755580E+03  0.60200755580E+03  0.00000000000E+00 0.  1.
         21   -1    0    0  501  502  0.00000000000E+00 -0.00000000000E+00 -0.69706412742E+02  0.69706412742E+02  0.00000000000E+00 0. -1.
         24    2    1    2    0    0 -0.81088956621E+02  0.16967925891E+02  0.16557531197E+03  0.20186232447E+03  0.80435593578E+02 0.  0.
         23    2    1    2    0    0 -0.37438546692E+01 -0.24231834085E+02  0.73655449257E+02  0.11909093143E+03  0.90312382939E+02 0.  0.
        -11    1    3    3    0    0  0.21062659052E+01  0.22798061762E+02  0.92728857837E+01  0.24701708178E+02  0.00000000000E+00 0.  1.
         12    1    3    3    0    0 -0.83195222527E+02 -0.58301358713E+01  0.15630242618E+03  0.17716061630E+03  0.00000000000E+00 0. -1.
        -11    1    4    4    0    0 -0.23361164688E+02  0.28757478678E+02  0.27771332802E+02  0.46303169665E+02  0.00000000000E+00 0. -1.
         11    1    4    4    0    0  0.19617310019E+02 -0.52989312763E+02  0.45884116456E+02  0.72787761762E+02  0.00000000000E+00 0.  1.
         21    1    1    2  503  502  0.20809328221E+02 -0.51896396152E+02  0.12954238283E+02  0.57394044675E+02  0.00000000000E+00 0. -1.
         -2    1    1    2    0  503  0.64023483069E+02  0.59160304347E+02  0.28011614355E+03  0.29336666796E+03  0.00000000000E+00 0.  1.
<scales pt_clust_5="13000.00000" pt_clust_6="13000.00000" pt_clust_7="13000.00000" pt_clust_8="13000.00000" pt_clust_9="55.91300" pt_clust_10="84.70457"></scales>
<clustering>
<clus scale="   55.913">  2  9  1 -1</clus>
<clus scale="   80.436">  5  6 -1 -1</clus>
<clus scale="   84.705">  2 10  1 -1</clus>
<clus scale="   90.312">  7  8 -1 -1</clus>
<clus scale="   93.611">  1  5  2 -1</clus>
<clus scale="   55.913">  2  5  1 -1</clus>
</clustering>
</event>
<event>
10    4  0.3403565E-005  0.9195309E+02  0.7546771E-02  0.1304001E+00
          2   -1    0    0  502    0 -0.00000000000E+00  0.00000000000E+00  0.95865555194E+02  0.95865555194E+02  0.00000000000E+00 0. -1.
         21   -1    0    0  503  502  0.00000000000E+00 -0.00000000000E+00 -0.19122557166E+03  0.19122557166E+03  0.00000000000E+00 0. -1.
         23    2    1    2    0    0 -0.43610408317E+01  0.19709178695E+02 -0.54738556154E+01  0.92255458851E+02  0.89853415019E+02 0.  0.
         24    2    1    2    0    0  0.40440943248E+02  0.32326782501E+02 -0.34617706667E+02  0.10160877395E+03  0.80283663164E+02 0.  0.
        -13    1    4    4    0    0 -0.65459400897E+01 -0.21568074932E+02 -0.90333861482E+00  0.22557641911E+02  0.00000000000E+00 0.  1.
         14    1    4    4    0    0  0.46986883338E+02  0.53894857433E+02 -0.33714368052E+02  0.79051132039E+02  0.00000000000E+00 0. -1.
        -11    1    3    3    0    0 -0.21003061875E+02 -0.14497315468E+02 -0.35550074689E+02  0.43761953502E+02  0.00000000000E+00 0.  1.
         11    1    3    3    0    0  0.16642021043E+02  0.34206494163E+02  0.30076219073E+02  0.48493505350E+02  0.00000000000E+00 0. -1.
         21    1    1    2  503  501 -0.17915415964E+02 -0.15100965432E+02 -0.45109503354E+02  0.50831767420E+02  0.00000000000E+00 0. -1.
          1    1    1    2  501    0 -0.18164486452E+02 -0.36934995764E+02 -0.10158950828E+02  0.42395126631E+02  0.00000000000E+00 0. -1.
<scales pt_clust_5="13000.00000" pt_clust_6="13000.00000" pt_clust_7="13000.00000" pt_clust_8="13000.00000" pt_clust_9="23.43078" pt_clust_10="45.12889"></scales>
<clustering>
<clus scale="   23.431">  2  9  1 -1</clus>
<clus scale="   45.129">  2 10  1 -1</clus>
<clus scale="   80.284">  5  6 -1 -1</clus>
<clus scale="   82.627">  2  5  1 -1</clus>
<clus scale="   89.853">  7  8 -1 -1</clus>
<clus scale="   23.431">  2  5  1 -1</clus>
</clustering>
</event>
<event>
10    4  0.3403565E-005  0.1433075E+03  0.7546771E-02  0.1228787E+00
          2   -1    0    0  502    0 -0.00000000000E+00  0.00000000000E+00  0.62777652505E+03  0.62777652505E+03  0.00000000000E+00 0. -1.
         21   -1    0    0  503  502  0.00000000000E+00 -0.00000000000E+00 -0.15861797605E+03  0.15861797605E+03  0.00000000000E+00 0.  1.
         23    2    1    2    0    0 -0.28588180993E+00  0.11041108483E+02  0.25570274114E+03  0.27246115046E+03  0.93430181843E+02 0.  0.
         24    2    1    2    0    0  0.59728173298E+02  0.77791895748E+02  0.47108301795E+02  0.13845897530E+03  0.85630964101E+02 0.  0.
        -13    1    4    4    0    0  0.20778153037E+02  0.80713703954E+02  0.89000120357E+01  0.83819113952E+02  0.00000000000E+00 0.  1.
         14    1    4    4    0    0  0.38950020261E+02 -0.29218082053E+01  0.38208289760E+02  0.54639861346E+02  0.00000000000E+00 0. -1.
        -13    1    3    3    0    0  0.21976919888E+02 -0.33033370882E+02  0.71671689733E+02  0.81920813648E+02  0.00000000000E+00 0. -1.
         13    1    3    3    0    0 -0.22262801698E+02  0.44074479365E+02  0.18403105141E+03  0.19054033682E+03  0.00000000000E+00 0.  1.
         21    1    1    2  503  501  0.63161634249E+01  0.20428749185E+02 -0.88207898276E+02  0.90762663204E+02  0.00000000000E+00 0.  1.
          1    1    1    2  501    0 -0.65758454913E+02 -0.10926175342E+03  0.25455540433E+03  0.28471171214E+03  0.00000000000E+00 0. -1.
<scales pt_clust_5="13000.00000" pt_clust_6="13000.00000" pt_clust_7="13000.00000" pt_clust_8="13000.00000" pt_clust_9="21.38288" pt_clust_10="114.91033"></scales>
<clustering>
<clus scale="   21.383">  2  9  1 -1</clus>
<clus scale="   85.631">  5  6 -1 -1</clus>
<clus scale="   93.430">  7  8 -1 -1</clus>
<clus scale="   94.404">  1  7  2 -1</clus>
<clus scale="  114.910">  2 10  1 -1</clus>
<clus scale="   21.383">  2  5  1 -1</clus>
</clustering>
</event>
<event>
10    4  0.3403565E-005  0.1520190E+03  0.7546771E-02  0.1199669E+00
         21   -1    0    0  501  502  0.00000000000E+00  0.00000000000E+00  0.10844547158E+03  0.10844547158E+03  0.00000000000E+00 0. -1.
          2   -1    0    0  503    0 -0.00000000000E+00 -0.00000000000E+00 -0.59816729392E+03  0.59816729392E+03  0.00000000000E+00 0. -1.
         23    2    1    2    0    0 -0.11640292609E+03  0.12247817647E+02 -0.23568075096E+03  0.27811138221E+03  0.90004857120E+02 0.  0.
         24    2    1    2    0    0  0.12104698418E+03 -0.10051958196E+03 -0.60501749353E+02  0.18684741291E+03  0.80591161415E+02 0.  0.
        -11    1    4    4    0    0  0.23528130525E+02 -0.34893912375E+02  0.17710962363E+02  0.45660006950E+02  0.00000000000E+00 0.  1.
         12    1    4    4    0    0  0.97518853652E+02 -0.65625669590E+02 -0.78212711716E+02  0.14118740596E+03  0.00000000000E+00 0. -1.
        -13    1    3    3    0    0 -0.12715109808E+02  0.28130468317E+02 -0.16225880329E+02  0.34875155306E+02  0.00000000000E+00 0.  1.
         13    1    3    3    0    0 -0.10368781628E+03 -0.15882650670E+02 -0.21945487063E+03  0.24323622691E+03  0.00000000000E+00 0. -1.
         21    1    1    2  503  502  0.22664751442E+02 -0.17833398635E+02 -0.15867748415E+02  0.32916659984E+02  0.00000000000E+00 0. -1.
          1    1    1    2  501    0 -0.27308809527E+02  0.10610516295E+03 -0.17767157361E+03  0.20873731040E+03  0.00000000000E+00 0. -1.
<scales pt_clust_5="13000.00000" pt_clust_6="13000.00000" pt_clust_7="13000.00000" pt_clust_8="13000.00000" pt_clust_9="28.83957" pt_clust_10="106.03518"></scales>
<clustering>
<clus scale="   28.840">  1  9  2 -1</clus>
<clus scale="   80.591">  5  6 -1 -1</clus>
<clus scale="   90.005">  7  8 -1 -1</clus>
<clus scale="  106.035">  1 10  2 -1</clus>
<clus scale="  146.642">  1  5  2 -1</clus>
<clus scale="   28.840">  1  5  2 -1</clus>
</clustering>
</event>
<event>
10    4  0.3403565E-005  0.1035333E+03  0.7546771E-02  0.1275197E+00
         21   -1    0    0  503  502  0.00000000000E+00  0.00000000000E+00  0.60698927385E+02  0.60698927385E+02  0.00000000000E+00 0. -1.
          2   -1    0    0  502    0 -0.00000000000E+00 -0.00000000000E+00 -0.10233537084E+04  0.10233537084E+04  0.00000000000E+00 0. -1.
         24    2    1    2    0    0  0.62709619195E+02 -0.33344815618E+02 -0.82729174443E+03  0.83394089484E+03  0.77468784752E+02 0.  0.
         23    2    1    2    0    0  0.19048392981E+02  0.33799670669E+02 -0.67371197595E+02  0.11357512535E+03  0.82795965005E+02 0.  0.
        -11    1    3    3    0    0 -0.12358099816E+02 -0.23314547902E+02 -0.13792707253E+03  0.14042851602E+03  0.00000000000E+00 0.  1.
         12    1    3    3    0    0  0.75067719012E+02 -0.10030267716E+02 -0.68936467190E+03  0.69351237881E+03  0.00000000000E+00 0. -1.
        -11    1    4    4    0    0  0.31126097488E+02 -0.18064855578E+02 -0.15333370897E+02  0.39118860093E+02  0.00000000000E+00 0. -1.
         11    1    4    4    0    0 -0.12077704508E+02  0.51864526247E+02 -0.52037826698E+02  0.74456265260E+02  0.00000000000E+00 0.  1.
         21    1    1    2  503  501 -0.10323402123E+02  0.34832679817E+02 -0.90816741696E+01  0.37448164446E+02  0.00000000000E+00 0. -1.
          1    1    1    2  501    0 -0.71434610052E+02 -0.35287534868E+02 -0.58910164797E+02  0.99088451127E+02  0.00000000000E+00 0. -1.
<scales pt_clust_5="13000.00000" pt_clust_6="13000.00000" pt_clust_7="13000.00000" pt_clust_8="13000.00000" pt_clust_9="36.33027" pt_clust_10="78.54667"></scales>
<clustering>
<clus scale="   36.330">  1  9  2 -1</clus>
<clus scale="   77.469">  5  6 -1 -1</clus>
<clus scale="   78.547">  1 10  2 -1</clus>
<clus scale="   82.796">  7  8 -1 -1</clus>
<clus scale="   99.325">  2  5  1 -1</clus>
<clus scale="   36.330">  1  5  2 -1</clus>
</clustering>
</event>
<event>
10    4  0.3403565E-005  0.1855926E+03  0.7546771E-02  0.1192178E+00
          2   -1    0    0  502    0 -0.00000000000E+00  0.00000000000E+00  0.60944099780E+03  0.60944099780E+03  0.00000000000E+00 0. -1.
         21   -1    0    0  503  502  0.00000000000E+00 -0.00000000000E+00 -0.21711679667E+03  0.21711679667E+03  0.00000000000E+00 0.  1.
         23    2    1    2    0    0 -0.23166403855E+02 -0.81069440141E+01  0.23705764545E+03  0.25525946562E+03  0.91425722387E+02 0.  0.
         24    2    1    2    0    0 -0.52480877778E+02 -0.13085246240E+03 -0.35683719006E+02  0.16637501818E+03  0.80812804822E+02 0.  0.
        -13    1    4    4    0    0 -0.44877291786E+02 -0.11874380327E+03 -0.58244043791E+02  0.13966542439E+03  0.00000000000E+00 0.  1.
         14    1    4    4    0    0 -0.76035859921E+01 -0.12108659127E+02  0.22560324785E+02  0.26709593786E+02  0.00000000000E+00 0. -1.
        -13    1    3    3    0    0 -0.20136656595E+02  0.35078907369E+02  0.17486948221E+03  0.17948635182E+03  0.00000000000E+00 0. -1.
         13    1    3    3    0    0 -0.30297472598E+01 -0.43185851383E+02  0.62188163245E+02  0.75773113807E+02  0.00000000000E+00 0.  1.
         21    1    1    2  503  501 -0.50371151345E+01 -0.30545984274E+02 -0.73995444256E+02  0.80210694142E+02  0.00000000000E+00 0.  1.
          1    1    1    2  501    0  0.80684396768E+02  0.16950539069E+03  0.26494571894E+03  0.32471261653E+03  0.00000000000E+00 0. -1.
<scales pt_clust_5="13000.00000" pt_clust_6="13000.00000" pt_clust_7="13000.00000" pt_clust_8="13000.00000" pt_clust_9="30.95852" pt_clust_10="167.07460"></scales>
<clustering>
<clus scale="   30.959">  2  9  1 -1</clus>
<clus scale="   80.813">  5  6 -1 -1</clus>
<clus scale="   91.426">  7  8 -1 -1</clus>
<clus scale="   94.934">  1  7  2 -1</clus>
<clus scale="  167.075">  2 10  1 -1</clus>
<clus scale="   30.959">  2  5  1 -1</clus>
</clustering>
</event>
<event>
10    4  0.3403565E-005  0.2830250E+03  0.7546771E-02  0.1109403E+00
          2   -1    0    0  502    0 -0.00000000000E+00  0.00000000000E+00  0.13394112850E+04  0.13394112850E+04  0.00000000000E+00 0. -1.
         21   -1    0    0  503  502  0.00000000000E+00 -0.00000000000E+00 -0.13365159768E+03  0.13365159768E+03  0.00000000000E+00 0. -1.
         24    2    1    2    0    0  0.16151951730E+03 -0.58642907953E+02  0.54314036707E+03  0.57549872832E+03  0.81668738383E+02 0.  0.
         23    2    1    2    0    0  0.51780864049E+02  0.25535681163E+03  0.23468653122E+03  0.36819180638E+03  0.11224562005E+03 0.  0.
        -13    1    3    3    0    0  0.74336890733E+01 -0.33110165892E+02  0.88898582580E+02  0.95155140709E+02  0.00000000000E+00 0.  1.
         14    1    3    3    0    0  0.15408582822E+03 -0.25532742061E+02  0.45424178449E+03  0.48034358761E+03  0.00000000000E+00 0. -1.
        -13    1    4    4    0    0  0.41256930636E+02  0.30362547044E+02  0.79837241021E+02  0.94857807493E+02  0.00000000000E+00 0.  1.
         13    1    4    4    0    0  0.10523933413E+02  0.22499426459E+03  0.15484929020E+03  0.27333399889E+03  0.00000000000E+00 0. -1.
         21    1    1    2  503  501 -0.36379774834E+02 -0.56553717654E+02  0.33983249306E+02  0.75343694035E+02  0.00000000000E+00 0.  1.
          1    1    1    2  501    0 -0.17692060651E+03 -0.14016018603E+03  0.39394953974E+03  0.45402865396E+03  0.00000000000E+00 0. -1.
<scales pt_clust_5="13000.00000" pt_clust_6="13000.00000" pt_clust_7="13000.00000" pt_clust_8="13000.00000" pt_clust_9="62.02997" pt_clust_10="62.02997"></scales>
<clustering>
<clus scale="   62.030">  9 10 -1 -1</clus>
<clus scale="   81.669">  5  6 -1 -1</clus>
<clus scale="  112.246">  7  8 -1 -1</clus>
<clus scale="  190.256">  1  5  2 -1</clus>
<clus scale="  282.466">  1  7  2 -1</clus>
<clus scale="  283.025">  2  5  1 -1</clus>
</clustering>
</event>
<event>
10    4  0.3403565E-005  0.2926500E+03  0.7546771E-02  0.1131052E+00
         21   -1    0    0  503  502  0.00000000000E+00  0.00000000000E+00  0.13305580581E+03  0.13305580581E+03  0.00000000000E+00 0. -1.
          2   -1    0    0  502    0 -0.00000000000E+00 -0.00000000000E+00 -0.27714211131E+04  0.27714211131E+04  0.00000000000E+00 0. -1.
         24    2    1    2    0    0  0.12414628047E+02 -0.70103378069E+02 -0.28049452901E+03  0.30025110529E+03  0.80030861675E+02 0.  0.
         23    2    1    2    0    0 -0.63163058201E+02  0.24131904233E+03 -0.55072858041E+03  0.61120912831E+03  0.89722779353E+02 0.  0.
        -13    1    3    3    0    0 -0.26163256552E+02 -0.72815968224E+01 -0.12828577313E+03  0.13112885737E+03  0.00000000000E+00 0.  1.
         14    1    3    3    0    0  0.38577884600E+02 -0.62821781247E+02 -0.15220875588E+03  0.16912224793E+03  0.00000000000E+00 0. -1.
        -11    1    4    4    0    0 -0.77433607092E+02  0.14833515147E+03 -0.39924189360E+03  0.43288955898E+03  0.00000000000E+00 0.  1.
         11    1    4    4    0    0  0.14270548890E+02  0.92983890853E+02 -0.15148668681E+03  0.17831956933E+03  0.00000000000E+00 0. -1.
         21    1    1    2  503  501 -0.87213826242E+02  0.50276422078E+02  0.53612706682E+02  0.11405390139E+03  0.00000000000E+00 0. -1.
          1    1    1    2  501    0  0.13796225640E+03 -0.22149208634E+03 -0.18607549046E+04  0.18789627839E+04  0.00000000000E+00 0. -1.
<scales pt_clust_5="13000.00000" pt_clust_6="13000.00000" pt_clust_7="13000.00000" pt_clust_8="13000.00000" pt_clust_9="100.66762" pt_clust_10="278.55690"></scales>
<clustering>
<clus scale="   80.031">  5  6 -1 -1</clus>
<clus scale="   89.723">  7  8 -1 -1</clus>
<clus scale="  100.668">  1  9  2 -1</clus>
<clus scale="  100.162">  2  5  1 -1</clus>
<clus scale="  278.557">  1 10  2 -1</clus>
<clus scale="  100.668">  1  5  2 -1</clus>
</clustering>
</event>
<event>
10    4  0.3403565E-005  0.1400516E+03  0.7546771E-02  0.1215818E+00
         21   -1    0    0  503  502  0.00000000000E+00  0.00000000000E+00  0.66983798015E+02  0.66983798015E+02  0.00000000000E+00 0. -1.
          2   -1    0    0  502    0 -0.00000000000E+00 -0.00000000000E+00 -0.86342975009E+03  0.86342975009E+03  0.00000000000E+00 0. -1.
         24    2    1    2    0    0  0.63747867765E+02  0.10602380739E+03 -0.53612239101E+03  0.55600979465E+03  0.80092666514E+02 0.  0.
         23    2    1    2    0    0  0.73735940148E+01 -0.62699072932E+02 -0.73761802071E+02  0.13362877490E+03  0.91816678232E+02 0.  0.
        -11    1    3    3    0    0 -0.10102044717E+02  0.39094592452E+02 -0.86312984977E+02  0.95290974610E+02  0.00000000000E+00 0.  1.
         12    1    3    3    0    0  0.73849912482E+02  0.66929214938E+02 -0.44980940603E+03  0.46071882004E+03  0.00000000000E+00 0. -1.
        -13    1    4    4    0    0  0.46265680470E+02 -0.52621000548E+02 -0.56020208845E+02  0.89709234124E+02  0.00000000000E+00 0.  1.
         13    1    4    4    0    0 -0.38892086455E+02 -0.10078072383E+02 -0.17741593225E+02  0.43919540776E+02  0.00000000000E+00 0. -1.
         21    1    1    2  503  501 -0.21935452894E+02  0.18142867894E+02  0.90872155971E+01  0.29881519982E+02  0.00000000000E+00 0. -1.
          1    1    1    2  501    0 -0.49186008885E+02 -0.61467602353E+02 -0.19564897459E+03  0.21089345857E+03  0.00000000000E+00 0. -1.
<scales pt_clust_5="13000.00000" pt_clust_6="13000.00000" pt_clust_7="13000.00000" pt_clust_8="13000.00000" pt_clust_9="28.46626" pt_clust_10="78.78298"></scales>
<clustering>
<clus scale="   28.466">  1  9  2 -1</clus>
<clus scale="   78.783">  1 10  2 -1</clus>
<clus scale="   80.093">  5  6 -1 -1</clus>
<clus scale="   91.817">  7  8 -1 -1</clus>
<clus scale="  132.661">  2  5  1 -1</clus>
<clus scale="   28.466">  1  5  2 -1</clus>
</clustering>
</event>
<event>
10    4  0.3403565E-005  0.1032277E+03  0.7546771E-02  0.1278370E+00
         21   -1    0    0  501  502  0.00000000000E+00  0.00000000000E+00  0.14393937678E+03  0.14393937678E+03  0.00000000000E+00 0.  1.
          2   -1    0    0  503    0 -0.00000000000E+00 -0.00000000000E+00 -0.47857294512E+03  0.47857294512E+03  0.00000000000E+00 0. -1.
         23    2    1    2    0    0  0.17987567235E+02  0.30060993022E+02 -0.13166289814E+03  0.16345811169E+03  0.90311791344E+02 0.  0.
         24    2    1    2    0    0  0.37610556872E+02 -0.13647899930E+03 -0.20421382107E+02  0.16386641009E+03  0.79963093176E+02 0.  0.
        -11    1    4    4    0    0  0.36830953893E+02 -0.86830307040E+02 -0.49298342368E+02  0.10642531628E+03  0.00000000000E+00 0.  1.
         12    1    4    4    0    0  0.77960297868E+00 -0.49648692259E+02  0.28876960261E+02  0.57441093807E+02  0.00000000000E+00 0. -1.
        -13    1    3    3    0    0  0.19656007837E+02 -0.18606830379E+02 -0.10397609486E+03  0.10744115172E+03  0.00000000000E+00 0.  1.
         13    1    3    3    0    0 -0.16684406022E+01  0.48667823401E+02 -0.27686803277E+02  0.56016959971E+02  0.00000000000E+00 0. -1.
         21    1    1    2  503  502  0.21366271318E+00  0.41002201359E+02  0.39583649359E+02  0.56992029834E+02  0.00000000000E+00 0.  1.
          1    1    1    2  501    0 -0.55811786820E+02  0.65415804918E+02 -0.22213293745E+03  0.23819577028E+03  0.00000000000E+00 0. -1.
<scales pt_clust_5="13000.00000" pt_clust_6="13000.00000" pt_clust_7="13000.00000" pt_clust_8="13000.00000" pt_clust_9="41.00276" pt_clust_10="88.62541"></scales>
<clustering>
<clus scale="   41.003">  1  9  2 -1</clus>
<clus scale="   79.963">  5  6 -1 -1</clus>
<clus scale="   88.625">  1 10  2 -1</clus>
<clus scale="   90.312">  7  8 -1 -1</clus>
<clus scale="   94.307">  1  5  2 -1</clus>
<clus scale="   41.003">  1  5  2 -1</clus>
</clustering>
</event>
<event>
10    4  0.3403565E-005  0.1462418E+03  0.7546771E-02  0.1208018E+00
         21   -1    0    0  503  502  0.00000000000E+00  0.00000000000E+00  0.22797735216E+03  0.22797735216E+03  0.00000000000E+00 0. -1.
          2   -1    0    0  502    0 -0.00000000000E+00 -0.00000000000E+00 -0.72746916795E+03  0.72746916795E+03  0.00000000000E+00 0. -1.
         24    2    1    2    0    0 -0.13813680031E+03  0.20703826647E+02 -0.16108890237E+03  0.22686645821E+03  0.77513426943E+02 0.  0.
         23    2    1    2    0    0  0.69547832966E+02 -0.49397146810E+02 -0.45905947198E+02  0.13362831696E+03  0.92044510545E+02 0.  0.
        -13    1    3    3    0    0 -0.49150729650E+02  0.45172660239E+02 -0.57248636264E+02  0.87941854724E+02  0.00000000000E+00 0.  1.
         14    1    3    3    0    0 -0.88986070661E+02 -0.24468833592E+02 -0.10384026611E+03  0.13892460349E+03  0.00000000000E+00 0. -1.
        -13    1    4    4    0    0  0.55058048432E+02  0.11179713584E+02  0.12078979078E+00  0.56181752225E+02  0.00000000000E+00 0.  1.
         13    1    4    4    0    0  0.14489784535E+02 -0.60576860394E+02 -0.46026736989E+02  0.77446564733E+02  0.00000000000E+00 0. -1.
         21    1    1    2  503  501 -0.19674301496E+02  0.75279212629E+01  0.14582100391E+03  0.14733469693E+03  0.00000000000E+00 0. -1.
          1    1    1    2  501    0  0.88263268840E+02  0.21165398899E+02 -0.43831797013E+03  0.44761704802E+03  0.00000000000E+00 0. -1.
<scales pt_clust_5="13000.00000" pt_clust_6="13000.00000" pt_clust_7="13000.00000" pt_clust_8="13000.00000" pt_clust_9="21.06532" pt_clust_10="89.77559"></scales>
<clustering>
<clus scale="   21.065">  1  9  2 -1</clus>
<clus scale="   77.513">  5  6 -1 -1</clus>
<clus scale="   89.776">  1 10  2 -1</clus>
<clus scale="   92.045">  7  8 -1 -1</clus>
<clus scale="  137.560">  2  5  1 -1</clus>
<clus scale="   21.065">  1  5  2 -1</clus>
</clustering>
</event>
<event>
10    4  0.3403565E-005  0.9908898E+02  0.7546771E-02  0.1287763E+00
         21   -1    0    0  503  502  0.00000000000E+00  0.00000000000E+00  0.62728824928E+03  0.62728824928E+03  0.00000000000E+00 0.  1.
         -1   -1    0    0    0  501 -0.00000000000E+00 -0.00000000000E+00 -0.49492111396E+02  0.49492111396E+02  0.00000000000E+00 0.  1.
         23    2    1    2    0    0  0.25123410500E+02  0.52837522983E+01  0.87173210840E+02  0.13142509805E+03  0.94943582801E+02 0.  0.
         24    2    1    2    0    0 -0.30870185547E+02 -0.26333465181E+02  0.35289557607E+03  0.36516149339E+03  0.84623926265E+02 0.  0.
        -13    1    4    4    0    0 -0.32195380948E+02 -0.55388891859E+02  0.22111402141E+03  0.23020834555E+03  0.00000000000E+00 0.  1.
         14    1    4    4    0    0  0.13251954010E+01  0.29055426678E+02  0.13178155466E+03  0.13495314784E+03  0.00000000000E+00 0. -1.
        -11    1    3    3    0    0  0.20492065798E+02 -0.43273145023E+02  0.31045032682E+02  0.57063858046E+02  0.00000000000E+00 0.  1.
         11    1    3    3    0    0  0.46313447016E+01  0.48556897321E+02  0.56128178158E+02  0.74361240001E+02  0.00000000000E+00 0. -1.
         21    1    1    2  503  501  0.10149340547E+02 -0.33863854280E+02  0.11549957675E+03  0.12078874935E+03  0.00000000000E+00 0.  1.
         -2    1    1    2    0  502 -0.44025654996E+01  0.54913567163E+02  0.22227774221E+02  0.59405019892E+02  0.00000000000E+00 0.  1.
<scales pt_clust_5="13000.00000" pt_clust_6="13000.00000" pt_clust_7="13000.00000" pt_clust_8="13000.00000" pt_clust_9="35.35208" pt_clust_10="52.32207"></scales>
<clustering>
<clus scale="   35.352">  1  9  2 -1</clus>
<clus scale="   52.322">  1 10  2 -1</clus>
<clus scale="   84.624">  5  6 -1 -1</clus>
<clus scale="   89.250">  1  5  2 -1</clus>
<clus scale="   94.944">  7  8 -1 -1</clus>
<clus scale="   35.352">  1  5  2 -1</clus>
</clustering>
</event>
<event>
10    4  0.3403565E-005  0.2537249E+03  0.7546771E-02  0.1111836E+00
         21   -1    0    0  503  502  0.00000000000E+00  0.00000000000E+00  0.35231256602E+02  0.35231256602E+02  0.00000000000E+00 0.  1.
          2   -1    0    0  502    0 -0.00000000000E+00 -0.00000000000E+00 -0.24703743297E+04  0.24703743297E+04  0.00000000000E+00 0. -1.
         24    2    1    2    0    0 -0.87068431461E+02  0.18949119703E+03 -0.90032189958E+03  0.92749248515E+03  0.78580924177E+02 0.  0.
         23    2    1    2    0    0  0.12019483849E+03 -0.23964631421E+03 -0.12127834510E+04  0.12456555147E+04  0.94534687698E+02 0.  0.
        -11    1    3    3    0    0 -0.91263359367E+02  0.18020686400E+03 -0.74691698379E+03  0.77374963346E+03  0.00000000000E+00 0.  1.
         12    1    3    3    0    0  0.41949279060E+01  0.92843330209E+01 -0.15340491579E+03  0.15374285170E+03  0.00000000000E+00 0. -1.
        -13    1    4    4    0    0  0.39658467820E+02 -0.17880601908E+03 -0.75969471657E+03  0.78146045896E+03  0.00000000000E+00 0.  1.
         13    1    4    4    0    0  0.80536370669E+02 -0.60840295126E+02 -0.45308873438E+03  0.46419505570E+03  0.00000000000E+00 0. -1.
         21    1    1    2  503  501 -0.20089916846E+02  0.20586917764E+01 -0.29779066797E+02  0.35981047650E+02  0.00000000000E+00 0. -1.
          1    1    1    2  501    0 -0.13036490182E+02  0.48096425404E+02 -0.29225865580E+03  0.29647653887E+03  0.00000000000E+00 0. -1.
<scales pt_clust_5="13000.00000" pt_clust_6="13000.00000" pt_clust_7="13000.00000" pt_clust_8="13000.00000" pt_clust_9="20.19512" pt_clust_10="50.32251"></scales>
<clustering>
<clus scale="   20.195">  1  9  2 -1</clus>
<clus scale="   50.323">  1 10  2 -1</clus>
<clus scale="   78.581">  5  6 -1 -1</clus>
<clus scale="   94.535">  7  8 -1 -1</clus>
<clus scale="  248.223">  2  5  1 -1</clus>
<clus scale="   20.195">  1  5  2 -1</clus>
</clustering>
</event>
<event>
10    4  0.3403565E-005  0.8845850E+02  0.7546771E-02  0.1309203E+00
          2   -1    0    0  503    0 -0.00000000000E+00  0.00000000000E+00  0.40214990211E+03  0.40214990211E+03  0.00000000000E+00 0. -1.
         21   -1    0    0  501  502  0.00000000000E+00 -0.00000000000E+00 -0.31217629336E+03  0.31217629336E+03  0.00000000000E+00 0.  1.
         24    2    1    2    0    0 -0.21597857278E+02  0.30240637323E+02  0.28109218108E+03  0.29365735842E+03  0.76425560543E+02 0.  0.
         23    2    1    2    0    0  0.54136210284E+02  0.10811624639E+02  0.24416547979E+02  0.10092129775E+03  0.80878427488E+02 0.  0.
        -11    1    3    3    0    0  0.22009761268E+02 -0.11048835085E+02  0.70953130098E+02  0.75105612430E+02  0.00000000000E+00 0.  1.
         12    1    3    3    0    0 -0.43607618546E+02  0.41289472408E+02  0.21013905099E+03  0.21855174599E+03  0.00000000000E+00 0. -1.
        -13    1    4    4    0    0  0.38672099509E+02  0.45621875984E+02  0.16037294472E+02  0.61919961746E+02  0.00000000000E+00 0. -1.
         13    1    4    4    0    0  0.15464110775E+02 -0.34810251344E+02  0.83792535070E+01  0.39001336003E+02  0.00000000000E+00 0.  1.
         21    1    1    2  503  502 -0.78918952372E+02  0.17379383822E+02 -0.22997638699E+03  0.24376091277E+03  0.00000000000E+00 0.  1.
          1    1    1    2  501    0  0.46380599366E+02 -0.58431645784E+02  0.14441266673E+02  0.75986626519E+02  0.00000000000E+00 0. -1.
<scales pt_clust_5="13000.00000" pt_clust_6="13000.00000" pt_clust_7="13000.00000" pt_clust_8="13000.00000" pt_clust_9="51.00832" pt_clust_10="74.60176"></scales>
<clustering>
<clus scale="   74.602">  2 10  1 -1</clus>
<clus scale="   51.008">  2  9  1 -1</clus>
<clus scale="   76.426">  5  6 -1 -1</clus>
<clus scale="   80.878">  7  8 -1 -1</clus>
<clus scale="   84.406">  1  5  2 -1</clus>
<clus scale="   74.602">  2  5  1 -1</clus>
</clustering>
</event>
<event>
10    4  0.3403565E-005  0.9751923E+02  0.7546771E-02  0.1290716E+00
          2   -1    0    0  503    0 -0.00000000000E+00  0.00000000000E+00  0.30078023798E+03  0.30078023798E+03  0.00000000000E+00 0. -1.
         21   -1    0    0  501  502  0.00000000000E+00 -0.00000000000E+00 -0.16667415962E+03  0.16667415962E+03  0.00000000000E+00 0.  1.
         23    2    1    2    0    0  0.32886104596E+02 -0.45101969515E+01  0.22614933314E+03  0.24600443799E+03  0.90955070663E+02 0.  0.
         24    2    1    2    0    0 -0.59459479116E+02 -0.22750479091E+02 -0.84675730330E+02  0.13354064561E+03  0.81302587703E+02 0.  0.
        -13    1    4    4    0    0 -0.59179083535E+02 -0.10465279488E+02 -0.13870777378E+02  0.61677260541E+02  0.00000000000E+00 0.  1.
         14    1    4    4    0    0 -0.28039558162E+00 -0.12285199604E+02 -0.70804952952E+02  0.71863385068E+02  0.00000000000E+00 0. -1.
        -11    1    3    3    0    0 -0.14240993767E+02  0.21684234641E+02  0.15270865568E+03  0.15489656373E+03  0.00000000000E+00 0. -1.
         11    1    3    3    0    0  0.47127098363E+02 -0.26194431593E+02  0.73440677457E+02  0.91107874259E+02  0.00000000000E+00 0.  1.
         21    1    1    2  503  502  0.11552336095E+02  0.54667988922E+02 -0.90824345517E+01  0.56608622130E+02  0.00000000000E+00 0.  1.
          1    1    1    2  501    0  0.15021038426E+02 -0.27407312880E+02  0.17149100978E+01  0.31300691866E+02  0.00000000000E+00 0. -1.
<scales pt_clust_5="13000.00000" pt_clust_6="13000.00000" pt_clust_7="13000.00000" pt_clust_8="13000.00000" pt_clust_9="50.93861" pt_clust_10="31.25368"></scales>
<clustering>
<clus scale="   31.254">  2 10  1 -1</clus>
<clus scale="   50.939">  2  9  1 -1</clus>
<clus scale="   81.303">  5  6 -1 -1</clus>
<clus scale="   88.585">  2  5  1 -1</clus>
<clus scale="   90.955">  7  8 -1 -1</clus>
<clus scale="   31.254">  2  5  1 -1</clus>
</clustering>
</event>
<event>
10    4  0.3403565E-005  0.1489174E+03  0.7546771E-02  0.1221140E+00
          2   -1    0    0  503    0 -0.00000000000E+00  0.00000000000E+00  0.25980630410E+03  0.25980630410E+03  0.00000000000E+00 0. -1.
         21   -1    0    0  501  502  0.00000000000E+00 -0.00000000000E+00 -0.40915642951E+03  0.40915642951E+03  0.00000000000E+00 0. -1.
         24    2    1    2    0    0  0.48268948511E-01 -0.59980558811E+02  0.58657750986E+02  0.11585058035E+03  0.79893400550E+02 0.  0.
         23    2    1    2    0    0 -0.10263395633E+03 -0.79598856423E+02 -0.27528763601E+03  0.31717036045E+03  0.89129389499E+02 0.  0.
        -11    1    3    3    0    0  0.23826349405E+02  0.85968554064E+01  0.25870008734E+02  0.36205775793E+02  0.00000000000E+00 0.  1.
         12    1    3    3    0    0 -0.23778080456E+02 -0.68577414217E+02  0.32787742252E+02  0.79644804557E+02  0.00000000000E+00 0. -1.
        -11    1    4    4    0    0 -0.11303275159E+03 -0.57009200590E+02 -0.25637471315E+03  0.28592734292E+03  0.00000000000E+00 0. -1.
         11    1    4    4    0    0  0.10398795259E+02 -0.22589655833E+02 -0.18912922855E+02  0.31243017531E+02  0.00000000000E+00 0.  1.
         21    1    1    2  503  502  0.31548386671E+01  0.26706386193E+02 -0.42099996683E+02  0.49955918480E+02  0.00000000000E+00 0. -1.
          1    1    1    2  501    0  0.99430848718E+02  0.11287302904E+03  0.10937975630E+03  0.18598587433E+03  0.00000000000E+00 0. -1.
<scales pt_clust_5="13000.00000" pt_clust_6="13000.00000" pt_clust_7="13000.00000" pt_clust_8="13000.00000" pt_clust_9="26.89208" pt_clust_10="119.29946"></scales>
<clustering>
<clus scale="   26.892">  2  9  1 -1</clus>
<clus scale="   79.893">  5  6 -1 -1</clus>
<clus scale="   89.129">  7  8 -1 -1</clus>
<clus scale="   98.655">  1  5  2 -1</clus>
<clus scale="  119.299">  2 10  1 -1</clus>
<clus scale="   26.892">  2  5  1 -1</clus>
</clustering>
</event>
<event>
10    4  0.3403565E-005  0.1381423E+03  0.7546771E-02  0.1233346E+00
         21   -1    0    0  503  502  0.00000000000E+00  0.00000000000E+00  0.17886262907E+03  0.17886262907E+03  0.00000000000E+00 0. -1.
          2   -1    0    0  502    0 -0.00000000000E+00 -0.00000000000E+00 -0.14176068129E+04  0.14176068129E+04  0.00000000000E+00 0. -1.
         24    2    1    2    0    0 -0.26588383672E+02 -0.48728086758E+02 -0.79630412285E+03  0.80201521872E+03  0.77761085419E+02 0.  0.
         23    2    1    2    0    0 -0.73898663116E+02  0.18149794886E+02 -0.92430945121E+02  0.15075903164E+03  0.91620841190E+02 0.  0.
        -13    1    3    3    0    0 -0.12245439572E+01 -0.32594115415E+02 -0.10259395696E+03  0.10765405646E+03  0.00000000000E+00 0.  1.
         14    1    3    3    0    0 -0.25363839715E+02 -0.16133971343E+02 -0.69371016589E+03  0.69436116226E+03  0.00000000000E+00 0. -1.
        -11    1    4    4    0    0 -0.48374499575E+02 -0.19888921027E+02 -0.90961467616E+02  0.10492687920E+03  0.00000000000E+00 0.  1.
         11    1    4    4    0    0 -0.25524163541E+02  0.38038715913E+02 -0.14694775058E+01  0.45832152436E+02  0.00000000000E+00 0. -1.
         21    1    1    2  503  501 -0.30221270870E+02  0.58858489422E+01  0.13619042603E+03  0.13962736327E+03  0.00000000000E+00 0. -1.
          1    1    1    2  501    0  0.13070831766E+03  0.24692442929E+02 -0.48619954188E+03  0.50406782834E+03  0.00000000000E+00 0. -1.
<scales pt_clust_5="13000.00000" pt_clust_6="13000.00000" pt_clust_7="13000.00000" pt_clust_8="13000.00000" pt_clust_9="30.78910" pt_clust_10="103.38725"></scales>
<clustering>
<clus scale="   30.789">  1  9  2 -1</clus>
<clus scale="   77.761">  5  6 -1 -1</clus>
<clus scale="   91.621">  7  8 -1 -1</clus>
<clus scale="   95.942">  2  5  1 -1</clus>
<clus scale="  103.387">  1 10  2 -1</clus>
<clus scale="   30.789">  1  5  2 -1</clus>
</clustering>
</event>
<event>
10    4  0.3403565E-005  0.2556461E+03  0.7546771E-02  0.1148765E+00
          4   -1    0    0  502    0 -0.00000000000E+00  0.00000000000E+00  0.13150333682E+03  0.13150333682E+03  0.00000000000E+00 0. -1.
         21   -1    0    0  503  502  0.00000000000E+00 -0.00000000000E+00 -0.81613564793E+03  0.81613564793E+03  0.00000000000E+00 0.  1.
         23    2    1    2    0    0 -0.23929756883E+02  0.30124274264E+02 -0.63391525302E+02  0.11668387254E+03  0.90091816866E+02 0.  0.
         24    2    1    2    0    0  0.21905750026E+03 -0.12790284281E+03 -0.32444438814E+03  0.41962531204E+03  0.80473075563E+02 0.  0.
        -13    1    4    4    0    0  0.17837049251E+03 -0.10398430808E+03 -0.30559249292E+03  0.36880284794E+03  0.00000000000E+00 0.  1.
         14    1    4    4    0    0  0.40687007748E+02 -0.23918534730E+02 -0.18851895223E+02  0.50822464094E+02  0.00000000000E+00 0. -1.
        -13    1    3    3    0    0  0.12168260698E+02 -0.27217887040E+02 -0.24262750703E+02  0.38439055855E+02  0.00000000000E+00 0. -1.
         13    1    3    3    0    0 -0.36098017581E+02  0.57342161304E+02 -0.39128774599E+02  0.78244816684E+02  0.00000000000E+00 0.  1.
         21    1    1    2  503  501  0.18970668411E+02  0.14860694744E+02 -0.11770713140E+03  0.12014863832E+03  0.00000000000E+00 0.  1.
          3    1    1    2  501    0 -0.21409841178E+03  0.82917873798E+02 -0.17908926627E+03  0.29118116185E+03  0.00000000000E+00 0. -1.
<scales pt_clust_5="13000.00000" pt_clust_6="13000.00000" pt_clust_7="13000.00000" pt_clust_8="13000.00000" pt_clust_9="24.09827" pt_clust_10="242.65008"></scales>
<clustering>
<clus scale="   24.098">  2  9  1 -1</clus>
<clus scale="   80.473">  5  6 -1 -1</clus>
<clus scale="   90.092">  7  8 -1 -1</clus>
<clus scale="   98.004">  1  7  2 -1</clus>
<clus scale="  242.650">  2 10  1 -1</clus>
<clus scale="   24.098">  2  5  1 -1</clus>
</clustering>
</event>
<event>
10    4  0.3403565E-005  0.1780063E+03  0.7546771E-02  0.1201199E+00
         21   -1    0    0  501  502  0.00000000000E+00  0.00000000000E+00  0.13893719575E+03  0.13893719575E+03  0.00000000000E+00 0.  1.
         -1   -1    0    0    0  501 -0.00000000000E+00 -0.00000000000E+00 -0.55552551307E+03  0.55552551307E+03  0.00000000000E+00 0.  1.
         23    2    1    2    0    0  0.10697616457E+01  0.17733356869E+02 -0.12245285945E+03  0.15100016895E+03  0.86549014445E+02 0.  0.
         24    2    1    2    0    0 -0.12503816889E+03  0.83648048164E+02 -0.33036375882E+03  0.37194267528E+03  0.81053074694E+02 0.  0.
        -13    1    4    4    0    0 -0.93877354801E+02  0.83009255657E+02 -0.31088028939E+03  0.33518658774E+03  0.00000000000E+00 0.  1.
         14    1    4    4    0    0 -0.31160814090E+02  0.63879250610E+00 -0.19483469423E+02  0.36756087542E+02  0.00000000000E+00 0. -1.
        -13    1    3    3    0    0  0.29950866795E+02  0.36789080270E+02 -0.41758081117E+02  0.63199906546E+02  0.00000000000E+00 0.  1.
         13    1    3    3    0    0 -0.28881105150E+02 -0.19055723401E+02 -0.80694778331E+02  0.87800262408E+02  0.00000000000E+00 0. -1.
         21    1    1    2  503  502  0.77008984643E+01 -0.25763523965E+02  0.16183595094E+02  0.31384259661E+02  0.00000000000E+00 0.  1.
         -2    1    1    2    0  503  0.11626750878E+03 -0.75617881067E+02  0.20044705845E+02  0.14013560492E+03  0.00000000000E+00 0.  1.
<scales pt_clust_5="13000.00000" pt_clust_6="13000.00000" pt_clust_7="13000.00000" pt_clust_8="13000.00000" pt_clust_9="21.83992" pt_clust_10="166.06284"></scales>
<clustering>
<clus scale="   21.840">  9 10 -1 -1</clus>
<clus scale="   81.053">  5  6 -1 -1</clus>
<clus scale="   86.549">  7  8 -1 -1</clus>
<clus scale="   88.354">  2  7  1 -1</clus>
<clus scale="  166.063">  1  9  2 -1</clus>
<clus scale="  166.063">  1  5  2 -1</clus>
</clustering>
</event>
<event>
10    4  0.3403565E-005  0.9884387E+02  0.7546771E-02  0.1287893E+00
         21   -1    0    0  503  502  0.00000000000E+00  0.00000000000E+00  0.90402890324E+02  0.90402890324E+02  0.00000000000E+00 0.  1.
         -3   -1    0    0    0  501 -0.00000000000E+00 -0.00000000000E+00 -0.57282957029E+03  0.57282957029E+03  0.00000000000E+00 0.  1.
         23    2    1    2    0    0 -0.10839765623E+02 -0.16317625149E+02 -0.25117417447E+03  0.26747654659E+03  0.89841369354E+02 0.  0.
         24    2    1    2    0    0  0.34809469903E+01  0.68956258170E+02 -0.28087757820E+03  0.30001011548E+03  0.79666636160E+02 0.  0.
        -13    1    4    4    0    0  0.21777318399E+02  0.44587531400E+02 -0.25573272420E+03  0.26050244870E+03  0.00000000000E+00 0.  1.
         14    1    4    4    0    0 -0.18296371409E+02  0.24368726770E+02 -0.25144854009E+02  0.39507666778E+02  0.00000000000E+00 0. -1.
        -11    1    3    3    0    0  0.33568204781E+02 -0.14356142198E+02 -0.17920740963E+03  0.18288854217E+03  0.00000000000E+00 0.  1.
         11    1    3    3    0    0 -0.44407970403E+02 -0.19614829510E+01 -0.71966764843E+02  0.84588004426E+02  0.00000000000E+00 0. -1.
         21    1    1    2  503  501 -0.25658357667E+02 -0.12320206101E+02  0.96062865266E+01  0.30040298556E+02  0.00000000000E+00 0. -1.
         -4    1    1    2    0  502  0.33017176299E+02 -0.40318426920E+02  0.40018786188E+02  0.65705499983E+02  0.00000000000E+00 0.  1.
<scales pt_clust_5="13000.00000" pt_clust_6="13000.00000" pt_clust_7="13000.00000" pt_clust_8="13000.00000" pt_clust_9="28.46294" pt_clust_10="51.43182"></scales>
<clustering>
<clus scale="   28.463">  1  9  2 -1</clus>
<clus scale="   51.432">  1 10  2 -1</clus>
<clus scale="   79.667">  5  6 -1 -1</clus>
<clus scale="   89.696">  1  5  2 -1</clus>
<clus scale="   89.841">  7  8 -1 -1</clus>
<clus scale="   28.463">  1  5  2 -1</clus>
</clustering>
</event>
<event>
10    4  0.3403565E-005  0.1724353E+03  0.7546771E-02  0.1195545E+00
          2   -1    0    0  502    0 -0.00000000000E+00  0.00000000000E+00  0.15243092718E+04  0.15243092718E+04  0.00000000000E+00 0. -1.
         21   -1    0    0  503  502  0.00000000000E+00 -0.00000000000E+00 -0.72318164969E+02  0.72318164969E+02  0.00000000000E+00 0. -1.
         24    2    1    2    0    0  0.38505413280E+02  0.40764568877E+02  0.18104994237E+02  0.10495324681E+03  0.86850309573E+02 0.  0.
         23    2    1    2    0    0  0.76361324243E+02  0.95165526424E+02  0.40379284333E+03  0.43160612441E+03  0.91365513411E+02 0.  0.
        -13    1    3    3    0    0  0.11732657546E+02 -0.23609766858E+02  0.23103051597E+02  0.35054633606E+02  0.00000000000E+00 0.  1.
         14    1    3    3    0    0  0.26772755734E+02  0.64374335735E+02 -0.49980573606E+01  0.69898613208E+02  0.00000000000E+00 0. -1.
        -11    1    4    4    0    0  0.93623626064E+02  0.80025077977E+02  0.28283638633E+03  0.30848957502E+03  0.00000000000E+00 0. -1.
         11    1    4    4    0    0 -0.17262301821E+02  0.15140448447E+02  0.12095645700E+03  0.12311654939E+03  0.00000000000E+00 0.  1.
         21    1    1    2  503  501 -0.17146446406E+02  0.32091675378E+02  0.56076830332E+02  0.66846743773E+02  0.00000000000E+00 0.  1.
          1    1    1    2  501    0 -0.97720291117E+02 -0.16802177068E+03  0.97401643889E+03  0.99322132173E+03  0.00000000000E+00 0. -1.
<scales pt_clust_5="13000.00000" pt_clust_6="13000.00000" pt_clust_7="13000.00000" pt_clust_8="13000.00000" pt_clust_9="36.38511" pt_clust_10="146.24052"></scales>
<clustering>
<clus scale="   36.385">  2  9  1 -1</clus>
<clus scale="   86.850">  5  6 -1 -1</clus>
<clus scale="   91.366">  7  8 -1 -1</clus>
<clus scale="  109.934">  1  5  2 -1</clus>
<clus scale="  146.241">  2 10  1 -1</clus>
<clus scale="   36.385">  2  5  1 -1</clus>
</clustering>
</event>
<event>
10    4  0.4056217E-005  0.1345959E+03  0.7546771E-02  0.1240298E+00
          2   -1    0    0  503    0 -0.00000000000E+00  0.00000000000E+00  0.10566679454E+04  0.10566679454E+04  0.00000000000E+00 0. -1.
         21   -1    0    0  501  502  0.00000000000E+00 -0.00000000000E+00 -0.24960808276E+03  0.24960808276E+03  0.00000000000E+00 0. -1.
         23    2    1    2    0    0 -0.10362411614E+02 -0.26806579518E+02  0.18876607661E+03  0.21084653617E+03  0.89429625153E+02 0.  0.
         24    2    1    2    0    0  0.70840495594E+02  0.35199613652E+02  0.10612149219E+03  0.15429774227E+03  0.79300905087E+02 0.  0.
        -11    1    4    4    0    0 -0.13628408296E+02  0.17638765026E+02  0.39262740179E+02  0.45148890470E+02  0.00000000000E+00 0.  1.
         12    1    4    4    0    0  0.84468903889E+02  0.17560848626E+02  0.66858752011E+02  0.10914885180E+03  0.00000000000E+00 0. -1.
        -11    1    3    3    0    0 -0.47866024310E+01  0.25132544777E+02  0.12880970771E+03  0.13132591965E+03  0.00000000000E+00 0.  1.
         11    1    3    3    0    0 -0.55758091827E+01 -0.51939124294E+02  0.59956368895E+02  0.79520616519E+02  0.00000000000E+00 0. -1.
         21    1    1    2  503  502  0.54327935795E+01  0.77575491168E+02 -0.20321649952E+03  0.21758772427E+03  0.00000000000E+00 0. -1.
          1    1    1    2  501    0 -0.65910877559E+02 -0.85968525302E+02  0.71538879332E+03  0.72354402542E+03  0.00000000000E+00 0. -1.
<scales pt_clust_5="13000.00000" pt_clust_6="13000.00000" pt_clust_7="13000.00000" pt_clust_8="13000.00000" pt_clust_9="77.76549" pt_clust_10="108.75396"></scales>
<clustering>
<clus scale="   77.765">  2  9  1 -1</clus>
<clus scale="   79.301">  5  6 -1 -1</clus>
<clus scale="   89.430">  7  8 -1 -1</clus>
<clus scale="   90.002">  1  7  2 -1</clus>
<clus scale="  108.754">  2 10  1 -1</clus>
<clus scale="   77.765">  2  5  1 -1</clus>
</clustering>
</event>
<event>
10    4  0.3403565E-005  0.1123435E+03  0.7546771E-02  0.1258655E+00
         21   -1    0    0  503  502  0.00000000000E+00  0.00000000000E+00  0.24085354348E+02  0.24085354348E+02  0.00000000000E+00 0. -1.
          2   -1    0    0  502    0 -0.00000000000E+00 -0.00000000000E+00 -0.10183341570E+04  0.10183341570E+04  0.00000000000E+00 0. -1.
         24    2    1    2    0    0 -0.26875022101E+02 -0.64710281172E+02 -0.46536120263E+03  0.47744835173E+03  0.80536900614E+02 0.  0.
         23    2    1    2    0    0  0.77773793187E+01  0.73801727027E+02 -0.26176588948E+03  0.28572589817E+03  0.87239471867E+02 0.  0.
        -11    1    3    3    0    0  0.28909274331E+01 -0.72397268451E+02 -0.26434286459E+03  0.27409281640E+03  0.00000000000E+00 0.  1.
         12    1    3    3    0    0 -0.29765949534E+02  0.76869872790E+01 -0.20101833804E+03  0.20335553534E+03  0.00000000000E+00 0. -1.
        -13    1    4    4    0    0 -0.26257805737E+02  0.61427968283E+01 -0.13811973184E+03  0.14072763282E+03  0.00000000000E+00 0.  1.
         13    1    4    4    0    0  0.34035185056E+02  0.67658930198E+02 -0.12364615763E+03  0.14499826535E+03  0.00000000000E+00 0. -1.
         21    1    1    2  503  501 -0.15575376011E+02 -0.31316240546E+02 -0.74938592568E+02  0.82698802385E+02  0.00000000000E+00 0.  1.
          1    1    1    2  501    0  0.34673018794E+02  0.22224794692E+02 -0.19218311802E+03  0.19654645910E+03  0.00000000000E+00 0. -1.
<scales pt_clust_5="13000.00000" pt_clust_6="13000.00000" pt_clust_7="13000.00000" pt_clust_8="13000.00000" pt_clust_9="34.97570" pt_clust_10="37.99341"></scales>
<clustering>
<clus scale="   34.976">  1  9  2 -1</clus>
<clus scale="   37.993">  1 10  2 -1</clus>
<clus scale="   80.537">  5  6 -1 -1</clus>
<clus scale="   87.239">  7  8 -1 -1</clus>
<clus scale="  107.222">  2  5  1 -1</clus>
<clus scale="   34.976">  1  5  2 -1</clus>
</clustering>
</event>
<event>
10    4  0.3403565E-005  0.1380080E+03  0.7546771E-02  0.1222534E+00
          2   -1    0    0  502    0 -0.00000000000E+00  0.00000000000E+00  0.97318256840E+02  0.97318256840E+02  0.00000000000E+00 0. -1.
         21   -1    0    0  503  502  0.00000000000E+00 -0.00000000000E+00 -0.12569487485E+04  0.12569487485E+04  0.00000000000E+00 0. -1.
         23    2    1    2    0    0  0.60578061628E+02 -0.34305982205E+02 -0.19325839352E+03  0.22509899124E+03  0.92055131442E+02 0.  0.
         24    2    1    2    0    0  0.58819695880E+02 -0.45515471310E+02 -0.73918205649E+03  0.74719553393E+03  0.79872639431E+02 0.  0.
        -13    1    4    4    0    0 -0.18199443041E+02 -0.20248612740E+02 -0.14812835061E+03  0.15060954252E+03  0.00000000000E+00 0.  1.
         14    1    4    4    0    0  0.77019138921E+02 -0.25266858570E+02 -0.59105370588E+03  0.59658599140E+03  0.00000000000E+00 0. -1.
        -13    1    3    3    0    0  0.71352451675E+02 -0.53604161164E+02 -0.17495386345E+03  0.19640120364E+03  0.00000000000E+00 0. -1.
         13    1    3    3    0    0 -0.10774390048E+02  0.19298178959E+02 -0.18304530068E+02  0.28697787599E+02  0.00000000000E+00 0.  1.
         21    1    1    2  503  501  0.24332047395E+02 -0.38347807312E+02 -0.18591135286E+03  0.19137824844E+03  0.00000000000E+00 0.  1.
          1    1    1    2  501    0 -0.14372980490E+03  0.11816926083E+03 -0.41278688793E+02  0.19059423173E+03  0.00000000000E+00 0. -1.
<scales pt_clust_5="13000.00000" pt_clust_6="13000.00000" pt_clust_7="13000.00000" pt_clust_8="13000.00000" pt_clust_9="45.41589" pt_clust_10="112.54588"></scales>
<clustering>
<clus scale="   45.416">  2  9  1 -1</clus>
<clus scale="   79.873">  5  6 -1 -1</clus>
<clus scale="   92.055">  7  8 -1 -1</clus>
<clus scale="  120.384">  1  7  2 -1</clus>
<clus scale="  112.546">  2 10  1 -1</clus>
<clus scale="   45.416">  2  5  1 -1</clus>
</clustering>
</event>
<event>
10    4  0.3403565E-005  0.2226538E+03  0.7546771E-02  0.1169559E+00
         21   -1    0    0  501  502  0.00000000000E+00  0.00000000000E+00  0.16259626157E+03  0.16259626157E+03  0.00000000000E+00 0. -1.
          2   -1    0    0  503    0 -0.00000000000E+00 -0.00000000000E+00 -0.76688735413E+03  0.76688735413E+03  0.00000000000E+00 0. -1.
         23    2    1    2    0    0  0.92945203368E+01 -0.39629724871E+02 -0.92669062526E+02  0.13012528961E+03  0.81781004176E+02 0.  0.
         24    2    1    2    0    0  0.19107517793E+03  0.88221003722E+02 -0.58932280925E+02  0.23253349051E+03  0.79411216804E+02 0.  0.
        -11    1    4    4    0    0  0.83985900739E+02  0.43572454757E+02 -0.67450468802E+02  0.11619705710E+03  0.00000000000E+00 0.  1.
         12    1    4    4    0    0  0.10708927719E+03  0.44648548965E+02  0.85181878775E+01  0.11633643341E+03  0.00000000000E+00 0. -1.
        -13    1    3    3    0    0  0.30486114011E+02  0.97618188055E+01 -0.57760717496E+02  0.66037843238E+02  0.00000000000E+00 0.  1.
         13    1    3    3    0    0 -0.21191593674E+02 -0.49391543676E+02 -0.34908345030E+02  0.64087446367E+02  0.00000000000E+00 0. -1.
         21    1    1    2  503  502 -0.15828354515E+03 -0.13278458026E+03 -0.16585291943E+03  0.26493889164E+03  0.00000000000E+00 0. -1.
          1    1    1    2  501    0 -0.42086153118E+02  0.84193301409E+02 -0.28683682967E+03  0.30188594393E+03  0.00000000000E+00 0. -1.
<scales pt_clust_5="13000.00000" pt_clust_6="13000.00000" pt_clust_7="13000.00000" pt_clust_8="13000.00000" pt_clust_9="208.01095" pt_clust_10="76.45832"></scales>
<clustering>
<clus scale="   79.411">  5  6 -1 -1</clus>
<clus scale="   81.781">  7  8 -1 -1</clus>
<clus scale="   91.351">  2  7  1 -1</clus>
<clus scale="   76.458">  1 10  2 -1</clus>
<clus scale="  208.011">  2  9  1 -1</clus>
<clus scale="   76.458">  1  5  2 -1</clus>
</clustering>
</event>
<event>
10    4  0.3403565E-005  0.2423336E+03  0.7546771E-02  0.1153469E+00
         21   -1    0    0  501  502  0.00000000000E+00  0.00000000000E+00  0.31727987941E+03  0.31727987941E+03  0.00000000000E+00 0. -1.
          2   -1    0    0  503    0 -0.00000000000E+00 -0.00000000000E+00 -0.68744027922E+03  0.68744027922E+03  0.00000000000E+00 0. -1.
         23    2    1    2    0    0  0.30610609556E+02 -0.29444947167E+02 -0.11139384371E+03  0.15054650275E+03  0.91932838213E+02 0.  0.
         24    2    1    2    0    0  0.10019829623E+03  0.22650260931E+03 -0.41801757491E+03  0.49267317925E+03  0.81517102681E+02 0.  0.
        -11    1    4    4    0    0  0.20841421782E+02  0.14943213489E+02 -0.95482365752E+02  0.98866307005E+02  0.00000000000E+00 0.  1.
         12    1    4    4    0    0  0.79356874452E+02  0.21155939582E+03 -0.32253520915E+03  0.39380687225E+03  0.00000000000E+00 0. -1.
        -11    1    3    3    0    0  0.63258895887E+02 -0.17659488050E+02 -0.82019741898E+02  0.10507513259E+03  0.00000000000E+00 0. -1.
         11    1    3    3    0    0 -0.32648286332E+02 -0.11785459118E+02 -0.29374101814E+02  0.45471370162E+02  0.00000000000E+00 0.  1.
         21    1    1    2  503  502  0.47102526063E+01 -0.40834450582E+02  0.14885644437E+03  0.15442758777E+03  0.00000000000E+00 0.  1.
          1    1    1    2  501    0 -0.13551915840E+03 -0.15622321156E+03  0.10394574443E+02  0.20707288886E+03  0.00000000000E+00 0. -1.
<scales pt_clust_5="13000.00000" pt_clust_6="13000.00000" pt_clust_7="13000.00000" pt_clust_8="13000.00000" pt_clust_9="41.10522" pt_clust_10="228.21164"></scales>
<clustering>
<clus scale="   41.105">  1  9  2 -1</clus>
<clus scale="   81.517">  5  6 -1 -1</clus>
<clus scale="   91.933">  7  8 -1 -1</clus>
<clus scale="  102.944">  2  7  1 -1</clus>
<clus scale="  228.212">  1 10  2 -1</clus>
<clus scale="   41.105">  1  5  2 -1</clus>
</clustering>
</event>
<event>
10    4  0.3403565E-005  0.1537651E+03  0.7546771E-02  0.1227069E+00
         21   -1    0    0  501  502  0.00000000000E+00  0.00000000000E+00  0.13008056769E+03  0.13008056769E+03  0.00000000000E+00 0. -1.
          2   -1    0    0  503    0 -0.00000000000E+00 -0.00000000000E+00 -0.10150345658E+04  0.10150345658E+04  0.00000000000E+00 0. -1.
         24    2    1    2    0    0  0.10723228759E+02 -0.15874347099E+02 -0.32399595150E+03  0.33370352520E+03  0.77573730150E+02 0.  0.
         23    2    1    2    0    0  0.93408623607E+02  0.64362278900E+02 -0.51637951383E+03  0.53635658300E+03  0.90348812466E+02 0.  0.
        -11    1    3    3    0    0  0.42115226610E+01 -0.35033291440E+02 -0.65354070183E+02  0.74271279252E+02  0.00000000000E+00 0.  1.
         12    1    3    3    0    0  0.65117060975E+01  0.19158944341E+02 -0.25864188132E+03  0.25943224594E+03  0.00000000000E+00 0. -1.
        -11    1    4    4    0    0  0.19453534120E+02  0.16985560680E+02 -0.21097540491E+02  0.33347495800E+02  0.00000000000E+00 0. -1.
         11    1    4    4    0    0  0.73955089486E+02  0.47376718220E+02 -0.49528197334E+03  0.50300908720E+03  0.00000000000E+00 0.  1.
         21    1    1    2  503  502  0.13390686779E+02  0.65235579184E+02  0.52564434014E+02  0.84841092680E+02  0.00000000000E+00 0. -1.
          1    1    1    2  501    0 -0.11752253914E+03 -0.11372351098E+03 -0.97142966763E+02  0.19021393258E+03  0.00000000000E+00 0. -1.
<scales pt_clust_5="13000.00000" pt_clust_6="13000.00000" pt_clust_7="13000.00000" pt_clust_8="13000.00000" pt_clust_9="66.59573" pt_clust_10="124.42188"></scales>
<clustering>
<clus scale="   66.596">  1  9  2 -1</clus>
<clus scale="   77.574">  5  6 -1 -1</clus>
<clus scale="   79.192">  2  5  1 -1</clus>
<clus scale="   90.349">  7  8 -1 -1</clus>
<clus scale="  124.422">  1 10  2 -1</clus>
<clus scale="   66.596">  1  5  2 -1</clus>
</clustering>
</event>
<event>
10    4  0.3403565E-005  0.3053890E+03  0.7546771E-02  0.1106914E+00
         21   -1    0    0  503  502  0.00000000000E+00  0.00000000000E+00  0.93354602723E+03  0.93354602723E+03  0.00000000000E+00 0.  1.
          2   -1    0    0  502    0 -0.00000000000E+00 -0.00000000000E+00 -0.44860047418E+03  0.44860047418E+03  0.00000000000E+00 0. -1.
         23    2    1    2    0    0  0.83254353605E+02 -0.89795916858E+02  0.36240092341E+03  0.39299450217E+03  0.90086932276E+02 0.  0.
         24    2    1    2    0    0  0.10057270806E+03  0.27836879448E+03  0.25224692495E+03  0.39682771669E+03  0.78991583369E+02 0.  0.
        -13    1    4    4    0    0  0.91961307976E+02  0.28019849127E+03  0.25217931973E+03  0.38802382140E+03  0.00000000000E+00 0.  1.
         14    1    4    4    0    0  0.86114000832E+01 -0.18296967987E+01  0.67605220397E-01  0.88038952876E+01  0.00000000000E+00 0. -1.
        -11    1    3    3    0    0  0.50397533602E+02 -0.92517421781E+02  0.33138533266E+03  0.34772923867E+03  0.00000000000E+00 0.  1.
         11    1    3    3    0    0  0.32856820002E+02  0.27215049235E+01  0.31015590755E+02  0.45265263498E+02  0.00000000000E+00 0. -1.
         21    1    1    2  503  501  0.33981350158E+02  0.17739113943E+01  0.17142631495E+03  0.17477087966E+03  0.00000000000E+00 0.  1.
          1    1    1    2  501    0 -0.21780841182E+03 -0.19034678901E+03 -0.30112861026E+03  0.41755340289E+03  0.00000000000E+00 0. -1.
<scales pt_clust_5="13000.00000" pt_clust_6="13000.00000" pt_clust_7="13000.00000" pt_clust_8="13000.00000" pt_clust_9="34.02762" pt_clust_10="294.99638"></scales>
<clustering>
<clus scale="   34.028">  1  9  2 -1</clus>
<clus scale="   78.992">  5  6 -1 -1</clus>
<clus scale="   90.087">  7  8 -1 -1</clus>
<clus scale="  161.394">  2  7  1 -1</clus>
<clus scale="  294.996">  1 10  2 -1</clus>
<clus scale="   34.028">  1  5  2 -1</clus>
</clustering>
</event>
<event>
10    4  0.3403565E-005  0.1761758E+03  0.7546771E-02  0.1202321E+00
          2   -1    0    0  503    0 -0.00000000000E+00  0.00000000000E+00  0.49696442356E+03  0.49696442356E+03  0.00000000000E+00 0. -1.
         21   -1    0    0  501  502  0.00000000000E+00 -0.00000000000E+00 -0.15368406054E+03  0.15368406054E+03  0.00000000000E+00 0. -1.
         24    2    1    2    0    0  0.37572441919E+02 -0.14164082280E+02  0.13746609596E+03  0.16442829074E+03  0.80792485047E+02 0.  0.
         23    2    1    2    0    0 -0.16303695150E+03  0.63755669651E+02  0.20904213368E+03  0.28526693806E+03  0.83861667838E+02 0.  0.
        -13    1    3    3    0    0  0.29382138993E+02 -0.35040162842E+02  0.30101940792E+02  0.54747145526E+02  0.00000000000E+00 0.  1.
         14    1    3    3    0    0  0.81903029264E+01  0.20876080562E+02  0.10736415516E+03  0.10968114522E+03  0.00000000000E+00 0. -1.
        -13    1    4    4    0    0 -0.71907114067E+02  0.44503014059E+01  0.13714739403E+03  0.15491883657E+03  0.00000000000E+00 0.  1.
         13    1    4    4    0    0 -0.91129837430E+02  0.59305368245E+02  0.71894739648E+02  0.13034810149E+03  0.00000000000E+00 0. -1.
         21    1    1    2  503  502 -0.20764680933E+02  0.24553439724E+02 -0.17089724397E+02  0.36415684210E+02  0.00000000000E+00 0.  1.
          1    1    1    2  501    0  0.14622919051E+03 -0.74145027095E+02  0.13861857783E+02  0.16453757109E+03  0.00000000000E+00 0. -1.
<scales pt_clust_5="13000.00000" pt_clust_6="13000.00000" pt_clust_7="13000.00000" pt_clust_8="13000.00000" pt_clust_9="32.15654" pt_clust_10="154.93595"></scales>
<clustering>
<clus scale="   32.157">  2  9  1 -1</clus>
<clus scale="   80.792">  5  6 -1 -1</clus>
<clus scale="   83.862">  7  8 -1 -1</clus>
<clus scale="   88.948">  1  5  2 -1</clus>
<clus scale="  154.936">  2 10  1 -1</clus>
<clus scale="   32.157">  2  5  1 -1</clus>
</clustering>
</event>
<event>
10    4  0.3403565E-005  0.1301947E+03  0.7546771E-02  0.1229254E+00
          2   -1    0    0  502    0 -0.00000000000E+00  0.00000000000E+00  0.42399458599E+03  0.42399458599E+03  0.00000000000E+00 0. -1.
         21   -1    0    0  503  502  0.00000000000E+00 -0.00000000000E+00 -0.14045119953E+03  0.14045119953E+03  0.00000000000E+00 0. -1.
         24    2    1    2    0    0  0.10855622563E+03 -0.58488486759E+02  0.30109676346E+03  0.33491784828E+03  0.79406214643E+02 0.  0.
         23    2    1    2    0    0 -0.21767108240E+02  0.72427030728E+02  0.31552584168E+02  0.10778174788E+03  0.70013268932E+02 0.  0.
        -11    1    3    3    0    0  0.31099835164E+02 -0.44240724611E+02  0.57627344061E+02  0.79027541052E+02  0.00000000000E+00 0.  1.
         12    1    3    3    0    0  0.77456390466E+02 -0.14247762149E+02  0.24346941940E+03  0.25589030723E+03  0.00000000000E+00 0. -1.
        -11    1    4    4    0    0  0.20721763285E+02  0.51138358502E+02  0.21424867272E+02  0.59190777336E+02  0.00000000000E+00 0. -1.
         11    1    4    4    0    0 -0.42488871525E+02  0.21288672225E+02  0.10127716896E+02  0.48590970541E+02  0.00000000000E+00 0.  1.
         21    1    1    2  503  501 -0.10793933156E+02  0.21040801730E+02 -0.25593063861E+02  0.34845792404E+02  0.00000000000E+00 0. -1.
          1    1    1    2  501    0 -0.75995184234E+02 -0.34979345698E+02 -0.23512897306E+02  0.86900396961E+02  0.00000000000E+00 0. -1.
<scales pt_clust_5="13000.00000" pt_clust_6="13000.00000" pt_clust_7="13000.00000" pt_clust_8="13000.00000" pt_clust_9="23.64792" pt_clust_10="84.99130"></scales>
<clustering>
<clus scale="   23.648">  2  9  1 -1</clus>
<clus scale="   70.013">  7  8 -1 -1</clus>
<clus scale="   79.406">  5  6 -1 -1</clus>
<clus scale="   84.991">  2 10  1 -1</clus>
<clus scale="  124.688">  2  7  1 -1</clus>
<clus scale="   23.648">  2  5  1 -1</clus>
</clustering>
</event>
<event>
10    4  0.3403565E-005  0.1173991E+03  0.7546771E-02  0.1250177E+00
         -1   -1    0    0    0  501 -0.00000000000E+00  0.00000000000E+00  0.11471918301E+03  0.11471918301E+03  0.00000000000E+00 0.  1.
         21   -1    0    0  501  502  0.00000000000E+00 -0.00000000000E+00 -0.72673541178E+03  0.72673541178E+03  0.00000000000E+00 0.  1.
         23    2    1    2    0    0  0.30271090815E+02 -0.66387240118E+02  0.40917645671E+02  0.12196636612E+03  0.88757738520E+02 0.  0.
         24    2    1    2    0    0 -0.31908932120E+02  0.99309218470E+02 -0.26539891214E+03  0.29625930230E+03  0.80327397641E+02 0.  0.
        -13    1    4    4    0    0 -0.38729967897E+02  0.92518626446E+01 -0.10311725335E+03  0.11053856935E+03  0.00000000000E+00 0.  1.
         14    1    4    4    0    0  0.68210357772E+01  0.90057355825E+02 -0.16228165879E+03  0.18572073295E+03  0.00000000000E+00 0. -1.
        -13    1    3    3    0    0 -0.22094248111E+02 -0.40478588943E+02 -0.66936595762E+01  0.46599109873E+02  0.00000000000E+00 0. -1.
         13    1    3    3    0    0  0.52365338926E+02 -0.25908651176E+02  0.47611305247E+02  0.75367256245E+02  0.00000000000E+00 0.  1.
         21    1    1    2  503  502 -0.81828896881E+02 -0.20102924374E+02 -0.22073335634E+03  0.23626957174E+03  0.00000000000E+00 0.  1.
         -2    1    1    2    0  503  0.83466738186E+02 -0.12819053978E+02 -0.16680160597E+03  0.18695935463E+03  0.00000000000E+00 0.  1.
<scales pt_clust_5="13000.00000" pt_clust_6="13000.00000" pt_clust_7="13000.00000" pt_clust_8="13000.00000" pt_clust_9="84.26207" pt_clust_10="57.96005"></scales>
<clustering>
<clus scale="   80.327">  5  6 -1 -1</clus>
<clus scale="   84.262">  2  9  1 -1</clus>
<clus scale="   57.960">  2 10  1 -1</clus>
<clus scale="   88.758">  7  8 -1 -1</clus>
<clus scale="  111.163">  2  5  1 -1</clus>
<clus scale="   84.262">  2  5  1 -1</clus>
</clustering>
</event>
<event>
10    4  0.3403565E-005  0.1927980E+03  0.7546771E-02  0.1195853E+00
          2   -1    0    0  503    0 -0.00000000000E+00  0.00000000000E+00  0.44824186385E+03  0.44824186385E+03  0.00000000000E+00 0. -1.
         21   -1    0    0  501  502  0.00000000000E+00 -0.00000000000E+00 -0.13072578308E+03  0.13072578308E+03  0.00000000000E+00 0. -1.
         24    2    1    2    0    0  0.80330821036E+01 -0.18270417974E+01  0.53481227639E+01  0.78400254045E+02  0.77782574703E+02 0.  0.
         23    2    1    2    0    0 -0.15880351072E+03  0.48173387158E+02  0.16466632142E+03  0.25080071343E+03  0.90811729421E+02 0.  0.
        -13    1    3    3    0    0  0.24964477718E+02  0.26411913884E+02  0.20967240661E+02  0.41957591967E+02  0.00000000000E+00 0.  1.
         14    1    3    3    0    0 -0.16931395614E+02 -0.28238955681E+02 -0.15619117897E+02  0.36442662078E+02  0.00000000000E+00 0. -1.
        -11    1    4    4    0    0 -0.43648114967E+02  0.53547102018E+02  0.35494957134E+02  0.77668153426E+02  0.00000000000E+00 0.  1.
         11    1    4    4    0    0 -0.11515539575E+03 -0.53737148595E+01  0.12917136429E+03  0.17313256000E+03  0.00000000000E+00 0. -1.
         21    1    1    2  503  502 -0.78614492811E+01  0.24971496110E+02  0.30268080659E+02  0.40019179271E+02  0.00000000000E+00 0. -1.
          1    1    1    2  501    0  0.15863187790E+03 -0.71317841471E+02  0.11723355592E+03  0.20974750018E+03  0.00000000000E+00 0. -1.
<scales pt_clust_5="13000.00000" pt_clust_6="13000.00000" pt_clust_7="13000.00000" pt_clust_8="13000.00000" pt_clust_9="26.17973" pt_clust_10="170.07146"></scales>
<clustering>
<clus scale="   26.180">  1  9  2 -1</clus>
<clus scale="   77.783">  5  6 -1 -1</clus>
<clus scale="   78.122">  1  5  2 -1</clus>
<clus scale="   90.812">  7  8 -1 -1</clus>
<clus scale="  170.071">  2 10  1 -1</clus>
<clus scale="  170.071">  2  5  1 -1</clus>
</clustering>
</event>
<event>
10    4  0.3403565E-005  0.1058020E+03  0.7546771E-02  0.1271491E+00
         -3   -1    0    0    0  501 -0.00000000000E+00  0.00000000000E+00  0.85101226559E+03  0.85101226559E+03  0.00000000000E+00 0.  1.
         21   -1    0    0  503  502  0.00000000000E+00 -0.00000000000E+00 -0.49803990686E+02  0.49803990686E+02  0.00000000000E+00 0.  1.
         24    2    1    2    0    0  0.14935636334E+02 -0.82490470135E+02  0.47015334189E+03  0.48432850622E+03  0.80636134276E+02 0.  0.
         23    2    1    2    0    0  0.49010792466E+02  0.74505505809E+01  0.14979817692E+03  0.18056491235E+03  0.87787386809E+02 0.  0.
        -13    1    3    3    0    0  0.26459383410E+02 -0.92025600696E+02  0.44392984735E+03  0.45413931730E+03  0.00000000000E+00 0.  1.
         14    1    3    3    0    0 -0.11523747076E+02  0.95351305611E+01  0.26223494545E+02  0.30189188920E+02  0.00000000000E+00 0. -1.
        -11    1    4    4    0    0  0.18834810877E+02  0.38904926573E+02  0.12057024078E+03  0.12808405980E+03  0.00000000000E+00 0. -1.
         11    1    4    4    0    0  0.30175981588E+02 -0.31454375992E+02  0.29227936136E+02  0.52480852553E+02  0.00000000000E+00 0.  1.
         21    1    1    2  503  501  0.26390964208E+02  0.78973110079E+01  0.69112910563E+01  0.28400993944E+02  0.00000000000E+00 0.  1.
         -4    1    1    2    0  502 -0.90337393007E+02  0.67142608546E+02  0.17434546504E+03  0.20752184376E+03  0.00000000000E+00 0.  1.
<scales pt_clust_5="13000.00000" pt_clust_6="13000.00000" pt_clust_7="13000.00000" pt_clust_8="13000.00000" pt_clust_9="27.54724" pt_clust_10="105.97741"></scales>
<clustering>
<clus scale="   27.547">  2  9  1 -1</clus>
<clus scale="   80.636">  5  6 -1 -1</clus>
<clus scale="   87.787">  7  8 -1 -1</clus>
<clus scale="  105.977">  2 10  1 -1</clus>
<clus scale="   99.948">  1  5  2 -1</clus>
<clus scale="   27.547">  2  5  1 -1</clus>
</clustering>
</event>
<event>
10    4  0.3403565E-005  0.1657881E+03  0.7546771E-02  0.1206024E+00
         -1   -1    0    0    0  501 -0.00000000000E+00  0.00000000000E+00  0.12436669827E+04  0.12436669827E+04  0.00000000000E+00 0.  1.
         21   -1    0    0  501  502  0.00000000000E+00 -0.00000000000E+00 -0.47153088742E+02  0.47153088742E+02  0.00000000000E+00 0.  1.
         24    2    1    2    0    0  0.37217600031E+02 -0.25461407248E+02  0.20142579191E+03  0.22162055669E+03  0.80683879988E+02 0.  0.
         23    2    1    2    0    0  0.62552171594E+02  0.12829085486E+03  0.66304762767E+03  0.68410060128E+03  0.89387686448E+02 0.  0.
        -13    1    3    3    0    0  0.50023645869E+02 -0.73385910960E+01  0.19009632234E+03  0.19670493597E+03  0.00000000000E+00 0.  1.
         14    1    3    3    0    0 -0.12806045838E+02 -0.18122816152E+02  0.11329469564E+02  0.24915620721E+02  0.00000000000E+00 0. -1.
        -13    1    4    4    0    0 -0.83634543496E+01  0.69504498795E+02  0.19782505233E+03  0.20984654882E+03  0.00000000000E+00 0.  1.
         13    1    4    4    0    0  0.70915625944E+02  0.58786356069E+02  0.46522257534E+03  0.47425405246E+03  0.00000000000E+00 0. -1.
         21    1    1    2  503  502  0.31594399196E+02 -0.35242414168E+02  0.79752900451E+02  0.92740276835E+02  0.00000000000E+00 0.  1.
         -2    1    1    2    0  503 -0.13136417082E+03 -0.67587033448E+02  0.25228757396E+03  0.29235863668E+03  0.00000000000E+00 0.  1.
<scales pt_clust_5="13000.00000" pt_clust_6="13000.00000" pt_clust_7="13000.00000" pt_clust_8="13000.00000" pt_clust_9="47.33111" pt_clust_10="139.62643"></scales>
<clustering>
<clus scale="   47.331">  2  9  1 -1</clus>
<clus scale="   80.684">  5  6 -1 -1</clus>
<clus scale="   89.388">  7  8 -1 -1</clus>
<clus scale="   98.545">  1  5  2 -1</clus>
<clus scale="  139.626">  2 10  1 -1</clus>
<clus scale="   47.331">  2  5  1 -1</clus>
</clustering>
</event>
<event>
10    4  0.3403565E-005  0.4138621E+03  0.7546771E-02  0.1062509E+00
          2   -1    0    0  502    0 -0.00000000000E+00  0.00000000000E+00  0.64353477595E+03  0.64353477595E+03  0.00000000000E+00 0. -1.
         21   -1    0    0  503  502  0.00000000000E+00 -0.00000000000E+00 -0.71877574138E+03  0.71877574138E+03  0.00000000000E+00 0. -1.
         24    2    1    2    0    0 -0.30704171870E+02 -0.19415022999E+03  0.31216575393E+03  0.37752574842E+03  0.80256930017E+02 0.  0.
         23    2    1    2    0    0  0.19133907908E+03 -0.23215395927E+03  0.80120320163E+02  0.32631152120E+03  0.97743742399E+02 0.  0.
        -11    1    3    3    0    0  0.22173309788E+02 -0.51713845234E+02  0.12013145343E+03  0.13265573323E+03  0.00000000000E+00 0.  1.
         12    1    3    3    0    0 -0.52877481658E+02 -0.14243638476E+03  0.19203430051E+03  0.24487001519E+03  0.00000000000E+00 0. -1.
        -13    1    4    4    0    0  0.15314654341E+03 -0.13220250257E+03  0.19298732754E+02  0.20323337947E+03  0.00000000000E+00 0. -1.
         13    1    4    4    0    0  0.38192535669E+02 -0.99951456705E+02  0.60821587409E+02  0.12307814174E+03  0.00000000000E+00 0.  1.
         21    1    1    2  503  501 -0.19394403941E+02  0.27575338847E+02 -0.71348046710E+02  0.78911887482E+02  0.00000000000E+00 0. -1.
          1    1    1    2  501    0 -0.14124050327E+03  0.39872885042E+03 -0.39617899282E+03  0.57956136023E+03  0.00000000000E+00 0. -1.
<scales pt_clust_5="13000.00000" pt_clust_6="13000.00000" pt_clust_7="13000.00000" pt_clust_8="13000.00000" pt_clust_9="24.39419" pt_clust_10="411.33280"></scales>
<clustering>
<clus scale="   24.394">  9 10 -1 -1</clus>
<clus scale="   80.257">  5  6 -1 -1</clus>
<clus scale="   97.744">  7  8 -1 -1</clus>
<clus scale="  212.316">  1  5  2 -1</clus>
<clus scale="  411.333">  2  9  1 -1</clus>
<clus scale="  411.333">  2  5  1 -1</clus>
</clustering>
</event>
<event>
10    4  0.3403565E-005  0.1117875E+03  0.7546771E-02  0.1260911E+00
         -1   -1    0    0    0  501 -0.00000000000E+00  0.00000000000E+00  0.37453784120E+03  0.37453784120E+03  0.00000000000E+00 0.  1.
         21   -1    0    0  503  502  0.00000000000E+00 -0.00000000000E+00 -0.30006056089E+03  0.30006056089E+03  0.00000000000E+00 0.  1.
         23    2    1    2    0    0 -0.31035015881E+02 -0.60877711666E+02  0.22324530289E+03  0.25105342726E+03  0.92304334087E+02 0.  0.
         24    2    1    2    0    0  0.88624327070E+02 -0.20108248975E+02 -0.39190283292E+02  0.12905948351E+03  0.82836338364E+02 0.  0.
        -13    1    4    4    0    0  0.10019736144E+02 -0.40222598331E+02 -0.18064160031E+02  0.45216881875E+02  0.00000000000E+00 0.  1.
         14    1    4    4    0    0  0.78604590926E+02  0.20114349356E+02 -0.21126123262E+02  0.83842601634E+02  0.00000000000E+00 0. -1.
        -13    1    3    3    0    0 -0.17306811878E+02 -0.82065347441E+02  0.13209587111E+03  0.15647225362E+03  0.00000000000E+00 0.  1.
         13    1    3    3    0    0 -0.13728204003E+02  0.21187635775E+02  0.91149431777E+02  0.94581173646E+02  0.00000000000E+00 0. -1.
         21    1    1    2  503  501 -0.96086761947E+02  0.85678765717E+01 -0.16804361901E+03  0.19376463099E+03  0.00000000000E+00 0.  1.
         -2    1    1    2    0  502  0.38497450757E+02  0.72418084069E+02  0.58465879722E+02  0.10072086034E+03  0.00000000000E+00 0.  1.
<scales pt_clust_5="13000.00000" pt_clust_6="13000.00000" pt_clust_7="13000.00000" pt_clust_8="13000.00000" pt_clust_9="90.23336" pt_clust_10="82.01487"></scales>
<clustering>
<clus scale="   82.015">  2 10  1 -1</clus>
<clus scale="   82.836">  5  6 -1 -1</clus>
<clus scale="   90.233">  2  9  1 -1</clus>
<clus scale="   92.304">  7  8 -1 -1</clus>
<clus scale="  104.107">  2  5  1 -1</clus>
<clus scale="   82.015">  2  5  1 -1</clus>
</clustering>
</event>
<event>
10    4  0.3403565E-005  0.9188704E+02  0.7546771E-02  0.1307355E+00
         21   -1    0    0  501  502  0.00000000000E+00  0.00000000000E+00  0.45189226249E+03  0.45189226249E+03  0.00000000000E+00 0.  1.
         -1   -1    0    0    0  501 -0.00000000000E+00 -0.00000000000E+00 -0.40276351954E+03  0.40276351954E+03  0.00000000000E+00 0.  1.
         23    2    1    2    0    0 -0.41348224829E+02 -0.18591604341E+02 -0.36825338164E+03  0.37660468930E+03  0.64538480534E+02 0.  0.
         24    2    1    2    0    0  0.17125406626E+02 -0.24026626837E+02  0.68992286638E+02  0.11033264968E+03  0.80887573961E+02 0.  0.
        -13    1    4    4    0    0 -0.30441450360E+02  0.32527669134E+01  0.18363215511E+02  0.35699720958E+02  0.00000000000E+00 0.  1.
         14    1    4    4    0    0  0.47566856985E+02 -0.27279393750E+02  0.50629071127E+02  0.74632928725E+02  0.00000000000E+00 0. -1.
        -11    1    3    3    0    0 -0.26689483570E+02  0.22709262191E+02 -0.16492268327E+03  0.16860465764E+03  0.00000000000E+00 0.  1.
         11    1    3    3    0    0 -0.14658741259E+02 -0.41300866531E+02 -0.20333069837E+03  0.20800003166E+03  0.00000000000E+00 0. -1.
         21    1    1    2  503  502 -0.15959287491E+02 -0.13301845818E+02  0.11265880142E+02  0.23633831995E+02  0.00000000000E+00 0.  1.
         -2    1    1    2    0  503  0.40182105694E+02  0.55920076996E+02  0.33712395781E+03  0.34408461104E+03  0.00000000000E+00 0.  1.
<scales pt_clust_5="13000.00000" pt_clust_6="13000.00000" pt_clust_7="13000.00000" pt_clust_8="13000.00000" pt_clust_9="20.77590" pt_clust_10="53.24560"></scales>
<clustering>
<clus scale="   20.776">  1  9  2 -1</clus>
<clus scale="   53.246">  1 10  2 -1</clus>
<clus scale="   64.538">  7  8 -1 -1</clus>
<clus scale="   77.882">  2  7  1 -1</clus>
<clus scale="   80.888">  5  6 -1 -1</clus>
<clus scale="   20.776">  1  5  2 -1</clus>
</clustering>
</event>
<event>
10    4  0.3403565E-005  0.1181728E+03  0.7546771E-02  0.1257927E+00
          2   -1    0    0  502    0 -0.00000000000E+00  0.00000000000E+00  0.57793970231E+03  0.57793970231E+03  0.00000000000E+00 0. -1.
         21   -1    0    0  503  502  0.00000000000E+00 -0.00000000000E+00 -0.15832765617E+03  0.15832765617E+03  0.00000000000E+00 0. -1.
         24    2    1    2    0    0  0.71028822724E+01 -0.54910237545E+02  0.29771866619E+02  0.10212499564E+03  0.80483324785E+02 0.  0.
         23    2    1    2    0    0 -0.14754714157E+02 -0.54052984978E+02  0.16788522989E+03  0.19967648383E+03  0.92443609871E+02 0.  0.
        -11    1    3    3    0    0  0.24035069451E+02 -0.27494886039E+02  0.51592278197E+02  0.63209307000E+02  0.00000000000E+00 0.  1.
         12    1    3    3    0    0 -0.16932187179E+02 -0.27415351506E+02 -0.21820411578E+02  0.38915688639E+02  0.00000000000E+00 0. -1.
        -11    1    4    4    0    0 -0.21188318989E+02  0.15008480992E+02  0.11108291245E+02  0.28241697854E+02  0.00000000000E+00 0.  1.
         11    1    4    4    0    0  0.64336048319E+01 -0.69061465970E+02  0.15677693864E+03  0.17143478598E+03  0.00000000000E+00 0. -1.
         21    1    1    2  503  501 -0.76723574604E+02  0.45295329145E+02 -0.76759185530E+02  0.11760164244E+03  0.00000000000E+00 0. -1.
          1    1    1    2  501    0  0.84375406489E+02  0.63667893379E+02  0.29871413516E+03  0.31686423657E+03  0.00000000000E+00 0. -1.
<scales pt_clust_5="13000.00000" pt_clust_6="13000.00000" pt_clust_7="13000.00000" pt_clust_8="13000.00000" pt_clust_9="89.09643" pt_clust_10="73.61383"></scales>
<clustering>
<clus scale="   80.483">  5  6 -1 -1</clus>
<clus scale="   89.096">  2  9  1 -1</clus>
<clus scale="   92.444">  7  8 -1 -1</clus>
<clus scale="   93.455">  1  5  2 -1</clus>
<clus scale="   73.614">  2 10  1 -1</clus>
<clus scale="   89.096">  2  5  1 -1</clus>
</clustering>
</event>
<event>
10    4  0.3403565E-005  0.1838887E+03  0.7546771E-02  0.1191463E+00
         21   -1    0    0  501  502  0.00000000000E+00  0.00000000000E+00  0.39969326220E+03  0.39969326220E+03  0.00000000000E+00 0. -1.
          2   -1    0    0  503    0 -0.00000000000E+00 -0.00000000000E+00 -0.43160507032E+03  0.43160507032E+03  0.00000000000E+00 0. -1.
         24    2    1    2    0    0  0.31524675187E+02 -0.51346196269E+02 -0.16612926728E+02  0.10174059201E+03  0.80280269754E+02 0.  0.
         23    2    1    2    0    0  0.89952538421E+02  0.14033411969E+03 -0.28000656480E+03  0.33611244174E+03  0.82357591306E+02 0.  0.
        -13    1    3    3    0    0  0.56864138493E+02 -0.35158315449E+02  0.10579675838E+01  0.66863717271E+02  0.00000000000E+00 0.  1.
         14    1    3    3    0    0 -0.25339463306E+02 -0.16187880820E+02 -0.17670894311E+02  0.34876874743E+02  0.00000000000E+00 0. -1.
        -11    1    4    4    0    0  0.19176414414E+02 -0.58763238484E+01 -0.14107173356E+02  0.24520978607E+02  0.00000000000E+00 0.  1.
         11    1    4    4    0    0  0.70776124007E+02  0.14621044354E+03 -0.26589939144E+03  0.31159146313E+03  0.00000000000E+00 0. -1.
         21    1    1    2  503  502  0.44884140750E+02  0.52481704761E+02  0.38666657366E+02  0.79145598851E+02  0.00000000000E+00 0.  1.
          1    1    1    2  501    0 -0.16636135436E+03 -0.14146962818E+03  0.22604102603E+03  0.31429969992E+03  0.00000000000E+00 0. -1.
<scales pt_clust_5="13000.00000" pt_clust_6="13000.00000" pt_clust_7="13000.00000" pt_clust_8="13000.00000" pt_clust_9="69.05733" pt_clust_10="164.41495"></scales>
<clustering>
<clus scale="   69.057">  1  9  2 -1</clus>
<clus scale="   80.280">  5  6 -1 -1</clus>
<clus scale="   82.358">  7  8 -1 -1</clus>
<clus scale="   99.146">  2  5  1 -1</clus>
<clus scale="  164.415">  1 10  2 -1</clus>
<clus scale="   69.057">  1  5  2 -1</clus>
</clustering>
</event>
<event>
10    4  0.3403565E-005  0.2857545E+03  0.7546771E-02  0.1120490E+00
         21   -1    0    0  501  502  0.00000000000E+00  0.00000000000E+00  0.15286220038E+03  0.15286220038E+03  0.00000000000E+00 0. -1.
          2   -1    0    0  503    0 -0.00000000000E+00 -0.00000000000E+00 -0.12523553547E+04  0.12523553547E+04  0.00000000000E+00 0. -1.
         24    2    1    2    0    0 -0.47282555412E+02 -0.10545297390E+03 -0.52005484420E+03  0.53807089455E+03  0.75546520937E+02 0.  0.
         23    2    1    2    0    0 -0.16998384688E+03 -0.12121868029E+03 -0.32623328068E+03  0.39716207339E+03  0.87869690258E+02 0.  0.
        -11    1    3    3    0    0 -0.41670191915E+02 -0.18209704605E+02 -0.25347444814E+03  0.25752144396E+03  0.00000000000E+00 0.  1.
         12    1    3    3    0    0 -0.56123634972E+01 -0.87243269298E+02 -0.26658039606E+03  0.28054945059E+03  0.00000000000E+00 0. -1.
        -13    1    4    4    0    0 -0.13220753255E+03 -0.67505381730E+02 -0.15913100170E+03  0.21762004487E+03  0.00000000000E+00 0.  1.
         13    1    4    4    0    0 -0.37776314331E+02 -0.53713298559E+02 -0.16710227898E+03  0.17954202852E+03  0.00000000000E+00 0. -1.
         21    1    1    2  503  502 -0.57213194669E+01 -0.27553592371E+02  0.20596990649E+02  0.34873628615E+02  0.00000000000E+00 0. -1.
          1    1    1    2  501    0  0.22298772176E+03  0.25422524656E+03 -0.27380202012E+03  0.43511095857E+03  0.00000000000E+00 0. -1.
<scales pt_clust_5="13000.00000" pt_clust_6="13000.00000" pt_clust_7="13000.00000" pt_clust_8="13000.00000" pt_clust_9="28.14132" pt_clust_10="271.90906"></scales>
<clustering>
<clus scale="   28.141">  1  9  2 -1</clus>
<clus scale="   75.547">  5  6 -1 -1</clus>
<clus scale="   87.870">  7  8 -1 -1</clus>
<clus scale="  139.731">  2  5  1 -1</clus>
<clus scale="  271.909">  1 10  2 -1</clus>
<clus scale="   28.141">  1  5  2 -1</clus>
</clustering>
</event>
<event>
10    4  0.3403565E-005  0.2575872E+03  0.7546771E-02  0.1129689E+00
         21   -1    0    0  501  502  0.00000000000E+00  0.00000000000E+00  0.84718821231E+02  0.84718821231E+02  0.00000000000E+00 0. -1.
          2   -1    0    0  503    0 -0.00000000000E+00 -0.00000000000E+00 -0.17874716423E+04  0.17874716423E+04  0.00000000000E+00 0. -1.
         23    2    1    2    0    0 -0.62142120418E+02  0.11320146442E+03 -0.43942920120E+03  0.46532489952E+03  0.82176788518E+02 0.  0.
         24    2    1    2    0    0  0.96354135400E+02  0.17465013219E+03 -0.43647933570E+03  0.48740488158E+03  0.85220420131E+02 0.  0.
        -13    1    4    4    0    0  0.16950410397E+02  0.75017350397E+02 -0.90794026832E+02  0.11898938852E+03  0.00000000000E+00 0.  1.
         14    1    4    4    0    0  0.79403725003E+02  0.99632781796E+02 -0.34568530887E+03  0.36841549305E+03  0.00000000000E+00 0. -1.
        -11    1    3    3    0    0 -0.15572928305E+02  0.77548936762E+02 -0.34667334752E+03  0.35558228804E+03  0.00000000000E+00 0.  1.
         11    1    3    3    0    0 -0.46569192113E+02  0.35652527654E+02 -0.92755853678E+02  0.10974261148E+03  0.00000000000E+00 0. -1.
         21    1    1    2  503  502  0.41808480517E+02  0.13067508302E+02 -0.90203539637E+01  0.44722204798E+02  0.00000000000E+00 0. -1.
          1    1    1    2  501    0 -0.76020495499E+02 -0.30091910491E+03 -0.81782393017E+03  0.87473847760E+03  0.00000000000E+00 0. -1.
<scales pt_clust_5="13000.00000" pt_clust_6="13000.00000" pt_clust_7="13000.00000" pt_clust_8="13000.00000" pt_clust_9="43.80307" pt_clust_10="243.08171"></scales>
<clustering>
<clus scale="   43.803">  1  9  2 -1</clus>
<clus scale="   82.177">  7  8 -1 -1</clus>
<clus scale="   85.220">  5  6 -1 -1</clus>
<clus scale="  151.881">  2  7  1 -1</clus>
<clus scale="  243.082">  1 10  2 -1</clus>
<clus scale="   43.803">  1  5  2 -1</clus>
</clustering>
</event>
<event>
10    4  0.3403565E-005  0.3856331E+03  0.7546771E-02  0.1071922E+00
          2   -1    0    0  503    0 -0.00000000000E+00  0.00000000000E+00  0.21650473992E+04  0.21650473992E+04  0.00000000000E+00 0. -1.
         21   -1    0    0  501  502  0.00000000000E+00 -0.00000000000E+00 -0.14713943727E+03  0.14713943727E+03  0.00000000000E+00 0. -1.
         24    2    1    2    0    0 -0.10137077806E+03  0.14154543396E+03  0.25089401494E+03  0.31586307842E+03  0.80687874286E+02 0.  0.
         23    2    1    2    0    0 -0.18533274147E+03  0.15968986032E+03  0.11466135081E+04  0.11757726848E+04  0.88711852693E+02 0.  0.
        -11    1    3    3    0    0 -0.17333505362E+02  0.78432913009E+02  0.15011349987E+03  0.17025344370E+03  0.00000000000E+00 0.  1.
         12    1    3    3    0    0 -0.84037272700E+02  0.63112520955E+02  0.10078051507E+03  0.14560963472E+03  0.00000000000E+00 0. -1.
        -13    1    4    4    0    0 -0.23661238800E+02  0.22253347970E+02  0.56260567715E+02  0.64963968452E+02  0.00000000000E+00 0.  1.
         13    1    4    4    0    0 -0.16167150267E+03  0.13743651235E+03  0.10903529404E+04  0.11108087163E+04  0.00000000000E+00 0. -1.
         21    1    1    2  503  502 -0.65085386423E+02  0.11095792335E+02  0.89396885885E+02  0.11113517598E+03  0.00000000000E+00 0. -1.
          1    1    1    2  501    0  0.35178890595E+03 -0.31233108662E+03  0.53100355302E+03  0.70941589730E+03  0.00000000000E+00 0. -1.
<scales pt_clust_5="13000.00000" pt_clust_6="13000.00000" pt_clust_7="13000.00000" pt_clust_8="13000.00000" pt_clust_9="66.02442" pt_clust_10="375.29064"></scales>
<clustering>
<clus scale="   66.024">  2  9  1 -1</clus>
<clus scale="   80.688">  5  6 -1 -1</clus>
<clus scale="   88.712">  7  8 -1 -1</clus>
<clus scale="  202.395">  1  5  2 -1</clus>
<clus scale="  375.291">  2 10  1 -1</clus>
<clus scale="   66.024">  2  5  1 -1</clus>
</clustering>
</event>
<event>
10    4  0.3403565E-005  0.1239115E+03  0.7546771E-02  0.1239665E+00
         21   -1    0    0  501  502  0.00000000000E+00  0.00000000000E+00  0.35853527921E+03  0.35853527921E+03  0.00000000000E+00 0.  1.
          2   -1    0    0  503    0 -0.00000000000E+00 -0.00000000000E+00 -0.22117496961E+03  0.22117496961E+03  0.00000000000E+00 0. -1.
         23    2    1    2    0    0  0.61683330229E+02 -0.26118130954E+02 -0.45287626950E+02  0.12103630100E+03  0.90065681660E+02 0.  0.
         24    2    1    2    0    0 -0.10564118810E+03  0.74729815573E+02  0.27476766580E+03  0.31408821602E+03  0.80059548560E+02 0.  0.
        -13    1    4    4    0    0 -0.74133196891E+02  0.69476149282E+02  0.25950672554E+03  0.27868693332E+03  0.00000000000E+00 0.  1.
         14    1    4    4    0    0 -0.31507991207E+02  0.52536662907E+01  0.15260940255E+02  0.35401282701E+02  0.00000000000E+00 0. -1.
        -11    1    3    3    0    0  0.33631085412E+02 -0.56873967850E+02 -0.44010775291E+02  0.79389208755E+02  0.00000000000E+00 0. -1.
         11    1    3    3    0    0  0.28052244817E+02  0.30755836896E+02 -0.12768516583E+01  0.41647092247E+02  0.00000000000E+00 0.  1.
         21    1    1    2  503  502  0.32563822798E+02  0.55952067908E+01  0.43683628578E+01  0.33328538647E+02  0.00000000000E+00 0.  1.
          1    1    1    2  501    0  0.11394035071E+02 -0.54206891410E+02 -0.96488092107E+02  0.11125719316E+03  0.00000000000E+00 0. -1.
<scales pt_clust_5="13000.00000" pt_clust_6="13000.00000" pt_clust_7="13000.00000" pt_clust_8="13000.00000" pt_clust_9="33.04102" pt_clust_10="58.41234"></scales>
<clustering>
<clus scale="   33.041">  2  9  1 -1</clus>
<clus scale="   58.412">  1 10  2 -1</clus>
<clus scale="   80.060">  5  6 -1 -1</clus>
<clus scale="   90.066">  7  8 -1 -1</clus>
<clus scale="  116.841">  1  5  2 -1</clus>
<clus scale="   58.412">  1  5  2 -1</clus>
</clustering>
</event>
<event>
10    4  0.3403565E-005  0.2483149E+03  0.7546771E-02  0.1121600E+00
         21   -1    0    0  501  502  0.00000000000E+00  0.00000000000E+00  0.33925865912E+03  0.33925865912E+03  0.00000000000E+00 0. -1.
          2   -1    0    0  503    0 -0.00000000000E+00 -0.00000000000E+00 -0.61796177043E+03  0.61796177043E+03  0.00000000000E+00 0. -1.
         23    2    1    2    0    0 -0.10029724034E+03 -0.13155688897E+03 -0.75432525504E+02  0.20410389994E+03  0.92744728205E+02 0.  0.
         24    2    1    2    0    0 -0.16031348335E+03  0.10823080768E+03 -0.13599404753E+03  0.24905927197E+03  0.78242055940E+02 0.  0.
        -13    1    4    4    0    0 -0.52639862028E+02  0.36443646741E+02 -0.39072715349E+01  0.64143286734E+02  0.00000000000E+00 0.  1.
         14    1    4    4    0    0 -0.10767362132E+03  0.71787160941E+02 -0.13208677600E+03  0.18491598524E+03  0.00000000000E+00 0. -1.
        -13    1    3    3    0    0 -0.59800764999E+02 -0.81930680228E+02  0.46700391722E+01  0.10154101202E+03  0.00000000000E+00 0. -1.
         13    1    3    3    0    0 -0.40496475344E+02 -0.49626208746E+02 -0.80102564677E+02  0.10256288792E+03  0.00000000000E+00 0.  1.
         21    1    1    2  503  502 -0.62993551747E+02 -0.35948302075E+02  0.10891862769E+03  0.13085769157E+03  0.00000000000E+00 0. -1.
          1    1    1    2  501    0  0.32360427544E+03  0.59274383367E+02 -0.17619516597E+03  0.37319956607E+03  0.00000000000E+00 0. -1.
<scales pt_clust_5="13000.00000" pt_clust_6="13000.00000" pt_clust_7="13000.00000" pt_clust_8="13000.00000" pt_clust_9="72.52908" pt_clust_10="235.66615"></scales>
<clustering>
<clus scale="   72.529">  1  9  2 -1</clus>
<clus scale="   78.242">  5  6 -1 -1</clus>
<clus scale="   92.745">  7  8 -1 -1</clus>
<clus scale="  207.125">  2  7  1 -1</clus>
<clus scale="  235.666">  1 10  2 -1</clus>
<clus scale="   72.529">  1  5  2 -1</clus>
</clustering>
</event>
<event>
10    4  0.3403565E-005  0.7501741E+03  0.7546771E-02  0.1017778E+00
         21   -1    0    0  501  502  0.00000000000E+00  0.00000000000E+00  0.36643346568E+03  0.36643346568E+03  0.00000000000E+00 0. -1.
          2   -1    0    0  503    0 -0.00000000000E+00 -0.00000000000E+00 -0.39382945682E+04  0.39382945682E+04  0.00000000000E+00 0. -1.
         23    2    1    2    0    0  0.37582270541E+02  0.66613038815E+02  0.57480031618E+02  0.13152359499E+03  0.90248423839E+02 0.  0.
         24    2    1    2    0    0  0.61144642377E+03  0.29072948429E+03 -0.30650701868E+04  0.31399950577E+04  0.80767260041E+02 0.  0.
        -11    1    4    4    0    0  0.20258911816E+02  0.14103457919E+02 -0.60422184137E+02  0.65269988272E+02  0.00000000000E+00 0.  1.
         12    1    4    4    0    0  0.59118751196E+03  0.27662602637E+03 -0.30046480027E+04  0.30747250695E+04  0.00000000000E+00 0. -1.
        -11    1    3    3    0    0 -0.17725673769E+02  0.31464299181E+02 -0.99871303104E+01  0.37469246127E+02  0.00000000000E+00 0.  1.
         11    1    3    3    0    0  0.55307944310E+02  0.35148739635E+02  0.67467161929E+02  0.94054348865E+02  0.00000000000E+00 0. -1.
         21    1    1    2  503  502  0.22819726516E+02  0.63281839543E+02 -0.15229179216E+02  0.68972886223E+02  0.00000000000E+00 0.  1.
          1    1    1    2  501    0 -0.67184842083E+03 -0.42062436265E+03 -0.54904176811E+03  0.96423649494E+03  0.00000000000E+00 0. -1.
<scales pt_clust_5="13000.00000" pt_clust_6="13000.00000" pt_clust_7="13000.00000" pt_clust_8="13000.00000" pt_clust_9="67.27058" pt_clust_10="745.81353"></scales>
<clustering>
<clus scale="   67.271">  1  9  2 -1</clus>
<clus scale="   80.767">  5  6 -1 -1</clus>
<clus scale="   90.248">  7  8 -1 -1</clus>
<clus scale="  131.029">  2  7  1 -1</clus>
<clus scale="  745.814">  1 10  2 -1</clus>
<clus scale="   67.271">  1  5  2 -1</clus>
</clustering>
</event>
<event>
10    4  0.3403565E-005  0.2025448E+03  0.7546771E-02  0.1148767E+00
          2   -1    0    0  503    0 -0.00000000000E+00  0.00000000000E+00  0.13566751212E+04  0.13566751212E+04  0.00000000000E+00 0. -1.
         21   -1    0    0  501  502  0.00000000000E+00 -0.00000000000E+00 -0.13628136218E+03  0.13628136218E+03  0.00000000000E+00 0. -1.
         24    2    1    2    0    0 -0.10594998719E+03  0.26187525169E+02  0.19374757571E+03  0.23581382883E+03  0.78478356953E+02 0.  0.
         23    2    1    2    0    0  0.23304035886E+03 -0.10974005224E+03  0.82244418221E+03  0.86667176120E+03  0.91404709321E+02 0.  0.
        -13    1    3    3    0    0 -0.52612231456E+02  0.28471104009E+01  0.16014871116E+03  0.16859348334E+03  0.00000000000E+00 0.  1.
         14    1    3    3    0    0 -0.53337755737E+02  0.23340414768E+02  0.33598864550E+02  0.67220345489E+02  0.00000000000E+00 0. -1.
        -11    1    4    4    0    0  0.16348717025E+03 -0.11234716729E+03  0.52588328187E+03  0.56205263720E+03  0.00000000000E+00 0. -1.
         11    1    4    4    0    0  0.69553188609E+02  0.26071150523E+01  0.29656090034E+03  0.30461912400E+03  0.00000000000E+00 0.  1.
         21    1    1    2  503  502 -0.30383744076E+02  0.46215990357E+02 -0.74688263235E+02  0.92937755158E+02  0.00000000000E+00 0. -1.
          1    1    1    2  501    0 -0.96706627588E+02  0.37336536715E+02  0.27889026437E+03  0.29753313824E+03  0.00000000000E+00 0. -1.
<scales pt_clust_5="13000.00000" pt_clust_6="13000.00000" pt_clust_7="13000.00000" pt_clust_8="13000.00000" pt_clust_9="55.30904" pt_clust_10="111.80294"></scales>
<clustering>
<clus scale="   55.309">  2  9  1 -1</clus>
<clus scale="   78.478">  5  6 -1 -1</clus>
<clus scale="   91.405">  7  8 -1 -1</clus>
<clus scale="  111.803">  2 10  1 -1</clus>
<clus scale="  197.049">  1  5  2 -1</clus>
<clus scale="   55.309">  2  5  1 -1</clus>
</clustering>
</event>
<event>
10    4  0.3403565E-005  0.2168751E+03  0.7546771E-02  0.1153459E+00
         21   -1    0    0  501  502  0.00000000000E+00  0.00000000000E+00  0.14630400249E+03  0.14630400249E+03  0.00000000000E+00 0. -1.
          2   -1    0    0  503    0 -0.00000000000E+00 -0.00000000000E+00 -0.96263114652E+03  0.96263114652E+03  0.00000000000E+00 0. -1.
         23    2    1    2    0    0  0.14721237711E+02  0.84743915504E+02 -0.96813804617E+02  0.16266018272E+03  0.98423453619E+02 0.  0.
         24    2    1    2    0    0  0.42037579326E+02 -0.24395154322E+03 -0.13899587481E+03  0.29540612504E+03  0.81641974401E+02 0.  0.
        -13    1    4    4    0    0  0.47144362723E+02 -0.61049788373E+02 -0.32532889531E+02  0.83714135594E+02  0.00000000000E+00 0.  1.
         14    1    4    4    0    0 -0.51067833976E+01 -0.18290175484E+03 -0.10646298528E+03  0.21169198945E+03  0.00000000000E+00 0. -1.
        -13    1    3    3    0    0 -0.29876133155E+02  0.59332020995E+02 -0.18383018786E+02  0.68926101205E+02  0.00000000000E+00 0.  1.
         13    1    3    3    0    0  0.44597370866E+02  0.25411894509E+02 -0.78430785831E+02  0.93734081511E+02  0.00000000000E+00 0. -1.
         21    1    1    2  503  502  0.63240015121E+02  0.55854959537E+02 -0.51949751047E+02  0.99085077843E+02  0.00000000000E+00 0.  1.
          1    1    1    2  501    0 -0.11999883216E+03  0.10335266818E+03 -0.52856771356E+03  0.55178376341E+03  0.00000000000E+00 0. -1.
<scales pt_clust_5="13000.00000" pt_clust_6="13000.00000" pt_clust_7="13000.00000" pt_clust_8="13000.00000" pt_clust_9="84.37462" pt_clust_10="200.92151"></scales>
<clustering>
<clus scale="   81.642">  5  6 -1 -1</clus>
<clus scale="   84.375">  1  9  2 -1</clus>
<clus scale="   98.423">  7  8 -1 -1</clus>
<clus scale="  143.654">  2  7  1 -1</clus>
<clus scale="  200.922">  1 10  2 -1</clus>
<clus scale="   84.375">  1  5  2 -1</clus>
</clustering>
</event>
<event>
10    4  0.3403565E-005  0.1148739E+03  0.7546771E-02  0.1255734E+00
          4   -1    0    0  502    0 -0.00000000000E+00  0.00000000000E+00  0.69866807103E+03  0.69866807103E+03  0.00000000000E+00 0. -1.
         21   -1    0    0  503  502  0.00000000000E+00 -0.00000000000E+00 -0.44167815651E+02  0.44167815651E+02  0.00000000000E+00 0. -1.
         24    2    1    2    0    0 -0.44818901364E+02 -0.32593828902E+02  0.23355352285E+03  0.25323268920E+03  0.80674997619E+02 0.  0.
         23    2    1    2    0    0  0.10364168316E+03 -0.61416480904E+01  0.27225177854E+03  0.30547813137E+03  0.91741699873E+02 0.  0.
        -11    1    3    3    0    0 -0.57181247264E+02  0.13369891133E+01  0.17808197045E+03  0.18704189578E+03  0.00000000000E+00 0.  1.
         12    1    3    3    0    0  0.12362345899E+02 -0.33930818015E+02  0.55471552401E+02  0.66190793416E+02  0.00000000000E+00 0. -1.
        -11    1    4    4    0    0  0.10694466815E+03  0.22749349842E+02  0.22034672405E+03  0.24598246637E+03  0.00000000000E+00 0. -1.
         11    1    4    4    0    0 -0.33029849901E+01 -0.28890997932E+02  0.51905054491E+02  0.59495664994E+02  0.00000000000E+00 0.  1.
         21    1    1    2  503  501 -0.10203273016E+01  0.37378474580E+02  0.18605365043E+02  0.41765428744E+02  0.00000000000E+00 0. -1.
          3    1    1    2  501    0 -0.57802454490E+02  0.13570024121E+01  0.13008958894E+03  0.14235963737E+03  0.00000000000E+00 0. -1.
<scales pt_clust_5="13000.00000" pt_clust_6="13000.00000" pt_clust_7="13000.00000" pt_clust_8="13000.00000" pt_clust_9="37.39240" pt_clust_10="58.59888"></scales>
<clustering>
<clus scale="   37.392">  2  9  1 -1</clus>
<clus scale="   58.599">  2 10  1 -1</clus>
<clus scale="   80.675">  5  6 -1 -1</clus>
<clus scale="   91.742">  7  8 -1 -1</clus>
<clus scale="  106.245">  1  5  2 -1</clus>
<clus scale="   37.392">  2  5  1 -1</clus>
</clustering>
</event>
<event>
10    4  0.3403565E-005  0.1114860E+03  0.7546771E-02  0.1262544E+00
         21   -1    0    0  501  502  0.00000000000E+00  0.00000000000E+00  0.45268330510E+02  0.45268330510E+02  0.00000000000E+00 0.  1.
          4   -1    0    0  503    0 -0.00000000000E+00 -0.00000000000E+00 -0.63884855880E+03  0.63884855880E+03  0.00000000000E+00 0. -1.
         23    2    1    2    0    0  0.55017228923E+02  0.29521617429E+02 -0.28686688168E+03  0.30690120929E+03  0.89427753456E+02 0.  0.
         24    2    1    2    0    0 -0.31843765855E+02 -0.74649052261E+02 -0.22542479613E+03  0.25160148905E+03  0.76814478836E+02 0.  0.
        -11    1    4    4    0    0 -0.27772126120E+02 -0.43829108188E+02 -0.45501081089E+02  0.69011811265E+02  0.00000000000E+00 0.  1.
         12    1    4    4    0    0 -0.40716397349E+01 -0.30819944073E+02 -0.17992371504E+03  0.18258967779E+03  0.00000000000E+00 0. -1.
        -13    1    3    3    0    0  0.37408429956E+02 -0.16656642789E+02 -0.48547647277E+02  0.63511482717E+02  0.00000000000E+00 0.  1.
         13    1    3    3    0    0  0.17608798967E+02  0.46178260218E+02 -0.23831923440E+03  0.24338972657E+03  0.00000000000E+00 0. -1.
         21    1    1    2  503  502 -0.60543685207E+00  0.40512581221E+02  0.62650952629E+00  0.40521948437E+02  0.00000000000E+00 0.  1.
          3    1    1    2  501    0 -0.22568026216E+02  0.46148536110E+01 -0.81915060016E+02  0.85092242528E+02  0.00000000000E+00 0. -1.
<scales pt_clust_5="13000.00000" pt_clust_6="13000.00000" pt_clust_7="13000.00000" pt_clust_8="13000.00000" pt_clust_9="44.14019" pt_clust_10="23.03504"></scales>
<clustering>
<clus scale="   23.035">  1 10  2 -1</clus>
<clus scale="   44.140">  1  9  2 -1</clus>
<clus scale="   76.814">  5  6 -1 -1</clus>
<clus scale="   89.428">  7  8 -1 -1</clus>
<clus scale="  101.648">  1  5  2 -1</clus>
<clus scale="   23.035">  1  5  2 -1</clus>
</clustering>
</event>
<event>
10    4  0.3403565E-005  0.1456426E+03  0.7546771E-02  0.1208304E+00
         21   -1    0    0  501  502  0.00000000000E+00  0.00000000000E+00  0.24887520848E+03  0.24887520848E+03  0.00000000000E+00 0.  1.
          4   -1    0    0  503    0 -0.00000000000E+00 -0.00000000000E+00 -0.33289666672E+03  0.33289666672E+03  0.00000000000E+00 0. -1.
         24    2    1    2    0    0 -0.58211830997E+02  0.77756172998E+02 -0.11697396363E+03  0.17137835005E+03  0.79075855926E+02 0.  0.
         23    2    1    2    0    0  0.11487149664E+03 -0.93295851449E+02 -0.90791821980E+02  0.19608341746E+03  0.91137122111E+02 0.  0.
        -11    1    3    3    0    0 -0.69069161477E+02  0.84258439471E+02 -0.11526737148E+03  0.15860832455E+03  0.00000000000E+00 0.  1.
         12    1    3    3    0    0  0.10857330480E+02 -0.65022664725E+01 -0.17065921521E+01  0.12770025497E+02  0.00000000000E+00 0. -1.
        -11    1    4    4    0    0  0.32959251341E+02  0.91331992151E+00  0.11257988150E+02  0.34840905548E+02  0.00000000000E+00 0. -1.
         11    1    4    4    0    0  0.81912245300E+02 -0.94209171371E+02 -0.10204981013E+03  0.16124251191E+03  0.00000000000E+00 0.  1.
         21    1    1    2  503  502 -0.36064146669E+02 -0.17895696828E+02  0.15747669992E+03  0.16254165514E+03  0.00000000000E+00 0.  1.
          3    1    1    2  501    0 -0.20595518974E+02  0.33435375279E+02 -0.33732372540E+02  0.51768452546E+02  0.00000000000E+00 0. -1.
<scales pt_clust_5="13000.00000" pt_clust_6="13000.00000" pt_clust_7="13000.00000" pt_clust_8="13000.00000" pt_clust_9="49.99825" pt_clust_10="39.26960"></scales>
<clustering>
<clus scale="   39.270">  1 10  2 -1</clus>
<clus scale="   49.998">  1  9  2 -1</clus>
<clus scale="   79.076">  5  6 -1 -1</clus>
<clus scale="   91.137">  7  8 -1 -1</clus>
<clus scale="  138.415">  2  5  1 -1</clus>
<clus scale="   39.270">  1  5  2 -1</clus>
</clustering>
</event>
<event>
10    4  0.3403565E-005  0.1706695E+03  0.7546771E-02  0.1179032E+00
          2   -1    0    0  503    0 -0.00000000000E+00  0.00000000000E+00  0.90930788685E+03  0.90930788685E+03  0.00000000000E+00 0. -1.
         21   -1    0    0  501  502  0.00000000000E+00 -0.00000000000E+00 -0.73725523583E+02  0.73725523583E+02  0.00000000000E+00 0. -1.
         23    2    1    2    0    0 -0.53584791947E+02 -0.16848709238E+03  0.65721487254E+03  0.68698108965E+03  0.93554254991E+02 0.  0.
         24    2    1    2    0    0  0.17411780979E+02  0.62279214781E+02  0.43249391447E+02  0.11151440729E+03  0.79894195421E+02 0.  0.
        -11    1    4    4    0    0 -0.31928211436E+02  0.19939415843E+02  0.18542811035E+02  0.41962207172E+02  0.00000000000E+00 0.  1.
         12    1    4    4    0    0  0.49339992415E+02  0.42339798938E+02  0.24706580412E+02  0.69552200118E+02  0.00000000000E+00 0. -1.
        -11    1    3    3    0    0 -0.50139412272E+02 -0.24859441622E+02  0.20423293970E+03  0.21176176746E+03  0.00000000000E+00 0.  1.
         11    1    3    3    0    0 -0.34453796754E+01 -0.14362765076E+03  0.45298193284E+03  0.47521932219E+03  0.00000000000E+00 0. -1.
         21    1    1    2  503  502  0.26991475617E+02  0.97470644542E+01  0.27943786032E+02  0.40054964726E+02  0.00000000000E+00 0.  1.
          1    1    1    2  501    0  0.91815353515E+01  0.96460813142E+02  0.10717431325E+03  0.14448294876E+03  0.00000000000E+00 0. -1.
<scales pt_clust_5="13000.00000" pt_clust_6="13000.00000" pt_clust_7="13000.00000" pt_clust_8="13000.00000" pt_clust_9="28.69747" pt_clust_10="100.53145"></scales>
<clustering>
<clus scale="   28.697">  2  9  1 -1</clus>
<clus scale="   79.894">  5  6 -1 -1</clus>
<clus scale="   93.554">  7  8 -1 -1</clus>
<clus scale="  100.531">  2 10  1 -1</clus>
<clus scale="  163.581">  2  5  1 -1</clus>
<clus scale="   28.697">  2  5  1 -1</clus>
</clustering>
</event>
<event>
10    4  0.3403565E-005  0.3000350E+03  0.7546771E-02  0.1130256E+00
         21   -1    0    0  503  502  0.00000000000E+00  0.00000000000E+00  0.72403401607E+03  0.72403401607E+03  0.00000000000E+00 0.  1.
          2   -1    0    0  502    0 -0.00000000000E+00 -0.00000000000E+00 -0.96379923860E+03  0.96379923860E+03  0.00000000000E+00 0. -1.
         23    2    1    2    0    0  0.82223179922E+02 -0.19946412357E+02  0.35895068431E+03  0.38056111512E+03  0.93929004542E+02 0.  0.
         24    2    1    2    0    0 -0.24122071914E+03 -0.13053533156E+03 -0.25672850340E+03  0.38429513549E+03  0.80909323182E+02 0.  0.
        -13    1    4    4    0    0 -0.14092427208E+03 -0.11981561188E+03 -0.17138643835E+03  0.25216808395E+03  0.00000000000E+00 0.  1.
         14    1    4    4    0    0 -0.10029644706E+03 -0.10719719678E+02 -0.85342065043E+02  0.13212705154E+03  0.00000000000E+00 0. -1.
        -11    1    3    3    0    0  0.70926589256E+02  0.25836301608E+02  0.26347435393E+03  0.27407449849E+03  0.00000000000E+00 0.  1.
         11    1    3    3    0    0  0.11296590666E+02 -0.45782713966E+02  0.95476330375E+02  0.10648661663E+03  0.00000000000E+00 0. -1.
         21    1    1    2  503  501 -0.10585086935E+03  0.93103163194E+01  0.24315316761E+03  0.26535740323E+03  0.00000000000E+00 0.  1.
          1    1    1    2  501    0  0.26484840856E+03  0.14117142760E+03 -0.58514057106E+03  0.65761960082E+03  0.00000000000E+00 0. -1.
<scales pt_clust_5="13000.00000" pt_clust_6="13000.00000" pt_clust_7="13000.00000" pt_clust_8="13000.00000" pt_clust_9="106.25953" pt_clust_10="288.91995"></scales>
<clustering>
<clus scale="   80.909">  5  6 -1 -1</clus>
<clus scale="   93.929">  7  8 -1 -1</clus>
<clus scale="  106.260">  1  9  2 -1</clus>
<clus scale="   94.779">  2  7  1 -1</clus>
<clus scale="  288.920">  1 10  2 -1</clus>
<clus scale="  106.260">  1  5  2 -1</clus>
</clustering>
</event>
<event>
10    4  0.3403565E-005  0.1465071E+03  0.7546771E-02  0.1230221E+00
          2   -1    0    0  502    0 -0.00000000000E+00  0.00000000000E+00  0.22265423695E+03  0.22265423695E+03  0.00000000000E+00 0. -1.
         21   -1    0    0  503  502  0.00000000000E+00 -0.00000000000E+00 -0.43038428737E+03  0.43038428737E+03  0.00000000000E+00 0.  1.
         24    2    1    2    0    0 -0.39092971823E+02  0.44967626275E+01  0.12006639645E+03  0.14815006669E+03  0.77356456639E+02 0.  0.
         23    2    1    2    0    0 -0.10186789688E+03 -0.35951230280E+01 -0.16420234052E+02  0.13881385895E+03  0.92788307592E+02 0.  0.
        -11    1    3    3    0    0 -0.13497168552E+02  0.40266276288E+02  0.52461623054E+02  0.67496432932E+02  0.00000000000E+00 0.  1.
         12    1    3    3    0    0 -0.25595803271E+02 -0.35769513660E+02  0.67604773393E+02  0.80653633756E+02  0.00000000000E+00 0. -1.
        -11    1    4    4    0    0 -0.56722261429E+02  0.32519543748E+02 -0.39697027931E+02  0.76490454919E+02  0.00000000000E+00 0.  1.
         11    1    4    4    0    0 -0.45145635452E+02 -0.36114666776E+02  0.23276793879E+02  0.62323404031E+02  0.00000000000E+00 0. -1.
         21    1    1    2  503  501  0.32637553537E+02 -0.26412629603E+02 -0.21437145641E+03  0.21844440535E+03  0.00000000000E+00 0.  1.
          1    1    1    2  501    0  0.10832331517E+03  0.25510990003E+02 -0.97004756397E+02  0.14763019333E+03  0.00000000000E+00 0. -1.
<scales pt_clust_5="13000.00000" pt_clust_6="13000.00000" pt_clust_7="13000.00000" pt_clust_8="13000.00000" pt_clust_9="41.98615" pt_clust_10="113.37833"></scales>
<clustering>
<clus scale="   41.986">  2  9  1 -1</clus>
<clus scale="   77.356">  5  6 -1 -1</clus>
<clus scale="   85.773">  1  5  2 -1</clus>
<clus scale="   92.788">  7  8 -1 -1</clus>
<clus scale="  113.378">  2 10  1 -1</clus>
<clus scale="   41.986">  2  5  1 -1</clus>
</clustering>
</event>
<event>
10    4  0.3403565E-005  0.1263283E+03  0.7546771E-02  0.1243892E+00
          2   -1    0    0  503    0 -0.00000000000E+00  0.00000000000E+00  0.62729278396E+03  0.62729278396E+03  0.00000000000E+00 0. -1.
         21   -1    0    0  501  502  0.00000000000E+00 -0.00000000000E+00 -0.14471030116E+03  0.14471030116E+03  0.00000000000E+00 0. -1.
         24    2    1    2    0    0 -0.88971292078E+00 -0.65394322830E+02  0.23677375621E+03  0.25750045940E+03  0.77249374842E+02 0.  0.
         23    2    1    2    0    0  0.51401683448E+02  0.53314815919E+02  0.64980445378E+01  0.11873493314E+03  0.92580543896E+02 0.  0.
        -11    1    3    3    0    0  0.15567231418E+02 -0.78322104968E+02  0.17732717483E+03  0.19447780787E+03  0.00000000000E+00 0.  1.
         12    1    3    3    0    0 -0.16456944339E+02  0.12927782138E+02  0.59446581382E+02  0.63022651531E+02  0.00000000000E+00 0. -1.
        -11    1    4    4    0    0  0.23613913543E+02  0.38726324531E+00  0.42737860933E+02  0.48829208910E+02  0.00000000000E+00 0. -1.
         11    1    4    4    0    0  0.27787769904E+02  0.52927552674E+02 -0.36239816395E+02  0.69905724234E+02  0.00000000000E+00 0.  1.
         21    1    1    2  503  502 -0.60570035235E+02  0.11851814676E+03 -0.61404489207E+00  0.13310017780E+03  0.00000000000E+00 0. -1.
          1    1    1    2  501    0  0.10058064709E+02 -0.10643863985E+03  0.23992472694E+03  0.26266751477E+03  0.00000000000E+00 0. -1.
<scales pt_clust_5="13000.00000" pt_clust_6="13000.00000" pt_clust_7="13000.00000" pt_clust_8="13000.00000" pt_clust_9="126.32829" pt_clust_10="13000.00000"></scales>
<clustering>
<clus scale="   77.249">  5  6 -1 -1</clus>
<clus scale="   92.581">  7  8 -1 -1</clus>
<clus scale="  101.216">  1  5  2 -1</clus>
<clus scale="  114.054">  1  7  2 -1</clus>
<clus scale="  126.328">  2  9  1 -1</clus>
<clus scale="  126.328">  2  5  1 -1</clus>
</clustering>
</event>
<event>
10    4  0.3403565E-005  0.1507281E+03  0.7546771E-02  0.1214288E+00
         21   -1    0    0  503  502  0.00000000000E+00  0.00000000000E+00  0.11388634723E+03  0.11388634723E+03  0.00000000000E+00 0. -1.
         -1   -1    0    0    0  501 -0.00000000000E+00 -0.00000000000E+00 -0.46830163920E+03  0.46830163920E+03  0.00000000000E+00 0.  1.
         23    2    1    2    0    0  0.58038609113E+02  0.31053055024E+02 -0.16048483925E+03  0.19361635012E+03  0.86018224989E+02 0.  0.
         24    2    1    2    0    0 -0.49675259549E+02  0.10133996188E+03 -0.21156411725E+02  0.14011654632E+03  0.80297157556E+02 0.  0.
        -11    1    4    4    0    0 -0.20675758772E+02 -0.26234944854E+00  0.18019975294E+02  0.27427638208E+02  0.00000000000E+00 0.  1.
         12    1    4    4    0    0 -0.28999500777E+02  0.10160231133E+03 -0.39176387020E+02  0.11268890811E+03  0.00000000000E+00 0. -1.
        -11    1    3    3    0    0  0.79815238880E+02  0.23142255638E+02 -0.10822044481E+03  0.13644669666E+03  0.00000000000E+00 0.  1.
         11    1    3    3    0    0 -0.21776629767E+02  0.79107993859E+01 -0.52264394439E+02  0.57169653462E+02  0.00000000000E+00 0. -1.
         21    1    1    2  503  501  0.76472439599E+01  0.20947737947E+02 -0.10598496786E+02  0.24690407032E+02  0.00000000000E+00 0.  1.
         -2    1    1    2    0  502 -0.16010593524E+02 -0.15334075485E+03 -0.16217554420E+03  0.22376468296E+03  0.00000000000E+00 0.  1.
<scales pt_clust_5="13000.00000" pt_clust_6="13000.00000" pt_clust_7="13000.00000" pt_clust_8="13000.00000" pt_clust_9="22.29996" pt_clust_10="127.55916"></scales>
<clustering>
<clus scale="   22.300">  1  9  2 -1</clus>
<clus scale="   80.297">  5  6 -1 -1</clus>
<clus scale="   86.018">  7  8 -1 -1</clus>
<clus scale="  109.924">  2  7  1 -1</clus>
<clus scale="  127.559">  1 10  2 -1</clus>
<clus scale="   22.300">  1  5  2 -1</clus>
</clustering>
</event>
<event>
10    4  0.3403565E-005  0.1560143E+03  0.7546771E-02  0.1208458E+00
         21   -1    0    0  501  502  0.00000000000E+00  0.00000000000E+00  0.26737140461E+03  0.26737140461E+03  0.00000000000E+00 0.  1.
          2   -1    0    0  503    0 -0.00000000000E+00 -0.00000000000E+00 -0.70321279129E+03  0.70321279129E+03  0.00000000000E+00 0. -1.
         24    2    1    2    0    0  0.78497959919E+00 -0.76622472508E+02 -0.16669088018E+03  0.19991563705E+03  0.79427910183E+02 0.  0.
         23    2    1    2    0    0  0.54555605402E+02 -0.40393039284E+02 -0.46666925595E+03  0.48014919968E+03  0.90305856995E+02 0.  0.
        -13    1    3    3    0    0 -0.35326618293E+02 -0.35775347147E+02 -0.48981969423E+02  0.70193153170E+02  0.00000000000E+00 0.  1.
         14    1    3    3    0    0  0.36111597892E+02 -0.40847125362E+02 -0.11770891075E+03  0.12972248388E+03  0.00000000000E+00 0. -1.
        -13    1    4    4    0    0  0.14136828006E+02  0.27859999556E+02 -0.18077040546E+03  0.18345018117E+03  0.00000000000E+00 0.  1.
         13    1    4    4    0    0  0.40418777395E+02 -0.68253038839E+02 -0.28589885049E+03  0.29669901851E+03  0.00000000000E+00 0. -1.
         21    1    1    2  503  502 -0.54820615222E+01 -0.23468591278E+02  0.12019804433E+03  0.12259036519E+03  0.00000000000E+00 0.  1.
          1    1    1    2  501    0 -0.49858523479E+02  0.14048410307E+03  0.77320705112E+02  0.16792899398E+03  0.00000000000E+00 0. -1.
<scales pt_clust_5="13000.00000" pt_clust_6="13000.00000" pt_clust_7="13000.00000" pt_clust_8="13000.00000" pt_clust_9="24.10037" pt_clust_10="127.22152"></scales>
<clustering>
<clus scale="   24.100">  1  9  2 -1</clus>
<clus scale="   79.428">  5  6 -1 -1</clus>
<clus scale="   90.306">  7  8 -1 -1</clus>
<clus scale="  112.233">  2  5  1 -1</clus>
<clus scale="  127.222">  1 10  2 -1</clus>
<clus scale="   24.100">  1  5  2 -1</clus>
</clustering>
</event>
<event>
10    4  0.3403565E-005  0.1931385E+03  0.7546771E-02  0.1184778E+00
         21   -1    0    0  501  502  0.00000000000E+00  0.00000000000E+00  0.15793879256E+03  0.15793879256E+03  0.00000000000E+00 0.  1.
          2   -1    0    0  503    0 -0.00000000000E+00 -0.00000000000E+00 -0.17393325263E+04  0.17393325263E+04  0.00000000000E+00 0. -1.
         24    2    1    2    0    0 -0.50575241112E+02  0.36211912743E+02 -0.63453239540E+03  0.64234120678E+03  0.78113427065E+02 0.  0.
         23    2    1    2    0    0  0.16522082390E+03 -0.11289345281E+03 -0.59251208280E+03  0.63202767686E+03  0.91354056940E+02 0.  0.
        -13    1    3    3    0    0 -0.52740707675E+02  0.46210212026E+02 -0.31781610626E+03  0.32545974150E+03  0.00000000000E+00 0.  1.
         14    1    3    3    0    0  0.21654665627E+01 -0.99982992833E+01 -0.31671628914E+03  0.31688146528E+03  0.00000000000E+00 0. -1.
        -11    1    4    4    0    0  0.44777846979E+02 -0.12028379789E+02 -0.26209771188E+03  0.26616714311E+03  0.00000000000E+00 0.  1.
         11    1    4    4    0    0  0.12044297692E+03 -0.10086507302E+03 -0.33041437092E+03  0.36586053375E+03  0.00000000000E+00 0. -1.
         21    1    1    2  503  502 -0.54569568496E+01 -0.23661502086E+02  0.12179904405E+03  0.12419602325E+03  0.00000000000E+00 0.  1.
          1    1    1    2  501    0 -0.10918862594E+03  0.10034304216E+03 -0.47614829962E+03  0.49870641200E+03  0.00000000000E+00 0. -1.
<scales pt_clust_5="13000.00000" pt_clust_6="13000.00000" pt_clust_7="13000.00000" pt_clust_8="13000.00000" pt_clust_9="24.28261" pt_clust_10="170.16732"></scales>
<clustering>
<clus scale="   24.283">  1  9  2 -1</clus>
<clus scale="   78.113">  5  6 -1 -1</clus>
<clus scale="   91.354">  7  8 -1 -1</clus>
<clus scale="   99.239">  2  5  1 -1</clus>
<clus scale="  170.167">  1 10  2 -1</clus>
<clus scale="   24.283">  1  5  2 -1</clus>
</clustering>
</event>
<event>
10    4  0.3403565E-005  0.1465401E+03  0.7546771E-02  0.1234198E+00
         21   -1    0    0  503  502  0.00000000000E+00  0.00000000000E+00  0.30402685787E+03  0.30402685787E+03  0.00000000000E+00 0. -1.
          2   -1    0    0  502    0 -0.00000000000E+00 -0.00000000000E+00 -0.14558267633E+03  0.14558267633E+03  0.00000000000E+00 0. -1.
         24    2    1    2    0    0 -0.38866442263E+01  0.16274964806E+02  0.92756998476E+02  0.12290741669E+03  0.78882138844E+02 0.  0.
         23    2    1    2    0    0  0.68512930049E+01 -0.10202111585E+03  0.17438598596E+02  0.13672232902E+03  0.89070995491E+02 0.  0.
        -11    1    3    3    0    0  0.32468904979E+02  0.17570311673E+02  0.21043146394E+02  0.42494230820E+02  0.00000000000E+00 0.  1.
         12    1    3    3    0    0 -0.36355549205E+02 -0.12953468676E+01  0.71713852082E+02  0.80413185871E+02  0.00000000000E+00 0. -1.
        -11    1    4    4    0    0  0.43974797893E+02 -0.68343540265E+02 -0.57970993302E+01  0.81475325751E+02  0.00000000000E+00 0. -1.
         11    1    4    4    0    0 -0.37123504888E+02 -0.33677575581E+02  0.23235697926E+02  0.55247003270E+02  0.00000000000E+00 0.  1.
         21    1    1    2  503  501  0.10997221423E+01 -0.42591856209E+02  0.44377047814E+02  0.61519086281E+02  0.00000000000E+00 0. -1.
          1    1    1    2  501    0 -0.40643709209E+01  0.12833800725E+03  0.38715366598E+01  0.12846070221E+03  0.00000000000E+00 0. -1.
<scales pt_clust_5="13000.00000" pt_clust_6="13000.00000" pt_clust_7="13000.00000" pt_clust_8="13000.00000" pt_clust_9="42.60605" pt_clust_10="116.36302"></scales>
<clustering>
<clus scale="   42.606">  1  9  2 -1</clus>
<clus scale="   78.882">  5  6 -1 -1</clus>
<clus scale="   78.982">  2  5  1 -1</clus>
<clus scale="   89.071">  7  8 -1 -1</clus>
<clus scale="  116.363">  1 10  2 -1</clus>
<clus scale="   42.606">  1  5  2 -1</clus>
</clustering>
</event>
<event>
10    4  0.3403565E-005  0.5984733E+03  0.7546771E-02  0.1004874E+00
          2   -1    0    0  502    0 -0.00000000000E+00  0.00000000000E+00  0.15004048006E+04  0.15004048006E+04  0.00000000000E+00 0. -1.
         21   -1    0    0  503  502  0.00000000000E+00 -0.00000000000E+00 -0.81870402677E+03  0.81870402677E+03  0.00000000000E+00 0.  1.
         23    2    1    2    0    0  0.84091727797E+01  0.43981028607E+03 -0.25762088716E+03  0.51831382604E+03  0.93685104732E+02 0.  0.
         24    2    1    2    0    0 -0.46189174329E+03 -0.61457509488E+03  0.75788848620E+03  0.10830276626E+04  0.86645430383E+02 0.  0.
        -11    1    4    4    0    0 -0.31698300792E+03 -0.46271240302E+03  0.50860339903E+03  0.75713830488E+03  0.00000000000E+00 0.  1.
         12    1    4    4    0    0 -0.14490873537E+03 -0.15186269186E+03  0.24928508717E+03  0.32588935769E+03  0.00000000000E+00 0. -1.
        -11    1    3    3    0    0 -0.42413227471E+02  0.22986228177E+03 -0.13311244258E+03  0.26898786741E+03  0.00000000000E+00 0. -1.
         11    1    3    3    0    0  0.50822400251E+02  0.20994800430E+03 -0.12450844458E+03  0.24932595863E+03  0.00000000000E+00 0.  1.
         21    1    1    2  503  501 -0.22072740817E+01 -0.12846392741E+03 -0.28369906649E+02  0.13157775005E+03  0.00000000000E+00 0.  1.
          1    1    1    2  501    0  0.45568984460E+03  0.30322873622E+03  0.20980308145E+03  0.58618958872E+03  0.00000000000E+00 0. -1.
<scales pt_clust_5="13000.00000" pt_clust_6="13000.00000" pt_clust_7="13000.00000" pt_clust_8="13000.00000" pt_clust_9="128.48289" pt_clust_10="592.16798"></scales>
<clustering>
<clus scale="   86.645">  5  6 -1 -1</clus>
<clus scale="   93.685">  7  8 -1 -1</clus>
<clus scale="  128.483">  2  9  1 -1</clus>
<clus scale="  384.017">  1  7  2 -1</clus>
<clus scale="  592.168">  2 10  1 -1</clus>
<clus scale="  128.483">  2  5  1 -1</clus>
</clustering>
</event>
<event>
10    4  0.3403565E-005  0.1921000E+03  0.7546771E-02  0.1190321E+00
          2   -1    0    0  502    0 -0.00000000000E+00  0.00000000000E+00  0.17730531116E+04  0.17730531116E+04  0.00000000000E+00 0. -1.
         21   -1    0    0  503  502  0.00000000000E+00 -0.00000000000E+00 -0.15519883846E+03  0.15519883846E+03  0.00000000000E+00 0.  1.
         24    2    1    2    0    0  0.12550066467E+02  0.41358251419E+02  0.79192066842E+02  0.11927147215E+03  0.78014687653E+02 0.  0.
         23    2    1    2    0    0 -0.22030046383E+03  0.86854912987E+02  0.55362917373E+03  0.60980865091E+03  0.96360045906E+02 0.  0.
        -13    1    3    3    0    0 -0.14656733098E+01  0.59620593247E+02  0.34242964698E+02  0.68770225888E+02  0.00000000000E+00 0.  1.
         14    1    3    3    0    0  0.14015739777E+02 -0.18262341828E+02  0.44949102145E+02  0.50501246263E+02  0.00000000000E+00 0. -1.
        -13    1    4    4    0    0 -0.19646392361E+02 -0.11340881439E+02  0.16423265498E+02  0.28005713243E+02  0.00000000000E+00 0.  1.
         13    1    4    4    0    0 -0.20065407147E+03  0.98195794425E+02  0.53720590823E+03  0.58180293767E+03  0.00000000000E+00 0. -1.
         21    1    1    2  503  501  0.10793317049E+03 -0.37398482966E+02 -0.71036378542E+02  0.13451536305E+03  0.00000000000E+00 0.  1.
          1    1    1    2  501    0  0.99817226876E+02 -0.90814681440E+02  0.10560694111E+04  0.10646564639E+04  0.00000000000E+00 0. -1.
<scales pt_clust_5="13000.00000" pt_clust_6="13000.00000" pt_clust_7="13000.00000" pt_clust_8="13000.00000" pt_clust_9="114.19982" pt_clust_10="166.18418"></scales>
<clustering>
<clus scale="   78.015">  5  6 -1 -1</clus>
<clus scale="   89.187">  1  5  2 -1</clus>
<clus scale="   96.360">  7  8 -1 -1</clus>
<clus scale="  114.200">  2  9  1 -1</clus>
<clus scale="  166.184">  2 10  1 -1</clus>
<clus scale="  114.200">  2  5  1 -1</clus>
</clustering>
</event>
<event>
10    4  0.3403565E-005  0.1757077E+03  0.7546771E-02  0.1181135E+00
         21   -1    0    0  501  502  0.00000000000E+00  0.00000000000E+00  0.41260894244E+03  0.41260894244E+03  0.00000000000E+00 0.  1.
          2   -1    0    0  503    0 -0.00000000000E+00 -0.00000000000E+00 -0.10053219791E+04  0.10053219791E+04  0.00000000000E+00 0. -1.
         23    2    1    2    0    0  0.48587114174E+02 -0.99024752434E+02 -0.70508925139E+03  0.71944185272E+03  0.90989657406E+02 0.  0.
         24    2    1    2    0    0  0.58886980910E+02  0.10071214647E+03  0.12042588861E+03  0.18912121676E+03  0.87486153257E+02 0.  0.
        -11    1    4    4    0    0  0.71562019959E+02  0.94663634636E+02  0.72234242565E+02  0.13892484379E+03  0.00000000000E+00 0.  1.
         12    1    4    4    0    0 -0.12675039049E+02  0.60485118374E+01  0.48191646047E+02  0.50196372967E+02  0.00000000000E+00 0. -1.
        -11    1    3    3    0    0 -0.16594274188E+02 -0.65769948243E+02 -0.27989316933E+03  0.28799521223E+03  0.00000000000E+00 0. -1.
         11    1    3    3    0    0  0.65181388361E+02 -0.33254804192E+02 -0.42519608206E+03  0.43144664049E+03  0.00000000000E+00 0.  1.
         21    1    1    2  503  502 -0.10009695857E+03 -0.18496408222E+03  0.15713131394E+03  0.26252878442E+03  0.00000000000E+00 0.  1.
          1    1    1    2  501    0 -0.73771365161E+01  0.18327668818E+03 -0.16518098777E+03  0.24683906760E+03  0.00000000000E+00 0. -1.
<scales pt_clust_5="13000.00000" pt_clust_6="13000.00000" pt_clust_7="13000.00000" pt_clust_8="13000.00000" pt_clust_9="152.37902" pt_clust_10="116.77698"></scales>
<clustering>
<clus scale="   87.486">  5  6 -1 -1</clus>
<clus scale="   90.990">  7  8 -1 -1</clus>
<clus scale="  142.989">  2  7  1 -1</clus>
<clus scale="  116.777">  1 10  2 -1</clus>
<clus scale="  152.379">  1  9  2 -1</clus>
<clus scale="  116.777">  1  5  2 -1</clus>
</clustering>
</event>
<event>
10    4  0.3403565E-005  0.1505372E+03  0.7546771E-02  0.1228152E+00
         21   -1    0    0  501  502  0.00000000000E+00  0.00000000000E+00  0.10649241100E+03  0.10649241100E+03  0.00000000000E+00 0. -1.
          2   -1    0    0  503    0 -0.00000000000E+00 -0.00000000000E+00 -0.81194266606E+03  0.81194266606E+03  0.00000000000E+00 0. -1.
         24    2    1    2    0    0 -0.11259230791E+02  0.90572501736E+01 -0.42024874792E+03  0.42823023324E+03  0.81014310316E+02 0.  0.
         23    2    1    2    0    0  0.31205509411E+02  0.91976191706E+02 -0.20572140416E+03  0.24605769070E+03  0.93753332560E+02 0.  0.
        -13    1    3    3    0    0 -0.23126088550E+02 -0.23173419931E+02 -0.82789462583E+02  0.89027627609E+02  0.00000000000E+00 0.  1.
         14    1    3    3    0    0  0.11866857759E+02  0.32230670104E+02 -0.33745928534E+03  0.33920260563E+03  0.00000000000E+00 0. -1.
        -11    1    4    4    0    0 -0.23045620723E+02  0.65604850546E+02 -0.76076322313E+02  0.10306650215E+03  0.00000000000E+00 0.  1.
         11    1    4    4    0    0  0.54251130133E+02  0.26371341160E+02 -0.12964508185E+03  0.14299118855E+03  0.00000000000E+00 0. -1.
         21    1    1    2  503  502  0.19448837955E+02  0.60157202373E+02 -0.35392062369E+02  0.72455119722E+02  0.00000000000E+00 0.  1.
          1    1    1    2  501    0 -0.39395116575E+02 -0.16119064425E+03 -0.44088040618E+02  0.17169203339E+03  0.00000000000E+00 0. -1.
<scales pt_clust_5="13000.00000" pt_clust_6="13000.00000" pt_clust_7="13000.00000" pt_clust_8="13000.00000" pt_clust_9="63.22299" pt_clust_10="117.77846"></scales>
<clustering>
<clus scale="   63.223">  1  9  2 -1</clus>
<clus scale="   81.014">  5  6 -1 -1</clus>
<clus scale="   82.522">  2  5  1 -1</clus>
<clus scale="   93.753">  7  8 -1 -1</clus>
<clus scale="  117.778">  1 10  2 -1</clus>
<clus scale="   63.223">  1  5  2 -1</clus>
</clustering>
</event>
<event>
10    4  0.3403565E-005  0.5943598E+03  0.7546771E-02  0.9917177E-01
          2   -1    0    0  503    0 -0.00000000000E+00  0.00000000000E+00  0.10674857020E+04  0.10674857020E+04  0.00000000000E+00 0. -1.
         21   -1    0    0  501  502  0.00000000000E+00 -0.00000000000E+00 -0.75007816285E+03  0.75007816285E+03  0.00000000000E+00 0. -1.
         24    2    1    2    0    0 -0.50271707466E+01  0.37135980336E+03  0.73002317524E+03  0.82333703057E+03  0.83765467353E+02 0.  0.
         23    2    1    2    0    0 -0.85853207283E+02  0.12921847139E+03  0.11592579550E+03  0.21412794857E+03  0.91344412793E+02 0.  0.
        -13    1    3    3    0    0 -0.20328898268E+02  0.36065053486E+02  0.12186794087E+03  0.12870799198E+03  0.00000000000E+00 0.  1.
         14    1    3    3    0    0  0.15301727522E+02  0.33529474988E+03  0.60815523437E+03  0.69462903859E+03  0.00000000000E+00 0. -1.
        -13    1    4    4    0    0 -0.38838549818E+02  0.51240564365E+02 -0.29771839214E+01  0.64365301308E+02  0.00000000000E+00 0. -1.
         13    1    4    4    0    0 -0.47014657464E+02  0.77977907022E+02  0.11890297942E+03  0.14976264726E+03  0.00000000000E+00 0.  1.
         21    1    1    2  503  502 -0.75763680840E+02 -0.67186629212E+02 -0.48641425983E+02  0.11233951576E+03  0.00000000000E+00 0.  1.
          1    1    1    2  501    0  0.16664405887E+03 -0.43339164554E+03 -0.47990000561E+03  0.66775936995E+03  0.00000000000E+00 0. -1.
<scales pt_clust_5="13000.00000" pt_clust_6="13000.00000" pt_clust_7="13000.00000" pt_clust_8="13000.00000" pt_clust_9="101.26292" pt_clust_10="501.39550"></scales>
<clustering>
<clus scale="   83.765">  5  6 -1 -1</clus>
<clus scale="   91.344">  7  8 -1 -1</clus>
<clus scale="  101.263">  2  9  1 -1</clus>
<clus scale="  176.142">  5  7 -1 -1</clus>
<clus scale="  501.396">  2 10  1 -1</clus>
<clus scale="  101.263">  2  5  1 -1</clus>
</clustering>
</event>
<event>
10    4  0.3403565E-005  0.8385278E+02  0.7546771E-02  0.1321024E+00
          4   -1    0    0  503    0 -0.00000000000E+00  0.00000000000E+00  0.20418712915E+03  0.20418712915E+03  0.00000000000E+00 0. -1.
         21   -1    0    0  501  502  0.00000000000E+00 -0.00000000000E+00 -0.16604165140E+03  0.16604165140E+03  0.00000000000E+00 0.  1.
         23    2    1    2    0    0 -0.55246943635E+01 -0.19143821372E+02  0.11773340213E+03  0.14455313522E+03  0.81470527063E+02 0.  0.
         24    2    1    2    0    0  0.31774650846E+02  0.39538444949E+01  0.27390523391E+02  0.88302002053E+02  0.77599880620E+02 0.  0.
        -11    1    4    4    0    0  0.54757748021E+02  0.33594212236E+01  0.32374680010E+01  0.54956145046E+02  0.00000000000E+00 0.  1.
         12    1    4    4    0    0 -0.22983097176E+02  0.59442327132E+00  0.24153055390E+02  0.33345857007E+02  0.00000000000E+00 0. -1.
        -11    1    3    3    0    0  0.21385688409E+02 -0.22577796422E+02  0.88385656302E+01  0.32329936628E+02  0.00000000000E+00 0.  1.
         11    1    3    3    0    0 -0.26910382772E+02  0.34339750502E+01  0.10889483650E+03  0.11222319859E+03  0.00000000000E+00 0. -1.
         21    1    1    2  503  502 -0.16218940410E+01 -0.28277307706E+02 -0.69095444727E+02  0.74675411973E+02  0.00000000000E+00 0.  1.
          3    1    1    2  501    0 -0.24628062441E+02  0.43467284582E+02 -0.37883003046E+02  0.62698231302E+02  0.00000000000E+00 0. -1.
<scales pt_clust_5="13000.00000" pt_clust_6="13000.00000" pt_clust_7="13000.00000" pt_clust_8="13000.00000" pt_clust_9="28.32378" pt_clust_10="38.13750"></scales>
<clustering>
<clus scale="   28.324">  2  9  1 -1</clus>
<clus scale="   38.138">  2 10  1 -1</clus>
<clus scale="   77.600">  5  6 -1 -1</clus>
<clus scale="   80.097">  2  5  1 -1</clus>
<clus scale="   81.471">  7  8 -1 -1</clus>
<clus scale="   28.324">  2  5  1 -1</clus>
</clustering>
</event>
<event>
10    4  0.3403565E-005  0.9608874E+02  0.7546771E-02  0.1294766E+00
         21   -1    0    0  501  502  0.00000000000E+00  0.00000000000E+00  0.70381750923E+02  0.70381750923E+02  0.00000000000E+00 0. -1.
          2   -1    0    0  503    0 -0.00000000000E+00 -0.00000000000E+00 -0.64667756965E+03  0.64667756965E+03  0.00000000000E+00 0. -1.
         24    2    1    2    0    0  0.13870021224E+02 -0.19887687536E+02 -0.34695912473E+03  0.35696237385E+03  0.80334329573E+02 0.  0.
         23    2    1    2    0    0 -0.18210420500E+01  0.45513113139E+02 -0.26333720184E+03  0.28237437431E+03  0.91181389172E+02 0.  0.
        -11    1    3    3    0    0 -0.91862376605E+01 -0.22123042414E+02 -0.26716138173E+02  0.35882697877E+02  0.00000000000E+00 0.  1.
         12    1    3    3    0    0  0.23056258885E+02  0.22353548787E+01 -0.32024298655E+03  0.32107967597E+03  0.00000000000E+00 0. -1.
        -11    1    4    4    0    0  0.34665373035E+02  0.51035194462E+02 -0.19736238715E+03  0.20678053830E+03  0.00000000000E+00 0. -1.
         11    1    4    4    0    0 -0.36486415085E+02 -0.55220813227E+01 -0.65974814692E+02  0.75593836002E+02  0.00000000000E+00 0.  1.
         21    1    1    2  503  502 -0.34957757561E+02 -0.61520765272E+01  0.48149410613E+01  0.35820057464E+02  0.00000000000E+00 0.  1.
          1    1    1    2  501    0  0.22908778387E+02 -0.19473349076E+02  0.29185566777E+02  0.41902514954E+02  0.00000000000E+00 0. -1.
<scales pt_clust_5="13000.00000" pt_clust_6="13000.00000" pt_clust_7="13000.00000" pt_clust_8="13000.00000" pt_clust_9="27.80301" pt_clust_10="30.06698"></scales>
<clustering>
<clus scale="   30.067">  1 10  2 -1</clus>
<clus scale="   27.803">  1  9  2 -1</clus>
<clus scale="   80.334">  5  6 -1 -1</clus>
<clus scale="   85.864">  2  5  1 -1</clus>
<clus scale="   91.181">  7  8 -1 -1</clus>
<clus scale="   30.067">  1  5  2 -1</clus>
</clustering>
</event>
<event>
10    4  0.3403565E-005  0.9534364E+02  0.7546771E-02  0.1310979E+00
          2   -1    0    0  503    0 -0.00000000000E+00  0.00000000000E+00  0.51589608964E+03  0.51589608964E+03  0.00000000000E+00 0. -1.
         21   -1    0    0  501  502  0.00000000000E+00 -0.00000000000E+00 -0.77831262101E+02  0.77831262101E+02  0.00000000000E+00 0. -1.
         24    2    1    2    0    0  0.51792253685E+01  0.31074811145E+02  0.36387400910E+03  0.37018619661E+03  0.60341175008E+02 0.  0.
         23    2    1    2    0    0 -0.50555704493E+01  0.11945451451E+02  0.10983896216E+03  0.14388838675E+03  0.92038131402E+02 0.  0.
        -13    1    3    3    0    0 -0.11826778410E+02  0.22324867778E+02  0.52885155809E+02  0.58609829498E+02  0.00000000000E+00 0.  1.
         14    1    3    3    0    0  0.17006003778E+02  0.87499433670E+01  0.31098885329E+03  0.31157636711E+03  0.00000000000E+00 0. -1.
        -13    1    4    4    0    0  0.28298281478E+02  0.24406304845E+02  0.10028814961E+03  0.10702417205E+03  0.00000000000E+00 0.  1.
         13    1    4    4    0    0 -0.33353851927E+02 -0.12460853393E+02  0.95508125521E+01  0.36864214708E+02  0.00000000000E+00 0. -1.
         21    1    1    2  503  502  0.27602009139E+01 -0.22976355111E+02 -0.49822491058E+02  0.54934617670E+02  0.00000000000E+00 0. -1.
          1    1    1    2  501    0 -0.28838558331E+01 -0.20043907485E+02  0.14174347340E+02  0.24718150704E+02  0.00000000000E+00 0. -1.
<scales pt_clust_5="13000.00000" pt_clust_6="13000.00000" pt_clust_7="13000.00000" pt_clust_8="13000.00000" pt_clust_9="37.45163" pt_clust_10="20.25030"></scales>
<clustering>
<clus scale="   20.250">  2 10  1 -1</clus>
<clus scale="   37.452">  2  9  1 -1</clus>
<clus scale="   60.341">  5  6 -1 -1</clus>
<clus scale="   65.272">  1  5  2 -1</clus>
<clus scale="   92.038">  7  8 -1 -1</clus>
<clus scale="   20.250">  2  5  1 -1</clus>
</clustering>
</event>
<event>
10    4  0.3403565E-005  0.1570308E+03  0.7546771E-02  0.1206202E+00
          2   -1    0    0  503    0 -0.00000000000E+00  0.00000000000E+00  0.47713588878E+03  0.47713588878E+03  0.00000000000E+00 0. -1.
         21   -1    0    0  501  502  0.00000000000E+00 -0.00000000000E+00 -0.77738872708E+03  0.77738872708E+03  0.00000000000E+00 0.  1.
         23    2    1    2    0    0  0.21506057422E+02 -0.69044868659E+02  0.10584723675E+03  0.15668353615E+03  0.90091001648E+02 0.  0.
         24    2    1    2    0    0 -0.85714134101E+02 -0.48016946845E+02  0.37386492700E+02  0.13075416600E+03  0.77758357240E+02 0.  0.
        -13    1    4    4    0    0 -0.89824672583E+02 -0.55646899486E+02  0.14969182239E+02  0.10671984653E+03  0.00000000000E+00 0.  1.
         14    1    4    4    0    0  0.41105384824E+01  0.76299526409E+01  0.22417310460E+02  0.24034319466E+02  0.00000000000E+00 0. -1.
        -13    1    3    3    0    0  0.28849074635E+02  0.12323745984E+02  0.15897478250E+02  0.35169214337E+02  0.00000000000E+00 0.  1.
         13    1    3    3    0    0 -0.73430172124E+01 -0.81368614643E+02  0.89949758504E+02  0.12151432181E+03  0.00000000000E+00 0. -1.
         21    1    1    2  503  502 -0.14927299418E+03 -0.36970817220E+02 -0.62739023448E+03  0.64596267264E+03  0.00000000000E+00 0.  1.
          1    1    1    2  501    0  0.21348107086E+03  0.15403263272E+03  0.18390366673E+03  0.32112424106E+03  0.00000000000E+00 0. -1.
<scales pt_clust_5="13000.00000" pt_clust_6="13000.00000" pt_clust_7="13000.00000" pt_clust_8="13000.00000" pt_clust_9="157.03076" pt_clust_10="13000.00000"></scales>
<clustering>
<clus scale="   77.758">  5  6 -1 -1</clus>
<clus scale="   90.091">  7  8 -1 -1</clus>
<clus scale="  115.525">  1  7  2 -1</clus>
<clus scale="  129.319">  1  5  2 -1</clus>
<clus scale="  157.031">  2  9  1 -1</clus>
<clus scale="  157.031">  2  5  1 -1</clus>
</clustering>
</event>
<event>
10    4  0.3403565E-005  0.1002484E+03  0.7546771E-02  0.1286128E+00
         21   -1    0    0  503  502  0.00000000000E+00  0.00000000000E+00  0.10840437333E+03  0.10840437333E+03  0.00000000000E+00 0. -1.
          2   -1    0    0  502    0 -0.00000000000E+00 -0.00000000000E+00 -0.30861473876E+03  0.30861473876E+03  0.00000000000E+00 0. -1.
         24    2    1    2    0    0 -0.51888971871E+02  0.25373442852E+02 -0.18508158204E+03  0.20745465241E+03  0.73796773578E+02 0.  0.
         23    2    1    2    0    0  0.20218701206E+02  0.98822814202E+01  0.53522462706E+01  0.90171548602E+02  0.87153922875E+02 0.  0.
        -13    1    3    3    0    0 -0.14428807556E+02  0.41474826905E+02 -0.13973421950E+03  0.14647185345E+03  0.00000000000E+00 0.  1.
         14    1    3    3    0    0 -0.37460164315E+02 -0.16101384053E+02 -0.45347362537E+02  0.60982798952E+02  0.00000000000E+00 0. -1.
        -11    1    4    4    0    0  0.18008611919E+02 -0.26766784157E+02  0.31505982565E+02  0.45093212069E+02  0.00000000000E+00 0. -1.
         11    1    4    4    0    0  0.22100892871E+01  0.36649065577E+02 -0.26153736294E+02  0.45078336532E+02  0.00000000000E+00 0.  1.
         21    1    1    2  503  501 -0.18077264692E+02 -0.17491421300E+02  0.34794821115E+02  0.42935031085E+02  0.00000000000E+00 0. -1.
          1    1    1    2  501    0  0.49747535357E+02 -0.17764302972E+02 -0.55275850779E+02  0.76457879996E+02  0.00000000000E+00 0. -1.
<scales pt_clust_5="13000.00000" pt_clust_6="13000.00000" pt_clust_7="13000.00000" pt_clust_8="13000.00000" pt_clust_9="25.15427" pt_clust_10="51.24241"></scales>
<clustering>
<clus scale="   25.154">  1  9  2 -1</clus>
<clus scale="   51.242">  1 10  2 -1</clus>
<clus scale="   73.797">  5  6 -1 -1</clus>
<clus scale="   87.154">  7  8 -1 -1</clus>
<clus scale="   88.881">  2  5  1 -1</clus>
<clus scale="   25.154">  1  5  2 -1</clus>
</clustering>
</event>
<event>
10    4  0.3403565E-005  0.1442459E+03  0.7546771E-02  0.1209455E+00
         21   -1    0    0  503  502  0.00000000000E+00  0.00000000000E+00  0.84920658399E+03  0.84920658399E+03  0.00000000000E+00 0.  1.
         -1   -1    0    0    0  501 -0.00000000000E+00 -0.00000000000E+00 -0.63410755261E+02  0.63410755261E+02  0.00000000000E+00 0.  1.
         24    2    1    2    0    0 -0.10538612021E+03  0.28624452285E+02  0.75020278931E+02  0.15604925095E+03  0.82448364871E+02 0.  0.
         23    2    1    2    0    0  0.11181040274E+03 -0.60187249500E+02  0.51743505567E+03  0.54050385969E+03  0.91001727116E+02 0.  0.
        -13    1    3    3    0    0 -0.69696829225E+02 -0.18272009848E+02  0.63417100915E+02  0.95985639740E+02  0.00000000000E+00 0.  1.
         14    1    3    3    0    0 -0.35689290986E+02  0.46896462133E+02  0.11603178016E+02  0.60063611211E+02  0.00000000000E+00 0. -1.
        -11    1    4    4    0    0  0.11387634696E+03 -0.26148681102E+02  0.45020797314E+03  0.46512234412E+03  0.00000000000E+00 0.  1.
         11    1    4    4    0    0 -0.20659442165E+01 -0.34038568397E+02  0.67227082530E+02  0.75381515570E+02  0.00000000000E+00 0. -1.
         21    1    1    2  503  501  0.24188862007E+02  0.15029925505E+02  0.17388537497E+03  0.17620193908E+03  0.00000000000E+00 0.  1.
         -2    1    1    2    0  502 -0.30613144536E+02  0.16532871709E+02  0.19455119151E+02  0.39862289529E+02  0.00000000000E+00 0.  1.
<scales pt_clust_5="13000.00000" pt_clust_6="13000.00000" pt_clust_7="13000.00000" pt_clust_8="13000.00000" pt_clust_9="28.47806" pt_clust_10="34.18744"></scales>
<clustering>
<clus scale="   28.478">  1  9  2 -1</clus>
<clus scale="   34.187">  1 10  2 -1</clus>
<clus scale="   82.448">  5  6 -1 -1</clus>
<clus scale="   91.002">  7  8 -1 -1</clus>
<clus scale="  139.008">  2  5  1 -1</clus>
<clus scale="   28.478">  1  5  2 -1</clus>
</clustering>
</event>
<event>
10    4  0.3403565E-005  0.2358690E+03  0.7546771E-02  0.1165063E+00
          2   -1    0    0  502    0 -0.00000000000E+00  0.00000000000E+00  0.36663667346E+03  0.36663667346E+03  0.00000000000E+00 0. -1.
         21   -1    0    0  503  502  0.00000000000E+00 -0.00000000000E+00 -0.23505303563E+03  0.23505303563E+03  0.00000000000E+00 0. -1.
         24    2    1    2    0    0  0.19364293264E+02 -0.20213438272E+02  0.31049446050E+02  0.91513020019E+02  0.81406423534E+02 0.  0.
         23    2    1    2    0    0  0.12886008338E+03 -0.16317215916E+03  0.13045822471E+03  0.26184143151E+03  0.91167495561E+02 0.  0.
        -11    1    3    3    0    0  0.55588852385E+01 -0.40994600205E+02  0.46443643577E+02  0.62197029509E+02  0.00000000000E+00 0.  1.
         12    1    3    3    0    0  0.13805408026E+02  0.20781161933E+02 -0.15394197527E+02  0.29315990509E+02  0.00000000000E+00 0. -1.
        -13    1    4    4    0    0 -0.11262700604E+02 -0.20527987890E+02  0.30041989955E+02  0.38088946850E+02  0.00000000000E+00 0.  1.
         13    1    4    4    0    0  0.14012278399E+03 -0.14264417127E+03  0.10041623475E+03  0.22375248466E+03  0.00000000000E+00 0. -1.
         21    1    1    2  503  501 -0.20711471202E+02  0.76079021844E+01 -0.21812684285E+02  0.31026414726E+02  0.00000000000E+00 0.  1.
          1    1    1    2  501    0 -0.12751290545E+03  0.17577769524E+03 -0.81113486335E+01  0.21730884284E+03  0.00000000000E+00 0. -1.
<scales pt_clust_5="13000.00000" pt_clust_6="13000.00000" pt_clust_7="13000.00000" pt_clust_8="13000.00000" pt_clust_9="22.06457" pt_clust_10="217.53780"></scales>
<clustering>
<clus scale="   22.065">  2  9  1 -1</clus>
<clus scale="   81.406">  5  6 -1 -1</clus>
<clus scale="   85.206">  1  5  2 -1</clus>
<clus scale="   91.167">  7  8 -1 -1</clus>
<clus scale="  217.538">  2 10  1 -1</clus>
<clus scale="   22.065">  2  5  1 -1</clus>
</clustering>
</event>
<event>
10    4  0.3403565E-005  0.2214093E+03  0.7546771E-02  0.1143420E+00
         21   -1    0    0  503  502  0.00000000000E+00  0.00000000000E+00  0.48431729735E+03  0.48431729735E+03  0.00000000000E+00 0.  1.
         -1   -1    0    0    0  501 -0.00000000000E+00 -0.00000000000E+00 -0.38894350571E+03  0.38894350571E+03  0.00000000000E+00 0.  1.
         24    2    1    2    0    0  0.10599459922E+03 -0.10314535160E+03 -0.13968748140E+03  0.22185906848E+03  0.88515734120E+02 0.  0.
         23    2    1    2    0    0  0.11125055572E+03  0.10269536861E+03 -0.61191304176E+02  0.18719537345E+03  0.91513426618E+02 0.  0.
        -11    1    3    3    0    0  0.68583259850E+02 -0.10715022899E+03 -0.13224755592E+03  0.18350545265E+03  0.00000000000E+00 0.  1.
         12    1    3    3    0    0  0.37411339373E+02  0.40048773907E+01 -0.74399254838E+01  0.38353615838E+02  0.00000000000E+00 0. -1.
        -13    1    4    4    0    0  0.65581315873E+02  0.13899569175E+01 -0.18518350021E+02  0.68159887466E+02  0.00000000000E+00 0. -1.
         13    1    4    4    0    0  0.45669239847E+02  0.10130541169E+03 -0.42672954155E+02  0.11903548598E+03  0.00000000000E+00 0.  1.
         21    1    1    2  503  501  0.46664684937E+02  0.67789857397E+02  0.45752482330E+02  0.94161283050E+02  0.00000000000E+00 0.  1.
         -2    1    1    2    0  502 -0.26390983988E+03 -0.67339874406E+02  0.25050009489E+03  0.37004507808E+03  0.00000000000E+00 0.  1.
<scales pt_clust_5="13000.00000" pt_clust_6="13000.00000" pt_clust_7="13000.00000" pt_clust_8="13000.00000" pt_clust_9="82.29859" pt_clust_10="201.61194"></scales>
<clustering>
<clus scale="   82.299">  1  9  2 -1</clus>
<clus scale="   88.516">  5  6 -1 -1</clus>
<clus scale="   91.513">  7  8 -1 -1</clus>
<clus scale="  171.376">  2  5  1 -1</clus>
<clus scale="  201.612">  1 10  2 -1</clus>
<clus scale="   82.299">  1  5  2 -1</clus>
</clustering>
</event>
<event>
10    4  0.3403565E-005  0.1218455E+03  0.7546771E-02  0.1243524E+00
         21   -1    0    0  501  502  0.00000000000E+00  0.00000000000E+00  0.36173013469E+02  0.36173013469E+02  0.00000000000E+00 0.  1.
          2   -1    0    0  503    0 -0.00000000000E+00 -0.00000000000E+00 -0.13524153762E+04  0.13524153762E+04  0.00000000000E+00 0. -1.
         24    2    1    2    0    0 -0.47728531614E+02 -0.63905293427E+02 -0.10714450413E+04  0.10773721925E+04  0.79840249648E+02 0.  0.
         23    2    1    2    0    0  0.80389261201E+02  0.47813678444E+02 -0.22201925948E+03  0.25757896846E+03  0.91136119338E+02 0.  0.
        -11    1    3    3    0    0 -0.13545794905E+02 -0.36645689529E+02 -0.15374980760E+03  0.15863605661E+03  0.00000000000E+00 0.  1.
         12    1    3    3    0    0 -0.34182736709E+02 -0.27259603898E+02 -0.91769523372E+03  0.91873613594E+03  0.00000000000E+00 0. -1.
        -13    1    4    4    0    0  0.11320760162E+02  0.21106408467E+02 -0.44198916762E+00  0.23954862626E+02  0.00000000000E+00 0. -1.
         13    1    4    4    0    0  0.69068501039E+02  0.26707269977E+02 -0.22157727032E+03  0.23362410583E+03  0.00000000000E+00 0.  1.
         21    1    1    2  503  502 -0.24726512439E+02 -0.40947417019E+01 -0.49194882213E+01  0.25541509184E+02  0.00000000000E+00 0. -1.
          1    1    1    2  501    0 -0.79342171470E+01  0.20186356685E+02 -0.17858573715E+02  0.28095719479E+02  0.00000000000E+00 0. -1.
<scales pt_clust_5="13000.00000" pt_clust_6="13000.00000" pt_clust_7="13000.00000" pt_clust_8="13000.00000" pt_clust_9="27.48490" pt_clust_10="21.68965"></scales>
<clustering>
<clus scale="   21.690">  1 10  2 -1</clus>
<clus scale="   27.485">  1  9  2 -1</clus>
<clus scale="   79.840">  5  6 -1 -1</clus>
<clus scale="   91.136">  7  8 -1 -1</clus>
<clus scale="  113.644">  2  5  1 -1</clus>
<clus scale="   21.690">  1  5  2 -1</clus>
</clustering>
</event>
<event>
10    4  0.3403565E-005  0.1202298E+03  0.7546771E-02  0.1259646E+00
          2   -1    0    0  502    0 -0.00000000000E+00  0.00000000000E+00  0.14326920127E+04  0.14326920127E+04  0.00000000000E+00 0. -1.
         21   -1    0    0  503  502  0.00000000000E+00 -0.00000000000E+00 -0.77817515682E+02  0.77817515682E+02  0.00000000000E+00 0. -1.
         24    2    1    2    0    0 -0.10711864602E+02 -0.18824317537E+02  0.69107977888E+03  0.69641037722E+03  0.83228923809E+02 0.  0.
         23    2    1    2    0    0 -0.76276807063E+02 -0.54855714279E+02  0.21032671602E+02  0.13459701309E+03  0.94056801843E+02 0.  0.
        -11    1    3    3    0    0 -0.28047298680E+02  0.17694723659E+02  0.14100552598E+03  0.14485272716E+03  0.00000000000E+00 0.  1.
         12    1    3    3    0    0  0.17335434078E+02 -0.36519041196E+02  0.55007425289E+03  0.55155765006E+03  0.00000000000E+00 0. -1.
        -13    1    4    4    0    0  0.15697157443E+01 -0.46976098066E+02  0.30122702294E+02  0.55826472131E+02  0.00000000000E+00 0.  1.
         13    1    4    4    0    0 -0.77846522807E+02 -0.78796162125E+01 -0.90900306920E+01  0.78770540958E+02  0.00000000000E+00 0. -1.
         21    1    1    2  503  501  0.19507056817E+02  0.12399146373E+02 -0.63901538478E+01  0.23981204362E+02  0.00000000000E+00 0. -1.
          1    1    1    2  501    0  0.67481614848E+02  0.61280885443E+02  0.64915220043E+03  0.65552093375E+03  0.00000000000E+00 0. -1.
<scales pt_clust_5="13000.00000" pt_clust_6="13000.00000" pt_clust_7="13000.00000" pt_clust_8="13000.00000" pt_clust_9="23.11415" pt_clust_10="74.89008"></scales>
<clustering>
<clus scale="   23.114">  2  9  1 -1</clus>
<clus scale="   83.229">  5  6 -1 -1</clus>
<clus scale="   85.787">  1  5  2 -1</clus>
<clus scale="   74.890">  2 10  1 -1</clus>
<clus scale="   94.057">  7  8 -1 -1</clus>
<clus scale="   23.114">  2  5  1 -1</clus>
</clustering>
</event>
<event>
10    4  0.3403565E-005  0.1820399E+03  0.7546771E-02  0.1190620E+00
         21   -1    0    0  503  502  0.00000000000E+00  0.00000000000E+00  0.58273402198E+03  0.58273402198E+03  0.00000000000E+00 0.  1.
         -3   -1    0    0    0  501 -0.00000000000E+00 -0.00000000000E+00 -0.44692367098E+03  0.44692367098E+03  0.00000000000E+00 0.  1.
         24    2    1    2    0    0  0.63219295575E+02 -0.22166841052E+02 -0.20520855431E+03  0.23030561585E+03  0.80262555117E+02 0.  0.
         23    2    1    2    0    0  0.33380030339E+02 -0.11989741865E+03 -0.17296914169E+03  0.23114042021E+03  0.89543020113E+02 0.  0.
        -11    1    3    3    0    0  0.53687684999E+02 -0.37147059406E+02 -0.20196679405E+03  0.21225658397E+03  0.00000000000E+00 0.  1.
         12    1    3    3    0    0  0.95316105752E+01  0.14980218354E+02 -0.32417602685E+01  0.18049031878E+02  0.00000000000E+00 0. -1.
        -13    1    4    4    0    0  0.26863542356E+02 -0.64096040556E+02 -0.26695094770E+02  0.74448508431E+02  0.00000000000E+00 0.  1.
         13    1    4    4    0    0  0.65164879826E+01 -0.55801378096E+02 -0.14627404692E+03  0.15669191177E+03  0.00000000000E+00 0. -1.
         21    1    1    2  503  501 -0.93466413606E+02  0.65178325941E+02  0.46077334720E+03  0.47465383400E+03  0.00000000000E+00 0.  1.
         -4    1    1    2    0  502 -0.31329123072E+01  0.76885933762E+02  0.53214699813E+02  0.93557822902E+02  0.00000000000E+00 0.  1.
<scales pt_clust_5="13000.00000" pt_clust_6="13000.00000" pt_clust_7="13000.00000" pt_clust_8="13000.00000" pt_clust_9="158.49471" pt_clust_10="76.94974"></scales>
<clustering>
<clus scale="   76.950">  1 10  2 -1</clus>
<clus scale="   80.263">  5  6 -1 -1</clus>
<clus scale="   89.543">  7  8 -1 -1</clus>
<clus scale="  104.115">  2  5  1 -1</clus>
<clus scale="  158.495">  1  9  2 -1</clus>
<clus scale="   76.950">  1  5  2 -1</clus>
</clustering>
</event>
<event>
10    4  0.3403565E-005  0.1090060E+03  0.7546771E-02  0.1266362E+00
          2   -1    0    0  503    0 -0.00000000000E+00  0.00000000000E+00  0.58623748886E+03  0.58623748886E+03  0.00000000000E+00 0. -1.
         21   -1    0    0  501  502  0.00000000000E+00 -0.00000000000E+00 -0.97919246699E+02  0.97919246699E+02  0.00000000000E+00 0.  1.
         24    2    1    2    0    0 -0.38733879270E+02 -0.54009439265E+02  0.47080186072E+03  0.48241156026E+03  0.81542556244E+02 0.  0.
         23    2    1    2    0    0  0.34805418911E+02 -0.40280123459E+01 -0.22750274222E+02  0.10044040895E+03  0.91340345438E+02 0.  0.
        -11    1    3    3    0    0 -0.95894011246E+01 -0.19455693645E+02  0.20495469723E+02  0.29841999067E+02  0.00000000000E+00 0.  1.
         12    1    3    3    0    0 -0.29144478145E+02 -0.34553745620E+02  0.45030639100E+03  0.45256956119E+03  0.00000000000E+00 0. -1.
        -11    1    4    4    0    0  0.65672281870E+02 -0.55954168817E+01 -0.22134490577E+02  0.69527641764E+02  0.00000000000E+00 0.  1.
         11    1    4    4    0    0 -0.30866862959E+02  0.15674045358E+01 -0.61578364526E+00  0.30912767191E+02  0.00000000000E+00 0. -1.
         21    1    1    2  503  502  0.17675763501E+02 -0.10037008514E+02  0.21015165672E+02  0.29237156898E+02  0.00000000000E+00 0. -1.
          1    1    1    2  501    0 -0.13747303142E+02  0.68074460125E+02  0.19251489991E+02  0.72067609450E+02  0.00000000000E+00 0. -1.
<scales pt_clust_5="13000.00000" pt_clust_6="13000.00000" pt_clust_7="13000.00000" pt_clust_8="13000.00000" pt_clust_9="20.32669" pt_clust_10="68.37478"></scales>
<clustering>
<clus scale="   20.327">  1  9  2 -1</clus>
<clus scale="   68.375">  2 10  1 -1</clus>
<clus scale="   81.543">  5  6 -1 -1</clus>
<clus scale="   91.340">  7  8 -1 -1</clus>
<clus scale="  100.938">  1  5  2 -1</clus>
<clus scale="   68.375">  2  5  1 -1</clus>
</clustering>
</event>
<event>
10    4  0.3403565E-005  0.1535525E+03  0.7546771E-02  0.1198290E+00
         21   -1    0    0  503  502  0.00000000000E+00  0.00000000000E+00  0.84949585853E+02  0.84949585853E+02  0.00000000000E+00 0. -1.
          2   -1    0    0  502    0 -0.00000000000E+00 -0.00000000000E+00 -0.18559871137E+04  0.18559871137E+04  0.00000000000E+00 0. -1.
         24    2    1    2    0    0  0.11505460914E+03 -0.28236049162E+02 -0.57978548506E+03  0.59714086835E+03  0.79944796026E+02 0.  0.
         23    2    1    2    0    0 -0.39561661127E+02 -0.89496446743E+02 -0.51508714573E+02  0.14366914443E+03  0.91722060455E+02 0.  0.
        -13    1    3    3    0    0  0.45519087008E+02  0.23016257532E+02 -0.30060209287E+03  0.30489892363E+03  0.00000000000E+00 0.  1.
         14    1    3    3    0    0  0.69535522129E+02 -0.51252306694E+02 -0.27918339220E+03  0.29224194473E+03  0.00000000000E+00 0. -1.
        -13    1    4    4    0    0 -0.11970153169E+02 -0.41713105033E+02  0.24430367686E+02  0.49800708465E+02  0.00000000000E+00 0. -1.
         13    1    4    4    0    0 -0.27591507958E+02 -0.47783341710E+02 -0.75939082260E+02  0.93868435967E+02  0.00000000000E+00 0.  1.
         21    1    1    2  503  501  0.22486369181E+02 -0.39542024450E+02 -0.70624792609E-01  0.45488608293E+02  0.00000000000E+00 0. -1.
          1    1    1    2  501    0 -0.97979317192E+02  0.15727452035E+03 -0.11396727034E+04  0.11546380785E+04  0.00000000000E+00 0. -1.
<scales pt_clust_5="13000.00000" pt_clust_6="13000.00000" pt_clust_7="13000.00000" pt_clust_8="13000.00000" pt_clust_9="45.48855" pt_clust_10="123.14803"></scales>
<clustering>
<clus scale="   45.489">  1  9  2 -1</clus>
<clus scale="   79.945">  5  6 -1 -1</clus>
<clus scale="   91.722">  7  8 -1 -1</clus>
<clus scale="  146.625">  2  5  1 -1</clus>
<clus scale="  123.148">  1 10  2 -1</clus>
<clus scale="   45.489">  1  5  2 -1</clus>
</clustering>
</event>
<event>
10    4  0.3403565E-005  0.6455530E+03  0.7546771E-02  0.1020744E+00
          2   -1    0    0  503    0 -0.00000000000E+00  0.00000000000E+00  0.21431653291E+04  0.21431653291E+04  0.00000000000E+00 0. -1.
         21   -1    0    0  501  502  0.00000000000E+00 -0.00000000000E+00 -0.47055264334E+03  0.47055264334E+03  0.00000000000E+00 0. -1.
         24    2    1    2    0    0 -0.10350239589E+03 -0.13183451843E+03  0.88059763207E+03  0.90028240532E+03  0.83445392487E+02 0.  0.
         23    2    1    2    0    0 -0.25331977807E+03 -0.47512341109E+03  0.54468361340E+03  0.77270207232E+03  0.10234787803E+03 0.  0.
        -13    1    3    3    0    0 -0.27311524608E+02  0.56456854381E+01  0.90418940802E+02  0.94622291223E+02  0.00000000000E+00 0.  1.
         14    1    3    3    0    0 -0.76190871277E+02 -0.13748020387E+03  0.79017869127E+03  0.80566011410E+03  0.00000000000E+00 0. -1.
        -11    1    4    4    0    0 -0.17794273190E+03 -0.35269728173E+03  0.45795190316E+03  0.60479660547E+03  0.00000000000E+00 0.  1.
         11    1    4    4    0    0 -0.75377046164E+02 -0.12242612936E+03  0.86731710241E+02  0.16790546686E+03  0.00000000000E+00 0. -1.
         21    1    1    2  503  502 -0.28933248060E+02 -0.12900423128E+02 -0.11952808977E+03  0.12365483413E+03  0.00000000000E+00 0. -1.
          1    1    1    2  501    0  0.38575542201E+03  0.61985835265E+03  0.36685953011E+03  0.81707866071E+03  0.00000000000E+00 0. -1.
<scales pt_clust_5="13000.00000" pt_clust_6="13000.00000" pt_clust_7="13000.00000" pt_clust_8="13000.00000" pt_clust_9="31.67892" pt_clust_10="637.38814"></scales>
<clustering>
<clus scale="   31.679">  2  9  1 -1</clus>
<clus scale="   83.445">  5  6 -1 -1</clus>
<clus scale="  102.348">  7  8 -1 -1</clus>
<clus scale="  187.941">  1  5  2 -1</clus>
<clus scale="  637.388">  2 10  1 -1</clus>
<clus scale="   31.679">  2  5  1 -1</clus>
</clustering>
</event>
<event>
10    4  0.3403565E-005  0.2746429E+03  0.7546771E-02  0.1136142E+00
         21   -1    0    0  501  502  0.00000000000E+00  0.00000000000E+00  0.18244468206E+03  0.18244468206E+03  0.00000000000E+00 0. -1.
         -1   -1    0    0    0  501 -0.00000000000E+00 -0.00000000000E+00 -0.79340800472E+03  0.79340800472E+03  0.00000000000E+00 0.  1.
         24    2    1    2    0    0 -0.73996303412E+02  0.10464983470E+01 -0.16201779821E+03  0.19498565712E+03  0.79329007731E+02 0.  0.
         23    2    1    2    0    0  0.52406739397E+01  0.26639799767E+03 -0.21870887672E+03  0.35666576530E+03  0.91550737585E+02 0.  0.
        -11    1    3    3    0    0 -0.15407505365E+02 -0.21075179190E+02 -0.58856746505E+01  0.26761830385E+02  0.00000000000E+00 0.  1.
         12    1    3    3    0    0 -0.58588798047E+02  0.22121677537E+02 -0.15613212356E+03  0.16822382674E+03  0.00000000000E+00 0. -1.
        -11    1    4    4    0    0  0.14426615977E+02  0.12894138618E+03 -0.16233609417E+03  0.20781485940E+03  0.00000000000E+00 0.  1.
         11    1    4    4    0    0 -0.91859420368E+01  0.13745661148E+03 -0.56372782553E+02  0.14885090589E+03  0.00000000000E+00 0. -1.
         21    1    1    2  503  502  0.17802748331E+02 -0.15271373395E+02  0.42953858910E+02  0.48940644548E+02  0.00000000000E+00 0. -1.
         -2    1    1    2    0  503  0.50952881142E+02 -0.25217312262E+03 -0.27319050663E+03  0.37526061981E+03  0.00000000000E+00 0.  1.
<scales pt_clust_5="13000.00000" pt_clust_6="13000.00000" pt_clust_7="13000.00000" pt_clust_8="13000.00000" pt_clust_9="23.45533" pt_clust_10="258.93481"></scales>
<clustering>
<clus scale="   23.455">  1  9  2 -1</clus>
<clus scale="   79.329">  5  6 -1 -1</clus>
<clus scale="   91.551">  7  8 -1 -1</clus>
<clus scale="  107.031">  2  5  1 -1</clus>
<clus scale="  258.935">  1 10  2 -1</clus>
<clus scale="   23.455">  1  5  2 -1</clus>
</clustering>
</event>
<event>
10    4  0.3403565E-005  0.4481900E+03  0.7546771E-02  0.1028263E+00
          2   -1    0    0  503    0 -0.00000000000E+00  0.00000000000E+00  0.20261665598E+04  0.20261665598E+04  0.00000000000E+00 0. -1.
         21   -1    0    0  501  502  0.00000000000E+00 -0.00000000000E+00 -0.20159602835E+03  0.20159602835E+03  0.00000000000E+00 0. -1.
         24    2    1    2    0    0  0.26219730410E+03  0.20927815031E+03  0.18547947038E+03  0.39276416279E+03  0.85535274363E+02 0.  0.
         23    2    1    2    0    0  0.12834847988E+03  0.60837531882E+00  0.71750676291E+02  0.17267305378E+03  0.90521387212E+02 0.  0.
        -11    1    3    3    0    0  0.18334177517E+02  0.50184133719E+02  0.43107266754E+02  0.68650023958E+02  0.00000000000E+00 0.  1.
         12    1    3    3    0    0  0.24386312658E+03  0.15909401659E+03  0.14237220363E+03  0.32411413883E+03  0.00000000000E+00 0. -1.
        -13    1    4    4    0    0  0.18177166896E+02  0.22595212362E+02 -0.13164980482E+02  0.31847601623E+02  0.00000000000E+00 0.  1.
         13    1    4    4    0    0  0.11017131299E+03 -0.21986837044E+02  0.84915656773E+02  0.14082545215E+03  0.00000000000E+00 0. -1.
         21    1    1    2  503  502 -0.31405363739E+02 -0.11611812622E+03  0.12699247747E+03  0.17491942557E+03  0.00000000000E+00 0. -1.
          1    1    1    2  501    0 -0.35914042025E+03 -0.93768399408E+02  0.14403479073E+04  0.14874059460E+04  0.00000000000E+00 0. -1.
<scales pt_clust_5="13000.00000" pt_clust_6="13000.00000" pt_clust_7="13000.00000" pt_clust_8="13000.00000" pt_clust_9="120.29013" pt_clust_10="379.34265"></scales>
<clustering>
<clus scale="   85.535">  5  6 -1 -1</clus>
<clus scale="   90.521">  7  8 -1 -1</clus>
<clus scale="  120.290">  2  9  1 -1</clus>
<clus scale="  131.575">  5  7 -1 -1</clus>
<clus scale="  379.343">  2 10  1 -1</clus>
<clus scale="  120.290">  2  5  1 -1</clus>
</clustering>
</event>
<event>
10    4  0.4069878E-005  0.3369577E+03  0.7546771E-02  0.1115317E+00
          2   -1    0    0  502    0 -0.00000000000E+00  0.00000000000E+00  0.11258340925E+04  0.11258340925E+04  0.00000000000E+00 0. -1.
         21   -1    0    0  503  502  0.00000000000E+00 -0.00000000000E+00 -0.37433672257E+03  0.37433672257E+03  0.00000000000E+00 0. -1.
         23    2    1    2    0    0 -0.10488501365E+01  0.24845540695E+02 -0.20413860372E+02  0.97666804918E+02  0.92215389760E+02 0.  0.
         24    2    1    2    0    0  0.87686899417E+01 -0.35672642831E+03  0.94563975629E+03  0.10139128984E+04  0.80337924966E+02 0.  0.
        -13    1    4    4    0    0 -0.11639360422E+02 -0.71690804354E+02  0.12055982198E+03  0.14074699576E+03  0.00000000000E+00 0.  1.
         14    1    4    4    0    0  0.20408050364E+02 -0.28503562395E+03  0.82507993432E+03  0.87316590259E+03  0.00000000000E+00 0. -1.
        -11    1    3    3    0    0  0.12336092020E+02  0.52433595082E+02  0.96512678885E+01  0.54723011900E+02  0.00000000000E+00 0.  1.
         11    1    3    3    0    0 -0.13384942156E+02 -0.27588054387E+02 -0.30065128261E+02  0.42943793018E+02  0.00000000000E+00 0. -1.
         21    1    1    2  503  501 -0.18255211211E+02  0.27307844339E+02 -0.49678242734E+02  0.59555846899E+02  0.00000000000E+00 0. -1.
          1    1    1    2  501    0  0.10535371406E+02  0.30457304327E+03 -0.12405028329E+03  0.32903526487E+03  0.00000000000E+00 0. -1.
<scales pt_clust_5="13000.00000" pt_clust_6="13000.00000" pt_clust_7="13000.00000" pt_clust_8="13000.00000" pt_clust_9="32.84770" pt_clust_10="327.24049"></scales>
<clustering>
<clus scale="   32.848">  2  9  1 -1</clus>
<clus scale="   80.338">  5  6 -1 -1</clus>
<clus scale="   92.215">  7  8 -1 -1</clus>
<clus scale="   97.039">  1  7  2 -1</clus>
<clus scale="  327.240">  2 10  1 -1</clus>
<clus scale="   32.848">  2  5  1 -1</clus>
</clustering>
</event>
<event>
10    4  0.3403565E-005  0.1156814E+03  0.7546771E-02  0.1254603E+00
         21   -1    0    0  503  502  0.00000000000E+00  0.00000000000E+00  0.20321276094E+03  0.20321276094E+03  0.00000000000E+00 0. -1.
          2   -1    0    0  502    0 -0.00000000000E+00 -0.00000000000E+00 -0.17491669978E+03  0.17491669978E+03  0.00000000000E+00 0. -1.
         24    2    1    2    0    0 -0.56705483063E+02  0.32966972683E+02 -0.45791660444E+02  0.11306595559E+03  0.79904324347E+02 0.  0.
         23    2    1    2    0    0  0.43037392702E+02 -0.73923186573E+02 -0.98027579984E+00  0.12555912506E+03  0.91909076054E+02 0.  0.
        -13    1    3    3    0    0 -0.48012724037E+01  0.47427005679E+02 -0.10979566490E+02  0.48917522062E+02  0.00000000000E+00 0.  1.
         14    1    3    3    0    0 -0.51904210659E+02 -0.14460032995E+02 -0.34812093954E+02  0.64148433526E+02  0.00000000000E+00 0. -1.
        -13    1    4    4    0    0 -0.19037667102E+02 -0.29739780024E+02 -0.27633020547E+02  0.44838277277E+02  0.00000000000E+00 0.  1.
         13    1    4    4    0    0  0.62075059804E+02 -0.44183406549E+02  0.26652744747E+02  0.80720847782E+02  0.00000000000E+00 0. -1.
         21    1    1    2  503  501  0.12289673837E+02 -0.33920595023E+02  0.47619172874E+02  0.59743020303E+02  0.00000000000E+00 0. -1.
          1    1    1    2  501    0  0.13784165234E+01  0.74876808913E+02  0.27448824524E+02  0.79761359773E+02  0.00000000000E+00 0. -1.
<scales pt_clust_5="13000.00000" pt_clust_6="13000.00000" pt_clust_7="13000.00000" pt_clust_8="13000.00000" pt_clust_9="36.07829" pt_clust_10="62.98289"></scales>
<clustering>
<clus scale="   36.078">  1  9  2 -1</clus>
<clus scale="   62.983">  1 10  2 -1</clus>
<clus scale="   79.904">  5  6 -1 -1</clus>
<clus scale="   91.909">  7  8 -1 -1</clus>
<clus scale="  106.394">  2  5  1 -1</clus>
<clus scale="   36.078">  1  5  2 -1</clus>
</clustering>
</event>
<event>
10    4  0.3403565E-005  0.2005390E+03  0.7546771E-02  0.1150323E+00
         21   -1    0    0  501  502  0.00000000000E+00  0.00000000000E+00  0.89767433773E+02  0.89767433773E+02  0.00000000000E+00 0.  1.
          2   -1    0    0  503    0 -0.00000000000E+00 -0.00000000000E+00 -0.10000128162E+04  0.10000128162E+04  0.00000000000E+00 0. -1.
         24    2    1    2    0    0 -0.14893549371E+03 -0.25663560736E+02 -0.33677889500E+03  0.37769455075E+03  0.79954674100E+02 0.  0.
         23    2    1    2    0    0  0.22700868004E+03 -0.14861077283E+02 -0.40808284042E+03  0.47603520606E+03  0.91236617309E+02 0.  0.
        -11    1    3    3    0    0 -0.18104735699E+02  0.92532360565E+01 -0.12278456930E+03  0.12445663619E+03  0.00000000000E+00 0.  1.
         12    1    3    3    0    0 -0.13083075801E+03 -0.34916796792E+02 -0.21399432570E+03  0.25323791456E+03  0.00000000000E+00 0. -1.
        -11    1    4    4    0    0  0.17156638012E+03 -0.50344851871E+02 -0.31114786246E+03  0.35886295324E+03  0.00000000000E+00 0.  1.
         11    1    4    4    0    0  0.55442299921E+02  0.35483774588E+02 -0.96934977958E+02  0.11717225282E+03  0.00000000000E+00 0. -1.
         21    1    1    2  503  502  0.11870240549E+02  0.27727083375E+02  0.15294573483E+02  0.33817417719E+02  0.00000000000E+00 0.  1.
          1    1    1    2  501    0 -0.89943426877E+02  0.12797554644E+02 -0.18067822050E+03  0.20223307545E+03  0.00000000000E+00 0. -1.
<scales pt_clust_5="13000.00000" pt_clust_6="13000.00000" pt_clust_7="13000.00000" pt_clust_8="13000.00000" pt_clust_9="30.16113" pt_clust_10="89.68189"></scales>
<clustering>
<clus scale="   30.161">  1  9  2 -1</clus>
<clus scale="   79.955">  5  6 -1 -1</clus>
<clus scale="   89.682">  1 10  2 -1</clus>
<clus scale="   91.237">  7  8 -1 -1</clus>
<clus scale="  195.664">  2  5  1 -1</clus>
<clus scale="   30.161">  1  5  2 -1</clus>
</clustering>
</event>
<event>
10    4  0.3403565E-005  0.9111856E+02  0.7546771E-02  0.1308469E+00
          2   -1    0    0  503    0 -0.00000000000E+00  0.00000000000E+00  0.59207097940E+03  0.59207097940E+03  0.00000000000E+00 0. -1.
         21   -1    0    0  501  502  0.00000000000E+00 -0.00000000000E+00 -0.51413786261E+02  0.51413786261E+02  0.00000000000E+00 0.  1.
         24    2    1    2    0    0  0.56470842075E+00  0.15908015845E+02  0.20796460746E+03  0.22249319796E+03  0.77463290126E+02 0.  0.
         23    2    1    2    0    0  0.98505641473E+01  0.16618148214E+01  0.94656643480E+02  0.13129097991E+03  0.90430337876E+02 0.  0.
        -11    1    3    3    0    0  0.31752232446E+02  0.23276377709E+02  0.16025419800E+03  0.16501939886E+03  0.00000000000E+00 0.  1.
         12    1    3    3    0    0 -0.31187524025E+02 -0.73683618644E+01  0.47710409464E+02  0.57473799096E+02  0.00000000000E+00 0. -1.
        -13    1    4    4    0    0  0.41054403932E+01  0.41413615011E+02  0.19246695329E+02  0.45851689503E+02  0.00000000000E+00 0.  1.
         13    1    4    4    0    0  0.57451237542E+01 -0.39751800190E+02  0.75409948151E+02  0.85439290408E+02  0.00000000000E+00 0. -1.
         21    1    1    2  503  502  0.50950895539E+02  0.21187241545E+01  0.90163792303E+01  0.51785884589E+02  0.00000000000E+00 0.  1.
          1    1    1    2  501    0 -0.61366168107E+02 -0.19688554820E+02  0.22901956296E+03  0.23791470320E+03  0.00000000000E+00 0. -1.
<scales pt_clust_5="13000.00000" pt_clust_6="13000.00000" pt_clust_7="13000.00000" pt_clust_8="13000.00000" pt_clust_9="50.99493" pt_clust_10="57.20108"></scales>
<clustering>
<clus scale="   50.995">  2  9  1 -1</clus>
<clus scale="   57.201">  2 10  1 -1</clus>
<clus scale="   77.463">  5  6 -1 -1</clus>
<clus scale="   78.266">  1  5  2 -1</clus>
<clus scale="   90.430">  7  8 -1 -1</clus>
<clus scale="   50.995">  2  5  1 -1</clus>
</clustering>
</event>
<event>
10    4  0.3403565E-005  0.1587327E+03  0.7546771E-02  0.1191752E+00
          2   -1    0    0  502    0 -0.00000000000E+00  0.00000000000E+00  0.79255282270E+03  0.79255282270E+03  0.00000000000E+00 0. -1.
         21   -1    0    0  503  502  0.00000000000E+00 -0.00000000000E+00 -0.17134439133E+03  0.17134439133E+03  0.00000000000E+00 0.  1.
         24    2    1    2    0    0 -0.13990923874E+03 -0.52055576323E+00  0.35875750117E+03  0.39312954022E+03  0.79177172733E+02 0.  0.
         23    2    1    2    0    0  0.59080978509E+02  0.15626359424E+03 -0.38916348828E+02  0.19346011686E+03  0.89462068514E+02 0.  0.
        -13    1    3    3    0    0 -0.65990348453E+02  0.36492010859E+02  0.13567792330E+03  0.15522529374E+03  0.00000000000E+00 0.  1.
         14    1    3    3    0    0 -0.73918890284E+02 -0.37012566622E+02  0.22307957787E+03  0.23790424648E+03  0.00000000000E+00 0. -1.
        -13    1    4    4    0    0 -0.14111145712E+02  0.24735887083E+02  0.16675773672E+02  0.33001060144E+02  0.00000000000E+00 0. -1.
         13    1    4    4    0    0  0.73192124221E+02  0.13152770716E+03 -0.55592122499E+02  0.16045905672E+03  0.00000000000E+00 0.  1.
         21    1    1    2  503  501  0.39644070051E+01 -0.33770742574E+02 -0.89277176595E+01  0.35155137882E+02  0.00000000000E+00 0.  1.
          1    1    1    2  501    0  0.76863853223E+02 -0.12197229591E+03  0.31029499669E+03  0.34215241907E+03  0.00000000000E+00 0. -1.
<scales pt_clust_5="13000.00000" pt_clust_6="13000.00000" pt_clust_7="13000.00000" pt_clust_8="13000.00000" pt_clust_9="34.00264" pt_clust_10="147.45305"></scales>
<clustering>
<clus scale="   34.003">  2  9  1 -1</clus>
<clus scale="   79.177">  5  6 -1 -1</clus>
<clus scale="   89.462">  7  8 -1 -1</clus>
<clus scale="  147.453">  2 10  1 -1</clus>
<clus scale="  153.172">  1  5  2 -1</clus>
<clus scale="   34.003">  2  5  1 -1</clus>
</clustering>
</event>
<event>
10    4  0.3403565E-005  0.1128177E+03  0.7546771E-02  0.1259644E+00
          2   -1    0    0  502    0 -0.00000000000E+00  0.00000000000E+00  0.13775031041E+04  0.13775031041E+04  0.00000000000E+00 0. -1.
         21   -1    0    0  503  502  0.00000000000E+00 -0.00000000000E+00 -0.31320179199E+02  0.31320179199E+02  0.00000000000E+00 0.  1.
         24    2    1    2    0    0  0.12784430675E+02  0.61804459513E+02  0.10592086898E+04  0.10641815591E+04  0.81093214584E+02 0.  0.
         23    2    1    2    0    0 -0.67979976645E+01 -0.75801132614E+02  0.21510635409E+03  0.24614047781E+03  0.92316665732E+02 0.  0.
        -11    1    3    3    0    0 -0.22321946345E+02  0.23065405993E+02  0.14642091496E+03  0.14989785382E+03  0.00000000000E+00 0.  1.
         12    1    3    3    0    0  0.35106377020E+02  0.38739053520E+02  0.91278777480E+03  0.91428370532E+03  0.00000000000E+00 0. -1.
        -13    1    4    4    0    0 -0.31588263002E+02 -0.86840694084E+02  0.16200271450E+03  0.18650470239E+03  0.00000000000E+00 0.  1.
         13    1    4    4    0    0  0.24790265337E+02  0.11039561469E+02  0.53103639582E+02  0.59635775419E+02  0.00000000000E+00 0. -1.
         21    1    1    2  503  501  0.13224173997E+02 -0.18197842137E+02  0.69657772662E+01  0.23549146253E+02  0.00000000000E+00 0.  1.
          1    1    1    2  501    0 -0.19210607007E+02  0.32194515238E+02  0.64902103764E+02  0.74952100077E+02  0.00000000000E+00 0. -1.
<scales pt_clust_5="13000.00000" pt_clust_6="13000.00000" pt_clust_7="13000.00000" pt_clust_8="13000.00000" pt_clust_9="22.49534" pt_clust_10="32.60486"></scales>
<clustering>
<clus scale="   22.495">  2  9  1 -1</clus>
<clus scale="   32.605">  2 10  1 -1</clus>
<clus scale="   81.093">  5  6 -1 -1</clus>
<clus scale="   92.317">  7  8 -1 -1</clus>
<clus scale="  103.834">  1  5  2 -1</clus>
<clus scale="   22.495">  2  5  1 -1</clus>
</clustering>
</event>
<event>
10    4  0.3403565E-005  0.1391258E+03  0.7546771E-02  0.1216225E+00
         21   -1    0    0  501  502  0.00000000000E+00  0.00000000000E+00  0.14492681882E+03  0.14492681882E+03  0.00000000000E+00 0.  1.
          2   -1    0    0  503    0 -0.00000000000E+00 -0.00000000000E+00 -0.13623599259E+04  0.13623599259E+04  0.00000000000E+00 0. -1.
         23    2    1    2    0    0 -0.11064815177E+02  0.12228613573E+03 -0.75153510503E+03  0.76676557757E+03  0.89711246412E+02 0.  0.
         24    2    1    2    0    0  0.29747698825E+02 -0.77693481420E+02 -0.27845555282E+03  0.30191288091E+03  0.81808863376E+02 0.  0.
        -13    1    4    4    0    0  0.32758539949E+02  0.44468140422E+01 -0.10263779085E+03  0.10783047901E+03  0.00000000000E+00 0.  1.
         14    1    4    4    0    0 -0.30108411235E+01 -0.82140295462E+02 -0.17581776197E+03  0.19408240190E+03  0.00000000000E+00 0. -1.
        -11    1    3    3    0    0  0.23554623796E+02  0.11195533119E+03 -0.61380004632E+03  0.62437113430E+03  0.00000000000E+00 0. -1.
         11    1    3    3    0    0 -0.34619438973E+02  0.10330804530E+02 -0.13773505871E+03  0.14239444327E+03  0.00000000000E+00 0.  1.
         21    1    1    2  503  502  0.59540152498E+00  0.26341445624E+02  0.11981628868E+03  0.12267913145E+03  0.00000000000E+00 0.  1.
          1    1    1    2  501    0 -0.19278285174E+02 -0.70934099930E+02 -0.30725873788E+03  0.31592915474E+03  0.00000000000E+00 0. -1.
<scales pt_clust_5="13000.00000" pt_clust_6="13000.00000" pt_clust_7="13000.00000" pt_clust_8="13000.00000" pt_clust_9="26.34817" pt_clust_10="68.83453"></scales>
<clustering>
<clus scale="   26.348">  1  9  2 -1</clus>
<clus scale="   68.835">  1 10  2 -1</clus>
<clus scale="   81.809">  5  6 -1 -1</clus>
<clus scale="   89.711">  7  8 -1 -1</clus>
<clus scale="  134.166">  1  5  2 -1</clus>
<clus scale="   26.348">  1  5  2 -1</clus>
</clustering>
</event>
<event>
10    4  0.3403565E-005  0.2221177E+03  0.7546771E-02  0.1162279E+00
          2   -1    0    0  503    0 -0.00000000000E+00  0.00000000000E+00  0.92213997312E+03  0.92213997312E+03  0.00000000000E+00 0. -1.
         21   -1    0    0  501  502  0.00000000000E+00 -0.00000000000E+00 -0.91329495213E+02  0.91329495213E+02  0.00000000000E+00 0.  1.
         23    2    1    2    0    0 -0.65784263864E+02 -0.76346451232E+01  0.21899629695E+03  0.24612368609E+03  0.90728350568E+02 0.  0.
         24    2    1    2    0    0  0.10850900582E+03  0.17419649925E+03  0.25991765746E+03  0.34533901066E+03  0.97893916710E+02 0.  0.
        -11    1    4    4    0    0 -0.96955067908E+01  0.67129163539E+02  0.81475689068E+02  0.10601233588E+03  0.00000000000E+00 0.  1.
         12    1    4    4    0    0  0.11820451261E+03  0.10706733571E+03  0.17844196839E+03  0.23932667478E+03  0.00000000000E+00 0. -1.
        -11    1    3    3    0    0 -0.15699793273E+02 -0.46390321135E+02  0.92960889635E+02  0.10507270057E+03  0.00000000000E+00 0.  1.
         11    1    3    3    0    0 -0.50084470591E+02  0.38755676012E+02  0.12603540732E+03  0.14105098552E+03  0.00000000000E+00 0. -1.
         21    1    1    2  503  502  0.36796200600E+02  0.62816346878E+01  0.29176763428E+02  0.47378295000E+02  0.00000000000E+00 0.  1.
          1    1    1    2  501    0 -0.79520942558E+02 -0.17284348881E+03  0.32271976007E+03  0.37462847658E+03  0.00000000000E+00 0. -1.
<scales pt_clust_5="13000.00000" pt_clust_6="13000.00000" pt_clust_7="13000.00000" pt_clust_8="13000.00000" pt_clust_9="37.32853" pt_clust_10="199.38183"></scales>
<clustering>
<clus scale="   37.329">  2  9  1 -1</clus>
<clus scale="   90.728">  7  8 -1 -1</clus>
<clus scale="   97.894">  5  6 -1 -1</clus>
<clus scale="  108.816">  1  7  2 -1</clus>
<clus scale="  199.382">  2 10  1 -1</clus>
<clus scale="   37.329">  2  5  1 -1</clus>
</clustering>
</event>
<event>
10    4  0.3403565E-005  0.1873830E+03  0.7546771E-02  0.1175642E+00
         -1   -1    0    0    0  501 -0.00000000000E+00  0.00000000000E+00  0.50595438243E+03  0.50595438243E+03  0.00000000000E+00 0.  1.
         21   -1    0    0  503  502  0.00000000000E+00 -0.00000000000E+00 -0.24298453091E+03  0.24298453091E+03  0.00000000000E+00 0. -1.
         24    2    1    2    0    0  0.60017435570E+02 -0.87037444388E+02  0.14739003661E+03  0.19804995076E+03  0.79513211504E+02 0.  0.
         23    2    1    2    0    0  0.10830310500E+03  0.77354667178E+02 -0.10053053317E+03  0.19047546712E+03  0.91984826948E+02 0.  0.
        -13    1    3    3    0    0  0.52193415137E+02 -0.13197217799E+02  0.38230349936E+02  0.66029378291E+02  0.00000000000E+00 0.  1.
         14    1    3    3    0    0  0.78240204333E+01 -0.73840226589E+02  0.10915968668E+03  0.13202057247E+03  0.00000000000E+00 0. -1.
        -11    1    4    4    0    0  0.41250346344E+02  0.62581072877E+02 -0.81811496774E+01  0.75398361826E+02  0.00000000000E+00 0.  1.
         11    1    4    4    0    0  0.67052758653E+02  0.14773594301E+02 -0.92349383488E+02  0.11507710529E+03  0.00000000000E+00 0. -1.
         21    1    1    2  503  501  0.38009487506E+02  0.12873462359E+02 -0.21645618616E+02  0.45595832911E+02  0.00000000000E+00 0.  1.
         -2    1    1    2    0  502 -0.20633002807E+03 -0.31906851489E+01  0.23775596669E+03  0.31481766255E+03  0.00000000000E+00 0.  1.
<scales pt_clust_5="13000.00000" pt_clust_6="13000.00000" pt_clust_7="13000.00000" pt_clust_8="13000.00000" pt_clust_9="40.13038" pt_clust_10="163.25196"></scales>
<clustering>
<clus scale="   40.130">  2  9  1 -1</clus>
<clus scale="   79.513">  5  6 -1 -1</clus>
<clus scale="   91.985">  7  8 -1 -1</clus>
<clus scale="  133.433">  1  5  2 -1</clus>
<clus scale="  163.252">  2 10  1 -1</clus>
<clus scale="   40.130">  2  5  1 -1</clus>
</clustering>
</event>
<event>
10    4  0.3403565E-005  0.5058365E+03  0.7546771E-02  0.1066183E+00
         -1   -1    0    0    0  501 -0.00000000000E+00  0.00000000000E+00  0.20996483670E+04  0.20996483670E+04  0.00000000000E+00 0.  1.
         21   -1    0    0  501  502  0.00000000000E+00 -0.00000000000E+00 -0.26005216936E+03  0.26005216936E+03  0.00000000000E+00 0.  1.
         24    2    1    2    0    0 -0.57310034395E+02  0.34587205718E+02  0.16816541095E+03  0.19826117890E+03  0.80914614105E+02 0.  0.
         23    2    1    2    0    0  0.39702342835E+03  0.37975372370E+02  0.34334283936E+03  0.53420493261E+03  0.91765315418E+02 0.  0.
        -11    1    3    3    0    0 -0.75766158232E+02  0.20988474405E+02  0.10577996429E+03  0.13179691816E+03  0.00000000000E+00 0.  1.
         12    1    3    3    0    0  0.18456123837E+02  0.13598731313E+02  0.62385446658E+02  0.66464260735E+02  0.00000000000E+00 0. -1.
        -13    1    4    4    0    0  0.90450222474E+02  0.47901286660E+02  0.92664790220E+02  0.13806715524E+03  0.00000000000E+00 0. -1.
         13    1    4    4    0    0  0.30657320587E+03 -0.99259142897E+01  0.25067804914E+03  0.39613777737E+03  0.00000000000E+00 0.  1.
         21    1    1    2  503  502  0.19975818651E+03 -0.54462253774E+02  0.15071377967E+02  0.20759724612E+03  0.00000000000E+00 0.  1.
         -2    1    1    2    0  503 -0.53947158046E+03 -0.18100324313E+02  0.13130165694E+04  0.14196371788E+04  0.00000000000E+00 0.  1.
<scales pt_clust_5="13000.00000" pt_clust_6="13000.00000" pt_clust_7="13000.00000" pt_clust_8="13000.00000" pt_clust_9="203.31153" pt_clust_10="497.44342"></scales>
<clustering>
<clus scale="   80.915">  5  6 -1 -1</clus>
<clus scale="   91.765">  7  8 -1 -1</clus>
<clus scale="  105.014">  1  5  2 -1</clus>
<clus scale="  203.312">  2  9  1 -1</clus>
<clus scale="  497.443">  2 10  1 -1</clus>
<clus scale="  203.312">  2  5  1 -1</clus>
</clustering>
</event>
<event>
10    4  0.3403565E-005  0.1151141E+03  0.7546771E-02  0.1254490E+00
          4   -1    0    0  503    0 -0.00000000000E+00  0.00000000000E+00  0.19035640916E+03  0.19035640916E+03  0.00000000000E+00 0. -1.
         21   -1    0    0  501  502  0.00000000000E+00 -0.00000000000E+00 -0.23771030968E+03  0.23771030968E+03  0.00000000000E+00 0. -1.
         24    2    1    2    0    0  0.68456353081E+01 -0.68234883648E+02  0.47293180330E+02  0.11653477995E+03  0.81491398095E+02 0.  0.
         23    2    1    2    0    0 -0.38980677269E+02  0.80348258723E+02 -0.15839909853E+03  0.20309369826E+03  0.90451312736E+02 0.  0.
        -13    1    3    3    0    0  0.36202424054E+02 -0.75629140678E+01  0.28118513356E+02  0.46459272163E+02  0.00000000000E+00 0.  1.
         14    1    3    3    0    0 -0.29356788746E+02 -0.60671969580E+02  0.19174666974E+02  0.70075507789E+02  0.00000000000E+00 0. -1.
        -11    1    4    4    0    0 -0.21116634012E+02  0.10713999114E+02  0.53350942261E+01  0.24272726245E+02  0.00000000000E+00 0.  1.
         11    1    4    4    0    0 -0.17864043258E+02  0.69634259609E+02 -0.16373419276E+03  0.17882097201E+03  0.00000000000E+00 0. -1.
         21    1    1    2  503  502  0.96020360001E+01 -0.24138986031E+02 -0.11912136437E+02  0.28579516029E+02  0.00000000000E+00 0. -1.
          3    1    1    2  501    0  0.22533005961E+02  0.12025610957E+02  0.75664154122E+02  0.79858724605E+02  0.00000000000E+00 0. -1.
<scales pt_clust_5="13000.00000" pt_clust_6="13000.00000" pt_clust_7="13000.00000" pt_clust_8="13000.00000" pt_clust_9="25.82639" pt_clust_10="25.54119"></scales>
<clustering>
<clus scale="   25.541">  2 10  1 -1</clus>
<clus scale="   25.826">  2  9  1 -1</clus>
<clus scale="   81.491">  5  6 -1 -1</clus>
<clus scale="   90.451">  7  8 -1 -1</clus>
<clus scale="  108.216">  1  5  2 -1</clus>
<clus scale="   25.541">  2  5  1 -1</clus>
</clustering>
</event>
<event>
10    4  0.3403565E-005  0.1620434E+03  0.7546771E-02  0.1209826E+00
         21   -1    0    0  503  502  0.00000000000E+00  0.00000000000E+00  0.13864217729E+03  0.13864217729E+03  0.00000000000E+00 0. -1.
          2   -1    0    0  502    0 -0.00000000000E+00 -0.00000000000E+00 -0.70543262848E+03  0.70543262848E+03  0.00000000000E+00 0. -1.
         24    2    1    2    0    0 -0.53196093872E+02 -0.18824715812E+02 -0.31639491486E+03  0.33132287334E+03  0.80528938371E+02 0.  0.
         23    2    1    2    0    0  0.94541162346E+02 -0.93694888111E+02 -0.11042292278E+03  0.19494269729E+03  0.89959268094E+02 0.  0.
        -11    1    3    3    0    0  0.20448854594E+02  0.76782128113E-01 -0.44069254264E+02  0.48582514561E+02  0.00000000000E+00 0.  1.
         12    1    3    3    0    0 -0.73644948466E+02 -0.18901497940E+02 -0.27232566060E+03  0.28274035878E+03  0.00000000000E+00 0. -1.
        -13    1    4    4    0    0  0.32880610653E+02  0.13693583964E+02 -0.35073953745E+02  0.49988308933E+02  0.00000000000E+00 0.  1.
         13    1    4    4    0    0  0.61660551693E+02 -0.10738847207E+03 -0.75348969034E+02  0.14495438836E+03  0.00000000000E+00 0. -1.
         21    1    1    2  503  501  0.20062897041E+02 -0.48745247260E+01  0.68087401328E+02  0.71148963791E+02  0.00000000000E+00 0. -1.
          1    1    1    2  501    0 -0.61407965515E+02  0.11739412865E+03 -0.20806001488E+03  0.24666027135E+03  0.00000000000E+00 0. -1.
<scales pt_clust_5="13000.00000" pt_clust_6="13000.00000" pt_clust_7="13000.00000" pt_clust_8="13000.00000" pt_clust_9="20.64657" pt_clust_10="134.77909"></scales>
<clustering>
<clus scale="   20.647">  1  9  2 -1</clus>
<clus scale="   80.529">  5  6 -1 -1</clus>
<clus scale="   89.959">  7  8 -1 -1</clus>
<clus scale="   97.279">  2  5  1 -1</clus>
<clus scale="  134.779">  1 10  2 -1</clus>
<clus scale="   20.647">  1  5  2 -1</clus>
</clustering>
</event>
<event>
10    4  0.3403565E-005  0.2091454E+03  0.7546771E-02  0.1166568E+00
         -1   -1    0    0    0  501 -0.00000000000E+00  0.00000000000E+00  0.52428643100E+03  0.52428643100E+03  0.00000000000E+00 0.  1.
         21   -1    0    0  503  502  0.00000000000E+00 -0.00000000000E+00 -0.37961739886E+03  0.37961739886E+03  0.00000000000E+00 0.  1.
         23    2    1    2    0    0 -0.46864457007E+01  0.58976130158E+02 -0.10794657388E+03  0.16334198250E+03  0.10736849506E+03 0.  0.
         24    2    1    2    0    0  0.13707439638E+03 -0.18848313090E+03  0.39312897263E+03  0.46420487607E+03  0.81366436959E+02 0.  0.
        -13    1    4    4    0    0  0.13030244998E+03 -0.12058364743E+03  0.30265550894E+03  0.35088388620E+03  0.00000000000E+00 0.  1.
         14    1    4    4    0    0  0.67719464028E+01 -0.67899483464E+02  0.90473463686E+02  0.11332098987E+03  0.00000000000E+00 0. -1.
        -13    1    3    3    0    0 -0.13225835696E+01 -0.23115189114E+02 -0.68297145592E+02  0.72114917258E+02  0.00000000000E+00 0.  1.
         13    1    3    3    0    0 -0.33638621312E+01  0.82091319272E+02 -0.39649428288E+02  0.91227065237E+02  0.00000000000E+00 0. -1.
         21    1    1    2  503  501 -0.29793426195E+02 -0.30980606591E+02 -0.48544018949E+02  0.64838013579E+02  0.00000000000E+00 0. -1.
         -2    1    1    2    0  502 -0.10259452449E+03  0.16048760733E+03 -0.91969347665E+02  0.21151895771E+03  0.00000000000E+00 0.  1.
<scales pt_clust_5="13000.00000" pt_clust_6="13000.00000" pt_clust_7="13000.00000" pt_clust_8="13000.00000" pt_clust_9="42.98193" pt_clust_10="192.66887"></scales>
<clustering>
<clus scale="   42.982">  2  9  1 -1</clus>
<clus scale="   81.366">  5  6 -1 -1</clus>
<clus scale="  107.368">  7  8 -1 -1</clus>
<clus scale="  118.053">  1  7  2 -1</clus>
<clus scale="  192.669">  2 10  1 -1</clus>
<clus scale="   42.982">  2  5  1 -1</clus>
</clustering>
</event>
<event>
10    4  0.3403565E-005  0.1234731E+03  0.7546771E-02  0.1240950E+00
          2   -1    0    0  502    0 -0.00000000000E+00  0.00000000000E+00  0.36250311489E+03  0.36250311489E+03  0.00000000000E+00 0. -1.
         21   -1    0    0  503  502  0.00000000000E+00 -0.00000000000E+00 -0.17761028987E+03  0.17761028987E+03  0.00000000000E+00 0. -1.
         24    2    1    2    0    0 -0.59007949222E+02 -0.45651197029E+02  0.21406068147E+03  0.24019547187E+03  0.79409819876E+02 0.  0.
         23    2    1    2    0    0  0.48872998995E+02  0.13859771824E+03  0.36984281471E+02  0.17686460283E+03  0.91188558093E+02 0.  0.
        -13    1    3    3    0    0 -0.19027490441E+02 -0.49369815199E+02  0.55701319514E+02  0.76824872541E+02  0.00000000000E+00 0.  1.
         14    1    3    3    0    0 -0.39980458780E+02  0.37186181702E+01  0.15835936196E+03  0.16337059933E+03  0.00000000000E+00 0. -1.
        -11    1    4    4    0    0 -0.24691929235E+02  0.58477535330E+02  0.21378202162E+02  0.66980154040E+02  0.00000000000E+00 0. -1.
         11    1    4    4    0    0  0.73564928230E+02  0.80120182912E+02  0.15606079309E+02  0.10988444879E+03  0.00000000000E+00 0.  1.
         21    1    1    2  503  501  0.18919556373E+02 -0.12331631350E+02 -0.16480696981E+02  0.27957684419E+02  0.00000000000E+00 0. -1.
          1    1    1    2  501    0 -0.87846061464E+01 -0.80614889864E+02 -0.49671440941E+02  0.95095645632E+02  0.00000000000E+00 0. -1.
<scales pt_clust_5="13000.00000" pt_clust_6="13000.00000" pt_clust_7="13000.00000" pt_clust_8="13000.00000" pt_clust_9="22.58359" pt_clust_10="86.35916"></scales>
<clustering>
<clus scale="   22.584">  2  9  1 -1</clus>
<clus scale="   79.410">  5  6 -1 -1</clus>
<clus scale="   86.359">  2 10  1 -1</clus>
<clus scale="   91.189">  7  8 -1 -1</clus>
<clus scale="  115.049">  1  5  2 -1</clus>
<clus scale="   22.584">  2  5  1 -1</clus>
</clustering>
</event>
<event>
10    4  0.3403565E-005  0.2726916E+03  0.7546771E-02  0.1099749E+00
         21   -1    0    0  501  502  0.00000000000E+00  0.00000000000E+00  0.98663668998E+02  0.98663668998E+02  0.00000000000E+00 0.  1.
          4   -1    0    0  503    0 -0.00000000000E+00 -0.00000000000E+00 -0.11662761688E+04  0.11662761688E+04  0.00000000000E+00 0. -1.
         24    2    1    2    0    0  0.13253269308E+03  0.36302192847E+02 -0.65504112462E+03  0.67401774862E+03  0.79613356652E+02 0.  0.
         23    2    1    2    0    0  0.63822705770E+02  0.55977104221E+02 -0.26299364775E+03  0.28984533551E+03  0.87394998660E+02 0.  0.
        -11    1    3    3    0    0  0.13109423286E+03  0.19934050184E+02 -0.47295964614E+03  0.49119638753E+03  0.00000000000E+00 0.  1.
         12    1    3    3    0    0  0.14384602269E+01  0.16368142664E+02 -0.18208147849E+03  0.18282136109E+03  0.00000000000E+00 0. -1.
        -11    1    4    4    0    0  0.31317448353E+02  0.38588102466E+02 -0.24275717284E+03  0.24779198774E+03  0.00000000000E+00 0.  1.
         11    1    4    4    0    0  0.32505257417E+02  0.17389001755E+02 -0.20236474911E+02  0.42053347770E+02  0.00000000000E+00 0. -1.
         21    1    1    2  503  502 -0.13214660931E+03  0.39910820177E+01 -0.31829074706E+02  0.13598435602E+03  0.00000000000E+00 0.  1.
          3    1    1    2  501    0 -0.64208789549E+02 -0.96270379086E+02 -0.11774865273E+03  0.16509239766E+03  0.00000000000E+00 0. -1.
<scales pt_clust_5="13000.00000" pt_clust_6="13000.00000" pt_clust_7="13000.00000" pt_clust_8="13000.00000" pt_clust_9="187.58314" pt_clust_10="115.71843"></scales>
<clustering>
<clus scale="   79.613">  5  6 -1 -1</clus>
<clus scale="   87.395">  7  8 -1 -1</clus>
<clus scale="  108.582">  5  7 -1 -1</clus>
<clus scale="  115.718">  1 10  2 -1</clus>
<clus scale="  187.583">  1  9  2 -1</clus>
<clus scale="  115.718">  1  5  2 -1</clus>
</clustering>
</event>
<event>
10    4  0.3403565E-005  0.1505554E+03  0.7546771E-02  0.1207667E+00
          2   -1    0    0  503    0 -0.00000000000E+00  0.00000000000E+00  0.10641262547E+04  0.10641262547E+04  0.00000000000E+00 0. -1.
         21   -1    0    0  501  502  0.00000000000E+00 -0.00000000000E+00 -0.46812715319E+02  0.46812715319E+02  0.00000000000E+00 0.  1.
         24    2    1    2    0    0  0.11008518280E+03  0.12961819674E+02  0.61722687097E+03  0.63205602877E+03  0.78987701690E+02 0.  0.
         23    2    1    2    0    0 -0.52858496319E+02 -0.31812126632E+02  0.12143691837E+03  0.17698543201E+03  0.11300834467E+03 0.  0.
        -13    1    3    3    0    0  0.82697109718E+02 -0.20992478929E+02  0.49450519354E+03  0.50181160067E+03  0.00000000000E+00 0.  1.
         14    1    3    3    0    0  0.27388073080E+02  0.33954298604E+02  0.12272167743E+03  0.13024442810E+03  0.00000000000E+00 0. -1.
        -13    1    4    4    0    0 -0.28530068368E+02  0.39676998348E+02  0.26222541127E+02  0.55460352164E+02  0.00000000000E+00 0. -1.
         13    1    4    4    0    0 -0.24328427950E+02 -0.71489124980E+02  0.95214377245E+02  0.12152507984E+03  0.00000000000E+00 0.  1.
         21    1    1    2  503  502 -0.20748917382E+02  0.38830150015E+02  0.39469875129E+02  0.59128412506E+02  0.00000000000E+00 0. -1.
          1    1    1    2  501    0 -0.36477769097E+02 -0.19979843058E+02  0.23917987494E+03  0.24276909676E+03  0.00000000000E+00 0. -1.
<scales pt_clust_5="13000.00000" pt_clust_6="13000.00000" pt_clust_7="13000.00000" pt_clust_8="13000.00000" pt_clust_9="44.86078" pt_clust_10="41.59115"></scales>
<clustering>
<clus scale="   41.591">  2 10  1 -1</clus>
<clus scale="   44.861">  2  9  1 -1</clus>
<clus scale="   78.988">  5  6 -1 -1</clus>
<clus scale="  113.008">  7  8 -1 -1</clus>
<clus scale="  127.024">  1  5  2 -1</clus>
<clus scale="   41.591">  2  5  1 -1</clus>
</clustering>
</event>
<event>
10    4  0.3403565E-005  0.2159682E+03  0.7546771E-02  0.1176496E+00
         21   -1    0    0  501  502  0.00000000000E+00  0.00000000000E+00  0.31279124887E+03  0.31279124887E+03  0.00000000000E+00 0. -1.
         -1   -1    0    0    0  501 -0.00000000000E+00 -0.00000000000E+00 -0.29906331850E+03  0.29906331850E+03  0.00000000000E+00 0.  1.
         24    2    1    2    0    0  0.16745103675E+02  0.24548776760E+02 -0.61135516771E+02  0.10509552877E+03  0.80152840365E+02 0.  0.
         23    2    1    2    0    0  0.19226067139E+03 -0.37578510768E+01  0.16804601446E+03  0.27081991626E+03  0.90142536351E+02 0.  0.
        -13    1    3    3    0    0 -0.23514571686E+02  0.78793440898E+01  0.55715881548E+01  0.25417744578E+02  0.00000000000E+00 0.  1.
         14    1    3    3    0    0  0.40259675361E+02  0.16669432670E+02 -0.66707104926E+02  0.79677784190E+02  0.00000000000E+00 0. -1.
        -13    1    4    4    0    0  0.79188708969E+02 -0.44089649917E+02  0.55584084810E+02  0.10632186672E+03  0.00000000000E+00 0.  1.
         13    1    4    4    0    0  0.11307196242E+03  0.40331798840E+02  0.11246192965E+03  0.16449804955E+03  0.00000000000E+00 0. -1.
         21    1    1    2  503  502 -0.28657689619E+02 -0.15946534112E+02  0.18845299756E+00  0.32796198546E+02  0.00000000000E+00 0.  1.
         -2    1    1    2    0  503 -0.18034808545E+03 -0.48443915708E+01 -0.93371020310E+02  0.20314292379E+03  0.00000000000E+00 0.  1.
<scales pt_clust_5="13000.00000" pt_clust_6="13000.00000" pt_clust_7="13000.00000" pt_clust_8="13000.00000" pt_clust_9="22.83543" pt_clust_10="203.43357"></scales>
<clustering>
<clus scale="   22.835">  9 10 -1 -1</clus>
<clus scale="   80.153">  5  6 -1 -1</clus>
<clus scale="   85.484">  2  5  1 -1</clus>
<clus scale="   90.143">  7  8 -1 -1</clus>
<clus scale="  203.434">  1  9  2 -1</clus>
<clus scale="  203.434">  1  5  2 -1</clus>
</clustering>
</event>
<event>
10    4  0.3403565E-005  0.1065700E+03  0.7546771E-02  0.1269636E+00
         21   -1    0    0  501  502  0.00000000000E+00  0.00000000000E+00  0.27066847588E+03  0.27066847588E+03  0.00000000000E+00 0. -1.
          2   -1    0    0  503    0 -0.00000000000E+00 -0.00000000000E+00 -0.48284869825E+03  0.48284869825E+03  0.00000000000E+00 0. -1.
         24    2    1    2    0    0 -0.27997719447E+01 -0.24647302386E+02 -0.35168018303E+03  0.36136361205E+03  0.79305616074E+02 0.  0.
         23    2    1    2    0    0 -0.29399482000E+02 -0.31676046930E+02  0.18103109972E+03  0.20743703474E+03  0.91597831975E+02 0.  0.
        -11    1    3    3    0    0 -0.29423424653E+02 -0.90042711181E+01 -0.54524292745E+02  0.62607613882E+02  0.00000000000E+00 0.  1.
         12    1    3    3    0    0  0.26623652709E+02 -0.15643031268E+02 -0.29715589029E+03  0.29875599817E+03  0.00000000000E+00 0. -1.
        -13    1    4    4    0    0 -0.54827807399E+02 -0.16703466161E+02  0.16316963924E+03  0.17294341681E+03  0.00000000000E+00 0. -1.
         13    1    4    4    0    0  0.25428325398E+02 -0.14972580769E+02  0.17861460479E+02  0.34493617930E+02  0.00000000000E+00 0.  1.
         21    1    1    2  503  502 -0.62525513853E+02 -0.11131374462E+02 -0.18742787912E+02  0.66216610293E+02  0.00000000000E+00 0. -1.
          1    1    1    2  501    0  0.94724767798E+02  0.67454723778E+02 -0.22788351146E+02  0.11849991706E+03  0.00000000000E+00 0. -1.
<scales pt_clust_5="13000.00000" pt_clust_6="13000.00000" pt_clust_7="13000.00000" pt_clust_8="13000.00000" pt_clust_9="63.50864" pt_clust_10="54.47023"></scales>
<clustering>
<clus scale="   63.509">  2  9  1 -1</clus>
<clus scale="   79.306">  5  6 -1 -1</clus>
<clus scale="   91.598">  7  8 -1 -1</clus>
<clus scale="  101.371">  2  5  1 -1</clus>
<clus scale="   54.470">  1 10  2 -1</clus>
<clus scale="   54.470">  1  5  2 -1</clus>
</clustering>
</event>
<event>
10    4  0.3403565E-005  0.1569729E+03  0.7546771E-02  0.1193648E+00
         21   -1    0    0  501  502  0.00000000000E+00  0.00000000000E+00  0.29502845811E+03  0.29502845811E+03  0.00000000000E+00 0.  1.
          2   -1    0    0  503    0 -0.00000000000E+00 -0.00000000000E+00 -0.11422479068E+04  0.11422479068E+04  0.00000000000E+00 0. -1.
         24    2    1    2    0    0 -0.44522033460E+02  0.10083949007E+03 -0.36571656448E+03  0.39094380878E+03  0.83292507878E+02 0.  0.
         23    2    1    2    0    0  0.11996468835E+03 -0.15774074163E+03 -0.18566460979E+03  0.28678585354E+03  0.92201466570E+02 0.  0.
        -11    1    3    3    0    0 -0.59892707678E+02  0.89174446621E+02 -0.22983851032E+03  0.25370250135E+03  0.00000000000E+00 0.  1.
         12    1    3    3    0    0  0.15370674218E+02  0.11665043453E+02 -0.13587805415E+03  0.13724130743E+03  0.00000000000E+00 0. -1.
        -11    1    4    4    0    0  0.14242930230E+01 -0.26994711066E+02  0.44352194722E+01  0.27393689199E+02  0.00000000000E+00 0. -1.
         11    1    4    4    0    0  0.11854039533E+03 -0.13074603056E+03 -0.19009982927E+03  0.25939216434E+03  0.00000000000E+00 0.  1.
         21    1    1    2  503  502 -0.83762646930E+01  0.41393709750E+02  0.22765899580E+03  0.23154312640E+03  0.00000000000E+00 0.  1.
          1    1    1    2  501    0 -0.67066390200E+02  0.15507541803E+02 -0.52349727021E+03  0.52800357618E+03  0.00000000000E+00 0. -1.
<scales pt_clust_5="13000.00000" pt_clust_6="13000.00000" pt_clust_7="13000.00000" pt_clust_8="13000.00000" pt_clust_9="42.23270" pt_clust_10="69.45076"></scales>
<clustering>
<clus scale="   42.233">  1  9  2 -1</clus>
<clus scale="   69.451">  1 10  2 -1</clus>
<clus scale="   83.293">  5  6 -1 -1</clus>
<clus scale="   92.201">  7  8 -1 -1</clus>
<clus scale="  151.911">  2  5  1 -1</clus>
<clus scale="   42.233">  1  5  2 -1</clus>
</clustering>
</event>
<event>
10    4  0.3403565E-005  0.1259729E+03  0.7546771E-02  0.1234819E+00
         21   -1    0    0  503  502  0.00000000000E+00  0.00000000000E+00  0.36959012125E+03  0.36959012125E+03  0.00000000000E+00 0. -1.
         -3   -1    0    0    0  501 -0.00000000000E+00 -0.00000000000E+00 -0.12673432999E+03  0.12673432999E+03  0.00000000000E+00 0.  1.
         23    2    1    2    0    0  0.42837290522E+01  0.98144112431E+02 -0.60327587125E+02  0.14569984950E+03  0.89097762241E+02 0.  0.
         24    2    1    2    0    0 -0.31159224473E+02 -0.53495351991E+02  0.13677958141E+03  0.17227690720E+03  0.84486856432E+02 0.  0.
        -13    1    4    4    0    0 -0.10613658165E+02 -0.22834120525E+02 -0.50859999969E+01  0.25688795140E+02  0.00000000000E+00 0.  1.
         14    1    4    4    0    0 -0.20545566309E+02 -0.30661231466E+02  0.14186558140E+03  0.14658811206E+03  0.00000000000E+00 0. -1.
        -11    1    3    3    0    0  0.14785476750E+02  0.51635089771E+02 -0.78124915452E+02  0.94806620194E+02  0.00000000000E+00 0.  1.
         11    1    3    3    0    0 -0.10501747698E+02  0.46509022660E+02  0.17797328327E+02  0.50893229305E+02  0.00000000000E+00 0. -1.
         21    1    1    2  503  501 -0.64216298843E+01 -0.23675475419E+02  0.55884574891E+02  0.61031558865E+02  0.00000000000E+00 0. -1.
         -4    1    1    2    0  502  0.33297125305E+02 -0.20973285021E+02  0.11051922209E+03  0.11731613567E+03  0.00000000000E+00 0.  1.
<scales pt_clust_5="13000.00000" pt_clust_6="13000.00000" pt_clust_7="13000.00000" pt_clust_8="13000.00000" pt_clust_9="24.53091" pt_clust_10="42.85191"></scales>
<clustering>
<clus scale="   24.531">  1  9  2 -1</clus>
<clus scale="   42.852">  1 10  2 -1</clus>
<clus scale="   84.487">  5  6 -1 -1</clus>
<clus scale="   89.098">  7  8 -1 -1</clus>
<clus scale="  122.755">  1  5  2 -1</clus>
<clus scale="   24.531">  1  5  2 -1</clus>
</clustering>
</event>
<event>
10    4  0.3403565E-005  0.2380386E+03  0.7546771E-02  0.1121866E+00
         21   -1    0    0  501  502  0.00000000000E+00  0.00000000000E+00  0.11960674449E+03  0.11960674449E+03  0.00000000000E+00 0. -1.
          2   -1    0    0  503    0 -0.00000000000E+00 -0.00000000000E+00 -0.71225469552E+03  0.71225469552E+03  0.00000000000E+00 0. -1.
         23    2    1    2    0    0  0.21198024367E+03 -0.32545064519E+02 -0.25098729595E+03  0.34271288102E+03  0.91992886453E+02 0.  0.
         24    2    1    2    0    0 -0.22218964098E+03  0.38250413943E+02 -0.21546705971E+03  0.32188946486E+03  0.79721032632E+02 0.  0.
        -13    1    4    4    0    0 -0.11482628075E+03  0.59086475380E+02 -0.10494150217E+03  0.16640013582E+03  0.00000000000E+00 0.  1.
         14    1    4    4    0    0 -0.10736336022E+03 -0.20836061437E+02 -0.11052555754E+03  0.15548932904E+03  0.00000000000E+00 0. -1.
        -11    1    3    3    0    0  0.12180982154E+03 -0.55289515901E+02 -0.18663245026E+03  0.22962193859E+03  0.00000000000E+00 0. -1.
         11    1    3    3    0    0  0.90170422128E+02  0.22744451382E+02 -0.64354845689E+02  0.11309094243E+03  0.00000000000E+00 0.  1.
         21    1    1    2  503  502  0.31702037652E+02  0.13680910021E+02  0.31922600716E+01  0.34675308429E+02  0.00000000000E+00 0. -1.
          1    1    1    2  501    0 -0.21492640345E+02 -0.19386259444E+02 -0.12938585543E+03  0.13258378570E+03  0.00000000000E+00 0. -1.
<scales pt_clust_5="13000.00000" pt_clust_6="13000.00000" pt_clust_7="13000.00000" pt_clust_8="13000.00000" pt_clust_9="30.16626" pt_clust_10="28.94411"></scales>
<clustering>
<clus scale="   28.944">  1 10  2 -1</clus>
<clus scale="   30.166">  1  9  2 -1</clus>
<clus scale="   79.721">  5  6 -1 -1</clus>
<clus scale="   91.993">  7  8 -1 -1</clus>
<clus scale="  233.570">  1  5  2 -1</clus>
<clus scale="   28.944">  1  5  2 -1</clus>
</clustering>
</event>
<event>
10    4  0.3403565E-005  0.1159449E+03  0.7546771E-02  0.1255020E+00
          2   -1    0    0  503    0 -0.00000000000E+00  0.00000000000E+00  0.25093086887E+03  0.25093086887E+03  0.00000000000E+00 0. -1.
         21   -1    0    0  501  502  0.00000000000E+00 -0.00000000000E+00 -0.21151594953E+03  0.21151594953E+03  0.00000000000E+00 0.  1.
         24    2    1    2    0    0 -0.10482806771E+03  0.70789382721E+02 -0.38601434559E+01  0.14887906191E+03  0.78422024211E+02 0.  0.
         23    2    1    2    0    0 -0.30708554165E+01 -0.15763996002E+02 -0.83016753641E+02  0.12553857947E+03  0.92791270216E+02 0.  0.
        -13    1    3    3    0    0 -0.49734528346E+02 -0.97108768903E+01  0.50519565153E+01  0.50924912414E+02  0.00000000000E+00 0.  1.
         14    1    3    3    0    0 -0.55093539363E+02  0.80500259611E+02 -0.89120999713E+01  0.97954149493E+02  0.00000000000E+00 0. -1.
        -13    1    4    4    0    0 -0.80997276779E+01  0.27841674698E+02 -0.75667465570E+02  0.81032893224E+02  0.00000000000E+00 0.  1.
         13    1    4    4    0    0  0.50288722613E+01 -0.43605670700E+02 -0.73492880715E+01  0.44505686250E+02  0.00000000000E+00 0. -1.
         21    1    1    2  503  502  0.56754435810E+02 -0.38559476985E+02  0.24372162016E+02  0.72814157489E+02  0.00000000000E+00 0. -1.
          1    1    1    2  501    0  0.51144487315E+02 -0.16465909733E+02  0.10191965442E+03  0.11521501952E+03  0.00000000000E+00 0. -1.
<scales pt_clust_5="13000.00000" pt_clust_6="13000.00000" pt_clust_7="13000.00000" pt_clust_8="13000.00000" pt_clust_9="74.73105" pt_clust_10="53.72977"></scales>
<clustering>
<clus scale="   53.730">  2 10  1 -1</clus>
<clus scale="   74.731">  1  9  2 -1</clus>
<clus scale="   78.422">  5  6 -1 -1</clus>
<clus scale="   92.791">  7  8 -1 -1</clus>
<clus scale="  104.800">  1  5  2 -1</clus>
<clus scale="   53.730">  2  5  1 -1</clus>
</clustering>
</event>
<event>
10    4  0.3403565E-005  0.3752280E+03  0.7546771E-02  0.1083874E+00
          2   -1    0    0  502    0 -0.00000000000E+00  0.00000000000E+00  0.17522282987E+04  0.17522282987E+04  0.00000000000E+00 0. -1.
         21   -1    0    0  503  502  0.00000000000E+00 -0.00000000000E+00 -0.16072762914E+03  0.16072762914E+03  0.00000000000E+00 0. -1.
         24    2    1    2    0    0  0.13524569976E+03  0.86623277001E+02  0.24570259086E+03  0.30431717049E+03  0.80275685450E+02 0.  0.
         23    2    1    2    0    0 -0.40163645906E+01  0.34016153928E+03  0.77107130976E+03  0.84768186687E+03  0.91036139508E+02 0.  0.
        -13    1    3    3    0    0  0.15573853453E+02  0.19852718608E+02  0.10467886693E+03  0.10767701950E+03  0.00000000000E+00 0.  1.
         14    1    3    3    0    0  0.11967184631E+03  0.66770558393E+02  0.14102372393E+03  0.19664015098E+03  0.00000000000E+00 0. -1.
        -11    1    4    4    0    0  0.42233181509E+02  0.14056044047E+03  0.34422394837E+03  0.37420716947E+03  0.00000000000E+00 0. -1.
         11    1    4    4    0    0 -0.46249546099E+02  0.19960109881E+03  0.42684736139E+03  0.47347469740E+03  0.00000000000E+00 0.  1.
         21    1    1    2  503  501 -0.86827048758E+02 -0.52987222170E+02  0.45297960706E+02  0.11134849507E+03  0.00000000000E+00 0. -1.
          1    1    1    2  501    0 -0.44402286413E+02 -0.37379759412E+03  0.52942880828E+03  0.64960839545E+03  0.00000000000E+00 0. -1.
<scales pt_clust_5="13000.00000" pt_clust_6="13000.00000" pt_clust_7="13000.00000" pt_clust_8="13000.00000" pt_clust_9="101.71815" pt_clust_10="364.01709"></scales>
<clustering>
<clus scale="   80.276">  5  6 -1 -1</clus>
<clus scale="   91.036">  7  8 -1 -1</clus>
<clus scale="  101.718">  2  9  1 -1</clus>
<clus scale="  159.020">  1  5  2 -1</clus>
<clus scale="  364.017">  2 10  1 -1</clus>
<clus scale="  101.718">  2  5  1 -1</clus>
</clustering>
</event>
<event>
10    4  0.3403565E-005  0.1018425E+03  0.7546771E-02  0.1281180E+00
          2   -1    0    0  503    0 -0.00000000000E+00  0.00000000000E+00  0.38488299795E+03  0.38488299795E+03  0.00000000000E+00 0. -1.
         21   -1    0    0  501  502  0.00000000000E+00 -0.00000000000E+00 -0.97181455531E+02  0.97181455531E+02  0.00000000000E+00 0. -1.
         23    2    1    2    0    0  0.36000484757E+02  0.40904561236E+02  0.19481882776E+03  0.22201283453E+03  0.91466414675E+02 0.  0.
         24    2    1    2    0    0 -0.29068061694E+02  0.24708388697E+02 -0.22123482482E+02  0.92765390130E+02  0.81611962642E+02 0.  0.
        -13    1    4    4    0    0  0.21281318207E+02 -0.57611004882E+01  0.11624930263E+02  0.24924361317E+02  0.00000000000E+00 0.  1.
         14    1    4    4    0    0 -0.50349379901E+02  0.30469489185E+02 -0.33748412745E+02  0.67841028813E+02  0.00000000000E+00 0. -1.
        -11    1    3    3    0    0  0.58844146254E+02  0.46324353463E+02  0.10368185770E+03  0.12790037877E+03  0.00000000000E+00 0. -1.
         11    1    3    3    0    0 -0.22843661497E+02 -0.54197922273E+01  0.91136970062E+02  0.94112455766E+02  0.00000000000E+00 0.  1.
         21    1    1    2  503  502 -0.24791176721E+02 -0.33867458115E+02 -0.46318867994E+01  0.42226313333E+02  0.00000000000E+00 0. -1.
          1    1    1    2  501    0  0.17858753658E+02 -0.31745491818E+02  0.11963808394E+03  0.12505991549E+03  0.00000000000E+00 0. -1.
<scales pt_clust_5="13000.00000" pt_clust_6="13000.00000" pt_clust_7="13000.00000" pt_clust_8="13000.00000" pt_clust_9="46.44226" pt_clust_10="36.42407"></scales>
<clustering>
<clus scale="   36.424">  2 10  1 -1</clus>
<clus scale="   46.442">  2  9  1 -1</clus>
<clus scale="   81.612">  5  6 -1 -1</clus>
<clus scale="   91.466">  7  8 -1 -1</clus>
<clus scale="   93.093">  2  5  1 -1</clus>
<clus scale="   36.424">  2  5  1 -1</clus>
</clustering>
</event>
<event>
10    4  0.3403565E-005  0.1121255E+03  0.7546771E-02  0.1257590E+00
          4   -1    0    0  503    0 -0.00000000000E+00  0.00000000000E+00  0.40108500889E+02  0.40108500889E+02  0.00000000000E+00 0. -1.
         21   -1    0    0  501  502  0.00000000000E+00 -0.00000000000E+00 -0.81868178208E+03  0.81868178208E+03  0.00000000000E+00 0. -1.
         24    2    1    2    0    0  0.23842166456E+02 -0.55328410360E+02 -0.14411122907E+03  0.17950588199E+03  0.88456958073E+02 0.  0.
         23    2    1    2    0    0 -0.99214337343E+02  0.38561327239E+02 -0.33358546811E+03  0.36176851735E+03  0.90921586643E+02 0.  0.
        -13    1    3    3    0    0  0.54283171105E+01  0.22867900367E+02 -0.16512535985E+02  0.28724055050E+02  0.00000000000E+00 0.  1.
         14    1    3    3    0    0  0.18413849345E+02 -0.78196310727E+02 -0.12759869309E+03  0.15078182694E+03  0.00000000000E+00 0. -1.
        -13    1    4    4    0    0 -0.68454578015E+02  0.64829087948E+02 -0.18317971583E+03  0.20601856272E+03  0.00000000000E+00 0. -1.
         13    1    4    4    0    0 -0.30759759328E+02 -0.26267760709E+02 -0.15040575228E+03  0.15574995463E+03  0.00000000000E+00 0.  1.
         21    1    1    2  503  502 -0.26760254382E+01  0.20092405902E+02 -0.35490099936E+02  0.40870687302E+02  0.00000000000E+00 0.  1.
          3    1    1    2  501    0  0.78048196325E+02 -0.33253227813E+01 -0.26538648407E+03  0.27664519632E+03  0.00000000000E+00 0. -1.
<scales pt_clust_5="13000.00000" pt_clust_6="13000.00000" pt_clust_7="13000.00000" pt_clust_8="13000.00000" pt_clust_9="20.26983" pt_clust_10="77.64619"></scales>
<clustering>
<clus scale="   20.270">  1  9  2 -1</clus>
<clus scale="   77.646">  2 10  1 -1</clus>
<clus scale="   88.457">  5  6 -1 -1</clus>
<clus scale="   90.922">  7  8 -1 -1</clus>
<clus scale="  110.136">  1  5  2 -1</clus>
<clus scale="   77.646">  2  5  1 -1</clus>
</clustering>
</event>
<event>
10    4  0.3403565E-005  0.1611815E+03  0.7546771E-02  0.1204275E+00
          2   -1    0    0  502    0 -0.00000000000E+00  0.00000000000E+00  0.33982771182E+03  0.33982771182E+03  0.00000000000E+00 0. -1.
         21   -1    0    0  503  502  0.00000000000E+00 -0.00000000000E+00 -0.24437574440E+03  0.24437574440E+03  0.00000000000E+00 0.  1.
         23    2    1    2    0    0  0.14010031226E+01 -0.52153483520E+02  0.15720576114E+02  0.10879975325E+03  0.94171657839E+02 0.  0.
         24    2    1    2    0    0  0.12769512389E+03  0.80988009327E+02  0.17004829033E+03  0.24141041281E+03  0.80606848639E+02 0.  0.
        -11    1    4    4    0    0  0.12627275597E+03  0.50364670459E+02  0.15809111249E+03  0.20850469726E+03  0.00000000000E+00 0.  1.
         12    1    4    4    0    0  0.14223679206E+01  0.30623338868E+02  0.11957177843E+02  0.32905715550E+02  0.00000000000E+00 0. -1.
        -11    1    3    3    0    0 -0.20998016718E+02 -0.52443447562E+02 -0.25427042518E+02  0.61949708550E+02  0.00000000000E+00 0.  1.
         11    1    3    3    0    0  0.22399019840E+02  0.28996404170E+00  0.41147618632E+02  0.46850044696E+02  0.00000000000E+00 0. -1.
         21    1    1    2  503  501  0.16537038089E+02 -0.23663167663E+02 -0.83231731179E+02  0.88096198600E+02  0.00000000000E+00 0.  1.
          1    1    1    2  501    0 -0.14563316510E+03 -0.51713581440E+01 -0.70851678502E+01  0.14589709156E+03  0.00000000000E+00 0. -1.
<scales pt_clust_5="13000.00000" pt_clust_6="13000.00000" pt_clust_7="13000.00000" pt_clust_8="13000.00000" pt_clust_9="28.86900" pt_clust_10="139.57797"></scales>
<clustering>
<clus scale="   28.869">  2  9  1 -1</clus>
<clus scale="   80.607">  5  6 -1 -1</clus>
<clus scale="   94.172">  7  8 -1 -1</clus>
<clus scale="  111.352">  1  7  2 -1</clus>
<clus scale="  139.578">  2 10  1 -1</clus>
<clus scale="   28.869">  2  5  1 -1</clus>
</clustering>
</event>
<event>
10    4  0.3403565E-005  0.1816433E+03  0.7546771E-02  0.1198077E+00
         21   -1    0    0  503  502  0.00000000000E+00  0.00000000000E+00  0.75655235126E+02  0.75655235126E+02  0.00000000000E+00 0. -1.
          2   -1    0    0  502    0 -0.00000000000E+00 -0.00000000000E+00 -0.15788008295E+04  0.15788008295E+04  0.00000000000E+00 0. -1.
         24    2    1    2    0    0  0.23482761286E+02  0.27104523572E+02 -0.45787116875E+03  0.46643848474E+03  0.81441743566E+02 0.  0.
         23    2    1    2    0    0  0.10475696780E+03  0.20217747206E+03 -0.30802933855E+03  0.39425672891E+03  0.93308854734E+02 0.  0.
        -13    1    3    3    0    0 -0.19273471903E+02 -0.12095726722E+02 -0.56702955632E+02  0.61098269219E+02  0.00000000000E+00 0.  1.
         14    1    3    3    0    0  0.42756233189E+02  0.39200250293E+02 -0.40116821312E+03  0.40534021552E+03  0.00000000000E+00 0. -1.
        -13    1    4    4    0    0  0.60665324339E+02  0.10608464227E+03 -0.89431458644E+02  0.15143387566E+03  0.00000000000E+00 0. -1.
         13    1    4    4    0    0  0.44091643461E+02  0.96092829791E+02 -0.21859787990E+03  0.24282285324E+03  0.00000000000E+00 0.  1.
         21    1    1    2  503  501 -0.54503155504E+02 -0.91596677923E+02 -0.13728287784E+03  0.17380199629E+03  0.00000000000E+00 0. -1.
          1    1    1    2  501    0 -0.73736573582E+02 -0.13768531771E+03 -0.59996220928E+03  0.61995885474E+03  0.00000000000E+00 0. -1.
<scales pt_clust_5="13000.00000" pt_clust_6="13000.00000" pt_clust_7="13000.00000" pt_clust_8="13000.00000" pt_clust_9="101.67247" pt_clust_10="155.84537"></scales>
<clustering>
<clus scale="   81.442">  5  6 -1 -1</clus>
<clus scale="   88.988">  2  5  1 -1</clus>
<clus scale="   93.309">  7  8 -1 -1</clus>
<clus scale="  101.672">  1  9  2 -1</clus>
<clus scale="  155.845">  1 10  2 -1</clus>
<clus scale="  101.672">  1  5  2 -1</clus>
</clustering>
</event>
<event>
10    4  0.3403565E-005  0.1495450E+03  0.7546771E-02  0.1221926E+00
         21   -1    0    0  503  502  0.00000000000E+00  0.00000000000E+00  0.95564294883E+02  0.95564294883E+02  0.00000000000E+00 0.  1.
          2   -1    0    0  502    0 -0.00000000000E+00 -0.00000000000E+00 -0.38480793974E+03  0.38480793974E+03  0.00000000000E+00 0. -1.
         23    2    1    2    0    0  0.30975642326E+02 -0.29431042092E+02 -0.47163347121E+02  0.10680365586E+03  0.85772740055E+02 0.  0.
         24    2    1    2    0    0 -0.37951391971E+02  0.13818339748E+03 -0.15088158931E+03  0.22551453515E+03  0.86928660849E+02 0.  0.
        -11    1    4    4    0    0 -0.36429451718E+02  0.14851165747E+03 -0.15123414903E+03  0.21506879176E+03  0.00000000000E+00 0.  1.
         12    1    4    4    0    0 -0.15219402528E+01 -0.10328259987E+02  0.35255972086E+00  0.10445743384E+02  0.00000000000E+00 0. -1.
        -11    1    3    3    0    0 -0.27614475503E+02 -0.87831055243E+01 -0.28547930832E+00  0.28979021695E+02  0.00000000000E+00 0. -1.
         11    1    3    3    0    0  0.58590117829E+02 -0.20647936567E+02 -0.46877867813E+02  0.77824634162E+02  0.00000000000E+00 0.  1.
         21    1    1    2  503  501  0.15200080658E+02 -0.29200295720E+02 -0.10785795201E+02  0.34641493909E+02  0.00000000000E+00 0. -1.
          1    1    1    2  501    0 -0.82243310129E+01 -0.79552059671E+02 -0.80412913221E+02  0.11341254971E+03  0.00000000000E+00 0. -1.
<scales pt_clust_5="13000.00000" pt_clust_6="13000.00000" pt_clust_7="13000.00000" pt_clust_8="13000.00000" pt_clust_9="26.66250" pt_clust_10="128.58523"></scales>
<clustering>
<clus scale="   26.663">  9 10 -1 -1</clus>
<clus scale="   85.773">  7  8 -1 -1</clus>
<clus scale="   86.929">  5  6 -1 -1</clus>
<clus scale="   95.826">  2  7  1 -1</clus>
<clus scale="  128.585">  1  9  2 -1</clus>
<clus scale="  128.585">  1  5  2 -1</clus>
</clustering>
</event>
<event>
10    4  0.3403565E-005  0.1277424E+03  0.7546771E-02  0.1233150E+00
          2   -1    0    0  503    0 -0.00000000000E+00  0.00000000000E+00  0.68272381445E+03  0.68272381445E+03  0.00000000000E+00 0. -1.
         21   -1    0    0  501  502  0.00000000000E+00 -0.00000000000E+00 -0.53775404151E+03  0.53775404151E+03  0.00000000000E+00 0. -1.
         24    2    1    2    0    0 -0.83421333343E+02 -0.12839388060E+02  0.43874986981E+03  0.45401456052E+03  0.80646166493E+02 0.  0.
         23    2    1    2    0    0  0.12289037726E+03 -0.26571434595E+02  0.15886695148E+03  0.22142285350E+03  0.89338042405E+02 0.  0.
        -11    1    3    3    0    0 -0.92503200831E+02 -0.20610887018E+02  0.42648682487E+03  0.43688976026E+03  0.00000000000E+00 0.  1.
         12    1    3    3    0    0  0.90818674883E+01  0.77714989576E+01  0.12263044934E+02  0.17124800267E+02  0.00000000000E+00 0. -1.
        -11    1    4    4    0    0  0.50343006749E+02 -0.22669351974E+02  0.10469733836E+02  0.56195490692E+02  0.00000000000E+00 0.  1.
         11    1    4    4    0    0  0.72547370515E+02 -0.39020826209E+01  0.14839721764E+03  0.16522736281E+03  0.00000000000E+00 0. -1.
         21    1    1    2  503  502 -0.13618647069E+03  0.87223889458E+02 -0.38527707534E+03  0.41784349519E+03  0.00000000000E+00 0. -1.
          1    1    1    2  501    0  0.96717426768E+02 -0.47813066803E+02 -0.67369972999E+02  0.12719694674E+03  0.00000000000E+00 0. -1.
<scales pt_clust_5="13000.00000" pt_clust_6="13000.00000" pt_clust_7="13000.00000" pt_clust_8="13000.00000" pt_clust_9="64.87841" pt_clust_10="107.89045"></scales>
<clustering>
<clus scale="   80.646">  5  6 -1 -1</clus>
<clus scale="   89.338">  7  8 -1 -1</clus>
<clus scale="  107.890">  2 10  1 -1</clus>
<clus scale="   64.878">  2  9  1 -1</clus>
<clus scale="  121.822">  1  5  2 -1</clus>
<clus scale="  107.890">  2  5  1 -1</clus>
</clustering>
</event>
<event>
10    4  0.3403565E-005  0.1087414E+03  0.7546771E-02  0.1268302E+00
          2   -1    0    0  502    0 -0.00000000000E+00  0.00000000000E+00  0.91016090798E+03  0.91016090798E+03  0.00000000000E+00 0. -1.
         21   -1    0    0  503  502  0.00000000000E+00 -0.00000000000E+00 -0.87656916685E+02  0.87656916685E+02  0.00000000000E+00 0.  1.
         24    2    1    2    0    0 -0.21938782197E+02 -0.50240850838E+02  0.43901654896E+03  0.44958448827E+03  0.79907625242E+02 0.  0.
         23    2    1    2    0    0  0.74975143420E+02  0.54492505876E+02 -0.15284914597E+02  0.13208561917E+03  0.92856216001E+02 0.  0.
        -11    1    3    3    0    0 -0.10097184115E+02 -0.52368419196E+02  0.13248533447E+03  0.14281725493E+03  0.00000000000E+00 0.  1.
         12    1    3    3    0    0 -0.11841598082E+02  0.21275683575E+01  0.30653121449E+03  0.30676723334E+03  0.00000000000E+00 0. -1.
        -11    1    4    4    0    0  0.48561189391E+02  0.23589679226E+02 -0.53704742786E+02  0.76150255933E+02  0.00000000000E+00 0.  1.
         11    1    4    4    0    0  0.26413954030E+02  0.30902826650E+02  0.38419828189E+02  0.55935363237E+02  0.00000000000E+00 0. -1.
         21    1    1    2  503  501  0.14447714148E+02 -0.23546664603E+02  0.30108896463E+02  0.40862299302E+02  0.00000000000E+00 0. -1.
          1    1    1    2  501    0 -0.67484075371E+02  0.19295009565E+02  0.36866346047E+03  0.37528541793E+03  0.00000000000E+00 0. -1.
<scales pt_clust_5="13000.00000" pt_clust_6="13000.00000" pt_clust_7="13000.00000" pt_clust_8="13000.00000" pt_clust_9="27.62575" pt_clust_10="69.37295"></scales>
<clustering>
<clus scale="   27.626">  2  9  1 -1</clus>
<clus scale="   69.373">  2 10  1 -1</clus>
<clus scale="   79.908">  5  6 -1 -1</clus>
<clus scale="   92.856">  7  8 -1 -1</clus>
<clus scale="   97.917">  1  5  2 -1</clus>
<clus scale="   27.626">  2  5  1 -1</clus>
</clustering>
</event>
<event>
10    4  0.3465329E-005  0.4479325E+03  0.7546771E-02  0.1082670E+00
          2   -1    0    0  502    0 -0.00000000000E+00  0.00000000000E+00  0.43039342203E+03  0.43039342203E+03  0.00000000000E+00 0. -1.
         21   -1    0    0  503  502  0.00000000000E+00 -0.00000000000E+00 -0.74481346813E+03  0.74481346813E+03  0.00000000000E+00 0. -1.
         24    2    1    2    0    0 -0.47692901402E+02  0.22033449321E+02  0.37024570413E+02  0.10345550908E+03  0.81068722771E+02 0.  0.
         23    2    1    2    0    0 -0.15152646681E+03 -0.42646540781E+03 -0.21728282853E+03  0.51071007816E+03  0.93701345541E+02 0.  0.
        -11    1    3    3    0    0  0.18456412413E+02  0.21264918743E+02  0.11048106343E+01  0.28179008763E+02  0.00000000000E+00 0.  1.
         12    1    3    3    0    0 -0.66149313815E+02  0.76853057732E+00  0.35919759779E+02  0.75276500317E+02  0.00000000000E+00 0. -1.
        -13    1    4    4    0    0 -0.19879902253E+02 -0.11518073580E+03 -0.17738845659E+02  0.11822215976E+03  0.00000000000E+00 0.  1.
         13    1    4    4    0    0 -0.13164656456E+03 -0.31128467200E+03 -0.19954398287E+03  0.39248791839E+03  0.00000000000E+00 0. -1.
         21    1    1    2  503  501  0.11272133607E+02  0.18566022226E+02 -0.13001479489E+03  0.13181655840E+03  0.00000000000E+00 0.  1.
          1    1    1    2  501    0  0.18794723460E+03  0.38586593626E+03 -0.41469930908E+01  0.42922474453E+03  0.00000000000E+00 0. -1.
<scales pt_clust_5="13000.00000" pt_clust_6="13000.00000" pt_clust_7="13000.00000" pt_clust_8="13000.00000" pt_clust_9="21.71999" pt_clust_10="438.02256"></scales>
<clustering>
<clus scale="   21.720">  2  9  1 -1</clus>
<clus scale="   81.069">  5  6 -1 -1</clus>
<clus scale="   93.701">  7  8 -1 -1</clus>
<clus scale="   96.539">  1  5  2 -1</clus>
<clus scale="  438.023">  2 10  1 -1</clus>
<clus scale="   21.720">  2  5  1 -1</clus>
</clustering>
</event>
<event>
10    4  0.3403565E-005  0.1493251E+03  0.7546771E-02  0.1204420E+00
         21   -1    0    0  503  502  0.00000000000E+00  0.00000000000E+00  0.99722615145E+02  0.99722615145E+02  0.00000000000E+00 0. -1.
          4   -1    0    0  502    0 -0.00000000000E+00 -0.00000000000E+00 -0.45916461687E+03  0.45916461687E+03  0.00000000000E+00 0. -1.
         24    2    1    2    0    0 -0.63029662182E+01 -0.80873030997E+02 -0.63436675587E+02  0.13114882490E+03  0.81213471401E+02 0.  0.
         23    2    1    2    0    0 -0.52855720336E+02  0.15053163340E+03 -0.16288333658E+03  0.24776840006E+03  0.96977826877E+02 0.  0.
        -11    1    3    3    0    0 -0.41232054542E+02 -0.43495507182E+02 -0.17608713110E+02  0.62466056736E+02  0.00000000000E+00 0.  1.
         12    1    3    3    0    0  0.34929088324E+02 -0.37377523815E+02 -0.45827962477E+02  0.68682768162E+02  0.00000000000E+00 0. -1.
        -13    1    4    4    0    0 -0.49639325445E+01  0.10616216362E+03 -0.14554790199E+03  0.18021996944E+03  0.00000000000E+00 0.  1.
         13    1    4    4    0    0 -0.47891787792E+02  0.44369469782E+02 -0.17335434585E+02  0.67548430617E+02  0.00000000000E+00 0. -1.
         21    1    1    2  503  501  0.58885476293E+01 -0.23034735573E+02  0.54233996002E+01  0.24386211254E+02  0.00000000000E+00 0.  1.
          3    1    1    2  501    0  0.53270138925E+02 -0.46623866832E+02 -0.13854538916E+03  0.15558379581E+03  0.00000000000E+00 0. -1.
<scales pt_clust_5="13000.00000" pt_clust_6="13000.00000" pt_clust_7="13000.00000" pt_clust_8="13000.00000" pt_clust_9="23.77549" pt_clust_10="72.77332"></scales>
<clustering>
<clus scale="   23.775">  1  9  2 -1</clus>
<clus scale="   72.773">  1 10  2 -1</clus>
<clus scale="   81.213">  5  6 -1 -1</clus>
<clus scale="   96.978">  7  8 -1 -1</clus>
<clus scale="  139.603">  2  5  1 -1</clus>
<clus scale="   23.775">  1  5  2 -1</clus>
</clustering>
</event>
<event>
10    4  0.3403565E-005  0.1179923E+03  0.7546771E-02  0.1249486E+00
         -1   -1    0    0    0  501 -0.00000000000E+00  0.00000000000E+00  0.49038341692E+03  0.49038341692E+03  0.00000000000E+00 0.  1.
         21   -1    0    0  503  502  0.00000000000E+00 -0.00000000000E+00 -0.10693810881E+03  0.10693810881E+03  0.00000000000E+00 0. -1.
         24    2    1    2    0    0  0.42625365179E+02 -0.62332712440E+02  0.38106236868E+03  0.39659605931E+03  0.79859981453E+02 0.  0.
         23    2    1    2    0    0 -0.42443054363E+02  0.78550967987E+02  0.13270019576E+02  0.12697519355E+03  0.89302513523E+02 0.  0.
        -11    1    3    3    0    0  0.61386155300E+02 -0.28842090352E+02  0.19070895851E+03  0.20241055579E+03  0.00000000000E+00 0.  1.
         12    1    3    3    0    0 -0.18760790121E+02 -0.33490622088E+02  0.19035341017E+03  0.19418550352E+03  0.00000000000E+00 0. -1.
        -13    1    4    4    0    0 -0.51509758028E+02  0.51478623454E+02 -0.26951347490E+02  0.77651007568E+02  0.00000000000E+00 0. -1.
         13    1    4    4    0    0  0.90667036650E+01  0.27072344533E+02  0.40221367066E+02  0.49324185980E+02  0.00000000000E+00 0.  1.
         21    1    1    2  503  501  0.29133638770E+02 -0.25688045089E+02 -0.16904785578E+02  0.42360551743E+02  0.00000000000E+00 0. -1.
         -2    1    1    2    0  502 -0.29315949587E+02  0.94697895415E+01  0.60177054325E+01  0.31389721133E+02  0.00000000000E+00 0.  1.
<scales pt_clust_5="13000.00000" pt_clust_6="13000.00000" pt_clust_7="13000.00000" pt_clust_8="13000.00000" pt_clust_9="30.20689" pt_clust_10="30.80750"></scales>
<clustering>
<clus scale="   30.807">  2 10  1 -1</clus>
<clus scale="   30.207">  2  9  1 -1</clus>
<clus scale="   79.860">  5  6 -1 -1</clus>
<clus scale="   89.303">  7  8 -1 -1</clus>
<clus scale="  111.017">  1  5  2 -1</clus>
<clus scale="   30.807">  2  5  1 -1</clus>
</clustering>
</event>
<event>
10    4  0.3403565E-005  0.4717168E+03  0.7546771E-02  0.1021437E+00
         -1   -1    0    0    0  501 -0.00000000000E+00  0.00000000000E+00  0.90064079870E+03  0.90064079870E+03  0.00000000000E+00 0.  1.
         21   -1    0    0  503  502  0.00000000000E+00 -0.00000000000E+00 -0.12855141051E+04  0.12855141051E+04  0.00000000000E+00 0.  1.
         24    2    1    2    0    0 -0.69677373213E+02 -0.66083956277E+02 -0.64059005848E+01  0.12492281910E+03  0.79640753100E+02 0.  0.
         23    2    1    2    0    0 -0.23767338046E+03 -0.11406976885E+03  0.84060967048E+02  0.29136558106E+03  0.91252987361E+02 0.  0.
        -11    1    3    3    0    0 -0.42296900373E+02  0.92587630788E+01 -0.10846312226E+02  0.44636251677E+02  0.00000000000E+00 0.  1.
         12    1    3    3    0    0 -0.27380472840E+02 -0.75342719356E+02  0.44404116409E+01  0.80286567422E+02  0.00000000000E+00 0. -1.
        -13    1    4    4    0    0 -0.91243381215E+02 -0.93437745283E+02  0.30720077582E+02  0.13416292344E+03  0.00000000000E+00 0.  1.
         13    1    4    4    0    0 -0.14642999924E+03 -0.20632023570E+02  0.53340889466E+02  0.15720265762E+03  0.00000000000E+00 0. -1.
         21    1    1    2  503  501 -0.14330951002E+03  0.59863795773E+02 -0.10263961862E+04  0.10380801610E+04  0.00000000000E+00 0.  1.
         -2    1    1    2    0  502  0.45066026369E+03  0.12028992936E+03  0.56386781331E+03  0.73178634263E+03  0.00000000000E+00 0.  1.
<scales pt_clust_5="13000.00000" pt_clust_6="13000.00000" pt_clust_7="13000.00000" pt_clust_8="13000.00000" pt_clust_9="155.31030" pt_clust_10="426.81504"></scales>
<clustering>
<clus scale="   79.641">  5  6 -1 -1</clus>
<clus scale="   91.253">  7  8 -1 -1</clus>
<clus scale="  101.327">  5  7 -1 -1</clus>
<clus scale="  155.310">  2  9  1 -1</clus>
<clus scale="  426.815">  2 10  1 -1</clus>
<clus scale="  155.310">  2  5  1 -1</clus>
</clustering>
</event>
<event>
10    4  0.3403565E-005  0.2497266E+03  0.7546771E-02  0.1149412E+00
          2   -1    0    0  503    0 -0.00000000000E+00  0.00000000000E+00  0.19460867566E+04  0.19460867566E+04  0.00000000000E+00 0. -1.
         21   -1    0    0  501  502  0.00000000000E+00 -0.00000000000E+00 -0.64831279882E+02  0.64831279882E+02  0.00000000000E+00 0. -1.
         24    2    1    2    0    0 -0.34387929883E+02  0.54261094399E+02  0.52551254836E+03  0.53504480102E+03  0.77347944567E+02 0.  0.
         23    2    1    2    0    0 -0.17321753746E+03  0.78483261609E+02  0.36751327428E+03  0.42365868028E+03  0.90866566818E+02 0.  0.
        -11    1    3    3    0    0 -0.52761598378E+01  0.20444117778E+02  0.25774286635E+02  0.33318368296E+02  0.00000000000E+00 0.  1.
         12    1    3    3    0    0 -0.29111770045E+02  0.33816976621E+02  0.49973826172E+03  0.50172643272E+03  0.00000000000E+00 0. -1.
        -13    1    4    4    0    0 -0.88275394914E+02 -0.58669372928E+01  0.18955487781E+03  0.20918417245E+03  0.00000000000E+00 0.  1.
         13    1    4    4    0    0 -0.84942142542E+02  0.84350198902E+02  0.17795839648E+03  0.21447450783E+03  0.00000000000E+00 0. -1.
         21    1    1    2  503  502 -0.15098578924E+02  0.53104157271E+02  0.69364889845E+02  0.88653858056E+02  0.00000000000E+00 0. -1.
          1    1    1    2  501    0  0.22270404626E+03 -0.18584851328E+03  0.91886476426E+03  0.96356069716E+03  0.00000000000E+00 0. -1.
<scales pt_clust_5="13000.00000" pt_clust_6="13000.00000" pt_clust_7="13000.00000" pt_clust_8="13000.00000" pt_clust_9="55.20886" pt_clust_10="232.60844"></scales>
<clustering>
<clus scale="   55.209">  2  9  1 -1</clus>
<clus scale="   77.348">  5  6 -1 -1</clus>
<clus scale="   90.867">  7  8 -1 -1</clus>
<clus scale="  103.536">  1  5  2 -1</clus>
<clus scale="  232.608">  2 10  1 -1</clus>
<clus scale="   55.209">  2  5  1 -1</clus>
</clustering>
</event>
<event>
10    4  0.3403565E-005  0.6067629E+03  0.7546771E-02  0.9891474E-01
         21   -1    0    0  501  502  0.00000000000E+00  0.00000000000E+00  0.47883913342E+03  0.47883913342E+03  0.00000000000E+00 0. -1.
          4   -1    0    0  503    0 -0.00000000000E+00 -0.00000000000E+00 -0.10086105666E+04  0.10086105666E+04  0.00000000000E+00 0. -1.
         24    2    1    2    0    0 -0.33393176859E+02 -0.18551992461E+03  0.69289363943E+02  0.21634291690E+03  0.80439387422E+02 0.  0.
         23    2    1    2    0    0 -0.17745610694E+02 -0.35512593366E+03 -0.95319311877E+02  0.37966359633E+03  0.92894239358E+02 0.  0.
        -11    1    3    3    0    0 -0.55539563897E+02 -0.83746802657E+02  0.28152605126E+02  0.10435870490E+03  0.00000000000E+00 0.  1.
         12    1    3    3    0    0  0.22146387039E+02 -0.10177312196E+03  0.41136758817E+02  0.11198421200E+03  0.00000000000E+00 0. -1.
        -13    1    4    4    0    0 -0.14315128320E+02 -0.62791206428E+02 -0.54706682278E+02  0.84501358506E+02  0.00000000000E+00 0.  1.
         13    1    4    4    0    0 -0.34304823738E+01 -0.29233472723E+03 -0.40612629599E+02  0.29516223782E+03  0.00000000000E+00 0. -1.
         21    1    1    2  503  502 -0.15250685999E+02 -0.15812475808E+02  0.79572698556E+02  0.82549574015E+02  0.00000000000E+00 0. -1.
          3    1    1    2  501    0  0.66389473552E+02  0.55645833408E+03 -0.58331418383E+03  0.80889361280E+03  0.00000000000E+00 0. -1.
<scales pt_clust_5="13000.00000" pt_clust_6="13000.00000" pt_clust_7="13000.00000" pt_clust_8="13000.00000" pt_clust_9="21.96856" pt_clust_10="555.45340"></scales>
<clustering>
<clus scale="   21.969">  1  9  2 -1</clus>
<clus scale="   80.439">  5  6 -1 -1</clus>
<clus scale="   92.894">  7  8 -1 -1</clus>
<clus scale="  156.409">  5  7 -1 -1</clus>
<clus scale="  555.453">  1 10  2 -1</clus>
<clus scale="   21.969">  1  5  2 -1</clus>
</clustering>
</event>
<event>
10    4  0.3403565E-005  0.1469973E+03  0.7546771E-02  0.1206480E+00
         21   -1    0    0  501  502  0.00000000000E+00  0.00000000000E+00  0.19235676873E+03  0.19235676873E+03  0.00000000000E+00 0.  1.
         -3   -1    0    0    0  501 -0.00000000000E+00 -0.00000000000E+00 -0.76169714646E+03  0.76169714646E+03  0.00000000000E+00 0.  1.
         24    2    1    2    0    0  0.24359524175E+02 -0.11792744104E+03 -0.55587695471E+03  0.57320110099E+03  0.71133997749E+02 0.  0.
         23    2    1    2    0    0 -0.71798638398E+02  0.10751757049E+03 -0.86048354452E+02  0.17660588658E+03  0.84084763365E+02 0.  0.
        -13    1    3    3    0    0  0.19977700913E+02 -0.67872249786E+02 -0.17101008584E+03  0.18506809634E+03  0.00000000000E+00 0.  1.
         14    1    3    3    0    0  0.43818232618E+01 -0.50055191253E+02 -0.38486686887E+03  0.38813300465E+03  0.00000000000E+00 0. -1.
        -11    1    4    4    0    0 -0.69655539898E+02  0.56353774015E+02 -0.17909452574E+02  0.91369527611E+02  0.00000000000E+00 0.  1.
         11    1    4    4    0    0 -0.21430985002E+01  0.51163796472E+02 -0.68138901878E+02  0.85236358966E+02  0.00000000000E+00 0. -1.
         21    1    1    2  503  502  0.23266471843E+02 -0.20034792277E+02  0.13073918438E+03  0.13429615015E+03  0.00000000000E+00 0.  1.
         -4    1    1    2    0  503  0.24172642380E+02  0.30444662827E+02 -0.58154252949E+02  0.69950777483E+02  0.00000000000E+00 0.  1.
<scales pt_clust_5="13000.00000" pt_clust_6="13000.00000" pt_clust_7="13000.00000" pt_clust_8="13000.00000" pt_clust_9="30.70377" pt_clust_10="38.87134"></scales>
<clustering>
<clus scale="   30.704">  1  9  2 -1</clus>
<clus scale="   38.871">  1 10  2 -1</clus>
<clus scale="   71.134">  5  6 -1 -1</clus>
<clus scale="   84.085">  7  8 -1 -1</clus>
<clus scale="  139.993">  2  5  1 -1</clus>
<clus scale="   30.704">  1  5  2 -1</clus>
</clustering>
</event>
<event>
10    4  0.3403565E-005  0.2991275E+03  0.7546771E-02  0.1130641E+00
          2   -1    0    0  503    0 -0.00000000000E+00  0.00000000000E+00  0.27560533643E+03  0.27560533643E+03  0.00000000000E+00 0. -1.
         21   -1    0    0  501  502  0.00000000000E+00 -0.00000000000E+00 -0.56965303095E+03  0.56965303095E+03  0.00000000000E+00 0. -1.
         23    2    1    2    0    0 -0.25594388489E+02  0.24821864721E+01 -0.17464874495E+02  0.94538560476E+02  0.89282045249E+02 0.  0.
         24    2    1    2    0    0  0.27133152578E+03 -0.14789013908E+03 -0.68485726351E+02  0.32631175161E+03  0.79352217386E+02 0.  0.
        -11    1    4    4    0    0  0.63810684740E+01 -0.22898151626E+02  0.49806546195E+01  0.24286833948E+02  0.00000000000E+00 0.  1.
         12    1    4    4    0    0  0.26495045731E+03 -0.12499198745E+03 -0.73466380971E+02  0.30202491766E+03  0.00000000000E+00 0. -1.
        -13    1    3    3    0    0  0.36286174599E+01  0.28322081326E+02 -0.40260128237E+02  0.49357725646E+02  0.00000000000E+00 0.  1.
         13    1    3    3    0    0 -0.29223005949E+02 -0.25839894854E+02  0.22795253742E+02  0.45180834830E+02  0.00000000000E+00 0. -1.
         21    1    1    2  503  502 -0.47119045127E+02 -0.45147162609E+02 -0.11790931594E+03  0.13476304200E+03  0.00000000000E+00 0. -1.
          1    1    1    2  501    0 -0.19861809216E+03  0.19055511522E+03 -0.90187777743E+02  0.28964501329E+03  0.00000000000E+00 0. -1.
<scales pt_clust_5="13000.00000" pt_clust_6="13000.00000" pt_clust_7="13000.00000" pt_clust_8="13000.00000" pt_clust_9="65.25696" pt_clust_10="288.41026"></scales>
<clustering>
<clus scale="   65.257">  2  9  1 -1</clus>
<clus scale="   79.352">  5  6 -1 -1</clus>
<clus scale="   89.282">  7  8 -1 -1</clus>
<clus scale="   94.746">  1  7  2 -1</clus>
<clus scale="  288.410">  2 10  1 -1</clus>
<clus scale="   65.257">  2  5  1 -1</clus>
</clustering>
</event>
<event>
10    4  0.3403565E-005  0.1468995E+03  0.7546771E-02  0.1232696E+00
          2   -1    0    0  502    0 -0.00000000000E+00  0.00000000000E+00  0.83905620824E+03  0.83905620824E+03  0.00000000000E+00 0. -1.
         21   -1    0    0  503  502  0.00000000000E+00 -0.00000000000E+00 -0.60273615687E+02  0.60273615687E+02  0.00000000000E+00 0. -1.
         24    2    1    2    0    0 -0.33820946970E+00  0.10261146965E+02  0.78576520818E+02  0.11269861536E+03  0.80133031625E+02 0.  0.
         23    2    1    2    0    0 -0.65022248122E+02 -0.10293374557E+03  0.14198326586E+03  0.20802243582E+03  0.91054035020E+02 0.  0.
        -13    1    3    3    0    0  0.94930105657E+01  0.29555424990E+02 -0.15546824964E+00  0.31042947127E+02  0.00000000000E+00 0.  1.
         14    1    3    3    0    0 -0.98312200354E+01 -0.19294278025E+02  0.78731989068E+02  0.81655668233E+02  0.00000000000E+00 0. -1.
        -13    1    4    4    0    0  0.20162179593E+02 -0.21875293518E+02  0.52179240927E+02  0.60064258392E+02  0.00000000000E+00 0. -1.
         13    1    4    4    0    0 -0.85184427716E+02 -0.81058452057E+02  0.89804024929E+02  0.14795817743E+03  0.00000000000E+00 0.  1.
         21    1    1    2  503  501  0.21132061959E+02 -0.45498650247E+01  0.18600798634E+02  0.28517626553E+02  0.00000000000E+00 0.  1.
          1    1    1    2  501    0  0.44228395633E+02  0.97222463634E+02  0.53962200724E+03  0.55009114619E+03  0.00000000000E+00 0. -1.
<scales pt_clust_5="13000.00000" pt_clust_6="13000.00000" pt_clust_7="13000.00000" pt_clust_8="13000.00000" pt_clust_9="21.61632" pt_clust_10="115.27641"></scales>
<clustering>
<clus scale="   21.616">  2  9  1 -1</clus>
<clus scale="   80.133">  5  6 -1 -1</clus>
<clus scale="   80.858">  1  5  2 -1</clus>
<clus scale="   91.054">  7  8 -1 -1</clus>
<clus scale="  115.276">  2 10  1 -1</clus>
<clus scale="   21.616">  2  5  1 -1</clus>
</clustering>
</event>
<event>
10    4  0.3403565E-005  0.1169817E+03  0.7546771E-02  0.1272649E+00
          2   -1    0    0  503    0 -0.00000000000E+00  0.00000000000E+00  0.24459365374E+03  0.24459365374E+03  0.00000000000E+00 0. -1.
         21   -1    0    0  501  502  0.00000000000E+00 -0.00000000000E+00 -0.11617781163E+03  0.11617781163E+03  0.00000000000E+00 0. -1.
         24    2    1    2    0    0  0.22926930570E+02  0.72075832535E+01  0.11671115802E+03  0.13687956099E+03  0.67356710206E+02 0.  0.
         23    2    1    2    0    0  0.45806504220E+02 -0.18026254978E+02  0.23837292983E+02  0.10652871015E+03  0.91416452848E+02 0.  0.
        -13    1    3    3    0    0  0.12420762660E+02  0.30220289320E+02  0.23369507425E+02  0.40170575163E+02  0.00000000000E+00 0.  1.
         14    1    3    3    0    0  0.10506167911E+02 -0.23012706067E+02  0.93341650593E+02  0.96708985830E+02  0.00000000000E+00 0. -1.
        -11    1    4    4    0    0 -0.38510695854E+01 -0.28671042858E+02 -0.23371601564E+02  0.37189934057E+02  0.00000000000E+00 0.  1.
         11    1    4    4    0    0  0.49657573805E+02  0.10644787879E+02  0.47208894547E+02  0.69338776089E+02  0.00000000000E+00 0. -1.
         21    1    1    2  503  502  0.23474978368E+02  0.42138352750E+01  0.16015254498E+01  0.23903888823E+02  0.00000000000E+00 0. -1.
          1    1    1    2  501    0 -0.92208413158E+02  0.66048364495E+01 -0.13734134332E+02  0.93459305409E+02  0.00000000000E+00 0. -1.
<scales pt_clust_5="13000.00000" pt_clust_6="13000.00000" pt_clust_7="13000.00000" pt_clust_8="13000.00000" pt_clust_9="23.85018" pt_clust_10="72.99151"></scales>
<clustering>
<clus scale="   23.850">  2  9  1 -1</clus>
<clus scale="   67.357">  5  6 -1 -1</clus>
<clus scale="   72.311">  1  5  2 -1</clus>
<clus scale="   72.992">  2 10  1 -1</clus>
<clus scale="   91.416">  7  8 -1 -1</clus>
<clus scale="   23.850">  2  5  1 -1</clus>
</clustering>
</event>
<event>
10    4  0.3403565E-005  0.2604367E+03  0.7546771E-02  0.1145732E+00
         21   -1    0    0  501  502  0.00000000000E+00  0.00000000000E+00  0.65491812316E+02  0.65491812316E+02  0.00000000000E+00 0. -1.
          2   -1    0    0  503    0 -0.00000000000E+00 -0.00000000000E+00 -0.21432044164E+04  0.21432044164E+04  0.00000000000E+00 0. -1.
         24    2    1    2    0    0  0.10282569558E+02  0.55232273812E+02 -0.18661326122E+03  0.21110022162E+03  0.81132354818E+02 0.  0.
         23    2    1    2    0    0  0.16200567392E+03 -0.17855236232E+03 -0.43915695638E+03  0.50945774557E+03  0.92528793963E+02 0.  0.
        -11    1    3    3    0    0 -0.30454720444E+02  0.18753658601E+02 -0.35481221045E+02  0.50379626389E+02  0.00000000000E+00 0.  1.
         12    1    3    3    0    0  0.40737290003E+02  0.36478615211E+02 -0.15113204017E+03  0.16072059523E+03  0.00000000000E+00 0. -1.
        -13    1    4    4    0    0  0.10528086181E+03 -0.98101960086E+02 -0.34248424163E+03  0.37148823696E+03  0.00000000000E+00 0.  1.
         13    1    4    4    0    0  0.56724812117E+02 -0.80450402229E+02 -0.96672714748E+02  0.13796950861E+03  0.00000000000E+00 0. -1.
         21    1    1    2  503  502  0.24577511180E+02  0.21198813743E+01 -0.81885395202E+01  0.25992309099E+02  0.00000000000E+00 0. -1.
          1    1    1    2  501    0 -0.19686575466E+03  0.12120020713E+03 -0.14437538469E+04  0.14621459524E+04  0.00000000000E+00 0. -1.
<scales pt_clust_5="13000.00000" pt_clust_6="13000.00000" pt_clust_7="13000.00000" pt_clust_8="13000.00000" pt_clust_9="24.66876" pt_clust_10="243.44556"></scales>
<clustering>
<clus scale="   24.669">  1  9  2 -1</clus>
<clus scale="   81.132">  5  6 -1 -1</clus>
<clus scale="   92.529">  7  8 -1 -1</clus>
<clus scale="   99.636">  2  5  1 -1</clus>
<clus scale="  243.446">  1 10  2 -1</clus>
<clus scale="   24.669">  1  5  2 -1</clus>
</clustering>
</event>
<event>
10    4  0.3403565E-005  0.2117939E+03  0.7546771E-02  0.1150550E+00
         21   -1    0    0  501  502  0.00000000000E+00  0.00000000000E+00  0.90201709740E+03  0.90201709740E+03  0.00000000000E+00 0.  1.
         -3   -1    0    0    0  501 -0.00000000000E+00 -0.00000000000E+00 -0.16459831749E+03  0.16459831749E+03  0.00000000000E+00 0.  1.
         23    2    1    2    0    0  0.13222560150E+03  0.30927985841E+02 -0.37528611836E+02  0.16941779162E+03  0.94094853273E+02 0.  0.
         24    2    1    2    0    0  0.10386414375E+03  0.10415180291E+03  0.26883754815E+03  0.31740733717E+03  0.82694812348E+02 0.  0.
        -13    1    4    4    0    0  0.67134296966E+02  0.72312549290E+02  0.24319430393E+03  0.26244921048E+03  0.00000000000E+00 0.  1.
         14    1    4    4    0    0  0.36729846785E+02  0.31839253621E+02  0.25643244214E+02  0.54958126695E+02  0.00000000000E+00 0. -1.
        -11    1    3    3    0    0  0.54095146536E+02 -0.33758138816E+02 -0.15459449781E+02  0.65611671238E+02  0.00000000000E+00 0. -1.
         11    1    3    3    0    0  0.78130454964E+02  0.64686124657E+02 -0.22069162055E+02  0.10380612039E+03  0.00000000000E+00 0.  1.
         21    1    1    2  503  502 -0.34242974404E+02 -0.19360357336E+02  0.14480376534E+03  0.15005177502E+03  0.00000000000E+00 0. -1.
         -4    1    1    2    0  503 -0.20184677085E+03 -0.11571943142E+03  0.36130607827E+03  0.42973851107E+03  0.00000000000E+00 0.  1.
<scales pt_clust_5="13000.00000" pt_clust_6="13000.00000" pt_clust_7="13000.00000" pt_clust_8="13000.00000" pt_clust_9="31.91556" pt_clust_10="209.86408"></scales>
<clustering>
<clus scale="   31.916">  9 10 -1 -1</clus>
<clus scale="   82.695">  5  6 -1 -1</clus>
<clus scale="   94.095">  7  8 -1 -1</clus>
<clus scale="  165.209">  2  7  1 -1</clus>
<clus scale="  209.864">  1  9  2 -1</clus>
<clus scale="  209.864">  1  5  2 -1</clus>
</clustering>
</event>
<event>
10    4  0.3403565E-005  0.1300815E+03  0.7546771E-02  0.1228799E+00
          2   -1    0    0  503    0 -0.00000000000E+00  0.00000000000E+00  0.35444145690E+03  0.35444145690E+03  0.00000000000E+00 0. -1.
         21   -1    0    0  501  502  0.00000000000E+00 -0.00000000000E+00 -0.95561785856E+02  0.95561785856E+02  0.00000000000E+00 0. -1.
         23    2    1    2    0    0 -0.80160323315E+02 -0.35364150797E+02  0.13706435293E+03  0.18483523438E+03  0.87756062065E+02 0.  0.
         24    2    1    2    0    0  0.76393937771E+02  0.81174723491E+02  0.12266838280E+03  0.18487379236E+03  0.81886613693E+02 0.  0.
        -11    1    4    4    0    0 -0.60609827540E+01  0.48943268530E+02  0.36731281160E+02  0.61492813092E+02  0.00000000000E+00 0.  1.
         12    1    4    4    0    0  0.82454920525E+02  0.32231454961E+02  0.85937101639E+02  0.12338097927E+03  0.00000000000E+00 0. -1.
        -11    1    3    3    0    0 -0.85139157336E+02  0.86375820300E-01  0.11386954256E+03  0.14217931036E+03  0.00000000000E+00 0.  1.
         11    1    3    3    0    0  0.49788340213E+01 -0.35450526617E+02  0.23194810369E+02  0.42655924016E+02  0.00000000000E+00 0. -1.
         21    1    1    2  503  502  0.20299292438E+02  0.95300942111E+01  0.16226251263E+01  0.22483702575E+02  0.00000000000E+00 0. -1.
          1    1    1    2  501    0 -0.16532906894E+02 -0.55340666904E+02 -0.24756898123E+01  0.57810513437E+02  0.00000000000E+00 0. -1.
<scales pt_clust_5="13000.00000" pt_clust_6="13000.00000" pt_clust_7="13000.00000" pt_clust_8="13000.00000" pt_clust_9="22.42507" pt_clust_10="52.79990"></scales>
<clustering>
<clus scale="   22.425">  2  9  1 -1</clus>
<clus scale="   52.800">  2 10  1 -1</clus>
<clus scale="   81.887">  5  6 -1 -1</clus>
<clus scale="   87.756">  7  8 -1 -1</clus>
<clus scale="  126.196">  2  5  1 -1</clus>
<clus scale="   22.425">  2  5  1 -1</clus>
</clustering>
</event>
<event>
10    4  0.3403565E-005  0.9203499E+02  0.7546771E-02  0.1299575E+00
          4   -1    0    0  503    0 -0.00000000000E+00  0.00000000000E+00  0.56757528854E+03  0.56757528854E+03  0.00000000000E+00 0. -1.
         21   -1    0    0  501  502  0.00000000000E+00 -0.00000000000E+00 -0.91824136819E+02  0.91824136819E+02  0.00000000000E+00 0.  1.
         24    2    1    2    0    0 -0.85805568266E+01 -0.91316216211E+01  0.31029274194E+03  0.32262686581E+03  0.87461399339E+02 0.  0.
         23    2    1    2    0    0 -0.62438162615E+02  0.26797795039E+02  0.19289446999E+03  0.22350371620E+03  0.90160904115E+02 0.  0.
        -13    1    3    3    0    0  0.38976126273E+02 -0.93850367991E+01  0.16243217449E+03  0.16730639152E+03  0.00000000000E+00 0.  1.
         14    1    3    3    0    0 -0.47556683100E+02  0.25341517803E+00  0.14786056746E+03  0.15532047429E+03  0.00000000000E+00 0. -1.
        -11    1    4    4    0    0  0.21930967957E+02  0.78824914781E+01  0.22331008358E+02  0.32276538875E+02  0.00000000000E+00 0. -1.
         11    1    4    4    0    0 -0.84369130572E+02  0.18915303561E+02  0.17056346163E+03  0.19122717732E+03  0.00000000000E+00 0.  1.
         21    1    1    2  503  502  0.88271084898E+01  0.26316120600E+02  0.85218069375E+01  0.29035792416E+02  0.00000000000E+00 0.  1.
          3    1    1    2  501    0  0.62191610952E+02 -0.43982294018E+02 -0.35957867148E+02  0.84233050934E+02  0.00000000000E+00 0. -1.
<scales pt_clust_5="13000.00000" pt_clust_6="13000.00000" pt_clust_7="13000.00000" pt_clust_8="13000.00000" pt_clust_9="27.75709" pt_clust_10="72.96478"></scales>
<clustering>
<clus scale="   27.757">  2  9  1 -1</clus>
<clus scale="   72.965">  2 10  1 -1</clus>
<clus scale="   87.461">  5  6 -1 -1</clus>
<clus scale="   89.392">  1  5  2 -1</clus>
<clus scale="   90.161">  7  8 -1 -1</clus>
<clus scale="   27.757">  2  5  1 -1</clus>
</clustering>
</event>
<event>
10    4  0.3403565E-005  0.1045965E+03  0.7546771E-02  0.1275168E+00
          2   -1    0    0  503    0 -0.00000000000E+00  0.00000000000E+00  0.16365743543E+03  0.16365743543E+03  0.00000000000E+00 0. -1.
         21   -1    0    0  501  502  0.00000000000E+00 -0.00000000000E+00 -0.47279456273E+03  0.47279456273E+03  0.00000000000E+00 0. -1.
         24    2    1    2    0    0  0.36955008916E+02  0.43935888606E+02  0.10861294216E+03  0.14738531477E+03  0.81422508026E+02 0.  0.
         23    2    1    2    0    0  0.55736633803E+01 -0.38981021369E+02 -0.47241499374E+02  0.10983332526E+03  0.91000078705E+02 0.  0.
        -11    1    3    3    0    0 -0.15178192012E+02  0.44904956583E+02  0.48690705814E+02  0.67953053435E+02  0.00000000000E+00 0.  1.
         12    1    3    3    0    0  0.52133200929E+02 -0.96906797732E+00  0.59922236348E+02  0.79432261335E+02  0.00000000000E+00 0. -1.
        -11    1    4    4    0    0  0.28848481859E+02 -0.46348006402E+02 -0.60958281544E+02  0.81830829715E+02  0.00000000000E+00 0.  1.
         11    1    4    4    0    0 -0.23274818478E+02  0.73669850335E+01  0.13716782171E+02  0.28002495546E+02  0.00000000000E+00 0. -1.
         21    1    1    2  503  502  0.16884925028E+02 -0.12429617572E+02 -0.10068188032E+03  0.10284180624E+03  0.00000000000E+00 0. -1.
          1    1    1    2  501    0 -0.59413597325E+02  0.74747503346E+01 -0.26982668977E+03  0.27639155188E+03  0.00000000000E+00 0. -1.
<scales pt_clust_5="13000.00000" pt_clust_6="13000.00000" pt_clust_7="13000.00000" pt_clust_8="13000.00000" pt_clust_9="20.96655" pt_clust_10="47.01480"></scales>
<clustering>
<clus scale="   20.967">  2  9  1 -1</clus>
<clus scale="   47.015">  2 10  1 -1</clus>
<clus scale="   81.423">  5  6 -1 -1</clus>
<clus scale="   91.000">  7  8 -1 -1</clus>
<clus scale="   96.380">  1  5  2 -1</clus>
<clus scale="   20.967">  2  5  1 -1</clus>
</clustering>
</event>
<event>
10    4  0.3403565E-005  0.1098727E+03  0.7546771E-02  0.1265516E+00
          2   -1    0    0  503    0 -0.00000000000E+00  0.00000000000E+00  0.10099834858E+04  0.10099834858E+04  0.00000000000E+00 0. -1.
         21   -1    0    0  501  502  0.00000000000E+00 -0.00000000000E+00 -0.98781290574E+02  0.98781290574E+02  0.00000000000E+00 0. -1.
         24    2    1    2    0    0  0.47562178972E+02 -0.36914005279E+02  0.50221010480E+03  0.51204302804E+03  0.79676022382E+02 0.  0.
         23    2    1    2    0    0  0.18301848284E+02 -0.54989065622E+02  0.51933740913E+02  0.11857738601E+03  0.89469145732E+02 0.  0.
        -13    1    3    3    0    0 -0.20181875656E+02 -0.23183743224E+02  0.15725335267E+03  0.16022924509E+03  0.00000000000E+00 0.  1.
         14    1    3    3    0    0  0.67744054627E+02 -0.13730262055E+02  0.34495675213E+03  0.35181378295E+03  0.00000000000E+00 0. -1.
        -11    1    4    4    0    0  0.42230476386E+02 -0.45875800341E+02  0.64794282079E+02  0.89923863255E+02  0.00000000000E+00 0.  1.
         11    1    4    4    0    0 -0.23928628102E+02 -0.91132652809E+01 -0.12860541165E+02  0.28653522750E+02  0.00000000000E+00 0. -1.
         21    1    1    2  503  502  0.18510603740E+02  0.16127696157E+02 -0.49936288204E+02  0.55645106827E+02  0.00000000000E+00 0. -1.
          1    1    1    2  501    0 -0.84374630995E+02  0.75775374744E+02  0.40699463772E+03  0.42249925551E+03  0.00000000000E+00 0. -1.
<scales pt_clust_5="13000.00000" pt_clust_6="13000.00000" pt_clust_7="13000.00000" pt_clust_8="13000.00000" pt_clust_9="24.55087" pt_clust_10="63.77523"></scales>
<clustering>
<clus scale="   24.551">  2  9  1 -1</clus>
<clus scale="   79.676">  5  6 -1 -1</clus>
<clus scale="   89.469">  7  8 -1 -1</clus>
<clus scale="  100.204">  1  5  2 -1</clus>
<clus scale="   63.775">  2 10  1 -1</clus>
<clus scale="   24.551">  2  5  1 -1</clus>
</clustering>
</event>
<event>
10    4  0.3403565E-005  0.1305342E+03  0.7546771E-02  0.1230235E+00
          2   -1    0    0  503    0 -0.00000000000E+00  0.00000000000E+00  0.32349464885E+03  0.32349464885E+03  0.00000000000E+00 0. -1.
         21   -1    0    0  501  502  0.00000000000E+00 -0.00000000000E+00 -0.82608316620E+03  0.82608316620E+03  0.00000000000E+00 0. -1.
         24    2    1    2    0    0  0.99958149357E+01 -0.77051468626E+02  0.12093821896E+03  0.16283938982E+03  0.76509927046E+02 0.  0.
         23    2    1    2    0    0 -0.29428213963E+02  0.14071412498E+03  0.50460960305E+02  0.17722274163E+03  0.90526829661E+02 0.  0.
        -13    1    3    3    0    0  0.30099374911E+02 -0.10052743202E+02  0.13165976843E+02  0.34356556319E+02  0.00000000000E+00 0.  1.
         14    1    3    3    0    0 -0.20103559975E+02 -0.66998725424E+02  0.10777224212E+03  0.12848283350E+03  0.00000000000E+00 0. -1.
        -11    1    4    4    0    0 -0.48263975538E+02  0.12628932801E+03  0.17083685948E+02  0.13627273399E+03  0.00000000000E+00 0.  1.
         11    1    4    4    0    0  0.18835761574E+02  0.14424796971E+02  0.33377274358E+02  0.40950007634E+02  0.00000000000E+00 0. -1.
         21    1    1    2  503  502  0.42369349230E+02 -0.13645737777E+03 -0.71063026987E+03  0.72485250787E+03  0.00000000000E+00 0. -1.
          1    1    1    2  501    0 -0.22936950202E+02  0.72794721418E+02  0.36642573250E+02  0.84663175733E+02  0.00000000000E+00 0. -1.
<scales pt_clust_5="13000.00000" pt_clust_6="13000.00000" pt_clust_7="13000.00000" pt_clust_8="13000.00000" pt_clust_9="74.58683" pt_clust_10="76.32287"></scales>
<clustering>
<clus scale="   76.323">  2 10  1 -1</clus>
<clus scale="   74.587">  2  9  1 -1</clus>
<clus scale="   76.510">  5  6 -1 -1</clus>
<clus scale="   90.527">  7  8 -1 -1</clus>
<clus scale="  121.235">  1  5  2 -1</clus>
<clus scale="   76.323">  2  5  1 -1</clus>
</clustering>
</event>
<event>
10    4  0.3403565E-005  0.4074957E+03  0.7546771E-02  0.1041388E+00
          2   -1    0    0  502    0 -0.00000000000E+00  0.00000000000E+00  0.11744375028E+04  0.11744375028E+04  0.00000000000E+00 0. -1.
         21   -1    0    0  503  502  0.00000000000E+00 -0.00000000000E+00 -0.32271260270E+03  0.32271260270E+03  0.00000000000E+00 0. -1.
         24    2    1    2    0    0  0.33355345726E+03 -0.25086883795E+03  0.92757534147E+03  0.10203862377E+04  0.81234089383E+02 0.  0.
         23    2    1    2    0    0 -0.29442228128E+03  0.13581899419E+03 -0.26714425560E+02  0.33780016243E+03  0.90906602110E+02 0.  0.
        -11    1    3    3    0    0  0.46521845385E+02 -0.75935479611E+02  0.19632446773E+03  0.21557777203E+03  0.00000000000E+00 0.  1.
         12    1    3    3    0    0  0.28703161187E+03 -0.17493335834E+03  0.73125087373E+03  0.80480846567E+03  0.00000000000E+00 0. -1.
        -13    1    4    4    0    0 -0.18290258814E+03  0.12485116534E+03  0.44237430667E+01  0.22149659080E+03  0.00000000000E+00 0.  1.
         13    1    4    4    0    0 -0.11151969314E+03  0.10967828853E+02 -0.31138168626E+02  0.11630357163E+03  0.00000000000E+00 0. -1.
         21    1    1    2  503  501  0.35167736151E+01  0.30385793185E+02 -0.28789255771E+02  0.42005777841E+02  0.00000000000E+00 0. -1.
          1    1    1    2  501    0 -0.42647949593E+02  0.84664050578E+02 -0.20346760041E+02  0.96957927520E+02  0.00000000000E+00 0. -1.
<scales pt_clust_5="13000.00000" pt_clust_6="13000.00000" pt_clust_7="13000.00000" pt_clust_8="13000.00000" pt_clust_9="26.20900" pt_clust_10="129.98678"></scales>
<clustering>
<clus scale="   26.209">  9 10 -1 -1</clus>
<clus scale="   81.234">  5  6 -1 -1</clus>
<clus scale="   90.907">  7  8 -1 -1</clus>
<clus scale="  129.987">  2  9  1 -1</clus>
<clus scale="  405.448">  1  5  2 -1</clus>
<clus scale="  129.987">  2  5  1 -1</clus>
</clustering>
</event>
<event>
10    4  0.3403565E-005  0.1804317E+03  0.7546771E-02  0.1193881E+00
          2   -1    0    0  502    0 -0.00000000000E+00  0.00000000000E+00  0.12872506862E+03  0.12872506862E+03  0.00000000000E+00 0. -1.
         21   -1    0    0  503  502  0.00000000000E+00 -0.00000000000E+00 -0.47363662109E+03  0.47363662109E+03  0.00000000000E+00 0. -1.
         23    2    1    2    0    0 -0.76805327988E+01 -0.23873470335E+02 -0.14729023676E+03  0.17646033335E+03  0.93887710759E+02 0.  0.
         24    2    1    2    0    0 -0.72119936512E+02  0.16170716030E+03 -0.13297389780E+03  0.23551171631E+03  0.80207356827E+02 0.  0.
        -13    1    4    4    0    0 -0.23944337426E+02  0.15139329989E+02  0.47211615840E+01  0.28719679211E+02  0.00000000000E+00 0.  1.
         14    1    4    4    0    0 -0.48175599087E+02  0.14656783031E+03 -0.13769505939E+03  0.20679203710E+03  0.00000000000E+00 0. -1.
        -13    1    3    3    0    0 -0.36662058081E+02  0.34978234056E+01 -0.12599079893E+03  0.13126318100E+03  0.00000000000E+00 0. -1.
         13    1    3    3    0    0  0.28981525282E+02 -0.27371293741E+02 -0.21299437830E+02  0.45197152350E+02  0.00000000000E+00 0.  1.
         21    1    1    2  503  501 -0.97211063429E+01 -0.19376843341E+02 -0.31526923865E+02  0.38261062384E+02  0.00000000000E+00 0. -1.
          1    1    1    2  501    0  0.89521575654E+02 -0.11845684662E+03 -0.33120494043E+02  0.15212857767E+03  0.00000000000E+00 0. -1.
<scales pt_clust_5="13000.00000" pt_clust_6="13000.00000" pt_clust_7="13000.00000" pt_clust_8="13000.00000" pt_clust_9="21.67861" pt_clust_10="161.62426"></scales>
<clustering>
<clus scale="   21.679">  2  9  1 -1</clus>
<clus scale="   80.207">  5  6 -1 -1</clus>
<clus scale="   93.888">  7  8 -1 -1</clus>
<clus scale="   99.520">  1  7  2 -1</clus>
<clus scale="  161.624">  2 10  1 -1</clus>
<clus scale="   21.679">  2  5  1 -1</clus>
</clustering>
</event>
<event>
10    4  0.3403565E-005  0.1070732E+03  0.7546771E-02  0.1273900E+00
         21   -1    0    0  503  502  0.00000000000E+00  0.00000000000E+00  0.63300550959E+02  0.63300550959E+02  0.00000000000E+00 0. -1.
          2   -1    0    0  502    0 -0.00000000000E+00 -0.00000000000E+00 -0.71675614265E+03  0.71675614265E+03  0.00000000000E+00 0. -1.
         23    2    1    2    0    0 -0.37760414228E+01  0.60900034658E+02 -0.23901959779E+03  0.26282880042E+03  0.90694748971E+02 0.  0.
         24    2    1    2    0    0  0.78450241823E+02 -0.26090484117E+02 -0.33136009825E+02  0.11475549469E+03  0.72357961627E+02 0.  0.
        -13    1    4    4    0    0  0.55568858294E+02  0.10444849950E+02  0.55754328506E+01  0.56816180389E+02  0.00000000000E+00 0.  1.
         14    1    4    4    0    0  0.22881383529E+02 -0.36535334067E+02 -0.38711442676E+02  0.57939314301E+02  0.00000000000E+00 0. -1.
        -13    1    3    3    0    0  0.32111057740E+02  0.26020439379E+02 -0.18344147828E+03  0.18803978103E+03  0.00000000000E+00 0. -1.
         13    1    3    3    0    0 -0.35887099163E+02  0.34879595279E+02 -0.55578119507E+02  0.74789019388E+02  0.00000000000E+00 0.  1.
         21    1    1    2  503  501 -0.69572248087E+01 -0.25310469333E+02 -0.15814239228E+02  0.30644950600E+02  0.00000000000E+00 0. -1.
          1    1    1    2  501    0 -0.67716975591E+02 -0.94990812076E+01 -0.36548574485E+03  0.37182744791E+03  0.00000000000E+00 0. -1.
<scales pt_clust_5="13000.00000" pt_clust_6="13000.00000" pt_clust_7="13000.00000" pt_clust_8="13000.00000" pt_clust_9="26.24924" pt_clust_10="68.98398"></scales>
<clustering>
<clus scale="   26.249">  1  9  2 -1</clus>
<clus scale="   68.984">  1 10  2 -1</clus>
<clus scale="   72.358">  5  6 -1 -1</clus>
<clus scale="   90.695">  7  8 -1 -1</clus>
<clus scale="   92.059">  1  5  2 -1</clus>
<clus scale="   26.249">  1  5  2 -1</clus>
</clustering>
</event>
<event>
10    4  0.3403565E-005  0.4421818E+03  0.7546771E-02  0.1030404E+00
          2   -1    0    0  503    0 -0.00000000000E+00  0.00000000000E+00  0.16879319637E+04  0.16879319637E+04  0.00000000000E+00 0. -1.
         21   -1    0    0  501  502  0.00000000000E+00 -0.00000000000E+00 -0.33312650250E+03  0.33312650250E+03  0.00000000000E+00 0. -1.
         24    2    1    2    0    0 -0.15507447521E+03 -0.43196565576E+03  0.13863071090E+04  0.14626942367E+04  0.83573973160E+02 0.  0.
         23    2    1    2    0    0  0.88219568451E+02  0.30916182890E+03  0.55813058333E+02  0.34233160810E+03  0.10349929332E+03 0.  0.
        -13    1    3    3    0    0 -0.11364248850E+03 -0.19803939183E+03  0.71679196733E+03  0.75227982848E+03  0.00000000000E+00 0.  1.
         14    1    3    3    0    0 -0.41431986709E+02 -0.23392626393E+03  0.66951514163E+03  0.71041440818E+03  0.00000000000E+00 0. -1.
        -13    1    4    4    0    0  0.25143729812E+01  0.16614879938E+03  0.56780463691E+02  0.17560115792E+03  0.00000000000E+00 0. -1.
         13    1    4    4    0    0  0.85705195469E+02  0.14301302952E+03 -0.96740535812E+00  0.16673045017E+03  0.00000000000E+00 0.  1.
         21    1    1    2  503  502  0.30807618104E+02 -0.17969085568E+02 -0.57543010699E+02  0.67699301693E+02  0.00000000000E+00 0. -1.
          1    1    1    2  501    0  0.36047288651E+02  0.14077291243E+03 -0.29771695413E+02  0.14833331972E+03  0.00000000000E+00 0. -1.
<scales pt_clust_5="13000.00000" pt_clust_6="13000.00000" pt_clust_7="13000.00000" pt_clust_8="13000.00000" pt_clust_9="35.66507" pt_clust_10="142.54811"></scales>
<clustering>
<clus scale="   35.665">  2  9  1 -1</clus>
<clus scale="   83.574">  5  6 -1 -1</clus>
<clus scale="  103.499">  7  8 -1 -1</clus>
<clus scale="  142.548">  2 10  1 -1</clus>
<clus scale="  437.947">  1  5  2 -1</clus>
<clus scale="   35.665">  2  5  1 -1</clus>
</clustering>
</event>
<event>
10    4  0.3403565E-005  0.1419569E+03  0.7546771E-02  0.1213156E+00
         21   -1    0    0  501  502  0.00000000000E+00  0.00000000000E+00  0.22569091122E+03  0.22569091122E+03  0.00000000000E+00 0. -1.
          2   -1    0    0  503    0 -0.00000000000E+00 -0.00000000000E+00 -0.58416264547E+03  0.58416264547E+03  0.00000000000E+00 0. -1.
         23    2    1    2    0    0 -0.93631702510E+02  0.38204942212E+02 -0.46688555142E+03  0.48653563679E+03  0.92240416399E+02 0.  0.
         24    2    1    2    0    0  0.29148334586E+02 -0.83281695503E+02 -0.13536796421E+02  0.12038330034E+03  0.80767740644E+02 0.  0.
        -13    1    4    4    0    0  0.54562005316E+02 -0.35064565058E+02 -0.34210216244E+01  0.64947975610E+02  0.00000000000E+00 0.  1.
         14    1    4    4    0    0 -0.25413670731E+02 -0.48217130446E+02 -0.10115774797E+02  0.55435324732E+02  0.00000000000E+00 0. -1.
        -13    1    3    3    0    0 -0.36985180439E+02 -0.13444833691E+02 -0.55306177570E+02  0.67878129044E+02  0.00000000000E+00 0.  1.
         13    1    3    3    0    0 -0.56646522071E+02  0.51649775904E+02 -0.41157937385E+03  0.41865750774E+03  0.00000000000E+00 0. -1.
         21    1    1    2  503  502 -0.12148094566E+02  0.30651815487E+02 -0.21709056479E+02  0.39476488286E+02  0.00000000000E+00 0. -1.
          1    1    1    2  501    0  0.76631462490E+02  0.14424937804E+02  0.14365967007E+03  0.16345813127E+03  0.00000000000E+00 0. -1.
<scales pt_clust_5="13000.00000" pt_clust_6="13000.00000" pt_clust_7="13000.00000" pt_clust_8="13000.00000" pt_clust_9="32.97135" pt_clust_10="77.86736"></scales>
<clustering>
<clus scale="   32.971">  2  9  1 -1</clus>
<clus scale="   77.867">  1 10  2 -1</clus>
<clus scale="   80.768">  5  6 -1 -1</clus>
<clus scale="   92.240">  7  8 -1 -1</clus>
<clus scale="  134.785">  1  5  2 -1</clus>
<clus scale="   77.867">  1  5  2 -1</clus>
</clustering>
</event>
<event>
10    4  0.3403565E-005  0.2074112E+03  0.7546771E-02  0.1144588E+00
          2   -1    0    0  502    0 -0.00000000000E+00  0.00000000000E+00  0.67825123977E+03  0.67825123977E+03  0.00000000000E+00 0. -1.
         21   -1    0    0  503  502  0.00000000000E+00 -0.00000000000E+00 -0.17414074138E+03  0.17414074138E+03  0.00000000000E+00 0. -1.
         23    2    1    2    0    0  0.87378420641E+02 -0.21256002736E+03  0.28678399188E+03  0.37878945243E+03  0.91758583498E+02 0.  0.
         24    2    1    2    0    0  0.10815047484E+03  0.15356866179E+03  0.12960624314E+03  0.24202052152E+03  0.80599599777E+02 0.  0.
        -13    1    4    4    0    0  0.11189745591E+03  0.11787044676E+03  0.12657335644E+03  0.20599829470E+03  0.00000000000E+00 0.  1.
         14    1    4    4    0    0 -0.37469810658E+01  0.35698215030E+02  0.30328866957E+01  0.36022226821E+02  0.00000000000E+00 0. -1.
        -13    1    3    3    0    0  0.56124227745E+02 -0.67341492214E+02  0.54989948192E+02  0.10348284841E+03  0.00000000000E+00 0.  1.
         13    1    3    3    0    0  0.31254192895E+02 -0.14521853515E+03  0.23179404369E+03  0.27530660401E+03  0.00000000000E+00 0. -1.
         21    1    1    2  503  501 -0.20742487372E+02  0.10103298213E+02 -0.10348297773E+02  0.25286650311E+02  0.00000000000E+00 0. -1.
          1    1    1    2  501    0 -0.17478640811E+03  0.48888067358E+02  0.98068561151E+02  0.20629535689E+03  0.00000000000E+00 0. -1.
<scales pt_clust_5="13000.00000" pt_clust_6="13000.00000" pt_clust_7="13000.00000" pt_clust_8="13000.00000" pt_clust_9="23.07222" pt_clust_10="189.35711"></scales>
<clustering>
<clus scale="   23.072">  2  9  1 -1</clus>
<clus scale="   80.600">  5  6 -1 -1</clus>
<clus scale="   91.759">  7  8 -1 -1</clus>
<clus scale="  189.357">  2 10  1 -1</clus>
<clus scale="  202.722">  2  5  1 -1</clus>
<clus scale="   23.072">  2  5  1 -1</clus>
</clustering>
</event>
<event>
10    4  0.3403565E-005  0.2068575E+03  0.7546771E-02  0.1184383E+00
         -3   -1    0    0    0  501 -0.00000000000E+00  0.00000000000E+00  0.12052272412E+03  0.12052272412E+03  0.00000000000E+00 0.  1.
         21   -1    0    0  503  502  0.00000000000E+00 -0.00000000000E+00 -0.15057908214E+04  0.15057908214E+04  0.00000000000E+00 0. -1.
         24    2    1    2    0    0 -0.41051335820E+01  0.27949160724E+01 -0.10793932473E+02  0.82149711357E+02  0.81285930027E+02 0.  0.
         23    2    1    2    0    0  0.18924847211E+03  0.36250995645E+02 -0.87512705938E+02  0.23089771275E+03  0.92337214437E+02 0.  0.
        -13    1    3    3    0    0 -0.31162893422E+01 -0.30587070395E+02 -0.30553750379E+02  0.43345262680E+02  0.00000000000E+00 0.  1.
         14    1    3    3    0    0 -0.98884423972E+00  0.33381986468E+02  0.19759817905E+02  0.38804448677E+02  0.00000000000E+00 0. -1.
        -13    1    4    4    0    0  0.27495238296E+02  0.41494285133E+02 -0.74266194604E+01  0.50328108491E+02  0.00000000000E+00 0. -1.
         13    1    4    4    0    0  0.16175323382E+03 -0.52432894877E+01 -0.80086086477E+02  0.18056960426E+03  0.00000000000E+00 0.  1.
         21    1    1    2  503  501 -0.15125122587E+03 -0.30947839276E+02 -0.12594274570E+04  0.12688546889E+04  0.00000000000E+00 0. -1.
         -4    1    1    2    0  502 -0.33892112662E+02 -0.80980724414E+01 -0.27534001829E+02  0.44411432477E+02  0.00000000000E+00 0.  1.
<scales pt_clust_5="13000.00000" pt_clust_6="13000.00000" pt_clust_7="13000.00000" pt_clust_8="13000.00000" pt_clust_9="185.10501" pt_clust_10="34.84617"></scales>
<clustering>
<clus scale="   34.846">  2 10  1 -1</clus>
<clus scale="   81.286">  5  6 -1 -1</clus>
<clus scale="   81.490">  1  5  2 -1</clus>
<clus scale="   92.337">  7  8 -1 -1</clus>
<clus scale="  185.105">  2  9  1 -1</clus>
<clus scale="   34.846">  2  5  1 -1</clus>
</clustering>
</event>
<event>
10    4  0.3403565E-005  0.2221635E+03  0.7546771E-02  0.1133281E+00
         21   -1    0    0  503  502  0.00000000000E+00  0.00000000000E+00  0.14331707513E+03  0.14331707513E+03  0.00000000000E+00 0. -1.
          2   -1    0    0  502    0 -0.00000000000E+00 -0.00000000000E+00 -0.12492425762E+04  0.12492425762E+04  0.00000000000E+00 0. -1.
         23    2    1    2    0    0 -0.20864731596E+03  0.13625463512E+03 -0.38589349824E+03  0.46856118945E+03  0.92394633067E+02 0.  0.
         24    2    1    2    0    0  0.16722131911E+03 -0.93919571415E+01 -0.16002209849E+03  0.24462246459E+03  0.78625058045E+02 0.  0.
        -13    1    4    4    0    0  0.83738821643E+02  0.34130196270E+02 -0.69896859550E+02  0.11429186989E+03  0.00000000000E+00 0.  1.
         14    1    4    4    0    0  0.83482497464E+02 -0.43522153412E+02 -0.90125238941E+02  0.13033059470E+03  0.00000000000E+00 0. -1.
        -13    1    3    3    0    0 -0.17675328847E+03  0.10584154060E+03 -0.24071161550E+03  0.31683787422E+03  0.00000000000E+00 0. -1.
         13    1    3    3    0    0 -0.31894027491E+02  0.30413094524E+02 -0.14518188274E+03  0.15172331523E+03  0.00000000000E+00 0.  1.
         21    1    1    2  503  501 -0.91220100923E+01 -0.70756632040E+02  0.35089136823E+02  0.79504462571E+02  0.00000000000E+00 0. -1.
          1    1    1    2  501    0  0.50548006945E+02 -0.56106045938E+02 -0.59509904112E+03  0.59987153470E+03  0.00000000000E+00 0. -1.
<scales pt_clust_5="13000.00000" pt_clust_6="13000.00000" pt_clust_7="13000.00000" pt_clust_8="13000.00000" pt_clust_9="71.34222" pt_clust_10="76.82176"></scales>
<clustering>
<clus scale="   71.342">  1  9  2 -1</clus>
<clus scale="   76.822">  1 10  2 -1</clus>
<clus scale="   78.625">  5  6 -1 -1</clus>
<clus scale="   92.395">  7  8 -1 -1</clus>
<clus scale="  216.799">  1  5  2 -1</clus>
<clus scale="   71.342">  1  5  2 -1</clus>
</clustering>
</event>
<event>
10    4  0.4840595E-005  0.1302300E+03  0.7546771E-02  0.1242783E+00
          2   -1    0    0  503    0 -0.00000000000E+00  0.00000000000E+00  0.68596146855E+03  0.68596146855E+03  0.00000000000E+00 0. -1.
         21   -1    0    0  501  502  0.00000000000E+00 -0.00000000000E+00 -0.78425969273E+03  0.78425969273E+03  0.00000000000E+00 0.  1.
         24    2    1    2    0    0  0.15260377261E+02 -0.48205838520E+02  0.47495584638E+03  0.48426254183E+03  0.79815233067E+02 0.  0.
         23    2    1    2    0    0  0.13278016043E+02 -0.54127558695E+02  0.13443008502E+03  0.17140448476E+03  0.90564625082E+02 0.  0.
        -13    1    3    3    0    0  0.39401152771E+01 -0.40740860590E+02  0.87828906845E+02  0.96898189393E+02  0.00000000000E+00 0.  1.
         14    1    3    3    0    0  0.11320261983E+02 -0.74649779297E+01  0.38712693954E+03  0.38736435244E+03  0.00000000000E+00 0. -1.
        -13    1    4    4    0    0  0.45070092436E+02 -0.35708450537E+01  0.71924720488E+02  0.84954279374E+02  0.00000000000E+00 0.  1.
         13    1    4    4    0    0 -0.31792076393E+02 -0.50556713641E+02  0.62505364532E+02  0.86450205384E+02  0.00000000000E+00 0. -1.
         21    1    1    2  503  502 -0.69894785567E+02  0.88375306605E+02 -0.74721686099E+03  0.75566428605E+03  0.00000000000E+00 0.  1.
          1    1    1    2  501    0  0.41356392264E+02  0.13958090610E+02  0.39532705412E+02  0.58889848631E+02  0.00000000000E+00 0. -1.
<scales pt_clust_5="13000.00000" pt_clust_6="13000.00000" pt_clust_7="13000.00000" pt_clust_8="13000.00000" pt_clust_9="93.58365" pt_clust_10="43.64838"></scales>
<clustering>
<clus scale="   43.648">  2 10  1 -1</clus>
<clus scale="   79.815">  5  6 -1 -1</clus>
<clus scale="   90.565">  7  8 -1 -1</clus>
<clus scale="   94.481">  1  5  2 -1</clus>
<clus scale="   93.584">  2  9  1 -1</clus>
<clus scale="   43.648">  2  5  1 -1</clus>
</clustering>
</event>
<event>
10    4  0.3403565E-005  0.2792930E+03  0.7546771E-02  0.1125130E+00
         21   -1    0    0  501  502  0.00000000000E+00  0.00000000000E+00  0.40178873367E+02  0.40178873367E+02  0.00000000000E+00 0. -1.
          2   -1    0    0  503    0 -0.00000000000E+00 -0.00000000000E+00 -0.39735074159E+04  0.39735074159E+04  0.00000000000E+00 0. -1.
         24    2    1    2    0    0  0.95727130153E+02 -0.27689743078E+02 -0.11247673867E+04  0.11320466644E+04  0.80607511275E+02 0.  0.
         23    2    1    2    0    0  0.97089225423E+02  0.18233082452E+03 -0.12708767845E+04  0.12905468525E+04  0.87821009988E+02 0.  0.
        -11    1    3    3    0    0  0.99575938531E+01 -0.25616415175E+02 -0.10043218112E+03  0.10412481648E+03  0.00000000000E+00 0.  1.
         12    1    3    3    0    0  0.85769536300E+02 -0.20733279021E+01 -0.10243352056E+04  0.10279218479E+04  0.00000000000E+00 0. -1.
        -11    1    4    4    0    0  0.57421495837E+02  0.26006896378E+02 -0.37854870504E+03  0.38376126555E+03  0.00000000000E+00 0.  1.
         11    1    4    4    0    0  0.39667729586E+02  0.15632392814E+03 -0.89232807949E+03  0.90678558696E+03  0.00000000000E+00 0. -1.
         21    1    1    2  503  502  0.32654528784E+02  0.74560141220E+02 -0.43245825757E+03  0.44005190313E+03  0.00000000000E+00 0.  1.
          1    1    1    2  501    0 -0.22547088436E+03 -0.22920122266E+03 -0.11052261138E+04  0.11510408693E+04  0.00000000000E+00 0. -1.
<scales pt_clust_5="13000.00000" pt_clust_6="13000.00000" pt_clust_7="13000.00000" pt_clust_8="13000.00000" pt_clust_9="81.39738" pt_clust_10="265.12643"></scales>
<clustering>
<clus scale="   80.608">  5  6 -1 -1</clus>
<clus scale="   81.397">  2  9  1 -1</clus>
<clus scale="   87.821">  7  8 -1 -1</clus>
<clus scale="  133.339">  2  5  1 -1</clus>
<clus scale="  265.126">  1 10  2 -1</clus>
<clus scale="  265.126">  1  5  2 -1</clus>
</clustering>
</event>
<event>
10    4  0.3403565E-005  0.5063656E+03  0.7546771E-02  0.1012235E+00
         21   -1    0    0  503  502  0.00000000000E+00  0.00000000000E+00  0.55342539604E+03  0.55342539604E+03  0.00000000000E+00 0. -1.
         -1   -1    0    0    0  501 -0.00000000000E+00 -0.00000000000E+00 -0.68747414216E+03  0.68747414216E+03  0.00000000000E+00 0.  1.
         23    2    1    2    0    0  0.24116992334E+03 -0.46926444414E+03 -0.12108747490E+03  0.54867489311E+03  0.89498107765E+02 0.  0.
         24    2    1    2    0    0 -0.21754097784E+03  0.40848656452E+03  0.49118823658E+02  0.47220177671E+03  0.79853044142E+02 0.  0.
        -13    1    4    4    0    0 -0.94356991827E+00  0.39434464099E+02  0.17390238779E+02  0.43109020956E+02  0.00000000000E+00 0.  1.
         14    1    4    4    0    0 -0.21659740792E+03  0.36905210042E+03  0.31728584879E+02  0.42909275576E+03  0.00000000000E+00 0. -1.
        -11    1    3    3    0    0  0.19636548453E+03 -0.40169036036E+03 -0.69268852808E+02  0.45245190141E+03  0.00000000000E+00 0. -1.
         11    1    3    3    0    0  0.44804438814E+02 -0.67574083779E+02 -0.51818622094E+02  0.96222991701E+02  0.00000000000E+00 0.  1.
         21    1    1    2  503  501  0.56953695448E+00  0.36944737834E+02  0.72419660320E+02  0.81300954649E+02  0.00000000000E+00 0. -1.
         -2    1    1    2    0  502 -0.24198482457E+02  0.23833141787E+02 -0.13449975520E+03  0.13872191373E+03  0.00000000000E+00 0.  1.
<scales pt_clust_5="13000.00000" pt_clust_6="13000.00000" pt_clust_7="13000.00000" pt_clust_8="13000.00000" pt_clust_9="40.36490" pt_clust_10="33.96449"></scales>
<clustering>
<clus scale="   33.964">  1 10  2 -1</clus>
<clus scale="   40.365">  1  9  2 -1</clus>
<clus scale="   79.853">  5  6 -1 -1</clus>
<clus scale="   89.498">  7  8 -1 -1</clus>
<clus scale="  504.750">  1  5  2 -1</clus>
<clus scale="   33.964">  1  5  2 -1</clus>
</clustering>
</event>
<event>
10    4  0.3403565E-005  0.2832928E+03  0.7546771E-02  0.1122691E+00
         -3   -1    0    0    0  501 -0.00000000000E+00  0.00000000000E+00  0.40510973880E+03  0.40510973880E+03  0.00000000000E+00 0.  1.
         21   -1    0    0  503  502  0.00000000000E+00 -0.00000000000E+00 -0.37943675418E+03  0.37943675418E+03  0.00000000000E+00 0.  1.
         23    2    1    2    0    0 -0.41471183486E+02  0.92800476896E+02 -0.11703426899E+02  0.13621595294E+03  0.89922344619E+02 0.  0.
         24    2    1    2    0    0 -0.24226785281E+03 -0.15427392945E+03 -0.79090175652E+02  0.30848572144E+03  0.80087618472E+02 0.  0.
        -11    1    4    4    0    0 -0.16328683455E+03 -0.14310525341E+03 -0.70386949314E+02  0.22824553999E+03  0.00000000000E+00 0.  1.
         12    1    4    4    0    0 -0.78981018263E+02 -0.11168676037E+02 -0.87032263379E+01  0.80240181449E+02  0.00000000000E+00 0. -1.
        -11    1    3    3    0    0 -0.69406300441E+02  0.67677651244E+02 -0.25827683654E+00  0.96941042525E+02  0.00000000000E+00 0.  1.
         11    1    3    3    0    0  0.27935116955E+02  0.25122825652E+02 -0.11445150062E+02  0.39274910413E+02  0.00000000000E+00 0. -1.
         21    1    1    2  503  501  0.18524458198E+02  0.80603621636E+01 -0.26919194950E+02  0.33656619653E+02  0.00000000000E+00 0. -1.
         -4    1    1    2    0  502  0.26521457810E+03  0.53413090388E+02  0.14338578212E+03  0.30618819895E+03  0.00000000000E+00 0.  1.
<scales pt_clust_5="13000.00000" pt_clust_6="13000.00000" pt_clust_7="13000.00000" pt_clust_8="13000.00000" pt_clust_9="20.20210" pt_clust_10="271.73674"></scales>
<clustering>
<clus scale="   20.202">  2  9  1 -1</clus>
<clus scale="   80.088">  5  6 -1 -1</clus>
<clus scale="   89.922">  7  8 -1 -1</clus>
<clus scale="  135.748">  1  7  2 -1</clus>
<clus scale="  271.737">  2 10  1 -1</clus>
<clus scale="   20.202">  2  5  1 -1</clus>
</clustering>
</event>
<event>
10    4  0.3403565E-005  0.2149136E+03  0.7546771E-02  0.1138576E+00
          2   -1    0    0  503    0 -0.00000000000E+00  0.00000000000E+00  0.12692409762E+04  0.12692409762E+04  0.00000000000E+00 0. -1.
         21   -1    0    0  501  502  0.00000000000E+00 -0.00000000000E+00 -0.70047824193E+02  0.70047824193E+02  0.00000000000E+00 0.  1.
         24    2    1    2    0    0 -0.38396693896E+02  0.18820713832E+03  0.86082517499E+03  0.88560715598E+03  0.79898809756E+02 0.  0.
         23    2    1    2    0    0  0.48531943024E+02 -0.19652755041E+03  0.32998989995E+03  0.39762096655E+03  0.90723047831E+02 0.  0.
        -13    1    3    3    0    0 -0.22762940097E+02  0.70547886379E+02  0.18258430708E+03  0.19705883615E+03  0.00000000000E+00 0.  1.
         14    1    3    3    0    0 -0.15633753799E+02  0.11765925194E+03  0.67824086791E+03  0.68854831982E+03  0.00000000000E+00 0. -1.
        -11    1    4    4    0    0  0.66433199568E+02 -0.17360660898E+03  0.24329671545E+03  0.30617954934E+03  0.00000000000E+00 0. -1.
         11    1    4    4    0    0 -0.17901256545E+02 -0.22920941424E+02  0.86693184505E+02  0.91441417210E+02  0.00000000000E+00 0.  1.
         21    1    1    2  503  502 -0.13324474086E+02 -0.20546726479E+02 -0.33934638959E+01  0.24722968590E+02  0.00000000000E+00 0.  1.
          1    1    1    2  501    0  0.31892249585E+01  0.28867138567E+02  0.11771540930E+02  0.31337709245E+02  0.00000000000E+00 0. -1.
<scales pt_clust_5="13000.00000" pt_clust_6="13000.00000" pt_clust_7="13000.00000" pt_clust_8="13000.00000" pt_clust_9="24.48897" pt_clust_10="25.29166"></scales>
<clustering>
<clus scale="   24.489">  2  9  1 -1</clus>
<clus scale="   25.292">  2 10  1 -1</clus>
<clus scale="   79.899">  5  6 -1 -1</clus>
<clus scale="   90.723">  7  8 -1 -1</clus>
<clus scale="  210.573">  1  5  2 -1</clus>
<clus scale="   24.489">  2  5  1 -1</clus>
</clustering>
</event>
<event>
10    4  0.3403565E-005  0.4061769E+03  0.7546771E-02  0.1079088E+00
          2   -1    0    0  503    0 -0.00000000000E+00  0.00000000000E+00  0.19519320084E+04  0.19519320084E+04  0.00000000000E+00 0. -1.
         21   -1    0    0  501  502  0.00000000000E+00 -0.00000000000E+00 -0.25581287986E+03  0.25581287986E+03  0.00000000000E+00 0.  1.
         23    2    1    2    0    0 -0.99778406548E+02  0.56659226908E+02  0.54962873192E+02  0.15279602279E+03  0.84615062157E+02 0.  0.
         24    2    1    2    0    0  0.45294010512E+03 -0.10171940347E+03  0.81691284593E+03  0.94522955726E+03  0.10300845693E+03 0.  0.
        -11    1    4    4    0    0  0.36000945598E+03 -0.12036920960E+03  0.62645153300E+03  0.73248691334E+03  0.00000000000E+00 0.  1.
         12    1    4    4    0    0  0.92930649138E+02  0.18649806133E+02  0.19046131293E+03  0.21274264392E+03  0.00000000000E+00 0. -1.
        -11    1    3    3    0    0 -0.87806773783E+02  0.17556244113E+02  0.65046605184E+02  0.11067661034E+03  0.00000000000E+00 0. -1.
         11    1    3    3    0    0 -0.11971632765E+02  0.39102982796E+02 -0.10083731992E+02  0.42119412454E+02  0.00000000000E+00 0.  1.
         21    1    1    2  503  502 -0.33375620656E+03 -0.26881060595E+03  0.47165473920E+03  0.63726802862E+03  0.00000000000E+00 0. -1.
          1    1    1    2  501    0 -0.19405492009E+02  0.31387078251E+03  0.35258867025E+03  0.47245127963E+03  0.00000000000E+00 0. -1.
<scales pt_clust_5="13000.00000" pt_clust_6="13000.00000" pt_clust_7="13000.00000" pt_clust_8="13000.00000" pt_clust_9="392.89815" pt_clust_10="329.16739"></scales>
<clustering>
<clus scale="   84.615">  7  8 -1 -1</clus>
<clus scale="  103.008">  5  6 -1 -1</clus>
<clus scale="  142.568">  1  7  2 -1</clus>
<clus scale="  329.167">  2 10  1 -1</clus>
<clus scale="  392.898">  2  9  1 -1</clus>
<clus scale="  329.167">  2  5  1 -1</clus>
</clustering>
</event>
<event>
10    4  0.3403565E-005  0.1673406E+03  0.7546771E-02  0.1181803E+00
         21   -1    0    0  501  502  0.00000000000E+00  0.00000000000E+00  0.16451729026E+03  0.16451729026E+03  0.00000000000E+00 0. -1.
          2   -1    0    0  503    0 -0.00000000000E+00 -0.00000000000E+00 -0.41277842829E+03  0.41277842829E+03  0.00000000000E+00 0. -1.
         23    2    1    2    0    0 -0.13320825565E+03 -0.66362803389E+01 -0.26674797796E+03  0.31135391199E+03  0.89433188354E+02 0.  0.
         24    2    1    2    0    0  0.16989316705E+03 -0.74158327258E+01 -0.36670637016E+02  0.19196406683E+03  0.81159007817E+02 0.  0.
        -11    1    4    4    0    0  0.14035312433E+03  0.27009489543E+02 -0.24674006835E+02  0.14504247188E+03  0.00000000000E+00 0.  1.
         12    1    4    4    0    0  0.29540042712E+02 -0.34425322269E+02 -0.11996630181E+02  0.46921594947E+02  0.00000000000E+00 0. -1.
        -11    1    3    3    0    0 -0.49173411375E+02  0.28350015539E+02 -0.47688160534E+02  0.74134394328E+02  0.00000000000E+00 0. -1.
         11    1    3    3    0    0 -0.84034844273E+02 -0.34986295877E+02 -0.21905981743E+03  0.23721951767E+03  0.00000000000E+00 0.  1.
         21    1    1    2  503  502 -0.24431040239E+02 -0.65803102783E+01  0.28317408914E+02  0.37974357902E+02  0.00000000000E+00 0. -1.
          1    1    1    2  501    0 -0.12253871160E+02  0.20632423343E+02  0.26840068031E+02  0.36003381832E+02  0.00000000000E+00 0. -1.
<scales pt_clust_5="13000.00000" pt_clust_6="13000.00000" pt_clust_7="13000.00000" pt_clust_8="13000.00000" pt_clust_9="27.52053" pt_clust_10="23.99696"></scales>
<clustering>
<clus scale="   23.997">  1 10  2 -1</clus>
<clus scale="   27.521">  1  9  2 -1</clus>
<clus scale="   81.159">  5  6 -1 -1</clus>
<clus scale="   89.433">  7  8 -1 -1</clus>
<clus scale="  163.069">  1  5  2 -1</clus>
<clus scale="   23.997">  1  5  2 -1</clus>
</clustering>
</event>
<event>
10    4  0.3403565E-005  0.2316802E+03  0.7546771E-02  0.1145123E+00
         21   -1    0    0  501  502  0.00000000000E+00  0.00000000000E+00  0.92562130150E+02  0.92562130150E+02  0.00000000000E+00 0.  1.
         -1   -1    0    0    0  501 -0.00000000000E+00 -0.00000000000E+00 -0.12999660175E+04  0.12999660175E+04  0.00000000000E+00 0.  1.
         24    2    1    2    0    0  0.25328874142E+02  0.11655913503E+03 -0.26781535758E+03  0.30428384682E+03  0.81461707925E+02 0.  0.
         23    2    1    2    0    0 -0.71026498497E+02 -0.25883820644E+03 -0.45043761232E+03  0.53252135964E+03  0.92967603398E+02 0.  0.
        -11    1    3    3    0    0 -0.15322766858E+02  0.94190066427E+02 -0.20564257022E+03  0.22670558547E+03  0.00000000000E+00 0.  1.
         12    1    3    3    0    0  0.40651641001E+02  0.22369068601E+02 -0.62172787359E+02  0.77578261350E+02  0.00000000000E+00 0. -1.
        -11    1    4    4    0    0 -0.23082367095E+02 -0.21447968799E+03 -0.37602947917E+03  0.43351182387E+03  0.00000000000E+00 0.  1.
         11    1    4    4    0    0 -0.47944131403E+02 -0.44358518442E+02 -0.74408133157E+02  0.99009535774E+02  0.00000000000E+00 0. -1.
         21    1    1    2  503  502  0.22071564737E+02 -0.94443274200E+01  0.15267392586E+02  0.28450704152E+02  0.00000000000E+00 0. -1.
         -2    1    1    2    0  503  0.23626059618E+02  0.15172339883E+03 -0.50441831003E+03  0.52727223703E+03  0.00000000000E+00 0.  1.
<scales pt_clust_5="13000.00000" pt_clust_6="13000.00000" pt_clust_7="13000.00000" pt_clust_8="13000.00000" pt_clust_9="24.00728" pt_clust_10="212.20930"></scales>
<clustering>
<clus scale="   24.007">  1  9  2 -1</clus>
<clus scale="   81.462">  5  6 -1 -1</clus>
<clus scale="   92.968">  7  8 -1 -1</clus>
<clus scale="  143.605">  2  5  1 -1</clus>
<clus scale="  212.209">  1 10  2 -1</clus>
<clus scale="   24.007">  1  5  2 -1</clus>
</clustering>
</event>
<event>
10    4  0.3403565E-005  0.2616439E+03  0.7546771E-02  0.1139421E+00
          2   -1    0    0  502    0 -0.00000000000E+00  0.00000000000E+00  0.82992179780E+03  0.82992179780E+03  0.00000000000E+00 0. -1.
         21   -1    0    0  503  502  0.00000000000E+00 -0.00000000000E+00 -0.21525365855E+03  0.21525365855E+03  0.00000000000E+00 0. -1.
         23    2    1    2    0    0 -0.70509757670E+02 -0.50491324191E+02 -0.75237142341E+00  0.12408874577E+03  0.88749371941E+02 0.  0.
         24    2    1    2    0    0 -0.75805806012E+02 -0.21757830536E+03  0.23383588430E+03  0.33807812024E+03  0.80813089367E+02 0.  0.
        -11    1    4    4    0    0 -0.34037145379E+02 -0.35150806088E+02  0.17354175655E+02  0.51916026878E+02  0.00000000000E+00 0.  1.
         12    1    4    4    0    0 -0.41768660633E+02 -0.18242749927E+03  0.21648170865E+03  0.28616209337E+03  0.00000000000E+00 0. -1.
        -13    1    3    3    0    0 -0.90111171438E+02 -0.45026069523E+02 -0.10949838612E+02  0.10132753387E+03  0.00000000000E+00 0. -1.
         13    1    3    3    0    0  0.19601413768E+02 -0.54652546684E+01  0.10197467189E+02  0.22761211904E+02  0.00000000000E+00 0.  1.
         21    1    1    2  503  501  0.48537667525E+02 -0.37730878392E+00 -0.47236710498E+02  0.67730010700E+02  0.00000000000E+00 0.  1.
          1    1    1    2  501    0  0.97777896157E+02  0.26844693833E+03  0.42882133687E+03  0.51527857964E+03  0.00000000000E+00 0. -1.
<scales pt_clust_5="13000.00000" pt_clust_6="13000.00000" pt_clust_7="13000.00000" pt_clust_8="13000.00000" pt_clust_9="48.53913" pt_clust_10="248.85106"></scales>
<clustering>
<clus scale="   48.539">  2  9  1 -1</clus>
<clus scale="   80.813">  5  6 -1 -1</clus>
<clus scale="   88.749">  7  8 -1 -1</clus>
<clus scale="  114.338">  1  7  2 -1</clus>
<clus scale="  248.851">  2 10  1 -1</clus>
<clus scale="   48.539">  2  5  1 -1</clus>
</clustering>
</event>
<event>
10    4  0.3403565E-005  0.1316741E+03  0.7546771E-02  0.1227475E+00
         21   -1    0    0  501  502  0.00000000000E+00  0.00000000000E+00  0.40259289011E+03  0.40259289011E+03  0.00000000000E+00 0. -1.
         -3   -1    0    0    0  501 -0.00000000000E+00 -0.00000000000E+00 -0.18717681196E+03  0.18717681196E+03  0.00000000000E+00 0.  1.
         24    2    1    2    0    0 -0.12609704351E+02  0.81222012750E+02 -0.79794541306E+02  0.14043001263E+03  0.81224378268E+02 0.  0.
         23    2    1    2    0    0 -0.44406452101E+02 -0.16405485251E+03  0.90159993418E+02  0.21286585001E+03  0.91088517751E+02 0.  0.
        -11    1    3    3    0    0 -0.41626973089E+02  0.38453133282E+02 -0.65892391611E+02  0.86909467953E+02  0.00000000000E+00 0.  1.
         12    1    3    3    0    0  0.29017268738E+02  0.42768879468E+02 -0.13902149695E+02  0.53520544673E+02  0.00000000000E+00 0. -1.
        -11    1    4    4    0    0 -0.67398033276E+02 -0.14699834745E+03  0.63457020112E+02  0.17371759394E+03  0.00000000000E+00 0. -1.
         11    1    4    4    0    0  0.22991581175E+02 -0.17056505060E+02  0.26702973306E+02  0.39148256069E+02  0.00000000000E+00 0.  1.
         21    1    1    2  503  502  0.16564761760E+02  0.14889708444E+02  0.11277184076E+03  0.11495034936E+03  0.00000000000E+00 0.  1.
         -4    1    1    2    0  503  0.40451394692E+02  0.67943131320E+02  0.92278785289E+02  0.12152349008E+03  0.00000000000E+00 0.  1.
<scales pt_clust_5="13000.00000" pt_clust_6="13000.00000" pt_clust_7="13000.00000" pt_clust_8="13000.00000" pt_clust_9="22.27318" pt_clust_10="86.98208"></scales>
<clustering>
<clus scale="   22.273">  1  9  2 -1</clus>
<clus scale="   81.224">  5  6 -1 -1</clus>
<clus scale="   86.982">  1 10  2 -1</clus>
<clus scale="   91.089">  7  8 -1 -1</clus>
<clus scale="  125.053">  2  5  1 -1</clus>
<clus scale="   22.273">  1  5  2 -1</clus>
</clustering>
</event>
<event>
10    4  0.3403565E-005  0.2923030E+03  0.7546771E-02  0.1126352E+00
         21   -1    0    0  501  502  0.00000000000E+00  0.00000000000E+00  0.28430751772E+03  0.28430751772E+03  0.00000000000E+00 0. -1.
          2   -1    0    0  503    0 -0.00000000000E+00 -0.00000000000E+00 -0.57757539470E+03  0.57757539470E+03  0.00000000000E+00 0. -1.
         23    2    1    2    0    0 -0.67709445341E+02 -0.38583369996E+01  0.39603290137E+02  0.11999478014E+03  0.90724147377E+02 0.  0.
         24    2    1    2    0    0 -0.20699636955E+03 -0.12716839367E+03 -0.33494553247E+03  0.42181527046E+03  0.81977529365E+02 0.  0.
        -11    1    4    4    0    0 -0.21555118266E+02 -0.38313309467E+02 -0.10214630087E+03  0.11120431460E+03  0.00000000000E+00 0.  1.
         12    1    4    4    0    0 -0.18544125128E+03 -0.88855084204E+02 -0.23279923160E+03  0.31061095586E+03  0.00000000000E+00 0. -1.
        -13    1    3    3    0    0  0.34726157686E+01 -0.26000512434E+02  0.37061237509E+02  0.45405077170E+02  0.00000000000E+00 0. -1.
         13    1    3    3    0    0 -0.71182061110E+02  0.22142175435E+02  0.25420526276E+01  0.74589702965E+02  0.00000000000E+00 0.  1.
         21    1    1    2  503  502  0.23210969053E+01  0.25072464039E+02  0.11439203868E+02  0.27656307219E+02  0.00000000000E+00 0. -1.
          1    1    1    2  501    0  0.27238471798E+03  0.10595426663E+03 -0.93648385116E+01  0.29241655461E+03  0.00000000000E+00 0. -1.
<scales pt_clust_5="13000.00000" pt_clust_6="13000.00000" pt_clust_7="13000.00000" pt_clust_8="13000.00000" pt_clust_9="25.17967" pt_clust_10="280.57218"></scales>
<clustering>
<clus scale="   25.180">  1  9  2 -1</clus>
<clus scale="   81.978">  5  6 -1 -1</clus>
<clus scale="   90.724">  7  8 -1 -1</clus>
<clus scale="  112.849">  2  7  1 -1</clus>
<clus scale="  280.572">  1 10  2 -1</clus>
<clus scale="   25.180">  1  5  2 -1</clus>
</clustering>
</event>
<event>
10    4  0.3403565E-005  0.1560506E+03  0.7546771E-02  0.1197594E+00
          2   -1    0    0  503    0 -0.00000000000E+00  0.00000000000E+00  0.17945443915E+04  0.17945443915E+04  0.00000000000E+00 0. -1.
         21   -1    0    0  501  502  0.00000000000E+00 -0.00000000000E+00 -0.67988685662E+02  0.67988685662E+02  0.00000000000E+00 0. -1.
         24    2    1    2    0    0 -0.74279800094E+02  0.97919838278E+02  0.51410692039E+03  0.53396199629E+03  0.75522873732E+02 0.  0.
         23    2    1    2    0    0 -0.95944696447E+02  0.26401676753E+02  0.10919790249E+03  0.17290459895E+03  0.89829756308E+02 0.  0.
        -13    1    3    3    0    0  0.79175623259E+01  0.19092492954E+02  0.28663796811E+02  0.35338708635E+02  0.00000000000E+00 0.  1.
         14    1    3    3    0    0 -0.82197362420E+02  0.78827345324E+02  0.48544312358E+03  0.49862328765E+03  0.00000000000E+00 0. -1.
        -13    1    4    4    0    0 -0.38475825158E+02  0.48916168349E+02  0.87716172606E+02  0.10755141833E+03  0.00000000000E+00 0.  1.
         13    1    4    4    0    0 -0.57468871289E+02 -0.22514491595E+02  0.21481729889E+02  0.65353180626E+02  0.00000000000E+00 0. -1.
         21    1    1    2  503  502 -0.29641695294E+02 -0.43920332996E+02  0.29760416254E+02  0.60772593543E+02  0.00000000000E+00 0.  1.
          1    1    1    2  501    0  0.19986619184E+03 -0.80401182036E+02  0.10734904667E+04  0.10948938884E+04  0.00000000000E+00 0. -1.
<scales pt_clust_5="13000.00000" pt_clust_6="13000.00000" pt_clust_7="13000.00000" pt_clust_8="13000.00000" pt_clust_9="52.98703" pt_clust_10="127.60265"></scales>
<clustering>
<clus scale="   52.987">  2  9  1 -1</clus>
<clus scale="   75.523">  5  6 -1 -1</clus>
<clus scale="   89.830">  7  8 -1 -1</clus>
<clus scale="  141.831">  1  5  2 -1</clus>
<clus scale="  127.603">  2 10  1 -1</clus>
<clus scale="   52.987">  2  5  1 -1</clus>
</clustering>
</event>
<event>
10    4  0.3403565E-005  0.1735082E+03  0.7546771E-02  0.1175837E+00
         21   -1    0    0  503  502  0.00000000000E+00  0.00000000000E+00  0.10570101305E+03  0.10570101305E+03  0.00000000000E+00 0. -1.
         -3   -1    0    0    0  501 -0.00000000000E+00 -0.00000000000E+00 -0.86957261426E+03  0.86957261426E+03  0.00000000000E+00 0.  1.
         23    2    1    2    0    0  0.52674309029E+02 -0.14185808615E+03 -0.52523417741E+03  0.55415575964E+03  0.91210555228E+02 0.  0.
         24    2    1    2    0    0 -0.11408259650E+03  0.10027612818E+03 -0.18867641722E+03  0.25472057721E+03  0.78826653680E+02 0.  0.
        -13    1    4    4    0    0 -0.51763706665E+02  0.31052050303E+01 -0.35193028112E+02  0.62671148496E+02  0.00000000000E+00 0.  1.
         14    1    4    4    0    0 -0.62318889835E+02  0.97170923153E+02 -0.15348338911E+03  0.19204942872E+03  0.00000000000E+00 0. -1.
        -13    1    3    3    0    0  0.24119732153E+02 -0.40681250780E+02 -0.56046613073E+02  0.73334497211E+02  0.00000000000E+00 0.  1.
         13    1    3    3    0    0  0.28554576875E+02 -0.10117683537E+03 -0.46918756434E+03  0.48082126243E+03  0.00000000000E+00 0. -1.
         21    1    1    2  503  501  0.20090357853E+02  0.16187617796E+02  0.49456264534E+02  0.55781569987E+02  0.00000000000E+00 0. -1.
         -4    1    1    2    0  502  0.41317929619E+02  0.25394340173E+02 -0.99417271106E+02  0.11061572047E+03  0.00000000000E+00 0.  1.
<scales pt_clust_5="13000.00000" pt_clust_6="13000.00000" pt_clust_7="13000.00000" pt_clust_8="13000.00000" pt_clust_9="25.80042" pt_clust_10="51.19859"></scales>
<clustering>
<clus scale="   25.800">  1  9  2 -1</clus>
<clus scale="   51.199">  1 10  2 -1</clus>
<clus scale="   78.827">  5  6 -1 -1</clus>
<clus scale="   91.211">  7  8 -1 -1</clus>
<clus scale="  167.330">  1  5  2 -1</clus>
<clus scale="   25.800">  1  5  2 -1</clus>
</clustering>
</event>
<event>
10    4  0.3403565E-005  0.3228668E+03  0.7546771E-02  0.1114403E+00
         21   -1    0    0  503  502  0.00000000000E+00  0.00000000000E+00  0.29133786797E+03  0.29133786797E+03  0.00000000000E+00 0.  1.
          2   -1    0    0  502    0 -0.00000000000E+00 -0.00000000000E+00 -0.62236313688E+03  0.62236313688E+03  0.00000000000E+00 0. -1.
         24    2    1    2    0    0  0.74784163553E+02 -0.26069211433E+02 -0.39239110695E+01  0.11434176804E+03  0.82379414518E+02 0.  0.
         23    2    1    2    0    0  0.28618156902E+02  0.32813552144E+03 -0.15208648636E+03  0.37443719460E+03  0.92633654943E+02 0.  0.
        -13    1    3    3    0    0  0.83309335525E+02 -0.32747873794E+02  0.16689032699E+02  0.91057083393E+02  0.00000000000E+00 0.  1.
         14    1    3    3    0    0 -0.85251719716E+01  0.66786623617E+01 -0.20612943768E+02  0.23284684642E+02  0.00000000000E+00 0. -1.
        -11    1    4    4    0    0 -0.29209980365E+02  0.65685728538E+02 -0.18040205567E+02  0.74116711364E+02  0.00000000000E+00 0. -1.
         11    1    4    4    0    0  0.57828137268E+02  0.26244979290E+03 -0.13404628079E+03  0.30032048323E+03  0.00000000000E+00 0.  1.
         21    1    1    2  503  501 -0.17465598986E+02 -0.20565823480E+02  0.48395745164E+02  0.55408919799E+02  0.00000000000E+00 0.  1.
          1    1    1    2  501    0 -0.85936721469E+02 -0.28150048653E+03 -0.22341061664E+03  0.36951312242E+03  0.00000000000E+00 0. -1.
<scales pt_clust_5="13000.00000" pt_clust_6="13000.00000" pt_clust_7="13000.00000" pt_clust_8="13000.00000" pt_clust_9="26.98148" pt_clust_10="309.29285"></scales>
<clustering>
<clus scale="   26.981">  1  9  2 -1</clus>
<clus scale="   82.379">  5  6 -1 -1</clus>
<clus scale="   92.634">  7  8 -1 -1</clus>
<clus scale="  112.882">  2  5  1 -1</clus>
<clus scale="  309.293">  1 10  2 -1</clus>
<clus scale="   26.981">  1  5  2 -1</clus>
</clustering>
</event>
<event>
10    4  0.3403565E-005  0.2095980E+03  0.7546771E-02  0.1171229E+00
          2   -1    0    0  503    0 -0.00000000000E+00  0.00000000000E+00  0.97441646209E+03  0.97441646209E+03  0.00000000000E+00 0. -1.
         21   -1    0    0  501  502  0.00000000000E+00 -0.00000000000E+00 -0.28591517424E+03  0.28591517424E+03  0.00000000000E+00 0.  1.
         24    2    1    2    0    0  0.68027547449E+02  0.24159699459E+02  0.42518772852E+03  0.43794703065E+03  0.76167964930E+02 0.  0.
         23    2    1    2    0    0 -0.20344408156E+03 -0.87078633755E+02  0.92397019064E+02  0.25363693396E+03  0.82597229710E+02 0.  0.
        -11    1    3    3    0    0  0.78424925469E+02  0.20841036113E+02  0.25930261881E+03  0.27170326800E+03  0.00000000000E+00 0.  1.
         12    1    3    3    0    0 -0.10397378020E+02  0.33186633452E+01  0.16588510971E+03  0.16624376265E+03  0.00000000000E+00 0. -1.
        -11    1    4    4    0    0 -0.84704686134E+02 -0.50993686397E+02 -0.78300381470E-01  0.98869843918E+02  0.00000000000E+00 0.  1.
         11    1    4    4    0    0 -0.11873939543E+03 -0.36084947358E+02  0.92475319445E+02  0.15476709004E+03  0.00000000000E+00 0. -1.
         21    1    1    2  503  502  0.16768793006E+02 -0.16029009445E+02 -0.18443272841E+03  0.18588585979E+03  0.00000000000E+00 0.  1.
          1    1    1    2  501    0  0.11864774111E+03  0.78947943742E+02  0.35534926867E+03  0.38286181193E+03  0.00000000000E+00 0. -1.
<scales pt_clust_5="13000.00000" pt_clust_6="13000.00000" pt_clust_7="13000.00000" pt_clust_8="13000.00000" pt_clust_9="23.19745" pt_clust_10="192.63707"></scales>
<clustering>
<clus scale="   23.197">  2  9  1 -1</clus>
<clus scale="   76.168">  5  6 -1 -1</clus>
<clus scale="   82.597">  7  8 -1 -1</clus>
<clus scale="  105.407">  1  5  2 -1</clus>
<clus scale="  192.637">  2 10  1 -1</clus>
<clus scale="   23.197">  2  5  1 -1</clus>
</clustering>
</event>
<event>
10    4  0.3403565E-005  0.3703960E+03  0.7546771E-02  0.1103431E+00
          2   -1    0    0  503    0 -0.00000000000E+00  0.00000000000E+00  0.22816214384E+04  0.22816214384E+04  0.00000000000E+00 0. -1.
         21   -1    0    0  501  502  0.00000000000E+00 -0.00000000000E+00 -0.42070224395E+03  0.42070224395E+03  0.00000000000E+00 0. -1.
         23    2    1    2    0    0  0.16618377591E+02 -0.29960150984E+02  0.23420494031E+03  0.25439077626E+03  0.93214440205E+02 0.  0.
         24    2    1    2    0    0 -0.36965197317E+03 -0.11442144539E+02  0.18535806967E+04  0.18919056355E+04  0.82292348495E+02 0.  0.
        -13    1    4    4    0    0 -0.28941142114E+03 -0.74818795392E+01  0.15974146027E+04  0.16234372060E+04  0.00000000000E+00 0.  1.
         14    1    4    4    0    0 -0.80240552022E+02 -0.39602650001E+01  0.25616609405E+03  0.26846842948E+03  0.00000000000E+00 0. -1.
        -11    1    3    3    0    0  0.15883243858E+02  0.31797912754E+02  0.11133654200E+03  0.11687262415E+03  0.00000000000E+00 0.  1.
         11    1    3    3    0    0  0.73513373315E+00 -0.61758063738E+02  0.12286839831E+03  0.13751815211E+03  0.00000000000E+00 0. -1.
         21    1    1    2  503  502 -0.68171771278E+02  0.13340419236E+02  0.12746478014E+02  0.70624569991E+02  0.00000000000E+00 0. -1.
          1    1    1    2  501    0  0.42120536685E+03  0.28061876287E+02 -0.23961292061E+03  0.48540270054E+03  0.00000000000E+00 0. -1.
<scales pt_clust_5="13000.00000" pt_clust_6="13000.00000" pt_clust_7="13000.00000" pt_clust_8="13000.00000" pt_clust_9="69.46479" pt_clust_10="361.13866"></scales>
<clustering>
<clus scale="   69.465">  2  9  1 -1</clus>
<clus scale="   82.292">  5  6 -1 -1</clus>
<clus scale="   93.214">  7  8 -1 -1</clus>
<clus scale="   98.929">  1  7  2 -1</clus>
<clus scale="  361.139">  2 10  1 -1</clus>
<clus scale="   69.465">  2  5  1 -1</clus>
</clustering>
</event>
<event>
10    4  0.3403565E-005  0.1301214E+03  0.7546771E-02  0.1228122E+00
         21   -1    0    0  501  502  0.00000000000E+00  0.00000000000E+00  0.43108273251E+02  0.43108273251E+02  0.00000000000E+00 0. -1.
          2   -1    0    0  503    0 -0.00000000000E+00 -0.00000000000E+00 -0.10242058872E+04  0.10242058872E+04  0.00000000000E+00 0. -1.
         24    2    1    2    0    0 -0.79323220728E+02 -0.46982250801E+02 -0.36213616544E+03  0.38219956090E+03  0.80214691858E+02 0.  0.
         23    2    1    2    0    0  0.34050579979E+02  0.12026540788E+03 -0.28825479743E+03  0.32516516695E+03  0.83775576559E+02 0.  0.
        -11    1    3    3    0    0 -0.40672455257E+02 -0.55378962680E+02 -0.13326005932E+03  0.14993105593E+03  0.00000000000E+00 0.  1.
         12    1    3    3    0    0 -0.38650765471E+02  0.83967118790E+01 -0.22887610613E+03  0.23226850496E+03  0.00000000000E+00 0. -1.
        -11    1    4    4    0    0  0.55249006478E+02  0.42085176177E+02 -0.13540236728E+03  0.15217560855E+03  0.00000000000E+00 0. -1.
         11    1    4    4    0    0 -0.21198426499E+02  0.78180231708E+02 -0.15285243015E+03  0.17298955841E+03  0.00000000000E+00 0.  1.
         21    1    1    2  503  502 -0.31171217785E+02  0.43537468435E+01 -0.99447141272E+02  0.10430883873E+03  0.00000000000E+00 0.  1.
          1    1    1    2  501    0  0.76443858534E+02 -0.77636903927E+02 -0.23125950977E+03  0.25564059384E+03  0.00000000000E+00 0. -1.
<scales pt_clust_5="13000.00000" pt_clust_6="13000.00000" pt_clust_7="13000.00000" pt_clust_8="13000.00000" pt_clust_9="31.47380" pt_clust_10="102.48813"></scales>
<clustering>
<clus scale="   31.474">  2  9  1 -1</clus>
<clus scale="   80.215">  5  6 -1 -1</clus>
<clus scale="   83.776">  7  8 -1 -1</clus>
<clus scale="  102.488">  1 10  2 -1</clus>
<clus scale="  127.858">  2  5  1 -1</clus>
<clus scale="  102.488">  1  5  2 -1</clus>
</clustering>
</event>
<event>
10    4  0.3403565E-005  0.1018947E+03  0.7546771E-02  0.1280849E+00
         21   -1    0    0  503  502  0.00000000000E+00  0.00000000000E+00  0.78899910111E+02  0.78899910111E+02  0.00000000000E+00 0. -1.
          2   -1    0    0  502    0 -0.00000000000E+00 -0.00000000000E+00 -0.37172555071E+03  0.37172555071E+03  0.00000000000E+00 0. -1.
         24    2    1    2    0    0  0.12345600182E+02  0.26370625135E+02 -0.11260953890E+03  0.14145922331E+03  0.80510743977E+02 0.  0.
         23    2    1    2    0    0 -0.88676657327E+02 -0.66322335412E+01 -0.17645410183E+03  0.21716130783E+03  0.90085778496E+02 0.  0.
        -11    1    3    3    0    0  0.26139193537E+02  0.41752639607E+01 -0.63752743102E+00  0.26478230853E+02  0.00000000000E+00 0.  1.
         12    1    3    3    0    0 -0.13793593354E+02  0.22195361174E+02 -0.11197201147E+03  0.11498099246E+03  0.00000000000E+00 0. -1.
        -11    1    4    4    0    0 -0.20928671920E+02  0.39394752117E+02 -0.65671123142E+02  0.79389244973E+02  0.00000000000E+00 0.  1.
         11    1    4    4    0    0 -0.67747985407E+02 -0.46026985658E+02 -0.11078297869E+03  0.13777206285E+03  0.00000000000E+00 0. -1.
         21    1    1    2  503  501  0.20616904144E+02 -0.22959851023E+02  0.13366245397E+02  0.33628381042E+02  0.00000000000E+00 0. -1.
          1    1    1    2  501    0  0.55714153000E+02  0.32214594300E+01 -0.17128245269E+02  0.58376548642E+02  0.00000000000E+00 0. -1.
<scales pt_clust_5="13000.00000" pt_clust_6="13000.00000" pt_clust_7="13000.00000" pt_clust_8="13000.00000" pt_clust_9="30.85792" pt_clust_10="63.61231"></scales>
<clustering>
<clus scale="   30.858">  1  9  2 -1</clus>
<clus scale="   63.612">  1 10  2 -1</clus>
<clus scale="   80.511">  5  6 -1 -1</clus>
<clus scale="   90.086">  7  8 -1 -1</clus>
<clus scale="   93.536">  2  5  1 -1</clus>
<clus scale="   30.858">  1  5  2 -1</clus>
</clustering>
</event>
<event>
10    4  0.3403565E-005  0.2782123E+03  0.7546771E-02  0.1097279E+00
          2   -1    0    0  503    0 -0.00000000000E+00  0.00000000000E+00  0.95703995893E+03  0.95703995893E+03  0.00000000000E+00 0. -1.
         21   -1    0    0  501  502  0.00000000000E+00 -0.00000000000E+00 -0.29447142466E+03  0.29447142466E+03  0.00000000000E+00 0. -1.
         24    2    1    2    0    0  0.14252826014E+03 -0.24542622056E+03  0.61551218619E+03  0.68236804796E+03  0.78883248230E+02 0.  0.
         23    2    1    2    0    0 -0.22154731351E+03  0.10778615157E+03  0.17114264017E+03  0.31406843884E+03  0.92995238565E+02 0.  0.
        -11    1    3    3    0    0  0.34738961558E+01 -0.36700075732E+02  0.39007795309E+02  0.53670956840E+02  0.00000000000E+00 0.  1.
         12    1    3    3    0    0  0.13905436399E+03 -0.20872614483E+03  0.57650439088E+03  0.62869709112E+03  0.00000000000E+00 0. -1.
        -13    1    4    4    0    0 -0.39263147685E+01  0.25073419784E+02  0.44084934724E+00  0.25382802751E+02  0.00000000000E+00 0. -1.
         13    1    4    4    0    0 -0.21762099874E+03  0.82712731787E+02  0.17070179083E+03  0.28868563609E+03  0.00000000000E+00 0.  1.
         21    1    1    2  503  502  0.78924273701E+02  0.36592998410E+00 -0.16420009359E+02  0.80615082903E+02  0.00000000000E+00 0. -1.
          1    1    1    2  501    0  0.94779666999E-01  0.13727413900E+03 -0.10766628273E+03  0.17445981388E+03  0.00000000000E+00 0. -1.
<scales pt_clust_5="13000.00000" pt_clust_6="13000.00000" pt_clust_7="13000.00000" pt_clust_8="13000.00000" pt_clust_9="78.92512" pt_clust_10="144.77374"></scales>
<clustering>
<clus scale="   78.883">  5  6 -1 -1</clus>
<clus scale="   78.925">  2  9  1 -1</clus>
<clus scale="   92.995">  7  8 -1 -1</clus>
<clus scale="  144.774">  2 10  1 -1</clus>
<clus scale="  273.818">  1  5  2 -1</clus>
<clus scale="   78.925">  2  5  1 -1</clus>
</clustering>
</event>
<event>
10    4  0.3403565E-005  0.1347323E+03  0.7546771E-02  0.1223179E+00
         21   -1    0    0  501  502  0.00000000000E+00  0.00000000000E+00  0.28827298739E+03  0.28827298739E+03  0.00000000000E+00 0. -1.
          2   -1    0    0  503    0 -0.00000000000E+00 -0.00000000000E+00 -0.31577483922E+03  0.31577483922E+03  0.00000000000E+00 0. -1.
         24    2    1    2    0    0 -0.19527395403E+02 -0.11650755094E+03 -0.18925875660E+03  0.23726231485E+03  0.80741566126E+02 0.  0.
         23    2    1    2    0    0  0.13404941545E+02  0.68030561885E+02 -0.52753328508E+02  0.12636921433E+03  0.91533681520E+02 0.  0.
        -13    1    3    3    0    0 -0.50787356270E+02 -0.62148524454E+02 -0.10136655021E+03  0.12929413038E+03  0.00000000000E+00 0.  1.
         14    1    3    3    0    0  0.31259960867E+02 -0.54359026482E+02 -0.87892206387E+02  0.10796818447E+03  0.00000000000E+00 0. -1.
        -11    1    4    4    0    0  0.18358986699E+02  0.13295021188E+02  0.23319180984E+02  0.32520673159E+02  0.00000000000E+00 0.  1.
         11    1    4    4    0    0 -0.49540451544E+01  0.54735540697E+02 -0.76072509492E+02  0.93848541167E+02  0.00000000000E+00 0. -1.
         21    1    1    2  503  502 -0.21502416043E+02  0.14099956398E+02  0.48480788585E+01  0.26166133355E+02  0.00000000000E+00 0.  1.
          1    1    1    2  501    0  0.27624869901E+02  0.34377032653E+02  0.20966215442E+03  0.21425016407E+03  0.00000000000E+00 0. -1.
<scales pt_clust_5="13000.00000" pt_clust_6="13000.00000" pt_clust_7="13000.00000" pt_clust_8="13000.00000" pt_clust_9="25.71308" pt_clust_10="46.62935"></scales>
<clustering>
<clus scale="   25.713">  1  9  2 -1</clus>
<clus scale="   46.629">  1 10  2 -1</clus>
<clus scale="   80.742">  5  6 -1 -1</clus>
<clus scale="   91.534">  7  8 -1 -1</clus>
<clus scale="  127.646">  2  5  1 -1</clus>
<clus scale="   25.713">  1  5  2 -1</clus>
</clustering>
</event>
<event>
10    4  0.3403565E-005  0.3767886E+03  0.7546771E-02  0.1052304E+00
         -1   -1    0    0    0  501 -0.00000000000E+00  0.00000000000E+00  0.10384959334E+04  0.10384959334E+04  0.00000000000E+00 0.  1.
         21   -1    0    0  503  502  0.00000000000E+00 -0.00000000000E+00 -0.72466013111E+03  0.72466013111E+03  0.00000000000E+00 0.  1.
         23    2    1    2    0    0  0.34912593965E+03 -0.16637348010E+03  0.43950297079E+03  0.59233941987E+03  0.90189081272E+02 0.  0.
         24    2    1    2    0    0 -0.38267201155E+03 -0.12654617917E+03  0.26655527207E+03  0.49011906551E+03  0.81934006456E+02 0.  0.
        -13    1    4    4    0    0 -0.38612001338E+03 -0.12359848263E+03  0.25833709712E+03  0.48073205155E+03  0.00000000000E+00 0.  1.
         14    1    4    4    0    0  0.34480018240E+01 -0.29476965463E+01  0.82181749502E+01  0.93870139565E+01  0.00000000000E+00 0. -1.
        -13    1    3    3    0    0  0.26912968711E+03 -0.85142986137E+02  0.29529287501E+03  0.40850703617E+03  0.00000000000E+00 0.  1.
         13    1    3    3    0    0  0.79996252540E+02 -0.81230493968E+02  0.14421009578E+03  0.18383238369E+03  0.00000000000E+00 0. -1.
         21    1    1    2  503  501 -0.10863497269E+02  0.59107124281E+02 -0.43479372536E+03  0.43892738730E+03  0.00000000000E+00 0.  1.
         -2    1    1    2    0  502  0.44409569172E+02  0.23381253500E+03  0.42571284752E+02  0.24177019180E+03  0.00000000000E+00 0.  1.
<scales pt_clust_5="13000.00000" pt_clust_6="13000.00000" pt_clust_7="13000.00000" pt_clust_8="13000.00000" pt_clust_9="60.09715" pt_clust_10="257.49675"></scales>
<clustering>
<clus scale="   60.097">  2  9  1 -1</clus>
<clus scale="   81.934">  5  6 -1 -1</clus>
<clus scale="   90.189">  7  8 -1 -1</clus>
<clus scale="  257.497">  2 10  1 -1</clus>
<clus scale="  374.898">  2  5  1 -1</clus>
<clus scale="   60.097">  2  5  1 -1</clus>
</clustering>
</event>
<event>
10    4  0.3403565E-005  0.2930225E+03  0.7546771E-02  0.1089265E+00
         21   -1    0    0  501  502  0.00000000000E+00  0.00000000000E+00  0.98837099133E+02  0.98837099133E+02  0.00000000000E+00 0. -1.
          2   -1    0    0  503    0 -0.00000000000E+00 -0.00000000000E+00 -0.20454957589E+04  0.20454957589E+04  0.00000000000E+00 0. -1.
         23    2    1    2    0    0  0.30410288091E+03 -0.45770560966E+02 -0.15440981770E+04  0.15771878565E+04  0.93321208879E+02 0.  0.
         24    2    1    2    0    0 -0.20066953109E+03 -0.53241215806E+01 -0.22069145514E+03  0.30909643831E+03  0.80865832245E+02 0.  0.
        -11    1    4    4    0    0 -0.14354448109E+03 -0.37905807717E+02 -0.13183247526E+03  0.19854891045E+03  0.00000000000E+00 0.  1.
         12    1    4    4    0    0 -0.57125050001E+02  0.32581686136E+02 -0.88858979883E+02  0.11054752786E+03  0.00000000000E+00 0. -1.
        -13    1    3    3    0    0  0.28001189695E+03 -0.67592923792E+02 -0.13503517030E+04  0.13807335686E+04  0.00000000000E+00 0. -1.
         13    1    3    3    0    0  0.24090983953E+02  0.21822362826E+02 -0.19374647400E+03  0.19645428785E+03  0.00000000000E+00 0.  1.
         21    1    1    2  503  502  0.34433592837E+02 -0.26617989786E+01 -0.42612489772E+02  0.54850540326E+02  0.00000000000E+00 0. -1.
          1    1    1    2  501    0 -0.13786694265E+03  0.53756481526E+02 -0.13925653790E+03  0.20319802295E+03  0.00000000000E+00 0. -1.
<scales pt_clust_5="13000.00000" pt_clust_6="13000.00000" pt_clust_7="13000.00000" pt_clust_8="13000.00000" pt_clust_9="34.53632" pt_clust_10="136.62476"></scales>
<clustering>
<clus scale="   34.536">  1  9  2 -1</clus>
<clus scale="   80.866">  5  6 -1 -1</clus>
<clus scale="   93.321">  7  8 -1 -1</clus>
<clus scale="  136.625">  1 10  2 -1</clus>
<clus scale="  289.297">  1  5  2 -1</clus>
<clus scale="   34.536">  1  5  2 -1</clus>
</clustering>
</event>
<event>
10    4  0.3403565E-005  0.1949195E+03  0.7546771E-02  0.1155559E+00
         21   -1    0    0  501  502  0.00000000000E+00  0.00000000000E+00  0.12772298477E+03  0.12772298477E+03  0.00000000000E+00 0.  1.
          2   -1    0    0  503    0 -0.00000000000E+00 -0.00000000000E+00 -0.50455178763E+03  0.50455178763E+03  0.00000000000E+00 0. -1.
         23    2    1    2    0    0  0.16178790328E+03 -0.23561590477E+02 -0.20956157716E+03  0.28106638123E+03  0.91388083713E+02 0.  0.
         24    2    1    2    0    0 -0.18221266498E+03  0.60051968267E+01 -0.20790093595E+03  0.28686452782E+03  0.76360595114E+02 0.  0.
        -13    1    4    4    0    0 -0.14821315857E+03 -0.21795223283E+01 -0.20328809837E+03  0.25159082183E+03  0.00000000000E+00 0.  1.
         14    1    4    4    0    0 -0.33999506406E+02  0.81847191550E+01 -0.46128375763E+01  0.35273705987E+02  0.00000000000E+00 0. -1.
        -11    1    3    3    0    0  0.48815699268E+02  0.15321150190E+01 -0.92195784970E+01  0.49702318850E+02  0.00000000000E+00 0.  1.
         11    1    3    3    0    0  0.11297220402E+03 -0.25093705496E+02 -0.20034199866E+03  0.23136406238E+03  0.00000000000E+00 0. -1.
         21    1    1    2  503  502  0.21963140301E+02 -0.44389642225E+01  0.35047373369E+02  0.41598104708E+02  0.00000000000E+00 0.  1.
          1    1    1    2  501    0 -0.15383786083E+01  0.21995357872E+02  0.55863368733E+01  0.22745758645E+02  0.00000000000E+00 0. -1.
<scales pt_clust_5="13000.00000" pt_clust_6="13000.00000" pt_clust_7="13000.00000" pt_clust_8="13000.00000" pt_clust_9="21.65059" pt_clust_10="22.04909"></scales>
<clustering>
<clus scale="   22.049">  1 10  2 -1</clus>
<clus scale="   21.651">  1  9  2 -1</clus>
<clus scale="   76.361">  5  6 -1 -1</clus>
<clus scale="   91.388">  7  8 -1 -1</clus>
<clus scale="  188.342">  1  5  2 -1</clus>
<clus scale="   22.049">  1  5  2 -1</clus>
</clustering>
</event>
<event>
10    4  0.3403565E-005  0.1820678E+03  0.7546771E-02  0.1189658E+00
         21   -1    0    0  501  502  0.00000000000E+00  0.00000000000E+00  0.28003749820E+03  0.28003749820E+03  0.00000000000E+00 0.  1.
         -3   -1    0    0    0  501 -0.00000000000E+00 -0.00000000000E+00 -0.28384627701E+03  0.28384627701E+03  0.00000000000E+00 0.  1.
         24    2    1    2    0    0  0.45066004181E+02  0.52240433247E+02 -0.68672012419E+02  0.12655563327E+03  0.80873205845E+02 0.  0.
         23    2    1    2    0    0  0.12242848294E+03 -0.26007482618E+02 -0.10869061290E+03  0.18793483791E+03  0.88547904439E+02 0.  0.
        -13    1    3    3    0    0  0.31105746584E+02  0.35856617042E+02 -0.86458895790E+02  0.98632677736E+02  0.00000000000E+00 0.  1.
         14    1    3    3    0    0  0.13960257597E+02  0.16383816205E+02  0.17786883371E+02  0.27922955532E+02  0.00000000000E+00 0. -1.
        -11    1    4    4    0    0  0.32328236296E+02 -0.40253158334E+02 -0.74239733644E+02  0.90426598241E+02  0.00000000000E+00 0. -1.
         11    1    4    4    0    0  0.90100246641E+02  0.14245675716E+02 -0.34450879254E+02  0.97508239666E+02  0.00000000000E+00 0.  1.
         21    1    1    2  503  502 -0.30484386068E+02 -0.23381178771E+01  0.68769994322E+02  0.75260060511E+02  0.00000000000E+00 0. -1.
         -4    1    1    2    0  503 -0.13701010105E+03 -0.23894832752E+02  0.10478385219E+03  0.17413324353E+03  0.00000000000E+00 0.  1.
<scales pt_clust_5="13000.00000" pt_clust_6="13000.00000" pt_clust_7="13000.00000" pt_clust_8="13000.00000" pt_clust_9="27.07055" pt_clust_10="169.23786"></scales>
<clustering>
<clus scale="   27.071">  9 10 -1 -1</clus>
<clus scale="   80.873">  5  6 -1 -1</clus>
<clus scale="   88.548">  7  8 -1 -1</clus>
<clus scale="  106.304">  2  5  1 -1</clus>
<clus scale="  169.238">  1  9  2 -1</clus>
<clus scale="  169.238">  1  5  2 -1</clus>
</clustering>
</event>
<event>
10    4  0.3403565E-005  0.9137553E+02  0.7546771E-02  0.1304780E+00
         21   -1    0    0  503  502  0.00000000000E+00  0.00000000000E+00  0.63942330485E+02  0.63942330485E+02  0.00000000000E+00 0.  1.
          2   -1    0    0  502    0 -0.00000000000E+00 -0.00000000000E+00 -0.75224173534E+03  0.75224173534E+03  0.00000000000E+00 0. -1.
         24    2    1    2    0    0  0.54106638454E+01 -0.38333279972E+02 -0.17092810760E+03  0.19273793383E+03  0.80204597957E+02 0.  0.
         23    2    1    2    0    0  0.25680827015E+02 -0.35509351825E+02 -0.30855388302E+02  0.10374982633E+03  0.88834410743E+02 0.  0.
        -13    1    3    3    0    0  0.41002871959E+02 -0.22768497712E+02 -0.11883458164E+03  0.12775483470E+03  0.00000000000E+00 0.  1.
         14    1    3    3    0    0 -0.35592208114E+02 -0.15564782261E+02 -0.52093525959E+02  0.64983099127E+02  0.00000000000E+00 0. -1.
        -13    1    4    4    0    0 -0.21151610437E+02 -0.21234240341E+02  0.17690070716E+02  0.34802617558E+02  0.00000000000E+00 0.  1.
         13    1    4    4    0    0  0.46832437452E+02 -0.14275111484E+02 -0.48545459018E+02  0.68947208768E+02  0.00000000000E+00 0. -1.
         21    1    1    2  503  501 -0.36750019063E+02  0.12461494177E+02 -0.11184871523E+02  0.40385072604E+02  0.00000000000E+00 0.  1.
          1    1    1    2  501    0  0.56585282021E+01  0.61381137620E+02 -0.47533103744E+03  0.47931123307E+03  0.00000000000E+00 0. -1.
<scales pt_clust_5="13000.00000" pt_clust_6="13000.00000" pt_clust_7="13000.00000" pt_clust_8="13000.00000" pt_clust_9="38.80532" pt_clust_10="62.02453"></scales>
<clustering>
<clus scale="   38.805">  1  9  2 -1</clus>
<clus scale="   62.025">  1 10  2 -1</clus>
<clus scale="   80.205">  5  6 -1 -1</clus>
<clus scale="   83.010">  2  5  1 -1</clus>
<clus scale="   88.834">  7  8 -1 -1</clus>
<clus scale="   38.805">  1  5  2 -1</clus>
</clustering>
</event>
<event>
10    4  0.3403565E-005  0.1203376E+03  0.7546771E-02  0.1260067E+00
         21   -1    0    0  503  502  0.00000000000E+00  0.00000000000E+00  0.46678432307E+02  0.46678432307E+02  0.00000000000E+00 0.  1.
          2   -1    0    0  502    0 -0.00000000000E+00 -0.00000000000E+00 -0.75231782362E+03  0.75231782362E+03  0.00000000000E+00 0. -1.
         24    2    1    2    0    0  0.18204052737E+02 -0.17811047516E+02 -0.24717953660E+03  0.26098145020E+03  0.79780781431E+02 0.  0.
         23    2    1    2    0    0  0.76024316702E+02  0.30248598671E+02 -0.24032370283E+03  0.27003426332E+03  0.92023620735E+02 0.  0.
        -11    1    3    3    0    0  0.41909763199E+02 -0.32923597290E+02 -0.18892011415E+03  0.19629366022E+03  0.00000000000E+00 0.  1.
         12    1    3    3    0    0 -0.23705710462E+02  0.15112549774E+02 -0.58259422445E+02  0.64687789982E+02  0.00000000000E+00 0. -1.
        -13    1    4    4    0    0 -0.18088383227E+02  0.22166205218E+02 -0.52117929057E+02  0.59454257969E+02  0.00000000000E+00 0.  1.
         13    1    4    4    0    0  0.94112699929E+02  0.80823934530E+01 -0.18820577377E+03  0.21058000535E+03  0.00000000000E+00 0. -1.
         21    1    1    2  503  501 -0.12196263822E+02 -0.28394117323E+02  0.35117112565E+01  0.31101557288E+02  0.00000000000E+00 0.  1.
          1    1    1    2  501    0 -0.82032105618E+02  0.15956566168E+02 -0.22164786314E+03  0.23687898512E+03  0.00000000000E+00 0. -1.
<scales pt_clust_5="13000.00000" pt_clust_6="13000.00000" pt_clust_7="13000.00000" pt_clust_8="13000.00000" pt_clust_9="30.90267" pt_clust_10="77.54223"></scales>
<clustering>
<clus scale="   30.903">  1  9  2 -1</clus>
<clus scale="   79.781">  5  6 -1 -1</clus>
<clus scale="   84.851">  2  5  1 -1</clus>
<clus scale="   77.542">  1 10  2 -1</clus>
<clus scale="   92.024">  7  8 -1 -1</clus>
<clus scale="   30.903">  1  5  2 -1</clus>
</clustering>
</event>
<event>
10    4  0.3403565E-005  0.1420166E+03  0.7546771E-02  0.1212854E+00
          2   -1    0    0  502    0 -0.00000000000E+00  0.00000000000E+00  0.24530581799E+03  0.24530581799E+03  0.00000000000E+00 0. -1.
         21   -1    0    0  503  502  0.00000000000E+00 -0.00000000000E+00 -0.48860418388E+03  0.48860418388E+03  0.00000000000E+00 0. -1.
         23    2    1    2    0    0 -0.10326703902E+03 -0.40743802000E+02  0.11672637040E+03  0.18489201020E+03  0.90751700476E+02 0.  0.
         24    2    1    2    0    0  0.12298013215E+03 -0.73812839654E+02 -0.29476914627E+01  0.16432732494E+03  0.80139457411E+02 0.  0.
        -13    1    4    4    0    0  0.17302461176E+02 -0.14787771656E+02 -0.32547511456E+02  0.39716417956E+02  0.00000000000E+00 0.  1.
         14    1    4    4    0    0  0.10567767098E+03 -0.59025067998E+02  0.29599819993E+02  0.12461090698E+03  0.00000000000E+00 0. -1.
        -11    1    3    3    0    0 -0.11501049474E+03 -0.24100742864E+02  0.11505182627E+03  0.16445419555E+03  0.00000000000E+00 0. -1.
         11    1    3    3    0    0  0.11743455716E+02 -0.16643059137E+02  0.16745441307E+01  0.20437814649E+02  0.00000000000E+00 0.  1.
         21    1    1    2  503  501 -0.20616925345E+01  0.37976858377E+02 -0.24423987291E+03  0.24718334869E+03  0.00000000000E+00 0. -1.
          1    1    1    2  501    0 -0.17651400596E+02  0.76579783277E+02 -0.11283717192E+03  0.13750731805E+03  0.00000000000E+00 0. -1.
<scales pt_clust_5="13000.00000" pt_clust_6="13000.00000" pt_clust_7="13000.00000" pt_clust_8="13000.00000" pt_clust_9="38.03278" pt_clust_10="97.95499"></scales>
<clustering>
<clus scale="   38.033">  2  9  1 -1</clus>
<clus scale="   80.139">  5  6 -1 -1</clus>
<clus scale="   90.752">  7  8 -1 -1</clus>
<clus scale="   97.955">  2 10  1 -1</clus>
<clus scale="  135.481">  2  5  1 -1</clus>
<clus scale="   38.033">  2  5  1 -1</clus>
</clustering>
</event>
<event>
10    4  0.3453511E-005  0.2260171E+03  0.7546771E-02  0.1166741E+00
          2   -1    0    0  503    0 -0.00000000000E+00  0.00000000000E+00  0.29262594283E+03  0.29262594283E+03  0.00000000000E+00 0. -1.
         21   -1    0    0  501  502  0.00000000000E+00 -0.00000000000E+00 -0.32912294569E+03  0.32912294569E+03  0.00000000000E+00 0. -1.
         23    2    1    2    0    0 -0.67767187894E+01 -0.15303666640E+02  0.10143265161E+03  0.13778041878E+03  0.91731863909E+02 0.  0.
         24    2    1    2    0    0  0.17022796367E+03  0.11848260284E+03 -0.10661425261E+03  0.24646285507E+03  0.79759972911E+02 0.  0.
        -13    1    4    4    0    0 -0.55405967347E+01  0.19549966357E+02 -0.12789949180E+02  0.24010043664E+02  0.00000000000E+00 0.  1.
         14    1    4    4    0    0  0.17576856041E+03  0.98932636487E+02 -0.93824303427E+02  0.22245281141E+03  0.00000000000E+00 0. -1.
        -11    1    3    3    0    0  0.39946015803E+02 -0.34788002626E+01  0.68615795718E+02  0.79472722690E+02  0.00000000000E+00 0.  1.
         11    1    3    3    0    0 -0.46722734592E+02 -0.11824866377E+02  0.32816855893E+02  0.58307696090E+02  0.00000000000E+00 0. -1.
         21    1    1    2  503  502  0.21470966593E+02 -0.55107327769E+00 -0.13267227531E+02  0.25245304803E+02  0.00000000000E+00 0. -1.
          1    1    1    2  501    0 -0.18492221148E+03 -0.10262786293E+03 -0.18048174336E+02  0.21226030986E+03  0.00000000000E+00 0. -1.
<scales pt_clust_5="13000.00000" pt_clust_6="13000.00000" pt_clust_7="13000.00000" pt_clust_8="13000.00000" pt_clust_9="21.47804" pt_clust_10="211.47604"></scales>
<clustering>
<clus scale="   21.478">  2  9  1 -1</clus>
<clus scale="   79.760">  5  6 -1 -1</clus>
<clus scale="   91.732">  7  8 -1 -1</clus>
<clus scale="   93.169">  1  7  2 -1</clus>
<clus scale="  211.476">  2 10  1 -1</clus>
<clus scale="   21.478">  2  5  1 -1</clus>
</clustering>
</event>
<event>
10    4  0.3403565E-005  0.1171432E+03  0.7546771E-02  0.1253319E+00
         21   -1    0    0  503  502  0.00000000000E+00  0.00000000000E+00  0.67019623362E+02  0.67019623362E+02  0.00000000000E+00 0. -1.
          2   -1    0    0  502    0 -0.00000000000E+00 -0.00000000000E+00 -0.58733818213E+03  0.58733818213E+03  0.00000000000E+00 0. -1.
         23    2    1    2    0    0 -0.93710586996E+02 -0.10174016841E+02 -0.37429622037E+03  0.39789438550E+03  0.96628653609E+02 0.  0.
         24    2    1    2    0    0  0.17521444199E+02  0.33259589531E+02 -0.95724170046E+02  0.13129232619E+03  0.81617135959E+02 0.  0.
        -11    1    4    4    0    0  0.82820739685E+01  0.53097409248E+02 -0.95296172646E+02  0.10940424187E+03  0.00000000000E+00 0.  1.
         12    1    4    4    0    0  0.92393702304E+01 -0.19837819717E+02 -0.42799740023E+00  0.21888084319E+02  0.00000000000E+00 0. -1.
        -11    1    3    3    0    0 -0.83150232680E+02  0.33805841092E+02 -0.24929017432E+03  0.26495733072E+03  0.00000000000E+00 0. -1.
         11    1    3    3    0    0 -0.10560354316E+02 -0.43979857933E+02 -0.12500604604E+03  0.13293705478E+03  0.00000000000E+00 0.  1.
         21    1    1    2  503  501  0.10848938259E+02 -0.43497261190E+02 -0.29351523861E+02  0.53583795548E+02  0.00000000000E+00 0. -1.
          1    1    1    2  501    0  0.65340204537E+02  0.20411688499E+02 -0.20946644497E+02  0.71587298259E+02  0.00000000000E+00 0. -1.
<scales pt_clust_5="13000.00000" pt_clust_6="13000.00000" pt_clust_7="13000.00000" pt_clust_8="13000.00000" pt_clust_9="44.82980" pt_clust_10="70.34438"></scales>
<clustering>
<clus scale="   44.830">  1  9  2 -1</clus>
<clus scale="   70.344">  1 10  2 -1</clus>
<clus scale="   81.617">  5  6 -1 -1</clus>
<clus scale="   96.629">  7  8 -1 -1</clus>
<clus scale="  105.104">  1  5  2 -1</clus>
<clus scale="   44.830">  1  5  2 -1</clus>
</clustering>
</event>
<event>
10    4  0.3403565E-005  0.1455209E+03  0.7546771E-02  0.1208909E+00
         21   -1    0    0  503  502  0.00000000000E+00  0.00000000000E+00  0.38008435055E+03  0.38008435055E+03  0.00000000000E+00 0.  1.
         -1   -1    0    0    0  501 -0.00000000000E+00 -0.00000000000E+00 -0.20777562298E+03  0.20777562298E+03  0.00000000000E+00 0.  1.
         23    2    1    2    0    0  0.10838414487E+03 -0.50274378665E+02 -0.64906732641E+02  0.16544295917E+03  0.94254192427E+02 0.  0.
         24    2    1    2    0    0 -0.10901457523E+03 -0.92670952067E+01 -0.28159657539E+02  0.13868466077E+03  0.80438872146E+02 0.  0.
        -13    1    4    4    0    0 -0.88964739466E+02 -0.38242452542E+02 -0.59189260011E+01  0.97016718816E+02  0.00000000000E+00 0.  1.
         14    1    4    4    0    0 -0.20049835768E+02  0.28975357335E+02 -0.22240731538E+02  0.41667941950E+02  0.00000000000E+00 0. -1.
        -11    1    3    3    0    0 -0.16509228898E+02 -0.11847404505E+02 -0.16206050937E+02  0.25991377787E+02  0.00000000000E+00 0.  1.
         11    1    3    3    0    0  0.12489337376E+03 -0.38426974160E+02 -0.48700681704E+02  0.13945158139E+03  0.00000000000E+00 0. -1.
         21    1    1    2  503  501  0.38324847696E+02  0.34677918474E+02  0.17836658010E+03  0.18570403570E+03  0.00000000000E+00 0.  1.
         -2    1    1    2    0  502 -0.37694417328E+02  0.24863555398E+02  0.87008537653E+02  0.98028317894E+02  0.00000000000E+00 0.  1.
<scales pt_clust_5="13000.00000" pt_clust_6="13000.00000" pt_clust_7="13000.00000" pt_clust_8="13000.00000" pt_clust_9="52.45068" pt_clust_10="45.15601"></scales>
<clustering>
<clus scale="   45.156">  1 10  2 -1</clus>
<clus scale="   52.451">  1  9  2 -1</clus>
<clus scale="   80.439">  5  6 -1 -1</clus>
<clus scale="   94.254">  7  8 -1 -1</clus>
<clus scale="  136.978">  1  5  2 -1</clus>
<clus scale="   45.156">  1  5  2 -1</clus>
</clustering>
</event>
<event>
10    4  0.3403565E-005  0.2251932E+03  0.7546771E-02  0.1130708E+00
         21   -1    0    0  501  502  0.00000000000E+00  0.00000000000E+00  0.29812936701E+03  0.29812936701E+03  0.00000000000E+00 0. -1.
          2   -1    0    0  503    0 -0.00000000000E+00 -0.00000000000E+00 -0.73051226485E+03  0.73051226485E+03  0.00000000000E+00 0. -1.
         23    2    1    2    0    0 -0.16165139848E+03 -0.20366619131E+03 -0.43902657229E+03  0.51810843487E+03  0.89893976403E+02 0.  0.
         24    2    1    2    0    0  0.17091750611E+01  0.15483100754E+03 -0.82363923566E+02  0.19306744974E+03  0.80719651079E+02 0.  0.
        -13    1    4    4    0    0  0.37558924924E+02  0.46312489775E+02 -0.20128040323E+02  0.62933755313E+02  0.00000000000E+00 0.  1.
         14    1    4    4    0    0 -0.35849749863E+02  0.10851851776E+03 -0.62235883243E+02  0.13013369443E+03  0.00000000000E+00 0. -1.
        -11    1    3    3    0    0 -0.42042075952E+02 -0.43426603366E+02 -0.42098360433E+02  0.73659201607E+02  0.00000000000E+00 0.  1.
         11    1    3    3    0    0 -0.11960932253E+03 -0.16023958794E+03 -0.39692821186E+03  0.44444923326E+03  0.00000000000E+00 0. -1.
         21    1    1    2  503  502  0.98785218362E+02 -0.27476899724E+02  0.16455718446E+03  0.19388802527E+03  0.00000000000E+00 0. -1.
          1    1    1    2  501    0  0.61157005062E+02  0.76312083492E+02 -0.75549586447E+02  0.12357772197E+03  0.00000000000E+00 0. -1.
<scales pt_clust_5="13000.00000" pt_clust_6="13000.00000" pt_clust_7="13000.00000" pt_clust_8="13000.00000" pt_clust_9="140.57007" pt_clust_10="97.79429"></scales>
<clustering>
<clus scale="   80.720">  5  6 -1 -1</clus>
<clus scale="   89.894">  7  8 -1 -1</clus>
<clus scale="   97.794">  1 10  2 -1</clus>
<clus scale="  140.570">  1  9  2 -1</clus>
<clus scale="  221.691">  1  5  2 -1</clus>
<clus scale="   97.794">  1  5  2 -1</clus>
</clustering>
</event>
<event>
10    4  0.3403565E-005  0.1722381E+03  0.7546771E-02  0.1187235E+00
          2   -1    0    0  503    0 -0.00000000000E+00  0.00000000000E+00  0.25578212291E+03  0.25578212291E+03  0.00000000000E+00 0. -1.
         21   -1    0    0  501  502  0.00000000000E+00 -0.00000000000E+00 -0.32376475636E+03  0.32376475636E+03  0.00000000000E+00 0. -1.
         24    2    1    2    0    0 -0.74770356173E+02 -0.68345595165E+02  0.59531342387E+02  0.14340457378E+03  0.82214138162E+02 0.  0.
         23    2    1    2    0    0  0.58042489567E+02 -0.85611834802E+02  0.68605868768E+02  0.16252743743E+03  0.10492895613E+03 0.  0.
        -13    1    3    3    0    0 -0.32878520435E+01 -0.47646081963E+02  0.48684107311E+02  0.68198983880E+02  0.00000000000E+00 0.  1.
         14    1    3    3    0    0 -0.71482504130E+02 -0.20699513202E+02  0.10847235076E+02  0.75205589900E+02  0.00000000000E+00 0. -1.
        -11    1    4    4    0    0  0.64912119958E+02 -0.57469858887E+02 -0.14600286305E+01  0.86709282557E+02  0.00000000000E+00 0. -1.
         11    1    4    4    0    0 -0.68696303912E+01 -0.28141975916E+02  0.70065897399E+02  0.75818154874E+02  0.00000000000E+00 0.  1.
         21    1    1    2  503  502 -0.22945087519E+02  0.19420168075E+01 -0.65074945551E+02  0.69028957757E+02  0.00000000000E+00 0. -1.
          1    1    1    2  501    0  0.39672954124E+02  0.15201541316E+03 -0.13104489906E+03  0.20458591031E+03  0.00000000000E+00 0. -1.
<scales pt_clust_5="13000.00000" pt_clust_6="13000.00000" pt_clust_7="13000.00000" pt_clust_8="13000.00000" pt_clust_9="23.02712" pt_clust_10="136.58658"></scales>
<clustering>
<clus scale="   23.027">  2  9  1 -1</clus>
<clus scale="   82.214">  5  6 -1 -1</clus>
<clus scale="  104.929">  7  8 -1 -1</clus>
<clus scale="  132.485">  1  5  2 -1</clus>
<clus scale="  136.587">  2 10  1 -1</clus>
<clus scale="   23.027">  2  5  1 -1</clus>
</clustering>
</event>
<event>
10    4  0.3403565E-005  0.1247771E+03  0.7546771E-02  0.1251547E+00
         -1   -1    0    0    0  501 -0.00000000000E+00  0.00000000000E+00  0.84427345535E+03  0.84427345535E+03  0.00000000000E+00 0.  1.
         21   -1    0    0  503  502  0.00000000000E+00 -0.00000000000E+00 -0.41332891350E+02  0.41332891350E+02  0.00000000000E+00 0.  1.
         23    2    1    2    0    0  0.92362499274E+00 -0.39259321795E+01  0.39878249982E+03  0.40879852823E+03  0.89847028286E+02 0.  0.
         24    2    1    2    0    0  0.42951661908E+02  0.84782857927E+02  0.15562854106E+03  0.19931957115E+03  0.80467822088E+02 0.  0.
        -13    1    4    4    0    0  0.52076623666E+02  0.96226246556E+02  0.14248458592E+03  0.17964777339E+03  0.00000000000E+00 0.  1.
         14    1    4    4    0    0 -0.91249617584E+01 -0.11443388629E+02  0.13143955138E+02  0.19671797759E+02  0.00000000000E+00 0. -1.
        -13    1    3    3    0    0  0.23327858297E+02  0.36501519883E+02  0.17379176388E+03  0.17910926028E+03  0.00000000000E+00 0.  1.
         13    1    3    3    0    0 -0.22404233305E+02 -0.40427452063E+02  0.22499073594E+03  0.22968926794E+03  0.00000000000E+00 0. -1.
         21    1    1    2  503  501 -0.65732899723E+02 -0.70133092959E+02  0.21934253069E+03  0.23947987515E+03  0.00000000000E+00 0.  1.
         -2    1    1    2    0  502  0.21857612822E+02 -0.10723832789E+02  0.29186992440E+02  0.38008372179E+02  0.00000000000E+00 0.  1.
<scales pt_clust_5="13000.00000" pt_clust_6="13000.00000" pt_clust_7="13000.00000" pt_clust_8="13000.00000" pt_clust_9="95.36378" pt_clust_10="24.34658"></scales>
<clustering>
<clus scale="   24.347">  2 10  1 -1</clus>
<clus scale="   80.468">  5  6 -1 -1</clus>
<clus scale="   89.847">  7  8 -1 -1</clus>
<clus scale="   90.092">  1  7  2 -1</clus>
<clus scale="   95.364">  1  9  2 -1</clus>
<clus scale="   24.347">  2  5  1 -1</clus>
</clustering>
</event>
<event>
10    4  0.3403565E-005  0.1068045E+03  0.7546771E-02  0.1268235E+00
         21   -1    0    0  501  502  0.00000000000E+00  0.00000000000E+00  0.78709931879E+02  0.78709931879E+02  0.00000000000E+00 0. -1.
          2   -1    0    0  503    0 -0.00000000000E+00 -0.00000000000E+00 -0.59256540221E+03  0.59256540221E+03  0.00000000000E+00 0. -1.
         23    2    1    2    0    0  0.37851099798E+02  0.84146415721E+02 -0.27749005351E+03  0.30652027065E+03  0.91872854995E+02 0.  0.
         24    2    1    2    0    0  0.50065898478E+02 -0.79650736077E+01 -0.91435632325E+02  0.13664186496E+03  0.87980042136E+02 0.  0.
        -13    1    4    4    0    0 -0.15407450765E+02  0.24045780482E+02 -0.23021399038E+02  0.36682065260E+02  0.00000000000E+00 0.  1.
         14    1    4    4    0    0  0.65473349243E+02 -0.32010854090E+02 -0.68414233287E+02  0.99959799704E+02  0.00000000000E+00 0. -1.
        -11    1    3    3    0    0  0.28515276813E+02  0.29622528602E+02 -0.25173848195E+02  0.48211387093E+02  0.00000000000E+00 0.  1.
         11    1    3    3    0    0  0.93358229850E+01  0.54523887119E+02 -0.25231620532E+03  0.25830888355E+03  0.00000000000E+00 0. -1.
         21    1    1    2  503  502 -0.18130383026E+02 -0.49056269902E+02  0.12511646987E+02  0.53775177505E+02  0.00000000000E+00 0. -1.
          1    1    1    2  501    0 -0.69786615249E+02 -0.27125072212E+02 -0.15744143148E+03  0.17433802097E+03  0.00000000000E+00 0. -1.
<scales pt_clust_5="13000.00000" pt_clust_6="13000.00000" pt_clust_7="13000.00000" pt_clust_8="13000.00000" pt_clust_9="52.29941" pt_clust_10="81.62455"></scales>
<clustering>
<clus scale="   52.299">  1  9  2 -1</clus>
<clus scale="   81.625">  1 10  2 -1</clus>
<clus scale="   87.980">  5  6 -1 -1</clus>
<clus scale="   91.873">  7  8 -1 -1</clus>
<clus scale="  103.475">  1  5  2 -1</clus>
<clus scale="   52.299">  1  5  2 -1</clus>
</clustering>
</event>
<event>
10    4  0.3403565E-005  0.2359414E+03  0.7546771E-02  0.1143987E+00
          2   -1    0    0  502    0 -0.00000000000E+00  0.00000000000E+00  0.12350246751E+04  0.12350246751E+04  0.00000000000E+00 0. -1.
         21   -1    0    0  503  502  0.00000000000E+00 -0.00000000000E+00 -0.92154192699E+02  0.92154192699E+02  0.00000000000E+00 0. -1.
         23    2    1    2    0    0  0.29538097080E+02 -0.93934689691E+02  0.11177239102E+03  0.17368320867E+03  0.89311614429E+02 0.  0.
         24    2    1    2    0    0 -0.16382749848E+03  0.22689590407E+03  0.50652569061E+03  0.58388185584E+03  0.77643710590E+02 0.  0.
        -13    1    4    4    0    0 -0.12418095357E+03  0.11700040502E+03  0.34071429743E+03  0.38104623929E+03  0.00000000000E+00 0.  1.
         14    1    4    4    0    0 -0.39646544907E+02  0.10989549904E+03  0.16581139318E+03  0.20283561655E+03  0.00000000000E+00 0. -1.
        -11    1    3    3    0    0 -0.20069849137E+02  0.31128375703E+01  0.34656093858E+02  0.40168811827E+02  0.00000000000E+00 0. -1.
         11    1    3    3    0    0  0.49607946217E+02 -0.97047527261E+02  0.77116297166E+02  0.13351439684E+03  0.00000000000E+00 0.  1.
         21    1    1    2  503  501 -0.36722672624E+00 -0.25414369210E+02  0.10634492036E+02  0.27552085923E+02  0.00000000000E+00 0. -1.
          1    1    1    2  501    0  0.13465662813E+03 -0.10754684516E+03  0.51393790877E+03  0.54206171740E+03  0.00000000000E+00 0. -1.
<scales pt_clust_5="13000.00000" pt_clust_6="13000.00000" pt_clust_7="13000.00000" pt_clust_8="13000.00000" pt_clust_9="25.41702" pt_clust_10="222.79997"></scales>
<clustering>
<clus scale="   25.417">  2  9  1 -1</clus>
<clus scale="   77.644">  5  6 -1 -1</clus>
<clus scale="   89.312">  7  8 -1 -1</clus>
<clus scale="  139.711">  1  7  2 -1</clus>
<clus scale="  222.800">  2 10  1 -1</clus>
<clus scale="   25.417">  2  5  1 -1</clus>
</clustering>
</event>
<event>
10    4  0.3403565E-005  0.1756994E+03  0.7546771E-02  0.1196005E+00
         21   -1    0    0  501  502  0.00000000000E+00  0.00000000000E+00  0.11750248956E+04  0.11750248956E+04  0.00000000000E+00 0. -1.
          2   -1    0    0  503    0 -0.00000000000E+00 -0.00000000000E+00 -0.19958356295E+03  0.19958356295E+03  0.00000000000E+00 0. -1.
         23    2    1    2    0    0  0.18008602699E+02 -0.37079642603E+02 -0.31089809979E+01  0.10147317172E+03  0.92671080433E+02 0.  0.
         24    2    1    2    0    0 -0.34636116514E+02 -0.12657033278E+03  0.21273486661E+02  0.15446536687E+03  0.78659256417E+02 0.  0.
        -13    1    4    4    0    0  0.16500378756E+02 -0.86351756533E+02  0.13516328919E+02  0.88947060114E+02  0.00000000000E+00 0.  1.
         14    1    4    4    0    0 -0.51136495270E+02 -0.40218576245E+02  0.77571577427E+01  0.65518306754E+02  0.00000000000E+00 0. -1.
        -13    1    3    3    0    0  0.45799859485E+02  0.44530710101E+01  0.14878335067E+02  0.48361367068E+02  0.00000000000E+00 0.  1.
         13    1    3    3    0    0 -0.27791256787E+02 -0.41532713613E+02 -0.17987316065E+02  0.53111804649E+02  0.00000000000E+00 0. -1.
         21    1    1    2  503  502  0.91175760442E+01  0.24904702036E+03  0.99447121747E+03  0.10252221959E+04  0.00000000000E+00 0. -1.
          1    1    1    2  501    0  0.75099377707E+01 -0.85397044977E+02 -0.37194390470E+02  0.93447724095E+02  0.00000000000E+00 0. -1.
<scales pt_clust_5="13000.00000" pt_clust_6="13000.00000" pt_clust_7="13000.00000" pt_clust_8="13000.00000" pt_clust_9="157.10823" pt_clust_10="85.72667"></scales>
<clustering>
<clus scale="   78.659">  5  6 -1 -1</clus>
<clus scale="   85.727">  1 10  2 -1</clus>
<clus scale="   92.671">  7  8 -1 -1</clus>
<clus scale="  102.878">  2  7  1 -1</clus>
<clus scale="  157.108">  1  9  2 -1</clus>
<clus scale="   85.727">  1  5  2 -1</clus>
</clustering>
</event>
<event>
10    4  0.3403565E-005  0.1295576E+03  0.7546771E-02  0.1240121E+00
         21   -1    0    0  503  502  0.00000000000E+00  0.00000000000E+00  0.90360946780E+02  0.90360946780E+02  0.00000000000E+00 0. -1.
          2   -1    0    0  502    0 -0.00000000000E+00 -0.00000000000E+00 -0.98602113912E+03  0.98602113912E+03  0.00000000000E+00 0. -1.
         24    2    1    2    0    0 -0.50920194183E+02 -0.33951169519E+02 -0.54485868727E+03  0.55419169205E+03  0.80696309456E+02 0.  0.
         23    2    1    2    0    0 -0.26693066127E+02 -0.55066382721E+02 -0.12830443866E+03  0.16959879685E+03  0.92503495209E+02 0.  0.
        -13    1    3    3    0    0  0.86874071371E+01 -0.25160699738E+02 -0.60460327275E+02  0.66060449804E+02  0.00000000000E+00 0.  1.
         14    1    3    3    0    0 -0.59607601320E+02 -0.87904697811E+01 -0.48439835999E+03  0.48813124225E+03  0.00000000000E+00 0. -1.
        -13    1    4    4    0    0  0.23278997380E+00 -0.43392138696E+02 -0.59797398344E+01  0.43802844432E+02  0.00000000000E+00 0. -1.
         13    1    4    4    0    0 -0.26925856101E+02 -0.11674244025E+02 -0.12232469883E+03  0.12579595242E+03  0.00000000000E+00 0.  1.
         21    1    1    2  503  501  0.10108199453E+03 -0.32289130937E+02 -0.97402523948E+01  0.10655998363E+03  0.00000000000E+00 0. -1.
          1    1    1    2  501    0 -0.23468734217E+02  0.12130668318E+03 -0.21275681401E+03  0.24603161337E+03  0.00000000000E+00 0. -1.
<scales pt_clust_5="13000.00000" pt_clust_6="13000.00000" pt_clust_7="13000.00000" pt_clust_8="13000.00000" pt_clust_9="101.22904" pt_clust_10="90.70994"></scales>
<clustering>
<clus scale="   80.696">  5  6 -1 -1</clus>
<clus scale="   92.503">  7  8 -1 -1</clus>
<clus scale="  101.279">  2  5  1 -1</clus>
<clus scale="  101.229">  1  9  2 -1</clus>
<clus scale="   90.710">  1 10  2 -1</clus>
<clus scale="  101.229">  1  5  2 -1</clus>
</clustering>
</event>
<event>
10    4  0.3403565E-005  0.1572196E+03  0.7546771E-02  0.1214202E+00
          2   -1    0    0  502    0 -0.00000000000E+00  0.00000000000E+00  0.56998816715E+03  0.56998816715E+03  0.00000000000E+00 0. -1.
         21   -1    0    0  503  502  0.00000000000E+00 -0.00000000000E+00 -0.14051368242E+03  0.14051368242E+03  0.00000000000E+00 0. -1.
         24    2    1    2    0    0 -0.36514536344E+02 -0.38606204036E+02  0.32243651309E+03  0.33649352565E+03  0.80242367064E+02 0.  0.
         23    2    1    2    0    0  0.93862777699E+02  0.13926965482E+03  0.47342713386E+02  0.19638083950E+03  0.90099077804E+02 0.  0.
        -11    1    3    3    0    0 -0.61784974004E+02 -0.30858751501E+02  0.21330198989E+03  0.22420389035E+03  0.00000000000E+00 0.  1.
         12    1    3    3    0    0  0.25270437661E+02 -0.77474525347E+01  0.10913452320E+03  0.11228963529E+03  0.00000000000E+00 0. -1.
        -11    1    4    4    0    0  0.13355682419E+02  0.25273891464E+02  0.49096263036E+02  0.56811855160E+02  0.00000000000E+00 0.  1.
         11    1    4    4    0    0  0.80507095280E+02  0.11399576335E+03 -0.17535496505E+01  0.13956898434E+03  0.00000000000E+00 0. -1.
         21    1    1    2  503  501 -0.16718397928E+02 -0.12714520537E+02 -0.35855728189E+02  0.41554748293E+02  0.00000000000E+00 0. -1.
          1    1    1    2  501    0 -0.40629843427E+02 -0.87948930244E+02  0.95550986440E+02  0.13607273613E+03  0.00000000000E+00 0. -1.
<scales pt_clust_5="13000.00000" pt_clust_6="13000.00000" pt_clust_7="13000.00000" pt_clust_8="13000.00000" pt_clust_9="21.00390" pt_clust_10="128.84169"></scales>
<clustering>
<clus scale="   21.004">  2  9  1 -1</clus>
<clus scale="   80.242">  5  6 -1 -1</clus>
<clus scale="   90.099">  7  8 -1 -1</clus>
<clus scale="   97.040">  1  5  2 -1</clus>
<clus scale="  128.842">  2 10  1 -1</clus>
<clus scale="   21.004">  2  5  1 -1</clus>
</clustering>
</event>
<event>
10    4  0.3403565E-005  0.2378911E+03  0.7546771E-02  0.1123282E+00
         21   -1    0    0  501  502  0.00000000000E+00  0.00000000000E+00  0.70028033713E+03  0.70028033713E+03  0.00000000000E+00 0. -1.
          2   -1    0    0  503    0 -0.00000000000E+00 -0.00000000000E+00 -0.39349151420E+03  0.39349151420E+03  0.00000000000E+00 0. -1.
         24    2    1    2    0    0  0.29066934499E+02 -0.21472350684E+03 -0.35321600546E+02  0.23338111096E+03  0.79171057946E+02 0.  0.
         23    2    1    2    0    0  0.12060606062E+03  0.91719757633E+02  0.39190215585E+03  0.43001054573E+03  0.91451811782E+02 0.  0.
        -13    1    3    3    0    0 -0.20875387072E+02 -0.37759619705E+02  0.93699977045E+01  0.44151642355E+02  0.00000000000E+00 0.  1.
         14    1    3    3    0    0  0.49942321571E+02 -0.17696388713E+03 -0.44691598250E+02  0.18922946860E+03  0.00000000000E+00 0. -1.
        -13    1    4    4    0    0  0.24486770300E+02 -0.14264767842E+02  0.11361867675E+03  0.11709948432E+03  0.00000000000E+00 0. -1.
         13    1    4    4    0    0  0.96119290315E+02  0.10598452547E+03  0.27828347910E+03  0.31291106141E+03  0.00000000000E+00 0.  1.
         21    1    1    2  503  502  0.10753422884E+03  0.50693170475E+02  0.69578194990E+02  0.13774807847E+03  0.00000000000E+00 0. -1.
          1    1    1    2  501    0 -0.25720722396E+03  0.72310578730E+02 -0.11936992737E+03  0.29263211616E+03  0.00000000000E+00 0. -1.
<scales pt_clust_5="13000.00000" pt_clust_6="13000.00000" pt_clust_7="13000.00000" pt_clust_8="13000.00000" pt_clust_9="118.88401" pt_clust_10="219.61056"></scales>
<clustering>
<clus scale="   79.171">  5  6 -1 -1</clus>
<clus scale="   91.452">  7  8 -1 -1</clus>
<clus scale="  118.884">  1  9  2 -1</clus>
<clus scale="  225.904">  2  5  1 -1</clus>
<clus scale="  219.611">  1 10  2 -1</clus>
<clus scale="  118.884">  1  5  2 -1</clus>
</clustering>
</event>
<event>
10    4  0.3403565E-005  0.2113078E+03  0.7546771E-02  0.1181071E+00
         21   -1    0    0  501  502  0.00000000000E+00  0.00000000000E+00  0.75259031221E+02  0.75259031221E+02  0.00000000000E+00 0. -1.
          2   -1    0    0  503    0 -0.00000000000E+00 -0.00000000000E+00 -0.17834908601E+04  0.17834908601E+04  0.00000000000E+00 0. -1.
         24    2    1    2    0    0 -0.15221727620E+02  0.21560234367E+02 -0.68703155956E+03  0.69194680644E+03  0.77983808722E+02 0.  0.
         23    2    1    2    0    0  0.13657844930E+03 -0.17490025692E+02 -0.38503592372E+03  0.41903248664E+03  0.91520426635E+02 0.  0.
        -13    1    3    3    0    0 -0.19583859473E+02 -0.13776531411E+02 -0.71828597366E+02  0.75714382842E+02  0.00000000000E+00 0.  1.
         14    1    3    3    0    0  0.43621318526E+01  0.35336765777E+02 -0.61520296219E+03  0.61623242360E+03  0.00000000000E+00 0. -1.
        -13    1    4    4    0    0  0.71960623325E+02  0.26320091896E+02 -0.26489512764E+03  0.27575443277E+03  0.00000000000E+00 0.  1.
         13    1    4    4    0    0  0.64617825972E+02 -0.43810117588E+02 -0.12014079608E+03  0.14327805387E+03  0.00000000000E+00 0. -1.
         21    1    1    2  503  502  0.11743610081E+03  0.72482727734E+02 -0.28028339279E+03  0.31241601090E+03  0.00000000000E+00 0. -1.
          1    1    1    2  501    0 -0.23879282249E+03 -0.76552936408E+02 -0.35588095283E+03  0.43535458736E+03  0.00000000000E+00 0. -1.
<scales pt_clust_5="13000.00000" pt_clust_6="13000.00000" pt_clust_7="13000.00000" pt_clust_8="13000.00000" pt_clust_9="137.74718" pt_clust_10="190.46001"></scales>
<clustering>
<clus scale="   77.984">  5  6 -1 -1</clus>
<clus scale="   82.329">  2  5  1 -1</clus>
<clus scale="   91.520">  7  8 -1 -1</clus>
<clus scale="  137.747">  2  9  1 -1</clus>
<clus scale="  190.460">  1 10  2 -1</clus>
<clus scale="  190.460">  1  5  2 -1</clus>
</clustering>
</event>
<event>
10    4  0.3403565E-005  0.1753192E+03  0.7546771E-02  0.1200707E+00
         21   -1    0    0  503  502  0.00000000000E+00  0.00000000000E+00  0.76935656921E+03  0.76935656921E+03  0.00000000000E+00 0.  1.
         -1   -1    0    0    0  501 -0.00000000000E+00 -0.00000000000E+00 -0.32835144512E+03  0.32835144512E+03  0.00000000000E+00 0.  1.
         24    2    1    2    0    0  0.36329233256E+01 -0.42081229150E+02  0.15638326987E+02  0.91419460580E+02  0.79554588322E+02 0.  0.
         23    2    1    2    0    0 -0.14804201976E+03  0.50728961040E+02 -0.23855887443E+03  0.30173087835E+03  0.98190219868E+02 0.  0.
        -13    1    3    3    0    0 -0.39259940540E+01 -0.59648217039E+02 -0.87637453075E+01  0.60416276425E+02  0.00000000000E+00 0.  1.
         14    1    3    3    0    0  0.75589173796E+01  0.17566987889E+02  0.24402072294E+02  0.31003184154E+02  0.00000000000E+00 0. -1.
        -13    1    4    4    0    0 -0.48035823764E+02  0.43327775174E+02 -0.32120070333E+02  0.72224894492E+02  0.00000000000E+00 0.  1.
         13    1    4    4    0    0 -0.10000619600E+03  0.74011858660E+01 -0.20643880410E+03  0.22950598386E+03  0.00000000000E+00 0. -1.
         21    1    1    2  503  501 -0.29110023920E+01 -0.51987497991E+02  0.36299412259E+03  0.36670956753E+03  0.00000000000E+00 0.  1.
         -2    1    1    2    0  502  0.14732009883E+03  0.43339766101E+02  0.30093154894E+03  0.33784810787E+03  0.00000000000E+00 0.  1.
<scales pt_clust_5="13000.00000" pt_clust_6="13000.00000" pt_clust_7="13000.00000" pt_clust_8="13000.00000" pt_clust_9="52.06893" pt_clust_10="145.24295"></scales>
<clustering>
<clus scale="   52.069">  1  9  2 -1</clus>
<clus scale="   79.555">  5  6 -1 -1</clus>
<clus scale="   93.470">  2  5  1 -1</clus>
<clus scale="   98.190">  7  8 -1 -1</clus>
<clus scale="  145.243">  1 10  2 -1</clus>
<clus scale="   52.069">  1  5  2 -1</clus>
</clustering>
</event>
<event>
10    4  0.3403565E-005  0.1693011E+03  0.7546771E-02  0.1205952E+00
         21   -1    0    0  503  502  0.00000000000E+00  0.00000000000E+00  0.10533921310E+03  0.10533921310E+03  0.00000000000E+00 0. -1.
          2   -1    0    0  502    0 -0.00000000000E+00 -0.00000000000E+00 -0.86827646199E+03  0.86827646199E+03  0.00000000000E+00 0. -1.
         23    2    1    2    0    0  0.16613896982E+02 -0.36122275143E+02 -0.30161342610E+02  0.10171283228E+03  0.88628174574E+02 0.  0.
         24    2    1    2    0    0 -0.31182458991E+01  0.13429953964E+03 -0.39611513211E+03  0.42581958645E+03  0.79806218492E+02 0.  0.
        -13    1    4    4    0    0  0.34485614832E+02  0.48144601949E+02 -0.11415669521E+03  0.12860369897E+03  0.00000000000E+00 0.  1.
         14    1    4    4    0    0 -0.37603860731E+02  0.86154937691E+02 -0.28195843690E+03  0.29721588748E+03  0.00000000000E+00 0. -1.
        -13    1    3    3    0    0 -0.12619135005E+02  0.15594178044E+02 -0.36824019581E+02  0.41933630600E+02  0.00000000000E+00 0.  1.
         13    1    3    3    0    0  0.29233031988E+02 -0.51716453187E+02  0.66626769714E+01  0.59779201683E+02  0.00000000000E+00 0. -1.
         21    1    1    2  503  501  0.20961438230E+02  0.70189195794E+02 -0.60851237463E+01  0.73504651757E+02  0.00000000000E+00 0. -1.
          1    1    1    2  501    0 -0.34457089314E+02 -0.16836646029E+03 -0.33057565042E+03  0.37257860460E+03  0.00000000000E+00 0. -1.
<scales pt_clust_5="13000.00000" pt_clust_6="13000.00000" pt_clust_7="13000.00000" pt_clust_8="13000.00000" pt_clust_9="73.25234" pt_clust_10="149.31120"></scales>
<clustering>
<clus scale="   73.252">  1  9  2 -1</clus>
<clus scale="   79.806">  5  6 -1 -1</clus>
<clus scale="   88.628">  7  8 -1 -1</clus>
<clus scale="   92.680">  2  7  1 -1</clus>
<clus scale="  149.311">  1 10  2 -1</clus>
<clus scale="   73.252">  1  5  2 -1</clus>
</clustering>
</event>
<event>
10    4  0.3403565E-005  0.1092745E+03  0.7546771E-02  0.1266246E+00
         -1   -1    0    0    0  501 -0.00000000000E+00  0.00000000000E+00  0.25910883702E+03  0.25910883702E+03  0.00000000000E+00 0.  1.
         21   -1    0    0  503  502  0.00000000000E+00 -0.00000000000E+00 -0.13137380133E+03  0.13137380133E+03  0.00000000000E+00 0. -1.
         24    2    1    2    0    0  0.61263703250E+02 -0.12352539181E+02  0.11626900214E+03  0.15425695037E+03  0.79817913509E+02 0.  0.
         23    2    1    2    0    0 -0.53504874811E+02  0.39215978841E+02  0.34591188260E+02  0.11757680657E+03  0.90703310373E+02 0.  0.
        -11    1    3    3    0    0  0.39042862224E+02  0.24669781962E+02  0.96054424254E+02  0.10658046562E+03  0.00000000000E+00 0.  1.
         12    1    3    3    0    0  0.22220841025E+02 -0.37022321143E+02  0.20214577890E+02  0.47676484748E+02  0.00000000000E+00 0. -1.
        -13    1    4    4    0    0 -0.36783811875E+02  0.61761548917E+02  0.48031398087E+02  0.86455496892E+02  0.00000000000E+00 0. -1.
         13    1    4    4    0    0 -0.16721062936E+02 -0.22545570076E+02 -0.13440209827E+02  0.31121309676E+02  0.00000000000E+00 0.  1.
         21    1    1    2  503  501  0.49205975098E+01  0.38829799244E+02  0.14677933565E+02  0.41802001423E+02  0.00000000000E+00 0. -1.
         -2    1    1    2    0  502 -0.12679425948E+02 -0.65693238905E+02 -0.37803088276E+02  0.76846879985E+02  0.00000000000E+00 0.  1.
<scales pt_clust_5="13000.00000" pt_clust_6="13000.00000" pt_clust_7="13000.00000" pt_clust_8="13000.00000" pt_clust_9="39.14033" pt_clust_10="63.60330"></scales>
<clustering>
<clus scale="   39.140">  1  9  2 -1</clus>
<clus scale="   63.603">  2 10  1 -1</clus>
<clus scale="   79.818">  5  6 -1 -1</clus>
<clus scale="   90.703">  7  8 -1 -1</clus>
<clus scale="  100.423">  1  5  2 -1</clus>
<clus scale="   63.603">  2  5  1 -1</clus>
</clustering>
</event>
<event>
10    4  0.3403565E-005  0.9434946E+02  0.7546771E-02  0.1298433E+00
          2   -1    0    0  502    0 -0.00000000000E+00  0.00000000000E+00  0.76581675296E+03  0.76581675296E+03  0.00000000000E+00 0. -1.
         21   -1    0    0  503  502  0.00000000000E+00 -0.00000000000E+00 -0.29096040173E+02  0.29096040173E+02  0.00000000000E+00 0. -1.
         24    2    1    2    0    0 -0.11966876614E+02  0.25898652339E+02  0.31308601301E+03  0.32464834578E+03  0.80992286946E+02 0.  0.
         23    2    1    2    0    0 -0.63564245907E+02 -0.14510052602E+02  0.22024444488E+03  0.24706115158E+03  0.90998033686E+02 0.  0.
        -13    1    3    3    0    0  0.26012959176E+02 -0.13752190656E+02  0.14014776326E+03  0.14320332517E+03  0.00000000000E+00 0.  1.
         14    1    3    3    0    0 -0.37979835789E+02  0.39650842995E+02  0.17293824975E+03  0.18144502061E+03  0.00000000000E+00 0. -1.
        -13    1    4    4    0    0  0.16262230039E+02  0.19126931693E+02  0.56113099811E+02  0.61473405732E+02  0.00000000000E+00 0.  1.
         13    1    4    4    0    0 -0.79826475947E+02 -0.33636984295E+02  0.16413134507E+03  0.18558774585E+03  0.00000000000E+00 0. -1.
         21    1    1    2  503  501  0.25261664206E+02 -0.48360011427E+01  0.19016152702E+02  0.31986757402E+02  0.00000000000E+00 0. -1.
          1    1    1    2  501    0  0.50269458315E+02 -0.65525985945E+01  0.18437410219E+03  0.19121653837E+03  0.00000000000E+00 0. -1.
<scales pt_clust_5="13000.00000" pt_clust_6="13000.00000" pt_clust_7="13000.00000" pt_clust_8="13000.00000" pt_clust_9="25.72039" pt_clust_10="54.58009"></scales>
<clustering>
<clus scale="   25.720">  2  9  1 -1</clus>
<clus scale="   54.580">  2 10  1 -1</clus>
<clus scale="   80.992">  5  6 -1 -1</clus>
<clus scale="   84.740">  1  5  2 -1</clus>
<clus scale="   90.998">  7  8 -1 -1</clus>
<clus scale="   25.720">  2  5  1 -1</clus>
</clustering>
</event>
<event>
10    4  0.3403565E-005  0.2020093E+03  0.7546771E-02  0.1179370E+00
          2   -1    0    0  502    0 -0.00000000000E+00  0.00000000000E+00  0.11435024526E+04  0.11435024526E+04  0.00000000000E+00 0. -1.
         21   -1    0    0  503  502  0.00000000000E+00 -0.00000000000E+00 -0.70772402495E+02  0.70772402495E+02  0.00000000000E+00 0. -1.
         23    2    1    2    0    0 -0.45836621035E+02 -0.12246933931E+02  0.48826313292E+03  0.49798122645E+03  0.85635458247E+02 0.  0.
         24    2    1    2    0    0 -0.16516639172E+03  0.25772648985E+01  0.23016456774E+03  0.29533254947E+03  0.83420664625E+02 0.  0.
        -13    1    4    4    0    0 -0.29567762105E+02 -0.30653831219E+02  0.33677174432E+02  0.54296058807E+02  0.00000000000E+00 0.  1.
         14    1    4    4    0    0 -0.13559862962E+03  0.33231096118E+02  0.19648739331E+03  0.24103649067E+03  0.00000000000E+00 0. -1.
        -11    1    3    3    0    0  0.24322127423E+02 -0.18546058647E+01  0.81168073266E+02  0.84754124166E+02  0.00000000000E+00 0. -1.
         11    1    3    3    0    0 -0.70158748458E+02 -0.10392328066E+02  0.40709505965E+03  0.41322710228E+03  0.00000000000E+00 0.  1.
         21    1    1    2  503  501  0.46682899467E+02  0.33295847673E+02  0.59515656932E+02  0.82643935016E+02  0.00000000000E+00 0. -1.
          1    1    1    2  501    0  0.16432011329E+03 -0.23626178641E+02  0.29478669252E+03  0.33831714417E+03  0.00000000000E+00 0. -1.
<scales pt_clust_5="13000.00000" pt_clust_6="13000.00000" pt_clust_7="13000.00000" pt_clust_8="13000.00000" pt_clust_9="49.38965" pt_clust_10="49.38965"></scales>
<clustering>
<clus scale="   49.390">  9 10 -1 -1</clus>
<clus scale="   83.421">  5  6 -1 -1</clus>
<clus scale="   85.635">  7  8 -1 -1</clus>
<clus scale="   97.900">  1  7  2 -1</clus>
<clus scale="  201.754">  1  5  2 -1</clus>
<clus scale="  202.009">  2  5  1 -1</clus>
</clustering>
</event>
<event>
10    4  0.3403565E-005  0.3334389E+03  0.7546771E-02  0.1099128E+00
          2   -1    0    0  502    0 -0.00000000000E+00  0.00000000000E+00  0.11706400747E+04  0.11706400747E+04  0.00000000000E+00 0. -1.
         21   -1    0    0  503  502  0.00000000000E+00 -0.00000000000E+00 -0.20790075878E+03  0.20790075878E+03  0.00000000000E+00 0. -1.
         23    2    1    2    0    0 -0.48372435511E+02 -0.10707895231E+03  0.53521318242E+02  0.15718786014E+03  0.89653205877E+02 0.  0.
         24    2    1    2    0    0 -0.28264948278E+03  0.42033697115E+02  0.57914986970E+03  0.65078613180E+03  0.80314730689E+02 0.  0.
        -11    1    4    4    0    0 -0.16936844989E+02  0.23873880043E+02  0.77042972697E+02  0.82416251483E+02  0.00000000000E+00 0.  1.
         12    1    4    4    0    0 -0.26571263779E+03  0.18159817071E+02  0.50210689700E+03  0.56836988032E+03  0.00000000000E+00 0. -1.
        -11    1    3    3    0    0 -0.13324598403E+02 -0.61671161421E+02  0.73113623111E+02  0.96573697030E+02  0.00000000000E+00 0.  1.
         11    1    3    3    0    0 -0.35047837109E+02 -0.45407790893E+02 -0.19592304870E+02  0.60614163113E+02  0.00000000000E+00 0. -1.
         21    1    1    2  503  501 -0.26178750964E+02 -0.36322518668E+01 -0.42392112659E+02  0.49956095438E+02  0.00000000000E+00 0. -1.
          1    1    1    2  501    0  0.35720066926E+03  0.68677507066E+02  0.37246024067E+03  0.52061074612E+03  0.00000000000E+00 0. -1.
<scales pt_clust_5="13000.00000" pt_clust_6="13000.00000" pt_clust_7="13000.00000" pt_clust_8="13000.00000" pt_clust_9="26.42953" pt_clust_10="323.62175"></scales>
<clustering>
<clus scale="   26.430">  2  9  1 -1</clus>
<clus scale="   80.315">  5  6 -1 -1</clus>
<clus scale="   89.653">  7  8 -1 -1</clus>
<clus scale="  151.579">  1  7  2 -1</clus>
<clus scale="  323.622">  2 10  1 -1</clus>
<clus scale="   26.430">  2  5  1 -1</clus>
</clustering>
</event>
<event>
10    4  0.3403565E-005  0.1147125E+03  0.7546771E-02  0.1255958E+00
          2   -1    0    0  503    0 -0.00000000000E+00  0.00000000000E+00  0.17867975691E+03  0.17867975691E+03  0.00000000000E+00 0. -1.
         21   -1    0    0  501  502  0.00000000000E+00 -0.00000000000E+00 -0.55112623046E+03  0.55112623046E+03  0.00000000000E+00 0. -1.
         23    2    1    2    0    0 -0.39538496213E+02 -0.54495359695E+02  0.95470308797E+02  0.14775729199E+03  0.90468782259E+02 0.  0.
         24    2    1    2    0    0 -0.70880695277E+02  0.24185217242E+02 -0.68935603436E+02  0.13103705197E+03  0.82520263401E+02 0.  0.
        -13    1    4    4    0    0 -0.31950992748E+02  0.34578856770E+02 -0.76705306288E+02  0.90001484909E+02  0.00000000000E+00 0.  1.
         14    1    4    4    0    0 -0.38929702529E+02 -0.10393639527E+02  0.77697028513E+01  0.41035567061E+02  0.00000000000E+00 0. -1.
        -11    1    3    3    0    0 -0.59521855974E+02 -0.54099176644E+01  0.49722925473E+02  0.77746304512E+02  0.00000000000E+00 0.  1.
         11    1    3    3    0    0  0.19983359761E+02 -0.49085442031E+02  0.45747383324E+02  0.70010987479E+02  0.00000000000E+00 0. -1.
         21    1    1    2  503  502  0.83433175785E+02  0.82824663039E+02 -0.36370537499E+03  0.38223372356E+03  0.00000000000E+00 0. -1.
          1    1    1    2  501    0  0.26986015705E+02 -0.52514520586E+02 -0.35275803919E+02  0.68777919845E+02  0.00000000000E+00 0. -1.
<scales pt_clust_5="13000.00000" pt_clust_6="13000.00000" pt_clust_7="13000.00000" pt_clust_8="13000.00000" pt_clust_9="70.52920" pt_clust_10="59.04253"></scales>
<clustering>
<clus scale="   59.043">  2 10  1 -1</clus>
<clus scale="   82.520">  5  6 -1 -1</clus>
<clus scale="   90.469">  7  8 -1 -1</clus>
<clus scale="  106.223">  2  5  1 -1</clus>
<clus scale="   70.529">  2  9  1 -1</clus>
<clus scale="   59.043">  2  5  1 -1</clus>
</clustering>
</event>
<event>
10    4  0.3403565E-005  0.1877027E+03  0.7546771E-02  0.1194344E+00
          2   -1    0    0  503    0 -0.00000000000E+00  0.00000000000E+00  0.67063794089E+03  0.67063794089E+03  0.00000000000E+00 0. -1.
         21   -1    0    0  501  502  0.00000000000E+00 -0.00000000000E+00 -0.20146406191E+03  0.20146406191E+03  0.00000000000E+00 0. -1.
         24    2    1    2    0    0  0.36530992958E+02  0.11786429738E+02  0.29837155030E+03  0.31117971860E+03  0.79585186258E+02 0.  0.
         23    2    1    2    0    0 -0.62860170625E+02  0.14954625318E+03  0.29434494194E+02  0.18818728640E+03  0.90733579368E+02 0.  0.
        -11    1    3    3    0    0  0.26075607928E+02 -0.33069745647E+02  0.13244492342E+03  0.13897914645E+03  0.00000000000E+00 0.  1.
         12    1    3    3    0    0  0.10455385030E+02  0.44856175386E+02  0.16592662687E+03  0.17220057216E+03  0.00000000000E+00 0. -1.
        -13    1    4    4    0    0 -0.38500052255E+02  0.14605786552E+03  0.16284689897E+01  0.15105563881E+03  0.00000000000E+00 0. -1.
         13    1    4    4    0    0 -0.24360118371E+02  0.34883876562E+01  0.27806025205E+02  0.37131647596E+02  0.00000000000E+00 0.  1.
         21    1    1    2  503  502 -0.33593811994E+02 -0.10250620404E+02 -0.86202799666E+02  0.93083522136E+02  0.00000000000E+00 0. -1.
          1    1    1    2  501    0  0.59922989661E+02 -0.15108206251E+03  0.22757063415E+03  0.27965147565E+03  0.00000000000E+00 0. -1.
<scales pt_clust_5="13000.00000" pt_clust_6="13000.00000" pt_clust_7="13000.00000" pt_clust_8="13000.00000" pt_clust_9="35.12292" pt_clust_10="164.31598"></scales>
<clustering>
<clus scale="   35.123">  2  9  1 -1</clus>
<clus scale="   79.585">  5  6 -1 -1</clus>
<clus scale="   87.504">  1  5  2 -1</clus>
<clus scale="   90.734">  7  8 -1 -1</clus>
<clus scale="  164.316">  2 10  1 -1</clus>
<clus scale="   35.123">  2  5  1 -1</clus>
</clustering>
</event>
<event>
10    4  0.3403565E-005  0.2747154E+03  0.7546771E-02  0.1145310E+00
         -1   -1    0    0    0  501 -0.00000000000E+00  0.00000000000E+00  0.42261927860E+03  0.42261927860E+03  0.00000000000E+00 0.  1.
         21   -1    0    0  503  502  0.00000000000E+00 -0.00000000000E+00 -0.34685716147E+03  0.34685716147E+03  0.00000000000E+00 0.  1.
         24    2    1    2    0    0  0.24438945404E+02  0.30142477667E+02 -0.71453675528E+02  0.11428022187E+03  0.80302617339E+02 0.  0.
         23    2    1    2    0    0 -0.19281650248E+03 -0.15997415765E+03 -0.90252194763E+02  0.28087968319E+03  0.89319667619E+02 0.  0.
        -13    1    3    3    0    0  0.68736895620E+01  0.28099891619E+02 -0.86407558144E+02  0.91121444357E+02  0.00000000000E+00 0.  1.
         14    1    3    3    0    0  0.17565255842E+02  0.20425860475E+01  0.14953882616E+02  0.23158777512E+02  0.00000000000E+00 0. -1.
        -11    1    4    4    0    0 -0.98957707622E+02 -0.52382109316E+02  0.36462142142E-02  0.11196657219E+03  0.00000000000E+00 0. -1.
         11    1    4    4    0    0 -0.93858794854E+02 -0.10759204834E+03 -0.90255840977E+02  0.16891311100E+03  0.00000000000E+00 0.  1.
         21    1    1    2  503  501 -0.23508607841E+02 -0.20939010614E+02 -0.31114797908E+01  0.31635077281E+02  0.00000000000E+00 0.  1.
         -2    1    1    2    0  502  0.19188616491E+03  0.15077069060E+03  0.24057946721E+03  0.34268145773E+03  0.00000000000E+00 0.  1.
<scales pt_clust_5="13000.00000" pt_clust_6="13000.00000" pt_clust_7="13000.00000" pt_clust_8="13000.00000" pt_clust_9="31.48169" pt_clust_10="259.78953"></scales>
<clustering>
<clus scale="   31.482">  2  9  1 -1</clus>
<clus scale="   80.303">  5  6 -1 -1</clus>
<clus scale="   85.752">  1  5  2 -1</clus>
<clus scale="   89.320">  7  8 -1 -1</clus>
<clus scale="  259.790">  2 10  1 -1</clus>
<clus scale="   31.482">  2  5  1 -1</clus>
</clustering>
</event>
<event>
10    4  0.3403565E-005  0.1310161E+03  0.7546771E-02  0.1249414E+00
         21   -1    0    0  501  502  0.00000000000E+00  0.00000000000E+00  0.23243234205E+03  0.23243234205E+03  0.00000000000E+00 0. -1.
          2   -1    0    0  503    0 -0.00000000000E+00 -0.00000000000E+00 -0.37191213271E+03  0.37191213271E+03  0.00000000000E+00 0. -1.
         23    2    1    2    0    0 -0.43890438789E+02 -0.25300021283E+02 -0.13149026182E+03  0.15503583598E+03  0.64652608542E+02 0.  0.
         24    2    1    2    0    0  0.11250672568E+03 -0.29720047751E+02 -0.78062429355E+02  0.16356700485E+03  0.84376404510E+02 0.  0.
        -13    1    4    4    0    0  0.84067238810E+02 -0.19467220654E+02 -0.95464735705E+02  0.12868484404E+03  0.00000000000E+00 0.  1.
         14    1    4    4    0    0  0.28439486874E+02 -0.10252827096E+02  0.17402306350E+02  0.34882160819E+02  0.00000000000E+00 0. -1.
        -11    1    3    3    0    0 -0.42093637104E+02  0.45871385665E+01 -0.38090785832E+02  0.56954579185E+02  0.00000000000E+00 0. -1.
         11    1    3    3    0    0 -0.17968016856E+01 -0.29887159849E+02 -0.93399475985E+02  0.98081256794E+02  0.00000000000E+00 0.  1.
         21    1    1    2  503  502 -0.94586064534E+02  0.40628480621E+02  0.16043784214E+03  0.19062397077E+03  0.00000000000E+00 0. -1.
          1    1    1    2  501    0  0.25969777640E+02  0.14391588412E+02 -0.90364941635E+02  0.95117663157E+02  0.00000000000E+00 0. -1.
<scales pt_clust_5="13000.00000" pt_clust_6="13000.00000" pt_clust_7="13000.00000" pt_clust_8="13000.00000" pt_clust_9="100.22892" pt_clust_10="29.69087"></scales>
<clustering>
<clus scale="   29.691">  1 10  2 -1</clus>
<clus scale="   64.653">  7  8 -1 -1</clus>
<clus scale="   81.208">  2  7  1 -1</clus>
<clus scale="   84.376">  5  6 -1 -1</clus>
<clus scale="  100.229">  1  9  2 -1</clus>
<clus scale="   29.691">  1  5  2 -1</clus>
</clustering>
</event>
<event>
10    4  0.3403565E-005  0.2071726E+03  0.7546771E-02  0.1152023E+00
         21   -1    0    0  501  502  0.00000000000E+00  0.00000000000E+00  0.56979068680E+03  0.56979068680E+03  0.00000000000E+00 0.  1.
          2   -1    0    0  503    0 -0.00000000000E+00 -0.00000000000E+00 -0.44588468337E+03  0.44588468337E+03  0.00000000000E+00 0. -1.
         24    2    1    2    0    0  0.12253107035E+03 -0.83328961743E+02 -0.24382219580E+03  0.29641067479E+03  0.80327118075E+02 0.  0.
         23    2    1    2    0    0  0.54187055696E+02  0.19104891815E+03 -0.49137105679E+02  0.22796907592E+03  0.10059581646E+03 0.  0.
        -11    1    3    3    0    0  0.90390581442E+02 -0.72976707710E+02 -0.11587389875E+03  0.16408174028E+03  0.00000000000E+00 0.  1.
         12    1    3    3    0    0  0.32140488909E+02 -0.10352254033E+02 -0.12794829705E+03  0.13232893451E+03  0.00000000000E+00 0. -1.
        -11    1    4    4    0    0 -0.19563565257E+02  0.21420501173E+02  0.14407809826E+02  0.32390676746E+02  0.00000000000E+00 0.  1.
         11    1    4    4    0    0  0.73750620953E+02  0.16962841697E+03 -0.63544915505E+02  0.19557839917E+03  0.00000000000E+00 0. -1.
         21    1    1    2  503  502 -0.16729293740E+03 -0.26121193687E+02  0.33481978161E+03  0.37519798749E+03  0.00000000000E+00 0.  1.
          1    1    1    2  501    0 -0.94251886479E+01 -0.81598762716E+02  0.82045523292E+02  0.11609763197E+03  0.00000000000E+00 0. -1.
<scales pt_clust_5="13000.00000" pt_clust_6="13000.00000" pt_clust_7="13000.00000" pt_clust_8="13000.00000" pt_clust_9="181.11035" pt_clust_10="82.14129"></scales>
<clustering>
<clus scale="   80.327">  5  6 -1 -1</clus>
<clus scale="   82.141">  1 10  2 -1</clus>
<clus scale="  100.596">  7  8 -1 -1</clus>
<clus scale="  170.475">  2  5  1 -1</clus>
<clus scale="  181.110">  1  9  2 -1</clus>
<clus scale="   82.141">  1  5  2 -1</clus>
</clustering>
</event>
<event>
10    4  0.3403565E-005  0.1111124E+03  0.7546771E-02  0.1263772E+00
         21   -1    0    0  501  502  0.00000000000E+00  0.00000000000E+00  0.32923198437E+02  0.32923198437E+02  0.00000000000E+00 0. -1.
          2   -1    0    0  503    0 -0.00000000000E+00 -0.00000000000E+00 -0.80797101463E+03  0.80797101463E+03  0.00000000000E+00 0. -1.
         24    2    1    2    0    0 -0.52955020769E+02  0.80272827498E+00 -0.41289932839E+03  0.42397765190E+03  0.80413402700E+02 0.  0.
         23    2    1    2    0    0  0.75201469878E+02 -0.25636814400E+02 -0.25915611250E+03  0.28677235538E+03  0.93616162258E+02 0.  0.
        -13    1    3    3    0    0  0.19339870453E+02 -0.56156014591E+01 -0.50221557035E+02  0.54108875057E+02  0.00000000000E+00 0.  1.
         14    1    3    3    0    0 -0.72294891222E+02  0.64183297341E+01 -0.36267777135E+03  0.36986877685E+03  0.00000000000E+00 0. -1.
        -11    1    4    4    0    0  0.15764578889E+02  0.25091581605E+02 -0.21531974248E+02  0.36629705568E+02  0.00000000000E+00 0.  1.
         11    1    4    4    0    0  0.59436890989E+02 -0.50728396004E+02 -0.23762413826E+03  0.25014264981E+03  0.00000000000E+00 0. -1.
         21    1    1    2  503  502  0.16669288562E+02  0.17220728194E+02 -0.50696448992E+01  0.24497345980E+02  0.00000000000E+00 0. -1.
          1    1    1    2  501    0 -0.38915737671E+02  0.76133579310E+01 -0.97922730404E+02  0.10564685981E+03  0.00000000000E+00 0. -1.
<scales pt_clust_5="13000.00000" pt_clust_6="13000.00000" pt_clust_7="13000.00000" pt_clust_8="13000.00000" pt_clust_9="23.96703" pt_clust_10="37.63041"></scales>
<clustering>
<clus scale="   23.967">  1  9  2 -1</clus>
<clus scale="   37.630">  1 10  2 -1</clus>
<clus scale="   80.413">  5  6 -1 -1</clus>
<clus scale="   93.616">  7  8 -1 -1</clus>
<clus scale="  100.241">  2  5  1 -1</clus>
<clus scale="   23.967">  1  5  2 -1</clus>
</clustering>
</event>
<event>
10    4  0.3403565E-005  0.9439684E+02  0.7546771E-02  0.1298981E+00
          2   -1    0    0  503    0 -0.00000000000E+00  0.00000000000E+00  0.30324649021E+03  0.30324649021E+03  0.00000000000E+00 0. -1.
         21   -1    0    0  501  502  0.00000000000E+00 -0.00000000000E+00 -0.31309010867E+03  0.31309010867E+03  0.00000000000E+00 0.  1.
         24    2    1    2    0    0  0.61154970039E+01 -0.20747804926E+02  0.24102117166E+03  0.25493880635E+03  0.80216700770E+02 0.  0.
         23    2    1    2    0    0 -0.28259987646E+01  0.54566171711E+02 -0.47788469644E+02  0.11661331187E+03  0.91265948255E+02 0.  0.
        -13    1    3    3    0    0  0.16867367142E+02 -0.42095533194E+02  0.21447643738E+03  0.21921834818E+03  0.00000000000E+00 0.  1.
         14    1    3    3    0    0 -0.10751870138E+02  0.21347728267E+02  0.26544734277E+02  0.35720458164E+02  0.00000000000E+00 0. -1.
        -11    1    4    4    0    0 -0.32844889060E+02  0.14164700766E+02  0.12668799524E+02  0.37946330080E+02  0.00000000000E+00 0. -1.
         11    1    4    4    0    0  0.30018890295E+02  0.40401470946E+02 -0.60457269169E+02  0.78666981793E+02  0.00000000000E+00 0.  1.
         21    1    1    2  503  502  0.13469989157E+02 -0.50710312481E+02 -0.21273029835E+03  0.21910535419E+03  0.00000000000E+00 0.  1.
          1    1    1    2  501    0 -0.16759487396E+02  0.16891945696E+02  0.96539778833E+01  0.25679126468E+02  0.00000000000E+00 0. -1.
<scales pt_clust_5="13000.00000" pt_clust_6="13000.00000" pt_clust_7="13000.00000" pt_clust_8="13000.00000" pt_clust_9="38.78845" pt_clust_10="23.79535"></scales>
<clustering>
<clus scale="   23.795">  2 10  1 -1</clus>
<clus scale="   38.788">  2  9  1 -1</clus>
<clus scale="   80.217">  5  6 -1 -1</clus>
<clus scale="   83.762">  1  5  2 -1</clus>
<clus scale="   91.266">  7  8 -1 -1</clus>
<clus scale="   23.795">  2  5  1 -1</clus>
</clustering>
</event>
<event>
10    4  0.3403565E-005  0.2538014E+03  0.7546771E-02  0.1139290E+00
         21   -1    0    0  501  502  0.00000000000E+00  0.00000000000E+00  0.69391779161E+03  0.69391779161E+03  0.00000000000E+00 0.  1.
         -1   -1    0    0    0  501 -0.00000000000E+00 -0.00000000000E+00 -0.22172573802E+03  0.22172573802E+03  0.00000000000E+00 0.  1.
         24    2    1    2    0    0  0.99087414046E+02 -0.42305456609E+00  0.48684155145E+02  0.13604678274E+03  0.79498965621E+02 0.  0.
         23    2    1    2    0    0  0.75957743864E+02  0.21953568619E+03  0.20853574341E+03  0.32983789519E+03  0.10649124123E+03 0.  0.
        -11    1    3    3    0    0  0.39168195208E+02 -0.38866433619E+02  0.28196751054E+02  0.61966151632E+02  0.00000000000E+00 0.  1.
         12    1    3    3    0    0  0.59919218838E+02  0.38443379053E+02  0.20487404090E+02  0.74080631109E+02  0.00000000000E+00 0. -1.
        -11    1    4    4    0    0  0.50457145327E+02  0.13939807074E+03  0.61598929323E+02  0.16053714129E+03  0.00000000000E+00 0.  1.
         11    1    4    4    0    0  0.25500598536E+02  0.80137615451E+02  0.14693681409E+03  0.16930075390E+03  0.00000000000E+00 0. -1.
         21    1    1    2  503  502 -0.10123743546E+02 -0.20892084131E+02  0.18919739017E+03  0.19061642586E+03  0.00000000000E+00 0. -1.
         -2    1    1    2    0  503 -0.16492141436E+03 -0.19822054750E+03  0.25774764865E+02  0.25914242584E+03  0.00000000000E+00 0.  1.
<scales pt_clust_5="13000.00000" pt_clust_6="13000.00000" pt_clust_7="13000.00000" pt_clust_8="13000.00000" pt_clust_9="23.21571" pt_clust_10="230.37970"></scales>
<clustering>
<clus scale="   23.216">  1  9  2 -1</clus>
<clus scale="   79.499">  5  6 -1 -1</clus>
<clus scale="  106.491">  7  8 -1 -1</clus>
<clus scale="  125.667">  2  5  1 -1</clus>
<clus scale="  230.380">  1 10  2 -1</clus>
<clus scale="   23.216">  1  5  2 -1</clus>
</clustering>
</event>
<event>
10    4  0.3403565E-005  0.1461115E+03  0.7546771E-02  0.1226653E+00
         21   -1    0    0  503  502  0.00000000000E+00  0.00000000000E+00  0.13349152915E+03  0.13349152915E+03  0.00000000000E+00 0. -1.
          4   -1    0    0  502    0 -0.00000000000E+00 -0.00000000000E+00 -0.55809511838E+03  0.55809511838E+03  0.00000000000E+00 0. -1.
         23    2    1    2    0    0 -0.12376643652E+02 -0.50263686333E+01 -0.14030103681E+03  0.16792760022E+03  0.91306365037E+02 0.  0.
         24    2    1    2    0    0  0.10436545370E+03  0.29614844327E+00 -0.17828500503E+03  0.22135826677E+03  0.79509141725E+02 0.  0.
        -13    1    4    4    0    0 -0.23584800746E+01 -0.21347117136E+02 -0.39382423783E+02  0.44857966308E+02  0.00000000000E+00 0.  1.
         14    1    4    4    0    0  0.10672393377E+03  0.21643265580E+02 -0.13890258125E+03  0.17650030046E+03  0.00000000000E+00 0. -1.
        -13    1    3    3    0    0  0.62645921741E+01 -0.22921221583E+02  0.14829624817E+01  0.23808122389E+02  0.00000000000E+00 0. -1.
         13    1    3    3    0    0 -0.18641235826E+02  0.17894852950E+02 -0.14178399929E+03  0.14411947783E+03  0.00000000000E+00 0.  1.
         21    1    1    2  503  501  0.54341166644E+02 -0.70819741578E+02  0.24049952611E+02  0.92448896208E+02  0.00000000000E+00 0. -1.
          3    1    1    2  501    0 -0.14632997669E+03  0.75549961769E+02 -0.13006750001E+03  0.20985188433E+03  0.00000000000E+00 0. -1.
<scales pt_clust_5="13000.00000" pt_clust_6="13000.00000" pt_clust_7="13000.00000" pt_clust_8="13000.00000" pt_clust_9="89.26588" pt_clust_10="122.58417"></scales>
<clustering>
<clus scale="   79.509">  5  6 -1 -1</clus>
<clus scale="   89.266">  1  9  2 -1</clus>
<clus scale="   91.306">  7  8 -1 -1</clus>
<clus scale="   93.100">  2  7  1 -1</clus>
<clus scale="  122.584">  1 10  2 -1</clus>
<clus scale="   89.266">  1  5  2 -1</clus>
</clustering>
</event>
<event>
10    4  0.3403565E-005  0.2424770E+03  0.7546771E-02  0.1133107E+00
         21   -1    0    0  503  502  0.00000000000E+00  0.00000000000E+00  0.20722473689E+03  0.20722473689E+03  0.00000000000E+00 0.  1.
          2   -1    0    0  502    0 -0.00000000000E+00 -0.00000000000E+00 -0.74484092573E+03  0.74484092573E+03  0.00000000000E+00 0. -1.
         23    2    1    2    0    0  0.94765833872E+02  0.10619780860E+03  0.25507574932E+02  0.16939057044E+03  0.88226929875E+02 0.  0.
         24    2    1    2    0    0  0.10048440887E+03 -0.23045527882E+03 -0.43899552367E+03  0.51237395240E+03  0.81260355280E+02 0.  0.
        -13    1    4    4    0    0  0.25509305660E+02 -0.15562042200E+03 -0.24567239160E+03  0.29193041023E+03  0.00000000000E+00 0.  1.
         14    1    4    4    0    0  0.74975103207E+02 -0.74834856814E+02 -0.19332313207E+03  0.22044354218E+03  0.00000000000E+00 0. -1.
        -13    1    3    3    0    0  0.79675449429E+02  0.63149601926E+02 -0.21470989784E+02  0.10390886809E+03  0.00000000000E+00 0.  1.
         13    1    3    3    0    0  0.15090384442E+02  0.43048206675E+02  0.46978564715E+02  0.65481702355E+02  0.00000000000E+00 0. -1.
         21    1    1    2  503  501 -0.37269239568E+02  0.82729940214E+01  0.25462707936E+00  0.38177263954E+02  0.00000000000E+00 0. -1.
          1    1    1    2  501    0 -0.15798100317E+03  0.11598447619E+03 -0.12438286718E+03  0.23212387583E+03  0.00000000000E+00 0. -1.
<scales pt_clust_5="13000.00000" pt_clust_6="13000.00000" pt_clust_7="13000.00000" pt_clust_8="13000.00000" pt_clust_9="28.23382" pt_clust_10="237.24282"></scales>
<clustering>
<clus scale="   28.234">  9 10 -1 -1</clus>
<clus scale="   81.260">  5  6 -1 -1</clus>
<clus scale="   88.227">  7  8 -1 -1</clus>
<clus scale="  167.459">  2  7  1 -1</clus>
<clus scale="  237.243">  1  9  2 -1</clus>
<clus scale="  237.243">  1  5  2 -1</clus>
</clustering>
</event>
<event>
10    4  0.3403565E-005  0.3963679E+03  0.7546771E-02  0.1065062E+00
         21   -1    0    0  501  502  0.00000000000E+00  0.00000000000E+00  0.77885515834E+03  0.77885515834E+03  0.00000000000E+00 0. -1.
          2   -1    0    0  503    0 -0.00000000000E+00 -0.00000000000E+00 -0.13975804854E+04  0.13975804854E+04  0.00000000000E+00 0. -1.
         24    2    1    2    0    0  0.87315238243E+02  0.19254384626E+03 -0.10153044638E+04  0.10401378861E+04  0.79665451971E+02 0.  0.
         23    2    1    2    0    0  0.25362818208E+03 -0.20986860763E+03  0.11119011990E+03  0.35905352088E+03  0.90466020586E+02 0.  0.
        -13    1    3    3    0    0 -0.11853209594E+01  0.45093533011E+02 -0.11450630210E+03  0.12307121891E+03  0.00000000000E+00 0.  1.
         14    1    3    3    0    0  0.88500559202E+02  0.14745031324E+03 -0.90079816175E+03  0.91706666719E+03  0.00000000000E+00 0. -1.
        -11    1    4    4    0    0  0.10355848229E+03 -0.59449499224E+02  0.81359001532E+02  0.14449183140E+03  0.00000000000E+00 0.  1.
         11    1    4    4    0    0  0.15006969979E+03 -0.15041910840E+03  0.29831118368E+02  0.21456168948E+03  0.00000000000E+00 0. -1.
         21    1    1    2  503  502  0.15280185212E+03 -0.12138240012E+03  0.10661570493E+02  0.19543736121E+03  0.00000000000E+00 0. -1.
          1    1    1    2  501    0 -0.49374527244E+03  0.13870716149E+03  0.27472744635E+03  0.58180687559E+03  0.00000000000E+00 0. -1.
<scales pt_clust_5="13000.00000" pt_clust_6="13000.00000" pt_clust_7="13000.00000" pt_clust_8="13000.00000" pt_clust_9="195.14634" pt_clust_10="385.90597"></scales>
<clustering>
<clus scale="   79.665">  5  6 -1 -1</clus>
<clus scale="   90.466">  7  8 -1 -1</clus>
<clus scale="  195.146">  1  9  2 -1</clus>
<clus scale="  225.140">  2  5  1 -1</clus>
<clus scale="  385.906">  1 10  2 -1</clus>
<clus scale="  195.146">  1  5  2 -1</clus>
</clustering>
</event>
<event>
10    4  0.3403565E-005  0.1493802E+03  0.7546771E-02  0.1220513E+00
         21   -1    0    0  501  502  0.00000000000E+00  0.00000000000E+00  0.27229255826E+03  0.27229255826E+03  0.00000000000E+00 0. -1.
          2   -1    0    0  503    0 -0.00000000000E+00 -0.00000000000E+00 -0.29413633928E+03  0.29413633928E+03  0.00000000000E+00 0. -1.
         24    2    1    2    0    0 -0.59299294898E+02  0.68836712155E+01 -0.17928865030E+03  0.20548213734E+03  0.80713675015E+02 0.  0.
         23    2    1    2    0    0  0.14340712337E+02 -0.11208607073E+03  0.41752779381E+02  0.15090198688E+03  0.90879985569E+02 0.  0.
        -11    1    3    3    0    0  0.12942268131E+02  0.22723265959E+02 -0.40290905704E+02  0.48033386334E+02  0.00000000000E+00 0.  1.
         12    1    3    3    0    0 -0.72241563029E+02 -0.15839594744E+02 -0.13899774460E+03  0.15744875101E+03  0.00000000000E+00 0. -1.
        -13    1    4    4    0    0 -0.30040082774E+02 -0.67991935749E+02  0.47282988168E+02  0.88096486139E+02  0.00000000000E+00 0.  1.
         13    1    4    4    0    0  0.44380795111E+02 -0.44094134984E+02 -0.55302087872E+01  0.62805500746E+02  0.00000000000E+00 0. -1.
         21    1    1    2  503  502  0.38941899956E+02 -0.23962316203E+02  0.25068472840E+02  0.52144918262E+02  0.00000000000E+00 0. -1.
          1    1    1    2  501    0  0.60166826055E+01  0.12916471572E+03  0.90623617066E+02  0.15789985506E+03  0.00000000000E+00 0. -1.
<scales pt_clust_5="13000.00000" pt_clust_6="13000.00000" pt_clust_7="13000.00000" pt_clust_8="13000.00000" pt_clust_9="45.72378" pt_clust_10="118.55494"></scales>
<clustering>
<clus scale="   45.724">  1  9  2 -1</clus>
<clus scale="   80.714">  5  6 -1 -1</clus>
<clus scale="   90.880">  7  8 -1 -1</clus>
<clus scale="   99.034">  2  5  1 -1</clus>
<clus scale="  118.555">  1 10  2 -1</clus>
<clus scale="   45.724">  1  5  2 -1</clus>
</clustering>
</event>
<event>
10    4  0.3403565E-005  0.2530123E+03  0.7546771E-02  0.1111917E+00
          2   -1    0    0  503    0 -0.00000000000E+00  0.00000000000E+00  0.83566449022E+03  0.83566449022E+03  0.00000000000E+00 0. -1.
         21   -1    0    0  501  502  0.00000000000E+00 -0.00000000000E+00 -0.34513050580E+03  0.34513050580E+03  0.00000000000E+00 0. -1.
         24    2    1    2    0    0  0.23184961549E+03 -0.14341557100E+03  0.47728498881E+03  0.55539708863E+03  0.79641040356E+02 0.  0.
         23    2    1    2    0    0 -0.60210615199E+02  0.20828799884E+03  0.15017687452E+03  0.27841478650E+03  0.89176740577E+02 0.  0.
        -13    1    3    3    0    0  0.93530243105E+02 -0.68949522770E+02  0.13076778961E+03  0.17493472458E+03  0.00000000000E+00 0.  1.
         14    1    3    3    0    0  0.13831937239E+03 -0.74466048232E+02  0.34651719920E+03  0.38046236405E+03  0.00000000000E+00 0. -1.
        -11    1    4    4    0    0 -0.48261481491E+02  0.41901405061E+02  0.64818315370E+02  0.91029184052E+02  0.00000000000E+00 0.  1.
         11    1    4    4    0    0 -0.11949133708E+02  0.16638659378E+03  0.85358559146E+02  0.18738560245E+03  0.00000000000E+00 0. -1.
         21    1    1    2  503  502  0.14747308679E+02  0.36035712805E+02 -0.12914988383E+03  0.13489161650E+03  0.00000000000E+00 0. -1.
          1    1    1    2  501    0 -0.18638630897E+03 -0.10090814065E+03 -0.77779950844E+01  0.21209150437E+03  0.00000000000E+00 0. -1.
<scales pt_clust_5="13000.00000" pt_clust_6="13000.00000" pt_clust_7="13000.00000" pt_clust_8="13000.00000" pt_clust_9="38.93656" pt_clust_10="196.82029"></scales>
<clustering>
<clus scale="   38.937">  2  9  1 -1</clus>
<clus scale="   79.641">  5  6 -1 -1</clus>
<clus scale="   89.177">  7  8 -1 -1</clus>
<clus scale="  196.820">  2 10  1 -1</clus>
<clus scale="  249.811">  1  5  2 -1</clus>
<clus scale="   38.937">  2  5  1 -1</clus>
</clustering>
</event>
<event>
10    4  0.3403565E-005  0.1534275E+03  0.7546771E-02  0.1205311E+00
         21   -1    0    0  501  502  0.00000000000E+00  0.00000000000E+00  0.72528658373E+03  0.72528658373E+03  0.00000000000E+00 0. -1.
          2   -1    0    0  503    0 -0.00000000000E+00 -0.00000000000E+00 -0.70695742930E+03  0.70695742930E+03  0.00000000000E+00 0. -1.
         23    2    1    2    0    0  0.91939468882E+02  0.76524354652E+02  0.22038607368E+03  0.26014190428E+03  0.69245549304E+02 0.  0.
         24    2    1    2    0    0 -0.17665513247E+03  0.19089060745E+02 -0.64572072803E+03  0.67469888994E+03  0.81804067204E+02 0.  0.
        -11    1    4    4    0    0 -0.77410135726E+02 -0.24627212360E+02 -0.19767030598E+03  0.21371096969E+03  0.00000000000E+00 0.  1.
         12    1    4    4    0    0 -0.99244996747E+02  0.43716273105E+02 -0.44805042205E+03  0.46098792025E+03  0.00000000000E+00 0. -1.
        -11    1    3    3    0    0  0.13249188914E+01  0.24700902769E+02  0.88788681338E+02  0.92170059897E+02  0.00000000000E+00 0.  1.
         11    1    3    3    0    0  0.90614549990E+02  0.51823451883E+02  0.13159739234E+03  0.16797184438E+03  0.00000000000E+00 0. -1.
         21    1    1    2  503  502 -0.31896205387E+02 -0.25654046471E+02  0.89284489989E+01  0.41895288756E+02  0.00000000000E+00 0. -1.
          1    1    1    2  501    0  0.11661186898E+03 -0.69959368926E+02  0.43473535979E+03  0.45550793005E+03  0.00000000000E+00 0. -1.
<scales pt_clust_5="13000.00000" pt_clust_6="13000.00000" pt_clust_7="13000.00000" pt_clust_8="13000.00000" pt_clust_9="40.93285" pt_clust_10="129.80017"></scales>
<clustering>
<clus scale="   40.933">  1  9  2 -1</clus>
<clus scale="   69.246">  7  8 -1 -1</clus>
<clus scale="   81.804">  5  6 -1 -1</clus>
<clus scale="  126.253">  2  7  1 -1</clus>
<clus scale="  129.800">  1 10  2 -1</clus>
<clus scale="   40.933">  1  5  2 -1</clus>
</clustering>
</event>
<event>
10    4  0.3403565E-005  0.2367007E+03  0.7546771E-02  0.1160533E+00
          2   -1    0    0  503    0 -0.00000000000E+00  0.00000000000E+00  0.14230385885E+04  0.14230385885E+04  0.00000000000E+00 0. -1.
         21   -1    0    0  501  502  0.00000000000E+00 -0.00000000000E+00 -0.10930910561E+03  0.10930910561E+03  0.00000000000E+00 0. -1.
         24    2    1    2    0    0 -0.21807312363E+02 -0.44026488589E+02  0.20295694985E+02  0.95811692172E+02  0.79712449166E+02 0.  0.
         23    2    1    2    0    0 -0.14703079891E+03  0.69366842648E+02  0.45763018980E+03  0.49513080097E+03  0.96432902949E+02 0.  0.
        -13    1    3    3    0    0  0.29597246061E+02 -0.20749277103E+02  0.14999178312E+02  0.39134445502E+02  0.00000000000E+00 0.  1.
         14    1    3    3    0    0 -0.51404558423E+02 -0.23277211486E+02  0.52965166724E+01  0.56677246670E+02  0.00000000000E+00 0. -1.
        -11    1    4    4    0    0  0.97380926038E+01  0.22586068587E+02  0.76945266794E+02  0.80780783753E+02  0.00000000000E+00 0.  1.
         11    1    4    4    0    0 -0.15676889151E+03  0.46780774060E+02  0.38068492300E+03  0.41435001722E+03  0.00000000000E+00 0. -1.
         21    1    1    2  503  502 -0.75392665376E+02  0.10951688309E+03  0.14680293871E+03  0.19806338502E+03  0.00000000000E+00 0. -1.
          1    1    1    2  501    0  0.24423077665E+03 -0.13485723715E+03  0.68900065940E+03  0.74334181594E+03  0.00000000000E+00 0. -1.
<scales pt_clust_5="13000.00000" pt_clust_6="13000.00000" pt_clust_7="13000.00000" pt_clust_8="13000.00000" pt_clust_9="130.05273" pt_clust_10="216.16644"></scales>
<clustering>
<clus scale="   79.712">  5  6 -1 -1</clus>
<clus scale="   93.637">  1  5  2 -1</clus>
<clus scale="   96.433">  7  8 -1 -1</clus>
<clus scale="  130.053">  2  9  1 -1</clus>
<clus scale="  216.166">  2 10  1 -1</clus>
<clus scale="  130.053">  2  5  1 -1</clus>
</clustering>
</event>
<event>
10    4  0.9823011E-005  0.4392561E+03  0.7546771E-02  0.1082272E+00
         21   -1    0    0  501  502  0.00000000000E+00  0.00000000000E+00  0.20346896262E+03  0.20346896262E+03  0.00000000000E+00 0. -1.
          2   -1    0    0  503    0 -0.00000000000E+00 -0.00000000000E+00 -0.13417871487E+04  0.13417871487E+04  0.00000000000E+00 0. -1.
         24    2    1    2    0    0  0.16473742039E+02 -0.59461898578E+02 -0.13882205674E+03  0.17255621165E+03  0.81835085277E+02 0.  0.
         23    2    1    2    0    0 -0.29332839036E+03  0.37011379019E+03 -0.38199992320E+03  0.61417689534E+03  0.90904098694E+02 0.  0.
        -13    1    3    3    0    0 -0.97606047983E+01 -0.64068603755E+02 -0.56317614585E+02  0.85858774192E+02  0.00000000000E+00 0.  1.
         14    1    3    3    0    0  0.26234346837E+02  0.46067051769E+01 -0.82504442156E+02  0.86697437459E+02  0.00000000000E+00 0. -1.
        -13    1    4    4    0    0 -0.51348316184E+02  0.68666040624E+02 -0.28492916235E+02  0.90352205206E+02  0.00000000000E+00 0.  1.
         13    1    4    4    0    0 -0.24198007418E+03  0.30144774956E+03 -0.35350700697E+03  0.52382469013E+03  0.00000000000E+00 0. -1.
         21    1    1    2  503  502  0.39748437834E+02 -0.68322518011E+01 -0.14437394668E+02  0.42837557583E+02  0.00000000000E+00 0. -1.
          1    1    1    2  501    0  0.23710621049E+03 -0.30381963981E+03 -0.60305881144E+03  0.71568544671E+03  0.00000000000E+00 0. -1.
<scales pt_clust_5="13000.00000" pt_clust_6="13000.00000" pt_clust_7="13000.00000" pt_clust_8="13000.00000" pt_clust_9="40.33135" pt_clust_10="429.74705"></scales>
<clustering>
<clus scale="   40.331">  1  9  2 -1</clus>
<clus scale="   81.835">  5  6 -1 -1</clus>
<clus scale="   90.904">  7  8 -1 -1</clus>
<clus scale="  103.470">  2  5  1 -1</clus>
<clus scale="  429.747">  1 10  2 -1</clus>
<clus scale="   40.331">  1  5  2 -1</clus>
</clustering>
</event>
<event>
10    4  0.3403565E-005  0.1389013E+03  0.7546771E-02  0.1227704E+00
         -1   -1    0    0    0  501 -0.00000000000E+00  0.00000000000E+00  0.19791393276E+03  0.19791393276E+03  0.00000000000E+00 0.  1.
         21   -1    0    0  503  502  0.00000000000E+00 -0.00000000000E+00 -0.26550829799E+03  0.26550829799E+03  0.00000000000E+00 0.  1.
         23    2    1    2    0    0  0.41050075049E+02  0.21156604330E+02 -0.12632538291E+03  0.16500495957E+03  0.95581503169E+02 0.  0.
         24    2    1    2    0    0 -0.73226793877E+02  0.79957668946E+02 -0.16009495708E+01  0.13445103328E+03  0.79492925125E+02 0.  0.
        -13    1    4    4    0    0 -0.53339295128E+02  0.45548944598E+02  0.36781293381E+02  0.79200065035E+02  0.00000000000E+00 0.  1.
         14    1    4    4    0    0 -0.19887498750E+02  0.34408724348E+02 -0.38382242952E+02  0.55250968243E+02  0.00000000000E+00 0. -1.
        -11    1    3    3    0    0  0.58632180869E+02  0.43381559732E+02 -0.66043601379E+02  0.98394357772E+02  0.00000000000E+00 0.  1.
         11    1    3    3    0    0 -0.17582105820E+02 -0.22224955402E+02 -0.60281781532E+02  0.66610601802E+02  0.00000000000E+00 0. -1.
         21    1    1    2  503  501 -0.13076164398E+02  0.18032527739E+02 -0.14666456975E+01  0.22322839910E+02  0.00000000000E+00 0.  1.
         -2    1    1    2    0  502  0.45252883227E+02 -0.11914680102E+03  0.61798612944E+02  0.14164339799E+03  0.00000000000E+00 0.  1.
<scales pt_clust_5="13000.00000" pt_clust_6="13000.00000" pt_clust_7="13000.00000" pt_clust_8="13000.00000" pt_clust_9="22.27461" pt_clust_10="113.90554"></scales>
<clustering>
<clus scale="   22.275">  1  9  2 -1</clus>
<clus scale="   79.493">  5  6 -1 -1</clus>
<clus scale="   95.582">  7  8 -1 -1</clus>
<clus scale="  106.027">  1  7  2 -1</clus>
<clus scale="  113.906">  2 10  1 -1</clus>
<clus scale="  113.906">  2  5  1 -1</clus>
</clustering>
</event>
<event>
10    4  0.3403565E-005  0.3695689E+03  0.7546771E-02  0.1073887E+00
          2   -1    0    0  502    0 -0.00000000000E+00  0.00000000000E+00  0.20409516261E+04  0.20409516261E+04  0.00000000000E+00 0. -1.
         21   -1    0    0  503  502  0.00000000000E+00 -0.00000000000E+00 -0.21993980632E+03  0.21993980632E+03  0.00000000000E+00 0. -1.
         23    2    1    2    0    0 -0.10396663227E+03 -0.17758435689E+03  0.28029646338E+02  0.22682362400E+03  0.91203239489E+02 0.  0.
         24    2    1    2    0    0 -0.26448387575E+03 -0.22762860368E+02  0.12399376522E+04  0.12705268147E+04  0.79518155603E+02 0.  0.
        -13    1    4    4    0    0 -0.55196109124E+02  0.21151411104E+02  0.18801418730E+03  0.19708710582E+03  0.00000000000E+00 0.  1.
         14    1    4    4    0    0 -0.20928776663E+03 -0.43914271473E+02  0.10519234649E+04  0.10734397089E+04  0.00000000000E+00 0. -1.
        -13    1    3    3    0    0 -0.60399828755E+02 -0.10597111565E+03  0.61453065885E+02  0.13658146277E+03  0.00000000000E+00 0.  1.
         13    1    3    3    0    0 -0.43566803513E+02 -0.71613241233E+02 -0.33423419546E+02  0.90242161224E+02  0.00000000000E+00 0. -1.
         21    1    1    2  503  501 -0.91457161449E+01  0.22520870814E+02 -0.34889932200E+02  0.42522242590E+02  0.00000000000E+00 0. -1.
          1    1    1    2  501    0  0.37759622416E+03  0.17782634644E+03  0.58793445335E+03  0.72101875109E+03  0.00000000000E+00 0. -1.
<scales pt_clust_5="13000.00000" pt_clust_6="13000.00000" pt_clust_7="13000.00000" pt_clust_8="13000.00000" pt_clust_9="24.30707" pt_clust_10="360.91282"></scales>
<clustering>
<clus scale="   24.307">  2  9  1 -1</clus>
<clus scale="   79.518">  5  6 -1 -1</clus>
<clus scale="   91.203">  7  8 -1 -1</clus>
<clus scale="  217.938">  1  7  2 -1</clus>
<clus scale="  360.913">  2 10  1 -1</clus>
<clus scale="   24.307">  2  5  1 -1</clus>
</clustering>
</event>
<event>
10    4  0.3403565E-005  0.7664888E+03  0.7546771E-02  0.9609831E-01
          2   -1    0    0  502    0 -0.00000000000E+00  0.00000000000E+00  0.69098057751E+03  0.69098057751E+03  0.00000000000E+00 0. -1.
         21   -1    0    0  503  502  0.00000000000E+00 -0.00000000000E+00 -0.15714278277E+04  0.15714278277E+04  0.00000000000E+00 0. -1.
         24    2    1    2    0    0  0.24621024784E+03 -0.14952160124E+03  0.17695344410E+03  0.34705525692E+03  0.78476968595E+02 0.  0.
         23    2    1    2    0    0  0.32905503070E+03 -0.33573130395E+03  0.99777498113E+02  0.48908529904E+03  0.90863408097E+02 0.  0.
        -11    1    3    3    0    0  0.17759097233E+03 -0.71732433642E+02  0.89639130671E+02  0.21146931039E+03  0.00000000000E+00 0.  1.
         12    1    3    3    0    0  0.68619275503E+02 -0.77789167599E+02  0.87314313427E+02  0.13558594653E+03  0.00000000000E+00 0. -1.
        -11    1    4    4    0    0  0.59518993492E+01 -0.38539232418E+02  0.16074993645E+02  0.42179413959E+02  0.00000000000E+00 0.  1.
         11    1    4    4    0    0  0.32310313135E+03 -0.29719207153E+03  0.83702504469E+02  0.44690588508E+03  0.00000000000E+00 0. -1.
         21    1    1    2  503  501 -0.21898245506E+02  0.12681630504E+03 -0.41032992425E+03  0.43003785311E+03  0.00000000000E+00 0. -1.
          1    1    1    2  501    0 -0.55336703303E+03  0.35843660015E+03 -0.74684826818E+03  0.99622999617E+03  0.00000000000E+00 0. -1.
<scales pt_clust_5="13000.00000" pt_clust_6="13000.00000" pt_clust_7="13000.00000" pt_clust_8="13000.00000" pt_clust_9="128.69308" pt_clust_10="728.94069"></scales>
<clustering>
<clus scale="   78.477">  5  6 -1 -1</clus>
<clus scale="   90.863">  7  8 -1 -1</clus>
<clus scale="  128.693">  2  9  1 -1</clus>
<clus scale="  159.144">  5  7 -1 -1</clus>
<clus scale="  728.941">  2 10  1 -1</clus>
<clus scale="  128.693">  2  5  1 -1</clus>
</clustering>
</event>
<event>
10    4  0.3403565E-005  0.1554566E+03  0.7546771E-02  0.1209560E+00
         -1   -1    0    0    0  501 -0.00000000000E+00  0.00000000000E+00  0.95691162665E+03  0.95691162665E+03  0.00000000000E+00 0.  1.
         21   -1    0    0  503  502  0.00000000000E+00 -0.00000000000E+00 -0.20197495919E+03  0.20197495919E+03  0.00000000000E+00 0.  1.
         24    2    1    2    0    0  0.41084273480E+02  0.37502884738E+02  0.19693389762E+02  0.10098475007E+03  0.81949412787E+02 0.  0.
         23    2    1    2    0    0 -0.11285640311E+02  0.75858141203E+02  0.53996185772E+03  0.55333539689E+03  0.93484920655E+02 0.  0.
        -13    1    3    3    0    0 -0.16155545391E+02  0.12335503520E+02  0.31365873787E+02  0.37376253590E+02  0.00000000000E+00 0.  1.
         14    1    3    3    0    0  0.57239818871E+02  0.25167381218E+02 -0.11672484025E+02  0.63608496485E+02  0.00000000000E+00 0. -1.
        -11    1    4    4    0    0 -0.19655752164E+02  0.96571145629E+02  0.44463674489E+03  0.45542745819E+03  0.00000000000E+00 0.  1.
         11    1    4    4    0    0  0.83701118525E+01 -0.20713004426E+02  0.95325112825E+02  0.97907938697E+02  0.00000000000E+00 0. -1.
         21    1    1    2  503  501 -0.88673951247E+01  0.45407491191E+02 -0.13218062940E+03  0.14004352802E+03  0.00000000000E+00 0.  1.
         -2    1    1    2    0  502 -0.20931238044E+02 -0.15876851713E+03  0.32746204938E+03  0.36452291086E+03  0.00000000000E+00 0.  1.
<scales pt_clust_5="13000.00000" pt_clust_6="13000.00000" pt_clust_7="13000.00000" pt_clust_8="13000.00000" pt_clust_9="46.26522" pt_clust_10="124.20674"></scales>
<clustering>
<clus scale="   46.265">  2  9  1 -1</clus>
<clus scale="   81.949">  5  6 -1 -1</clus>
<clus scale="   93.485">  7  8 -1 -1</clus>
<clus scale="  110.804">  1  5  2 -1</clus>
<clus scale="  124.207">  2 10  1 -1</clus>
<clus scale="   46.265">  2  5  1 -1</clus>
</clustering>
</event>
<event>
10    4  0.3403565E-005  0.2178925E+03  0.7546771E-02  0.1136392E+00
          2   -1    0    0  502    0 -0.00000000000E+00  0.00000000000E+00  0.12034102357E+04  0.12034102357E+04  0.00000000000E+00 0. -1.
         21   -1    0    0  503  502  0.00000000000E+00 -0.00000000000E+00 -0.10404083554E+03  0.10404083554E+03  0.00000000000E+00 0. -1.
         23    2    1    2    0    0  0.12915001752E+03 -0.24530334134E+03  0.69486974875E+03  0.75366315718E+03  0.91163207886E+02 0.  0.
         24    2    1    2    0    0  0.80366210730E+01  0.12102474812E+03  0.12403923819E+03  0.19056702197E+03  0.78857341548E+02 0.  0.
        -11    1    4    4    0    0  0.34329458705E+02  0.34484010181E+02  0.69856481422E+02  0.85132759205E+02  0.00000000000E+00 0.  1.
         12    1    4    4    0    0 -0.26292837632E+02  0.86540737940E+02  0.54182756766E+02  0.10543426276E+03  0.00000000000E+00 0. -1.
        -13    1    3    3    0    0  0.10327737154E+03 -0.13660313167E+03  0.50626385505E+03  0.53444337585E+03  0.00000000000E+00 0.  1.
         13    1    3    3    0    0  0.25872645987E+02 -0.10870020967E+03  0.18860589369E+03  0.21921978134E+03  0.00000000000E+00 0. -1.
         21    1    1    2  503  501 -0.23809433881E+02  0.83225375531E+02  0.42458103708E+02  0.96415988531E+02  0.00000000000E+00 0. -1.
          1    1    1    2  501    0 -0.11337720472E+03  0.41053217687E+02  0.23800230952E+03  0.26680490357E+03  0.00000000000E+00 0. -1.
<scales pt_clust_5="13000.00000" pt_clust_6="13000.00000" pt_clust_7="13000.00000" pt_clust_8="13000.00000" pt_clust_9="86.56415" pt_clust_10="130.71889"></scales>
<clustering>
<clus scale="   78.857">  5  6 -1 -1</clus>
<clus scale="   86.564">  2  9  1 -1</clus>
<clus scale="   91.163">  7  8 -1 -1</clus>
<clus scale="  130.719">  2 10  1 -1</clus>
<clus scale="  213.037">  2  5  1 -1</clus>
<clus scale="   86.564">  2  5  1 -1</clus>
</clustering>
</event>
<event>
10    4  0.3403565E-005  0.1304822E+03  0.7546771E-02  0.1238615E+00
         21   -1    0    0  503  502  0.00000000000E+00  0.00000000000E+00  0.29280334077E+03  0.29280334077E+03  0.00000000000E+00 0. -1.
          4   -1    0    0  502    0 -0.00000000000E+00 -0.00000000000E+00 -0.14865704550E+04  0.14865704550E+04  0.00000000000E+00 0. -1.
         23    2    1    2    0    0  0.57122510996E+02  0.10336234087E+02 -0.19558731247E+03  0.22304961482E+03  0.90149403066E+02 0.  0.
         24    2    1    2    0    0 -0.36593837675E+01  0.77337073882E+02 -0.11146288862E+04  0.11202799974E+04  0.81457378298E+02 0.  0.
        -11    1    4    4    0    0 -0.29482275537E+02  0.54495447303E+01 -0.17484218568E+03  0.17739417128E+03  0.00000000000E+00 0.  1.
         12    1    4    4    0    0  0.25822891769E+02  0.71887529151E+02 -0.93978670052E+03  0.94288582610E+03  0.00000000000E+00 0. -1.
        -11    1    3    3    0    0  0.40022656293E+02  0.32271559169E+02 -0.18700340891E+03  0.19394210861E+03  0.00000000000E+00 0. -1.
         11    1    3    3    0    0  0.17099854703E+02 -0.21935325082E+02 -0.85839035610E+01  0.29107506208E+02  0.00000000000E+00 0.  1.
         21    1    1    2  503  501 -0.35123364980E+02  0.24565117162E+02  0.25398643209E+03  0.25757756780E+03  0.00000000000E+00 0. -1.
          3    1    1    2  501    0 -0.18339762249E+02 -0.11223842513E+03 -0.13753734768E+03  0.17846661582E+03  0.00000000000E+00 0. -1.
<scales pt_clust_5="13000.00000" pt_clust_6="13000.00000" pt_clust_7="13000.00000" pt_clust_8="13000.00000" pt_clust_9="42.86135" pt_clust_10="101.93277"></scales>
<clustering>
<clus scale="   42.861">  1  9  2 -1</clus>
<clus scale="   81.457">  5  6 -1 -1</clus>
<clus scale="   90.149">  7  8 -1 -1</clus>
<clus scale="  102.223">  2  7  1 -1</clus>
<clus scale="  101.933">  1 10  2 -1</clus>
<clus scale="   42.861">  1  5  2 -1</clus>
</clustering>
</event>
<event>
10    4  0.3403565E-005  0.9972834E+02  0.7546771E-02  0.1289517E+00
         21   -1    0    0  503  502  0.00000000000E+00  0.00000000000E+00  0.80825217765E+02  0.80825217765E+02  0.00000000000E+00 0.  1.
          2   -1    0    0  502    0 -0.00000000000E+00 -0.00000000000E+00 -0.44637353823E+03  0.44637353823E+03  0.00000000000E+00 0. -1.
         24    2    1    2    0    0 -0.29362878166E+02 -0.13956903448E+02 -0.32397555998E+03  0.33522664543E+03  0.79748144633E+02 0.  0.
         23    2    1    2    0    0  0.11651293942E+02 -0.10403294714E+02 -0.43651347904E+02  0.10620420290E+03  0.95550569582E+02 0.  0.
        -11    1    3    3    0    0  0.42657535271E+01 -0.41413153667E+02 -0.13228731749E+03  0.13868374208E+03  0.00000000000E+00 0.  1.
         12    1    3    3    0    0 -0.33628631693E+02  0.27456250220E+02 -0.19168824250E+03  0.19654290335E+03  0.00000000000E+00 0. -1.
        -13    1    4    4    0    0 -0.37644052197E+02 -0.25208875011E+02 -0.18858600466E+02  0.49073504630E+02  0.00000000000E+00 0.  1.
         13    1    4    4    0    0  0.49295346139E+02  0.14805580297E+02 -0.24792747438E+02  0.57130698266E+02  0.00000000000E+00 0. -1.
         21    1    1    2  503  501  0.29138881374E+02 -0.11106697274E+02  0.26744232054E+02  0.41081468818E+02  0.00000000000E+00 0.  1.
          1    1    1    2  501    0 -0.11427297150E+02  0.35466895436E+02 -0.24665644634E+02  0.44686438852E+02  0.00000000000E+00 0. -1.
<scales pt_clust_5="13000.00000" pt_clust_6="13000.00000" pt_clust_7="13000.00000" pt_clust_8="13000.00000" pt_clust_9="31.18386" pt_clust_10="33.50437"></scales>
<clustering>
<clus scale="   31.184">  1  9  2 -1</clus>
<clus scale="   33.504">  1 10  2 -1</clus>
<clus scale="   79.748">  5  6 -1 -1</clus>
<clus scale="   84.709">  2  5  1 -1</clus>
<clus scale="   95.551">  7  8 -1 -1</clus>
<clus scale="   31.184">  1  5  2 -1</clus>
</clustering>
</event>
<event>
10    4  0.3403565E-005  0.1054272E+03  0.7546771E-02  0.1274087E+00
         -3   -1    0    0    0  501 -0.00000000000E+00  0.00000000000E+00  0.25073997103E+03  0.25073997103E+03  0.00000000000E+00 0.  1.
         21   -1    0    0  503  502  0.00000000000E+00 -0.00000000000E+00 -0.54317717737E+03  0.54317717737E+03  0.00000000000E+00 0.  1.
         24    2    1    2    0    0 -0.12331496556E+02  0.52907224642E+02  0.20278744949E+03  0.22515748538E+03  0.81375078031E+02 0.  0.
         23    2    1    2    0    0 -0.52398351952E+02 -0.19442107321E+02 -0.12572409094E+03  0.16562943030E+03  0.92211595322E+02 0.  0.
        -11    1    3    3    0    0 -0.27787104541E+02  0.46365311928E+02  0.57554883173E+02  0.78958406177E+02  0.00000000000E+00 0.  1.
         12    1    3    3    0    0  0.15455607985E+02  0.65419127140E+01  0.14523256632E+03  0.14619907921E+03  0.00000000000E+00 0. -1.
        -13    1    4    4    0    0 -0.41802015924E+02 -0.55500684787E+02 -0.71943230603E+02  0.10001781330E+03  0.00000000000E+00 0.  1.
         13    1    4    4    0    0 -0.10596336028E+02  0.36058577466E+02 -0.53780860341E+02  0.65611616998E+02  0.00000000000E+00 0. -1.
         21    1    1    2  503  501 -0.17126618014E+02 -0.42104227225E+02 -0.27090892593E+03  0.27469571009E+03  0.00000000000E+00 0.  1.
         -4    1    1    2    0  502  0.81856466522E+02  0.86391099045E+01 -0.98591638952E+02  0.12843452263E+03  0.00000000000E+00 0.  1.
<scales pt_clust_5="13000.00000" pt_clust_6="13000.00000" pt_clust_7="13000.00000" pt_clust_8="13000.00000" pt_clust_9="45.45423" pt_clust_10="75.21108"></scales>
<clustering>
<clus scale="   45.454">  2  9  1 -1</clus>
<clus scale="   75.211">  2 10  1 -1</clus>
<clus scale="   81.375">  5  6 -1 -1</clus>
<clus scale="   92.212">  7  8 -1 -1</clus>
<clus scale="   96.093">  1  5  2 -1</clus>
<clus scale="   45.454">  2  5  1 -1</clus>
</clustering>
</event>
<event>
10    4  0.3403565E-005  0.1469953E+03  0.7546771E-02  0.1212524E+00
         21   -1    0    0  503  502  0.00000000000E+00  0.00000000000E+00  0.59134020871E+02  0.59134020871E+02  0.00000000000E+00 0. -1.
          2   -1    0    0  502    0 -0.00000000000E+00 -0.00000000000E+00 -0.92534829087E+03  0.92534829087E+03  0.00000000000E+00 0. -1.
         23    2    1    2    0    0  0.62062739354E+02 -0.63320596408E+02 -0.22418496408E+03  0.25763813814E+03  0.90869304836E+02 0.  0.
         24    2    1    2    0    0 -0.10887030706E+03 -0.34838166792E+02 -0.34062928164E+03  0.36981407493E+03  0.87565409174E+02 0.  0.
        -13    1    4    4    0    0 -0.26198710956E+02 -0.53152300498E+02 -0.13503376116E+03  0.14746408430E+03  0.00000000000E+00 0.  1.
         14    1    4    4    0    0 -0.82671596102E+02  0.18314133705E+02 -0.20559552047E+03  0.22234999063E+03  0.00000000000E+00 0. -1.
        -11    1    3    3    0    0  0.74048793074E+02 -0.46581063157E+02 -0.21982594419E+03  0.23659345920E+03  0.00000000000E+00 0. -1.
         11    1    3    3    0    0 -0.11986053719E+02 -0.16739533252E+02 -0.43590198918E+01  0.21044678939E+02  0.00000000000E+00 0.  1.
         21    1    1    2  503  501 -0.33035388391E+02 -0.79132381516E+01 -0.78670417264E+01  0.34868991521E+02  0.00000000000E+00 0. -1.
          1    1    1    2  501    0  0.79842956095E+02  0.10607200135E+03 -0.29353298256E+03  0.32216110715E+03  0.00000000000E+00 0. -1.
<scales pt_clust_5="13000.00000" pt_clust_6="13000.00000" pt_clust_7="13000.00000" pt_clust_8="13000.00000" pt_clust_9="33.96993" pt_clust_10="118.06737"></scales>
<clustering>
<clus scale="   33.970">  1  9  2 -1</clus>
<clus scale="   87.565">  5  6 -1 -1</clus>
<clus scale="   90.869">  7  8 -1 -1</clus>
<clus scale="  123.036">  2  7  1 -1</clus>
<clus scale="  118.067">  1 10  2 -1</clus>
<clus scale="   33.970">  1  5  2 -1</clus>
</clustering>
</event>
<event>
10    4  0.3403565E-005  0.1346031E+03  0.7546771E-02  0.1239260E+00
         -1   -1    0    0    0  501 -0.00000000000E+00  0.00000000000E+00  0.63428020637E+02  0.63428020637E+02  0.00000000000E+00 0.  1.
         21   -1    0    0  501  502  0.00000000000E+00 -0.00000000000E+00 -0.54244895423E+03  0.54244895423E+03  0.00000000000E+00 0.  1.
         24    2    1    2    0    0  0.45148603443E+02 -0.37130156626E+01 -0.19634716854E+03  0.21679207167E+03  0.79965047780E+02 0.  0.
         23    2    1    2    0    0  0.30557497462E+02 -0.69007276415E+02 -0.44543583851E+02  0.12765221979E+03  0.92818066703E+02 0.  0.
        -13    1    3    3    0    0  0.10654138597E+02  0.35541127781E+02 -0.10742113682E+03  0.11364850668E+03  0.00000000000E+00 0.  1.
         14    1    3    3    0    0  0.34494464846E+02 -0.39254143443E+02 -0.88926031714E+02  0.10314356499E+03  0.00000000000E+00 0. -1.
        -13    1    4    4    0    0  0.20925985426E+02 -0.44256885707E+02  0.23724134952E+02  0.54400398691E+02  0.00000000000E+00 0.  1.
         13    1    4    4    0    0  0.96315120356E+01 -0.24750390708E+02 -0.68267718802E+02  0.73251821102E+02  0.00000000000E+00 0. -1.
         21    1    1    2  503  502 -0.37233940346E+02  0.30292292799E+02 -0.13760810911E+03  0.14573942847E+03  0.00000000000E+00 0.  1.
         -2    1    1    2    0  503 -0.38472160559E+02  0.42427999279E+02 -0.10052207209E+03  0.11569325494E+03  0.00000000000E+00 0.  1.
<scales pt_clust_5="13000.00000" pt_clust_6="13000.00000" pt_clust_7="13000.00000" pt_clust_8="13000.00000" pt_clust_9="22.82090" pt_clust_10="100.61920"></scales>
<clustering>
<clus scale="   22.821">  9 10 -1 -1</clus>
<clus scale="   79.965">  5  6 -1 -1</clus>
<clus scale="   91.905">  1  5  2 -1</clus>
<clus scale="   92.818">  7  8 -1 -1</clus>
<clus scale="  100.619">  2  9  1 -1</clus>
<clus scale="  100.619">  2  5  1 -1</clus>
</clustering>
</event>
<event>
10    4  0.3403565E-005  0.3176719E+03  0.7546771E-02  0.1115739E+00
         21   -1    0    0  501  502  0.00000000000E+00  0.00000000000E+00  0.13083367671E+03  0.13083367671E+03  0.00000000000E+00 0. -1.
          2   -1    0    0  503    0 -0.00000000000E+00 -0.00000000000E+00 -0.19350975585E+04  0.19350975585E+04  0.00000000000E+00 0. -1.
         23    2    1    2    0    0  0.63153896214E+02 -0.30512150390E+02 -0.42496037537E+03  0.44013711656E+03  0.90608800940E+02 0.  0.
         24    2    1    2    0    0 -0.26616741328E+03  0.30859523293E+03 -0.64313611674E+03  0.76567792203E+03  0.81009295497E+02 0.  0.
        -11    1    4    4    0    0 -0.28139236160E+02  0.34185267468E+01 -0.39325800781E+02  0.48477020782E+02  0.00000000000E+00 0.  1.
         12    1    4    4    0    0 -0.23802817712E+03  0.30517670619E+03 -0.60381031596E+03  0.71720090125E+03  0.00000000000E+00 0. -1.
        -13    1    3    3    0    0  0.85407081167E+02 -0.15821301066E+02 -0.34846385698E+03  0.35912636036E+03  0.00000000000E+00 0. -1.
         13    1    3    3    0    0 -0.22253184954E+02 -0.14690849323E+02 -0.76496518389E+02  0.81010756199E+02  0.00000000000E+00 0.  1.
         21    1    1    2  503  502  0.16673355648E+03 -0.22160221569E+02 -0.17741905946E+03  0.24447633206E+03  0.00000000000E+00 0. -1.
          1    1    1    2  501    0  0.36279960584E+02 -0.25592286097E+03 -0.55874833023E+03  0.61563986457E+03  0.00000000000E+00 0. -1.
<scales pt_clust_5="13000.00000" pt_clust_6="13000.00000" pt_clust_7="13000.00000" pt_clust_8="13000.00000" pt_clust_9="177.57989" pt_clust_10="307.16932"></scales>
<clustering>
<clus scale="   81.009">  5  6 -1 -1</clus>
<clus scale="   90.609">  7  8 -1 -1</clus>
<clus scale="  114.583">  2  7  1 -1</clus>
<clus scale="  177.580">  1  9  2 -1</clus>
<clus scale="  307.169">  1 10  2 -1</clus>
<clus scale="  177.580">  1  5  2 -1</clus>
</clustering>
</event>
<event>
10    4  0.3403565E-005  0.2474414E+03  0.7546771E-02  0.1121879E+00
         -3   -1    0    0    0  501 -0.00000000000E+00  0.00000000000E+00  0.48431243601E+03  0.48431243601E+03  0.00000000000E+00 0.  1.
         21   -1    0    0  501  502  0.00000000000E+00 -0.00000000000E+00 -0.34375679319E+03  0.34375679319E+03  0.00000000000E+00 0.  1.
         23    2    1    2    0    0 -0.18189962262E+03 -0.49267429516E+01  0.41819862975E+02  0.20928586291E+03  0.94551181741E+02 0.  0.
         24    2    1    2    0    0 -0.90795866547E+01 -0.21416399224E+03  0.13001559762E+03  0.26324846717E+03  0.80293495201E+02 0.  0.
        -11    1    4    4    0    0  0.11792922235E+02 -0.20485394711E+03  0.10973484261E+03  0.23269281971E+03  0.00000000000E+00 0.  1.
         12    1    4    4    0    0 -0.20872508890E+02 -0.93100451389E+01  0.20280755011E+02  0.30555647459E+02  0.00000000000E+00 0. -1.
        -13    1    3    3    0    0 -0.13555719048E+03  0.33754280687E+02  0.76142390911E+01  0.13990382408E+03  0.00000000000E+00 0.  1.
         13    1    3    3    0    0 -0.46342432137E+02 -0.38681023639E+02  0.34205623884E+02  0.69382038824E+02  0.00000000000E+00 0. -1.
         21    1    1    2  503  502 -0.10450631319E+02  0.25033989784E+02 -0.68210953396E+02  0.73407428116E+02  0.00000000000E+00 0. -1.
         -4    1    1    2    0  503  0.20142984059E+03  0.19405674541E+03  0.36931135625E+02  0.28212747101E+03  0.00000000000E+00 0.  1.
<scales pt_clust_5="13000.00000" pt_clust_6="13000.00000" pt_clust_7="13000.00000" pt_clust_8="13000.00000" pt_clust_9="27.12778" pt_clust_10="234.05170"></scales>
<clustering>
<clus scale="   27.128">  2  9  1 -1</clus>
<clus scale="   80.293">  5  6 -1 -1</clus>
<clus scale="   94.551">  7  8 -1 -1</clus>
<clus scale="  207.874">  1  7  2 -1</clus>
<clus scale="  234.052">  2 10  1 -1</clus>
<clus scale="   27.128">  2  5  1 -1</clus>
</clustering>
</event>
<event>
10    4  0.3403565E-005  0.1722860E+03  0.7546771E-02  0.1209508E+00
         -3   -1    0    0    0  501 -0.00000000000E+00  0.00000000000E+00  0.43689550894E+02  0.43689550894E+02  0.00000000000E+00 0.  1.
         21   -1    0    0  503  502  0.00000000000E+00 -0.00000000000E+00 -0.13272713203E+04  0.13272713203E+04  0.00000000000E+00 0.  1.
         24    2    1    2    0    0  0.95714199456E+01 -0.18741354243E+02 -0.11153531654E+03  0.13786731537E+03  0.78258669621E+02 0.  0.
         23    2    1    2    0    0  0.52336048347E+02  0.12622122698E+03 -0.42875949442E+03  0.45946706633E+03  0.92760017768E+02 0.  0.
        -11    1    3    3    0    0  0.63627302010E+01 -0.33316982422E+02 -0.10172521911E+02  0.35411662703E+02  0.00000000000E+00 0.  1.
         12    1    3    3    0    0  0.32086897446E+01  0.14575628179E+02 -0.10136279463E+03  0.10245565266E+03  0.00000000000E+00 0. -1.
        -13    1    4    4    0    0  0.54321214193E+02  0.33794274926E+02 -0.25196767164E+03  0.25996260285E+03  0.00000000000E+00 0. -1.
         13    1    4    4    0    0 -0.19851658464E+01  0.92426952050E+02 -0.17679182278E+03  0.19950446348E+03  0.00000000000E+00 0.  1.
         21    1    1    2  503  501  0.48344487397E+02  0.14107266353E+02 -0.18066356082E+03  0.18755139731E+03  0.00000000000E+00 0.  1.
         -4    1    1    2    0  502 -0.11025195569E+03 -0.12158713909E+03 -0.56262339764E+03  0.58607509220E+03  0.00000000000E+00 0.  1.
<scales pt_clust_5="13000.00000" pt_clust_6="13000.00000" pt_clust_7="13000.00000" pt_clust_8="13000.00000" pt_clust_9="50.36074" pt_clust_10="145.18274"></scales>
<clustering>
<clus scale="   50.361">  2  9  1 -1</clus>
<clus scale="   78.259">  5  6 -1 -1</clus>
<clus scale="   81.491">  1  5  2 -1</clus>
<clus scale="   92.760">  7  8 -1 -1</clus>
<clus scale="  145.183">  2 10  1 -1</clus>
<clus scale="   50.361">  2  5  1 -1</clus>
</clustering>
</event>
<event>
10    4  0.3403565E-005  0.2881740E+03  0.7546771E-02  0.1117278E+00
         21   -1    0    0  501  502  0.00000000000E+00  0.00000000000E+00  0.19565326187E+03  0.19565326187E+03  0.00000000000E+00 0. -1.
          2   -1    0    0  503    0 -0.00000000000E+00 -0.00000000000E+00 -0.13380692990E+04  0.13380692990E+04  0.00000000000E+00 0. -1.
         24    2    1    2    0    0 -0.11513460725E+03  0.15007132345E+02 -0.11100227594E+03  0.17933274861E+03  0.79734168665E+02 0.  0.
         23    2    1    2    0    0  0.31377859664E+03  0.43781574898E+02 -0.13773290551E+03  0.35776756324E+03  0.93023878848E+02 0.  0.
        -11    1    3    3    0    0 -0.87217153090E+01 -0.22567566416E+02 -0.37592581263E+02  0.44705318899E+02  0.00000000000E+00 0.  1.
         12    1    3    3    0    0 -0.10641289194E+03  0.37574698762E+02 -0.73409694675E+02  0.13462742971E+03  0.00000000000E+00 0. -1.
        -13    1    4    4    0    0  0.22076214635E+03  0.41878021968E+02 -0.13992660562E+03  0.26470577808E+03  0.00000000000E+00 0.  1.
         13    1    4    4    0    0  0.93016450283E+02  0.19035529293E+01  0.21937001096E+01  0.93061785161E+02  0.00000000000E+00 0. -1.
         21    1    1    2  503  502 -0.34200304490E+02  0.19382648643E+02  0.33551287616E+02  0.51682074226E+02  0.00000000000E+00 0.  1.
          1    1    1    2  501    0 -0.16444368490E+03 -0.78171355887E+02 -0.92723214333E+03  0.94494017483E+03  0.00000000000E+00 0. -1.
<scales pt_clust_5="13000.00000" pt_clust_6="13000.00000" pt_clust_7="13000.00000" pt_clust_8="13000.00000" pt_clust_9="39.31091" pt_clust_10="272.74698"></scales>
<clustering>
<clus scale="   39.311">  1  9  2 -1</clus>
<clus scale="   79.734">  5  6 -1 -1</clus>
<clus scale="   93.024">  7  8 -1 -1</clus>
<clus scale="  147.661">  2  5  1 -1</clus>
<clus scale="  272.747">  1 10  2 -1</clus>
<clus scale="   39.311">  1  5  2 -1</clus>
</clustering>
</event>
<event>
10    4  0.3403565E-005  0.1901732E+03  0.7546771E-02  0.1188162E+00
          2   -1    0    0  503    0 -0.00000000000E+00  0.00000000000E+00  0.81157543065E+03  0.81157543065E+03  0.00000000000E+00 0. -1.
         21   -1    0    0  501  502  0.00000000000E+00 -0.00000000000E+00 -0.85073857072E+03  0.85073857072E+03  0.00000000000E+00 0.  1.
         24    2    1    2    0    0  0.40157830790E+02 -0.24760002609E+02  0.10822381952E+03  0.14491330260E+03  0.84034284996E+02 0.  0.
         23    2    1    2    0    0 -0.89202010877E+02  0.18359809999E+03  0.62915177903E+03  0.66761124099E+03  0.90595513035E+02 0.  0.
        -11    1    3    3    0    0  0.60674049039E+02 -0.38968908135E+00  0.88971367995E+02  0.10769120859E+03  0.00000000000E+00 0.  1.
         12    1    3    3    0    0 -0.20516218249E+02 -0.24370313528E+02  0.19252451530E+02  0.37222094011E+02  0.00000000000E+00 0. -1.
        -11    1    4    4    0    0 -0.98399984739E+01  0.81555407777E+02  0.14662631769E+03  0.16806959019E+03  0.00000000000E+00 0.  1.
         11    1    4    4    0    0 -0.79362012403E+02  0.10204269221E+03  0.48252546134E+03  0.49954165080E+03  0.00000000000E+00 0. -1.
         21    1    1    2  503  502  0.60903173298E+02 -0.13089072294E+03 -0.79905499443E+03  0.81199166375E+03  0.00000000000E+00 0.  1.
          1    1    1    2  501    0 -0.11858993211E+02 -0.27947374444E+02  0.22516255805E+02  0.37797794033E+02  0.00000000000E+00 0. -1.
<scales pt_clust_5="13000.00000" pt_clust_6="13000.00000" pt_clust_7="13000.00000" pt_clust_8="13000.00000" pt_clust_9="167.20731" pt_clust_10="30.35939"></scales>
<clustering>
<clus scale="   30.359">  2 10  1 -1</clus>
<clus scale="   84.034">  5  6 -1 -1</clus>
<clus scale="   90.596">  7  8 -1 -1</clus>
<clus scale="   96.422">  1  5  2 -1</clus>
<clus scale="  167.207">  2  9  1 -1</clus>
<clus scale="   30.359">  2  5  1 -1</clus>
</clustering>
</event>
<event>
10    4  0.3403565E-005  0.3644110E+03  0.7546771E-02  0.1065463E+00
         21   -1    0    0  501  502  0.00000000000E+00  0.00000000000E+00  0.13973975945E+04  0.13973975945E+04  0.00000000000E+00 0.  1.
          2   -1    0    0  503    0 -0.00000000000E+00 -0.00000000000E+00 -0.78262259183E+03  0.78262259183E+03  0.00000000000E+00 0. -1.
         24    2    1    2    0    0  0.28681536063E+03  0.61414364608E+02 -0.18898686080E+03  0.35955498194E+03  0.86769673305E+02 0.  0.
         23    2    1    2    0    0  0.64777434835E+02  0.36623473806E+03 -0.16159620853E+03  0.41541861002E+03  0.90195828682E+02 0.  0.
        -13    1    3    3    0    0  0.22220410036E+03  0.18007980099E+02 -0.10975527451E+03  0.24848575381E+03  0.00000000000E+00 0.  1.
         14    1    3    3    0    0  0.64611260270E+02  0.43406384510E+02 -0.79231586293E+02  0.11106922813E+03  0.00000000000E+00 0. -1.
        -11    1    4    4    0    0  0.31220047648E+02  0.15035172236E+03 -0.11546393556E+03  0.19212561570E+03  0.00000000000E+00 0.  1.
         11    1    4    4    0    0  0.33557387187E+02  0.21588301570E+03 -0.46132272962E+02  0.22329299431E+03  0.00000000000E+00 0. -1.
         21    1    1    2  503  502 -0.65940542283E+02 -0.17630912784E+03  0.10050233962E+04  0.10224994330E+04  0.00000000000E+00 0.  1.
          1    1    1    2  501    0 -0.28565225319E+03 -0.25133997483E+03 -0.39665324208E+02  0.38254716133E+03  0.00000000000E+00 0. -1.
<scales pt_clust_5="13000.00000" pt_clust_6="13000.00000" pt_clust_7="13000.00000" pt_clust_8="13000.00000" pt_clust_9="188.23672" pt_clust_10="353.07253"></scales>
<clustering>
<clus scale="   86.770">  5  6 -1 -1</clus>
<clus scale="   90.196">  7  8 -1 -1</clus>
<clus scale="  188.237">  1  9  2 -1</clus>
<clus scale="  286.517">  2  5  1 -1</clus>
<clus scale="  353.073">  1 10  2 -1</clus>
<clus scale="  188.237">  1  5  2 -1</clus>
</clustering>
</event>
<event>
10    4  0.3403565E-005  0.1816327E+03  0.7546771E-02  0.1168382E+00
          2   -1    0    0  503    0 -0.00000000000E+00  0.00000000000E+00  0.90472125702E+03  0.90472125702E+03  0.00000000000E+00 0. -1.
         21   -1    0    0  501  502  0.00000000000E+00 -0.00000000000E+00 -0.68502956684E+02  0.68502956684E+02  0.00000000000E+00 0.  1.
         23    2    1    2    0    0 -0.73281447255E+02  0.14449329247E+03  0.37565792554E+03  0.42076294046E+03  0.98356967005E+02 0.  0.
         24    2    1    2    0    0  0.10027023199E+03 -0.94477217741E+02  0.12106755158E+03  0.20051952588E+03  0.81059633094E+02 0.  0.
        -11    1    4    4    0    0  0.89931991598E+02 -0.92625389721E+02  0.67020113055E+02  0.14546106519E+03  0.00000000000E+00 0.  1.
         12    1    4    4    0    0  0.10338240389E+02 -0.18518280197E+01  0.54047438529E+02  0.55058460684E+02  0.00000000000E+00 0. -1.
        -11    1    3    3    0    0 -0.89797045472E+02  0.12531925417E+03  0.25917501838E+03  0.30156278782E+03  0.00000000000E+00 0. -1.
         11    1    3    3    0    0  0.16515598217E+02  0.19174038296E+02  0.11648290716E+03  0.11920015264E+03  0.00000000000E+00 0.  1.
         21    1    1    2  503  502 -0.34651948954E+02 -0.11619969564E+02  0.64165126911E+02  0.73844057110E+02  0.00000000000E+00 0. -1.
          1    1    1    2  501    0  0.76631642219E+01 -0.38396105165E+02  0.27532769630E+03  0.27809769026E+03  0.00000000000E+00 0. -1.
<scales pt_clust_5="13000.00000" pt_clust_6="13000.00000" pt_clust_7="13000.00000" pt_clust_8="13000.00000" pt_clust_9="36.54834" pt_clust_10="42.41509"></scales>
<clustering>
<clus scale="   36.548">  1  9  2 -1</clus>
<clus scale="   42.415">  2 10  1 -1</clus>
<clus scale="   81.060">  5  6 -1 -1</clus>
<clus scale="   98.357">  7  8 -1 -1</clus>
<clus scale="  172.879">  2  5  1 -1</clus>
<clus scale="   42.415">  2  5  1 -1</clus>
</clustering>
</event>
<event>
10    4  0.3403565E-005  0.1685590E+03  0.7546771E-02  0.1192789E+00
          2   -1    0    0  503    0 -0.00000000000E+00  0.00000000000E+00  0.14629103253E+04  0.14629103253E+04  0.00000000000E+00 0. -1.
         21   -1    0    0  501  502  0.00000000000E+00 -0.00000000000E+00 -0.87637648577E+02  0.87637648577E+02  0.00000000000E+00 0.  1.
         23    2    1    2    0    0 -0.61103143790E+02 -0.59533721560E+02  0.41519352642E+03  0.43361001519E+03  0.91400890111E+02 0.  0.
         24    2    1    2    0    0  0.24197731306E+02  0.10771308030E+03  0.25321262004E+03  0.28790569493E+03  0.81150602925E+02 0.  0.
        -13    1    4    4    0    0  0.45828549851E+02  0.34446261870E+02  0.14047105789E+03  0.15171987030E+03  0.00000000000E+00 0.  1.
         14    1    4    4    0    0 -0.21630818545E+02  0.73266818429E+02  0.11274156215E+03  0.13618582463E+03  0.00000000000E+00 0. -1.
        -13    1    3    3    0    0 -0.35672716576E+02  0.17534556285E+02  0.89010653017E+02  0.97482817576E+02  0.00000000000E+00 0. -1.
         13    1    3    3    0    0 -0.25430427213E+02 -0.77068277845E+02  0.32618287340E+03  0.33612719762E+03  0.00000000000E+00 0.  1.
         21    1    1    2  503  502 -0.38070509708E+02  0.11972492471E+03  0.32112914583E+02  0.12967135608E+03  0.00000000000E+00 0.  1.
          1    1    1    2  501    0  0.74975922192E+02 -0.16790428345E+03  0.67475361573E+03  0.69936090772E+03  0.00000000000E+00 0. -1.
<scales pt_clust_5="13000.00000" pt_clust_6="13000.00000" pt_clust_7="13000.00000" pt_clust_8="13000.00000" pt_clust_9="122.79896" pt_clust_10="147.73878"></scales>
<clustering>
<clus scale="   81.151">  5  6 -1 -1</clus>
<clus scale="   91.401">  7  8 -1 -1</clus>
<clus scale="  125.028">  1  7  2 -1</clus>
<clus scale="  122.799">  2  9  1 -1</clus>
<clus scale="  147.739">  2 10  1 -1</clus>
<clus scale="  122.799">  2  5  1 -1</clus>
</clustering>
</event>
<event>
10    4  0.3403565E-005  0.2698014E+03  0.7546771E-02  0.1104025E+00
         21   -1    0    0  501  502  0.00000000000E+00  0.00000000000E+00  0.18758087839E+03  0.18758087839E+03  0.00000000000E+00 0. -1.
          2   -1    0    0  503    0 -0.00000000000E+00 -0.00000000000E+00 -0.12502326423E+04  0.12502326423E+04  0.00000000000E+00 0. -1.
         24    2    1    2    0    0 -0.20899679497E+03  0.12615232730E+03 -0.35059296417E+03  0.43574528962E+03  0.85816437333E+02 0.  0.
         23    2    1    2    0    0  0.22721829177E+03  0.14258241000E+03 -0.88324633652E+02  0.29660871697E+03  0.90650947666E+02 0.  0.
        -11    1    3    3    0    0 -0.65780014382E+02  0.88945913541E+02 -0.15772198138E+03  0.19265152280E+03  0.00000000000E+00 0.  1.
         12    1    3    3    0    0 -0.14321678059E+03  0.37206413756E+02 -0.19287098279E+03  0.24309376682E+03  0.00000000000E+00 0. -1.
        -13    1    4    4    0    0  0.16017762879E+03  0.14174581074E+03 -0.82723437510E+02  0.22932927144E+03  0.00000000000E+00 0. -1.
         13    1    4    4    0    0  0.67040662986E+02  0.83659926095E+00 -0.56011961417E+01  0.67279445525E+02  0.00000000000E+00 0.  1.
         21    1    1    2  503  502  0.25875167550E+02 -0.12830217894E+02  0.10077333494E+01  0.28899036549E+02  0.00000000000E+00 0. -1.
          1    1    1    2  501    0 -0.44096664356E+02 -0.25590451941E+03 -0.62474189948E+03  0.67656047758E+03  0.00000000000E+00 0. -1.
<scales pt_clust_5="13000.00000" pt_clust_6="13000.00000" pt_clust_7="13000.00000" pt_clust_8="13000.00000" pt_clust_9="28.88146" pt_clust_10="254.11662"></scales>
<clustering>
<clus scale="   28.881">  1  9  2 -1</clus>
<clus scale="   85.816">  5  6 -1 -1</clus>
<clus scale="   90.651">  7  8 -1 -1</clus>
<clus scale="  252.078">  2  5  1 -1</clus>
<clus scale="  254.117">  1 10  2 -1</clus>
<clus scale="   28.881">  1  5  2 -1</clus>
</clustering>
</event>
<event>
10    4  0.3403565E-005  0.2147199E+03  0.7546771E-02  0.1138638E+00
          2   -1    0    0  502    0 -0.00000000000E+00  0.00000000000E+00  0.73640477816E+03  0.73640477816E+03  0.00000000000E+00 0. -1.
         21   -1    0    0  503  502  0.00000000000E+00 -0.00000000000E+00 -0.17358162850E+03  0.17358162850E+03  0.00000000000E+00 0.  1.
         23    2    1    2    0    0 -0.72288062196E+02  0.16213582990E+03  0.36816169966E+03  0.41840066615E+03  0.89456632292E+02 0.  0.
         24    2    1    2    0    0  0.87642108064E+02 -0.25413245807E+03  0.86223835070E+02  0.29333386882E+03  0.79660300742E+02 0.  0.
        -11    1    4    4    0    0  0.64306216968E+02 -0.73613301878E+02  0.39390620800E+02  0.10538419597E+03  0.00000000000E+00 0.  1.
         12    1    4    4    0    0  0.23335891096E+02 -0.18051915619E+03  0.46833214270E+02  0.18794967285E+03  0.00000000000E+00 0. -1.
        -13    1    3    3    0    0 -0.89791784228E+02  0.14870805746E+03  0.34584063192E+03  0.38701730395E+03  0.00000000000E+00 0.  1.
         13    1    3    3    0    0  0.17503722032E+02  0.13427772444E+02  0.22321067735E+02  0.31383362195E+02  0.00000000000E+00 0. -1.
         21    1    1    2  503  501  0.28425609250E+02  0.30794783624E+02 -0.22249912733E+02  0.47448841675E+02  0.00000000000E+00 0.  1.
          1    1    1    2  501    0 -0.43779655118E+02  0.61201844537E+02  0.13068752767E+03  0.15080303002E+03  0.00000000000E+00 0. -1.
<scales pt_clust_5="13000.00000" pt_clust_6="13000.00000" pt_clust_7="13000.00000" pt_clust_8="13000.00000" pt_clust_9="41.90864" pt_clust_10="75.92359"></scales>
<clustering>
<clus scale="   41.909">  2  9  1 -1</clus>
<clus scale="   75.924">  2 10  1 -1</clus>
<clus scale="   79.660">  5  6 -1 -1</clus>
<clus scale="   89.457">  7  8 -1 -1</clus>
<clus scale="  210.827">  2  5  1 -1</clus>
<clus scale="   41.909">  2  5  1 -1</clus>
</clustering>
</event>
<event>
10    4  0.3403565E-005  0.3469013E+03  0.7546771E-02  0.1085641E+00
          2   -1    0    0  503    0 -0.00000000000E+00  0.00000000000E+00  0.98553851652E+03  0.98553851652E+03  0.00000000000E+00 0. -1.
         21   -1    0    0  501  502  0.00000000000E+00 -0.00000000000E+00 -0.44704808442E+03  0.44704808442E+03  0.00000000000E+00 0. -1.
         23    2    1    2    0    0 -0.62715350425E+02  0.15868213403E+03  0.30629446786E+03  0.36291487862E+03  0.93689237581E+02 0.  0.
         24    2    1    2    0    0  0.18269655878E+03 -0.25777492231E+03 -0.26152514329E+03  0.41797919183E+03  0.80531118637E+02 0.  0.
        -13    1    4    4    0    0  0.13790536498E+03 -0.17472745195E+03 -0.13566465163E+03  0.26067694538E+03  0.00000000000E+00 0.  1.
         14    1    4    4    0    0  0.44791193808E+02 -0.83047470360E+02 -0.12586049166E+03  0.15730224645E+03  0.00000000000E+00 0. -1.
        -13    1    3    3    0    0 -0.46237115778E+02  0.14111522120E+02  0.91318402118E+02  0.10332500422E+03  0.00000000000E+00 0.  1.
         13    1    3    3    0    0 -0.16478234647E+02  0.14457061191E+03  0.21497606574E+03  0.25958987439E+03  0.00000000000E+00 0. -1.
         21    1    1    2  503  502  0.69972121543E+02 -0.18754458488E+02 -0.32921229775E+02  0.79571570779E+02  0.00000000000E+00 0.  1.
          1    1    1    2  501    0 -0.18995332990E+03  0.11784724676E+03  0.52664233730E+03  0.57212095972E+03  0.00000000000E+00 0. -1.
<scales pt_clust_5="13000.00000" pt_clust_6="13000.00000" pt_clust_7="13000.00000" pt_clust_8="13000.00000" pt_clust_9="72.44189" pt_clust_10="337.42460"></scales>
<clustering>
<clus scale="   72.442">  2  9  1 -1</clus>
<clus scale="   80.531">  5  6 -1 -1</clus>
<clus scale="   93.689">  7  8 -1 -1</clus>
<clus scale="  191.967">  1  7  2 -1</clus>
<clus scale="  337.425">  2 10  1 -1</clus>
<clus scale="   72.442">  2  5  1 -1</clus>
</clustering>
</event>
<event>
10    4  0.3403565E-005  0.2741189E+03  0.7546771E-02  0.1148488E+00
         21   -1    0    0  501  502  0.00000000000E+00  0.00000000000E+00  0.93348335748E+03  0.93348335748E+03  0.00000000000E+00 0.  1.
          2   -1    0    0  503    0 -0.00000000000E+00 -0.00000000000E+00 -0.25217269758E+03  0.25217269758E+03  0.00000000000E+00 0. -1.
         24    2    1    2    0    0  0.10046129868E+02  0.53729318319E+01  0.66630479143E+02  0.10412842113E+03  0.79204256291E+02 0.  0.
         23    2    1    2    0    0 -0.33149494309E+02 -0.32604375190E+03  0.42396644615E+03  0.54443335559E+03  0.96211818917E+02 0.  0.
        -11    1    3    3    0    0  0.26648679540E+02  0.32174603783E+02  0.57929249186E+02  0.71422371573E+02  0.00000000000E+00 0.  1.
         12    1    3    3    0    0 -0.16602549672E+02 -0.26801671951E+02  0.87012299571E+01  0.32706049559E+02  0.00000000000E+00 0. -1.
        -11    1    4    4    0    0 -0.39862823581E+02 -0.26195009328E+03  0.39025210990E+03  0.47170287825E+03  0.00000000000E+00 0.  1.
         11    1    4    4    0    0  0.67133292725E+01 -0.64093658622E+02  0.33714336247E+02  0.72730477340E+02  0.00000000000E+00 0. -1.
         21    1    1    2  503  502  0.36089286001E+02  0.20249706819E+03  0.30782091417E+03  0.37021779318E+03  0.00000000000E+00 0. -1.
          1    1    1    2  501    0 -0.12985921559E+02  0.11817375188E+03 -0.11710717956E+03  0.16687648515E+03  0.00000000000E+00 0. -1.
<scales pt_clust_5="13000.00000" pt_clust_6="13000.00000" pt_clust_7="13000.00000" pt_clust_8="13000.00000" pt_clust_9="256.67970" pt_clust_10="121.63661"></scales>
<clustering>
<clus scale="   79.204">  5  6 -1 -1</clus>
<clus scale="   80.019">  2  5  1 -1</clus>
<clus scale="   96.212">  7  8 -1 -1</clus>
<clus scale="  121.637">  1 10  2 -1</clus>
<clus scale="  256.680">  2  9  1 -1</clus>
<clus scale="  121.637">  1  5  2 -1</clus>
</clustering>
</event>
<event>
10    4  0.3403565E-005  0.2964280E+03  0.7546771E-02  0.1124605E+00
          2   -1    0    0  502    0 -0.00000000000E+00  0.00000000000E+00  0.18793863660E+04  0.18793863660E+04  0.00000000000E+00 0. -1.
         21   -1    0    0  503  502  0.00000000000E+00 -0.00000000000E+00 -0.15858368599E+03  0.15858368599E+03  0.00000000000E+00 0. -1.
         23    2    1    2    0    0 -0.40013963892E+02 -0.65843874769E+02  0.16847314426E+03  0.20588489526E+03  0.89826814529E+02 0.  0.
         24    2    1    2    0    0 -0.20233018904E+03  0.24525324001E+03  0.11069148300E+04  0.11544669365E+04  0.80292026410E+02 0.  0.
        -11    1    4    4    0    0 -0.78361960529E+02  0.50839541976E+02  0.40575530071E+03  0.41636837049E+03  0.00000000000E+00 0.  1.
         12    1    4    4    0    0 -0.12396822851E+03  0.19441369804E+03  0.70115952925E+03  0.73809856600E+03  0.00000000000E+00 0. -1.
        -11    1    3    3    0    0  0.73895537389E+01 -0.68756463560E+02  0.82344939619E+02  0.10753020909E+03  0.00000000000E+00 0. -1.
         11    1    3    3    0    0 -0.47403517631E+02  0.29125887905E+01  0.86128204640E+02  0.98354686171E+02  0.00000000000E+00 0.  1.
         21    1    1    2  503  501  0.63379109422E+02  0.59667111349E+01 -0.74114858629E+02  0.97701204816E+02  0.00000000000E+00 0. -1.
          1    1    1    2  501    0  0.17896504351E+03 -0.18537607638E+03  0.51952956443E+03  0.57991701545E+03  0.00000000000E+00 0. -1.
<scales pt_clust_5="13000.00000" pt_clust_6="13000.00000" pt_clust_7="13000.00000" pt_clust_8="13000.00000" pt_clust_9="63.65935" pt_clust_10="285.34671"></scales>
<clustering>
<clus scale="   63.659">  2  9  1 -1</clus>
<clus scale="   80.292">  5  6 -1 -1</clus>
<clus scale="   89.827">  7  8 -1 -1</clus>
<clus scale="  112.987">  1  7  2 -1</clus>
<clus scale="  285.347">  2 10  1 -1</clus>
<clus scale="   63.659">  2  5  1 -1</clus>
</clustering>
</event>
<event>
10    4  0.3403565E-005  0.1739113E+03  0.7546771E-02  0.1175813E+00
         21   -1    0    0  501  502  0.00000000000E+00  0.00000000000E+00  0.64026777080E+03  0.64026777080E+03  0.00000000000E+00 0.  1.
          2   -1    0    0  503    0 -0.00000000000E+00 -0.00000000000E+00 -0.39693966092E+03  0.39693966092E+03  0.00000000000E+00 0. -1.
         23    2    1    2    0    0 -0.12172510214E+03  0.27135466624E+02 -0.40726634896E+02  0.15664002716E+03  0.85580986665E+02 0.  0.
         24    2    1    2    0    0  0.13311262620E+03 -0.17162659855E+03 -0.53674079856E+02  0.23404555554E+03  0.68715024815E+02 0.  0.
        -13    1    4    4    0    0  0.12367341161E+03 -0.17618156950E+03 -0.43842593718E+02  0.21967528581E+03  0.00000000000E+00 0.  1.
         14    1    4    4    0    0  0.94392145935E+01  0.45549709504E+01 -0.98314861385E+01  0.14370269733E+02  0.00000000000E+00 0. -1.
        -13    1    3    3    0    0 -0.11760625048E+03  0.47547468304E+02 -0.22228722101E+02  0.12878706449E+03  0.00000000000E+00 0.  1.
         13    1    3    3    0    0 -0.41188516596E+01 -0.20412001680E+02 -0.18497912796E+02  0.27852962668E+02  0.00000000000E+00 0. -1.
         21    1    1    2  503  502 -0.23115445300E+02  0.53956100464E+02  0.47667112377E+03  0.48027174060E+03  0.00000000000E+00 0.  1.
          1    1    1    2  501    0  0.11727921236E+02  0.90535031462E+02 -0.13894229914E+03  0.16625010842E+03  0.00000000000E+00 0. -1.
<scales pt_clust_5="13000.00000" pt_clust_6="13000.00000" pt_clust_7="13000.00000" pt_clust_8="13000.00000" pt_clust_9="58.69910" pt_clust_10="95.58974"></scales>
<clustering>
<clus scale="   58.699">  1  9  2 -1</clus>
<clus scale="   68.715">  5  6 -1 -1</clus>
<clus scale="   85.581">  7  8 -1 -1</clus>
<clus scale="   95.590">  1 10  2 -1</clus>
<clus scale="  166.261">  1  5  2 -1</clus>
<clus scale="   58.699">  1  5  2 -1</clus>
</clustering>
</event>
<event>
10    4  0.3403565E-005  0.1394684E+03  0.7546771E-02  0.1216703E+00
          2   -1    0    0  503    0 -0.00000000000E+00  0.00000000000E+00  0.14063618038E+04  0.14063618038E+04  0.00000000000E+00 0. -1.
         21   -1    0    0  501  502  0.00000000000E+00 -0.00000000000E+00 -0.22751143192E+02  0.22751143192E+02  0.00000000000E+00 0. -1.
         24    2    1    2    0    0  0.97170340478E+02 -0.44311179952E+02  0.88243102285E+03  0.89258777774E+03  0.81381048990E+02 0.  0.
         23    2    1    2    0    0 -0.82934323237E+02  0.47977542553E+02  0.31337227322E+03  0.34069605227E+03  0.93229136267E+02 0.  0.
        -11    1    3    3    0    0  0.49133446610E+02 -0.56713128800E+02  0.35587636482E+03  0.36370106075E+03  0.00000000000E+00 0.  1.
         12    1    3    3    0    0  0.48036893868E+02  0.12401948848E+02  0.52655465803E+03  0.52888671699E+03  0.00000000000E+00 0. -1.
        -11    1    4    4    0    0  0.10307241872E+02  0.35809797810E+02  0.12036536004E+03  0.12600159027E+03  0.00000000000E+00 0.  1.
         11    1    4    4    0    0 -0.93241565109E+02  0.12167744743E+02  0.19300691318E+03  0.21469446199E+03  0.00000000000E+00 0. -1.
         21    1    1    2  503  502  0.36797333526E+01 -0.21054132516E+02  0.35107447155E+02  0.41101700443E+02  0.00000000000E+00 0. -1.
          1    1    1    2  501    0 -0.17915750593E+02  0.17387769915E+02  0.15269991734E+03  0.15472741650E+03  0.00000000000E+00 0. -1.
<scales pt_clust_5="13000.00000" pt_clust_6="13000.00000" pt_clust_7="13000.00000" pt_clust_8="13000.00000" pt_clust_9="21.37328" pt_clust_10="24.08676"></scales>
<clustering>
<clus scale="   21.373">  2  9  1 -1</clus>
<clus scale="   24.087">  2 10  1 -1</clus>
<clus scale="   81.381">  5  6 -1 -1</clus>
<clus scale="   93.229">  7  8 -1 -1</clus>
<clus scale="  131.843">  1  5  2 -1</clus>
<clus scale="   21.373">  2  5  1 -1</clus>
</clustering>
</event>
<event>
10    4  0.3403565E-005  0.1601418E+03  0.7546771E-02  0.1190231E+00
         21   -1    0    0  503  502  0.00000000000E+00  0.00000000000E+00  0.94957464706E+02  0.94957464706E+02  0.00000000000E+00 0.  1.
          2   -1    0    0  502    0 -0.00000000000E+00 -0.00000000000E+00 -0.56832668654E+03  0.56832668654E+03  0.00000000000E+00 0. -1.
         23    2    1    2    0    0  0.13312602172E+02  0.11619396531E+03 -0.95004811289E+02  0.17626321297E+03  0.91457876247E+02 0.  0.
         24    2    1    2    0    0  0.21115296037E+02 -0.14607155648E+03 -0.14094393981E+03  0.21945563369E+03  0.80702079577E+02 0.  0.
        -11    1    4    4    0    0 -0.25684366577E+02 -0.21711937611E+02 -0.41906653453E+02  0.53733253437E+02  0.00000000000E+00 0.  1.
         12    1    4    4    0    0  0.46799662615E+02 -0.12435961887E+03 -0.99037286354E+02  0.16572238025E+03  0.00000000000E+00 0. -1.
        -13    1    3    3    0    0  0.42004222020E+02  0.28787211282E+02 -0.57793632775E+02  0.77027022468E+02  0.00000000000E+00 0. -1.
         13    1    3    3    0    0 -0.28691619848E+02  0.87406754026E+02 -0.37211178513E+02  0.99236190501E+02  0.00000000000E+00 0.  1.
         21    1    1    2  503  501  0.98152915201E+01  0.28991317152E+02 -0.50534849296E+01  0.31022155434E+02  0.00000000000E+00 0. -1.
          1    1    1    2  501    0 -0.44243189729E+02  0.88627402447E+00 -0.23236698581E+03  0.23654314915E+03  0.00000000000E+00 0. -1.
<scales pt_clust_5="13000.00000" pt_clust_6="13000.00000" pt_clust_7="13000.00000" pt_clust_8="13000.00000" pt_clust_9="30.60778" pt_clust_10="44.02318"></scales>
<clustering>
<clus scale="   30.608">  1  9  2 -1</clus>
<clus scale="   44.023">  1 10  2 -1</clus>
<clus scale="   80.702">  5  6 -1 -1</clus>
<clus scale="   91.458">  7  8 -1 -1</clus>
<clus scale="  154.252">  1  5  2 -1</clus>
<clus scale="   30.608">  1  5  2 -1</clus>
</clustering>
</event>
<event>
10    4  0.3403565E-005  0.1176887E+03  0.7546771E-02  0.1250317E+00
         21   -1    0    0  501  502  0.00000000000E+00  0.00000000000E+00  0.34203025754E+03  0.34203025754E+03  0.00000000000E+00 0.  1.
          2   -1    0    0  503    0 -0.00000000000E+00 -0.00000000000E+00 -0.14039894586E+03  0.14039894586E+03  0.00000000000E+00 0. -1.
         23    2    1    2    0    0  0.57620323184E+02  0.60295124027E+02  0.32669579755E+02  0.12782269738E+03  0.91190662340E+02 0.  0.
         24    2    1    2    0    0  0.59831930283E+02 -0.89388603787E+02  0.32207199992E+02  0.13849393077E+03  0.81074550636E+02 0.  0.
        -13    1    4    4    0    0 -0.12471237200E+02 -0.41180927452E+02  0.28310035156E+02  0.51505908725E+02  0.00000000000E+00 0.  1.
         14    1    4    4    0    0  0.72303167483E+02 -0.48207676335E+02  0.38971648358E+01  0.86988022046E+02  0.00000000000E+00 0. -1.
        -13    1    3    3    0    0  0.41226621628E+02  0.84660661593E+02  0.26365014396E+02  0.97786379094E+02  0.00000000000E+00 0.  1.
         13    1    3    3    0    0  0.16393701556E+02 -0.24365537566E+02  0.63045653596E+01  0.30036318283E+02  0.00000000000E+00 0. -1.
         21    1    1    2  503  502 -0.19812970444E+02 -0.24809965666E+02  0.89535485548E+02  0.94998375599E+02  0.00000000000E+00 0.  1.
          1    1    1    2  501    0 -0.97639283023E+02  0.53903445426E+02  0.47219046384E+02  0.12111419966E+03  0.00000000000E+00 0. -1.
<scales pt_clust_5="13000.00000" pt_clust_6="13000.00000" pt_clust_7="13000.00000" pt_clust_8="13000.00000" pt_clust_9="31.75040" pt_clust_10="113.82430"></scales>
<clustering>
<clus scale="   31.750">  1  9  2 -1</clus>
<clus scale="   81.075">  5  6 -1 -1</clus>
<clus scale="   91.191">  7  8 -1 -1</clus>
<clus scale="  113.824">  1 10  2 -1</clus>
<clus scale="  110.036">  1  5  2 -1</clus>
<clus scale="   31.750">  1  5  2 -1</clus>
</clustering>
</event>
<event>
10    4  0.3403565E-005  0.2623522E+03  0.7546771E-02  0.1150946E+00
         21   -1    0    0  503  502  0.00000000000E+00  0.00000000000E+00  0.16401323579E+04  0.16401323579E+04  0.00000000000E+00 0.  1.
         -1   -1    0    0    0  501 -0.00000000000E+00 -0.00000000000E+00 -0.22658106434E+03  0.22658106434E+03  0.00000000000E+00 0.  1.
         24    2    1    2    0    0  0.32786001625E+02 -0.11217620004E+02  0.11728586096E+02  0.86019927079E+02  0.77853138805E+02 0.  0.
         23    2    1    2    0    0 -0.27370405927E+03  0.37011526862E+02  0.11378070118E+03  0.31214760436E+03  0.90588706587E+02 0.  0.
        -11    1    3    3    0    0  0.34511163524E+02  0.26062653342E+02 -0.77290339520E+01  0.43931996003E+02  0.00000000000E+00 0.  1.
         12    1    3    3    0    0 -0.17251618988E+01 -0.37280273346E+02  0.19457620048E+02  0.42087931076E+02  0.00000000000E+00 0. -1.
        -11    1    4    4    0    0 -0.17997683232E+02  0.20476264141E+02  0.34401240733E+02  0.43893500189E+02  0.00000000000E+00 0.  1.
         11    1    4    4    0    0 -0.25570637604E+03  0.16535262721E+02  0.79379460446E+02  0.26825410417E+03  0.00000000000E+00 0. -1.
         21    1    1    2  503  501  0.16360578208E+03 -0.33402305558E+02  0.13554472222E+04  0.13656938669E+04  0.00000000000E+00 0.  1.
         -2    1    1    2    0  502  0.77312275564E+02  0.76083987006E+01 -0.67405215926E+02  0.10285202389E+03  0.00000000000E+00 0.  1.
<scales pt_clust_5="13000.00000" pt_clust_6="13000.00000" pt_clust_7="13000.00000" pt_clust_8="13000.00000" pt_clust_9="246.21610" pt_clust_10="77.68579"></scales>
<clustering>
<clus scale="   77.686">  1 10  2 -1</clus>
<clus scale="   77.853">  5  6 -1 -1</clus>
<clus scale="   86.110">  2  5  1 -1</clus>
<clus scale="   90.589">  7  8 -1 -1</clus>
<clus scale="  246.216">  1  9  2 -1</clus>
<clus scale="   77.686">  1  5  2 -1</clus>
</clustering>
</event>
<event>
10    4  0.3403565E-005  0.9504357E+02  0.7546771E-02  0.1295425E+00
         21   -1    0    0  501  502  0.00000000000E+00  0.00000000000E+00  0.28224584390E+02  0.28224584390E+02  0.00000000000E+00 0. -1.
          2   -1    0    0  503    0 -0.00000000000E+00 -0.00000000000E+00 -0.99073898417E+03  0.99073898417E+03  0.00000000000E+00 0. -1.
         24    2    1    2    0    0  0.17731504610E+02 -0.25293088149E+02 -0.64115560486E+03  0.64730106160E+03  0.83450632929E+02 0.  0.
         23    2    1    2    0    0  0.57012804077E+01  0.15415144712E+02 -0.15768422045E+03  0.18289219874E+03  0.91187234285E+02 0.  0.
        -11    1    3    3    0    0  0.35980362495E+02 -0.31135969521E+02 -0.19453385844E+03  0.20026846273E+03  0.00000000000E+00 0.  1.
         12    1    3    3    0    0 -0.18248857885E+02  0.58428813719E+01 -0.44662174642E+03  0.44703259887E+03  0.00000000000E+00 0. -1.
        -13    1    4    4    0    0  0.44452825773E+00 -0.33945396843E+02 -0.27910553982E+02  0.43948681388E+02  0.00000000000E+00 0. -1.
         13    1    4    4    0    0  0.52567521499E+01  0.49360541555E+02 -0.12977366647E+03  0.13894351735E+03  0.00000000000E+00 0.  1.
         21    1    1    2  503  502 -0.35455554364E+02  0.38201642772E+02 -0.54783857761E+02  0.75615692266E+02  0.00000000000E+00 0. -1.
          1    1    1    2  501    0  0.12022769346E+02 -0.28323699335E+02 -0.10889071670E+03  0.11315461595E+03  0.00000000000E+00 0. -1.
<scales pt_clust_5="13000.00000" pt_clust_6="13000.00000" pt_clust_7="13000.00000" pt_clust_8="13000.00000" pt_clust_9="40.78172" pt_clust_10="30.76979"></scales>
<clustering>
<clus scale="   30.770">  1 10  2 -1</clus>
<clus scale="   40.782">  1  9  2 -1</clus>
<clus scale="   83.451">  5  6 -1 -1</clus>
<clus scale="   87.648">  2  5  1 -1</clus>
<clus scale="   91.187">  7  8 -1 -1</clus>
<clus scale="   30.770">  1  5  2 -1</clus>
</clustering>
</event>
<event>
10    4  0.3403565E-005  0.2257715E+03  0.7546771E-02  0.1144570E+00
         21   -1    0    0  501  502  0.00000000000E+00  0.00000000000E+00  0.23348819720E+03  0.23348819720E+03  0.00000000000E+00 0. -1.
          2   -1    0    0  503    0 -0.00000000000E+00 -0.00000000000E+00 -0.11175855307E+04  0.11175855307E+04  0.00000000000E+00 0. -1.
         24    2    1    2    0    0 -0.13600862652E+03 -0.11372728772E+02 -0.12700721506E+03  0.20286044261E+03  0.79961497287E+02 0.  0.
         23    2    1    2    0    0  0.22933154499E+03 -0.17146242138E+03 -0.77088549056E+03  0.82741933886E+03  0.91465858671E+02 0.  0.
        -11    1    3    3    0    0 -0.11442983777E+03 -0.80686144089E+01 -0.13714075366E+03  0.17879283158E+03  0.00000000000E+00 0.  1.
         12    1    3    3    0    0 -0.21578788752E+02 -0.33041143631E+01  0.10133538601E+02  0.24067611022E+02  0.00000000000E+00 0. -1.
        -11    1    4    4    0    0  0.33359254601E+02 -0.64688775983E+02 -0.25828458748E+03  0.26834382001E+03  0.00000000000E+00 0.  1.
         11    1    4    4    0    0  0.19597229039E+03 -0.10677364539E+03 -0.51260090308E+03  0.55907551886E+03  0.00000000000E+00 0. -1.
         21    1    1    2  503  502  0.21659693798E+01  0.24267753119E+02  0.10966629528E+03  0.11234016016E+03  0.00000000000E+00 0. -1.
          1    1    1    2  501    0 -0.95488887842E+02  0.15856739703E+03 -0.95870923146E+02  0.20845378626E+03  0.00000000000E+00 0. -1.
<scales pt_clust_5="13000.00000" pt_clust_6="13000.00000" pt_clust_7="13000.00000" pt_clust_8="13000.00000" pt_clust_9="24.36422" pt_clust_10="206.41403"></scales>
<clustering>
<clus scale="   24.364">  1  9  2 -1</clus>
<clus scale="   79.961">  5  6 -1 -1</clus>
<clus scale="   91.466">  7  8 -1 -1</clus>
<clus scale="  157.242">  2  5  1 -1</clus>
<clus scale="  206.414">  1 10  2 -1</clus>
<clus scale="   24.364">  1  5  2 -1</clus>
</clustering>
</event>
<event>
10    4  0.3403565E-005  0.2875590E+03  0.7546771E-02  0.1092156E+00
         21   -1    0    0  503  502  0.00000000000E+00  0.00000000000E+00  0.10360148521E+03  0.10360148521E+03  0.00000000000E+00 0. -1.
          2   -1    0    0  502    0 -0.00000000000E+00 -0.00000000000E+00 -0.28359563872E+04  0.28359563872E+04  0.00000000000E+00 0. -1.
         23    2    1    2    0    0  0.20026883480E+03 -0.10505184459E+03 -0.87544589462E+03  0.90888930253E+03  0.92362078733E+02 0.  0.
         24    2    1    2    0    0 -0.29698981697E+03  0.12224288485E+03 -0.15477507470E+04  0.15827040675E+04  0.79205531666E+02 0.  0.
        -13    1    4    4    0    0 -0.17274963983E+03  0.36780479872E+02 -0.94598835218E+03  0.96233528680E+03  0.00000000000E+00 0.  1.
         14    1    4    4    0    0 -0.12424017713E+03  0.85462404979E+02 -0.60176239481E+03  0.62036878072E+03  0.00000000000E+00 0. -1.
        -13    1    3    3    0    0  0.13744878473E+03 -0.43121082092E+02 -0.39582037228E+03  0.42121890183E+03  0.00000000000E+00 0.  1.
         13    1    3    3    0    0  0.62820050074E+02 -0.61930762502E+02 -0.47962552234E+03  0.48767040070E+03  0.00000000000E+00 0. -1.
         21    1    1    2  503  501 -0.26021863789E+02  0.70719133935E+02  0.26529259975E+02  0.79888265311E+02  0.00000000000E+00 0. -1.
          1    1    1    2  501    0  0.12274284595E+03 -0.87910174192E+02 -0.33568752032E+03  0.36807623702E+03  0.00000000000E+00 0. -1.
<scales pt_clust_5="13000.00000" pt_clust_6="13000.00000" pt_clust_7="13000.00000" pt_clust_8="13000.00000" pt_clust_9="75.35472" pt_clust_10="131.65022"></scales>
<clustering>
<clus scale="   75.355">  1  9  2 -1</clus>
<clus scale="   79.206">  5  6 -1 -1</clus>
<clus scale="   92.362">  7  8 -1 -1</clus>
<clus scale="  131.650">  1 10  2 -1</clus>
<clus scale="  283.607">  1  5  2 -1</clus>
<clus scale="   75.355">  1  5  2 -1</clus>
</clustering>
</event>
<event>
10    4  0.3403565E-005  0.3720122E+03  0.7546771E-02  0.1053926E+00
         21   -1    0    0  503  502  0.00000000000E+00  0.00000000000E+00  0.18553077425E+04  0.18553077425E+04  0.00000000000E+00 0.  1.
         -1   -1    0    0    0  501 -0.00000000000E+00 -0.00000000000E+00 -0.16855123863E+03  0.16855123863E+03  0.00000000000E+00 0.  1.
         24    2    1    2    0    0 -0.86381535411E+02 -0.10438318177E+03  0.11168374327E+03  0.19243744723E+03  0.78748297049E+02 0.  0.
         23    2    1    2    0    0 -0.26014906489E+02 -0.17335720849E+03  0.33649685168E+02  0.20185310385E+03  0.94249016583E+02 0.  0.
        -11    1    3    3    0    0 -0.99485122655E+02 -0.83389586700E+02  0.10456017351E+03  0.16668516036E+03  0.00000000000E+00 0.  1.
         12    1    3    3    0    0  0.13103587244E+02 -0.20993595074E+02  0.71235697537E+01  0.25752286866E+02  0.00000000000E+00 0. -1.
        -11    1    4    4    0    0 -0.58271019497E+02 -0.14016197986E+03  0.17347675353E+02  0.15278034609E+03  0.00000000000E+00 0. -1.
         11    1    4    4    0    0  0.32256113008E+02 -0.33195228634E+02  0.16302009815E+02  0.49072757763E+02  0.00000000000E+00 0.  1.
         21    1    1    2  503  501  0.81750425298E+02  0.33779875441E+03  0.15193919200E+04  0.15586349595E+04  0.00000000000E+00 0.  1.
         -2    1    1    2    0  502  0.30646016602E+02 -0.60058364145E+02  0.22031155518E+02  0.70933470596E+02  0.00000000000E+00 0.  1.
<scales pt_clust_5="13000.00000" pt_clust_6="13000.00000" pt_clust_7="13000.00000" pt_clust_8="13000.00000" pt_clust_9="306.30467" pt_clust_10="67.42544"></scales>
<clustering>
<clus scale="   67.425">  1 10  2 -1</clus>
<clus scale="   78.748">  5  6 -1 -1</clus>
<clus scale="   94.249">  7  8 -1 -1</clus>
<clus scale="  138.116">  5  7 -1 -1</clus>
<clus scale="  306.305">  1  9  2 -1</clus>
<clus scale="   67.425">  1  5  2 -1</clus>
</clustering>
</event>
<event>
10    4  0.3403565E-005  0.1659893E+03  0.7546771E-02  0.1182758E+00
         -3   -1    0    0    0  501 -0.00000000000E+00  0.00000000000E+00  0.23431638388E+03  0.23431638388E+03  0.00000000000E+00 0.  1.
         21   -1    0    0  501  502  0.00000000000E+00 -0.00000000000E+00 -0.53080688631E+03  0.53080688631E+03  0.00000000000E+00 0.  1.
         23    2    1    2    0    0 -0.14164464843E+03  0.16101221203E+02  0.53812613847E+02  0.17636862224E+03  0.88812373844E+02 0.  0.
         24    2    1    2    0    0  0.12441891400E+03 -0.27050699819E+02 -0.33843961973E+03  0.37126279303E+03  0.84159840594E+02 0.  0.
        -13    1    4    4    0    0  0.95360855577E+02 -0.31925566804E+02 -0.15036240487E+03  0.18089164544E+03  0.00000000000E+00 0.  1.
         14    1    4    4    0    0  0.29058058421E+02  0.48748669855E+01 -0.18807721486E+03  0.19037114759E+03  0.00000000000E+00 0. -1.
        -11    1    3    3    0    0 -0.97148312569E+02  0.31970421490E+02 -0.32038331011E+01  0.10232383413E+03  0.00000000000E+00 0.  1.
         11    1    3    3    0    0 -0.44496335864E+02 -0.15869200287E+02  0.57016446948E+02  0.74044788106E+02  0.00000000000E+00 0. -1.
         21    1    1    2  503  502 -0.28510760473E+02  0.98670741204E+01 -0.10740494621E+03  0.11156184421E+03  0.00000000000E+00 0.  1.
         -4    1    1    2    0  503  0.45736494909E+02  0.10824044952E+01  0.95541449655E+02  0.10593001071E+03  0.00000000000E+00 0.  1.
<scales pt_clust_5="13000.00000" pt_clust_6="13000.00000" pt_clust_7="13000.00000" pt_clust_8="13000.00000" pt_clust_9="30.16990" pt_clust_10="45.40099"></scales>
<clustering>
<clus scale="   30.170">  2  9  1 -1</clus>
<clus scale="   45.401">  2 10  1 -1</clus>
<clus scale="   84.160">  5  6 -1 -1</clus>
<clus scale="   88.812">  7  8 -1 -1</clus>
<clus scale="  163.547">  2  5  1 -1</clus>
<clus scale="   30.170">  2  5  1 -1</clus>
</clustering>
</event>
<event>
10    4  0.3403565E-005  0.9255989E+02  0.7546771E-02  0.1303989E+00
         21   -1    0    0  503  502  0.00000000000E+00  0.00000000000E+00  0.46599406435E+02  0.46599406435E+02  0.00000000000E+00 0. -1.
          2   -1    0    0  502    0 -0.00000000000E+00 -0.00000000000E+00 -0.54655395875E+03  0.54655395875E+03  0.00000000000E+00 0. -1.
         23    2    1    2    0    0  0.67962615014E+01  0.59422504487E+02 -0.21050212798E+03  0.23683235168E+03  0.90560442297E+02 0.  0.
         24    2    1    2    0    0 -0.12785726630E+02  0.22642707844E+02 -0.13231037644E+03  0.15614720439E+03  0.78738470277E+02 0.  0.
        -11    1    4    4    0    0  0.30098657474E+02  0.11891966619E+02 -0.87075210199E+02  0.92894780709E+02  0.00000000000E+00 0.  1.
         12    1    4    4    0    0 -0.42884384104E+02  0.10750741225E+02 -0.45235166240E+02  0.63252423682E+02  0.00000000000E+00 0. -1.
        -13    1    3    3    0    0 -0.45098370764E+01 -0.23189981363E+02 -0.31616520066E+02  0.39467938978E+02  0.00000000000E+00 0.  1.
         13    1    3    3    0    0  0.11306098578E+02  0.82612485849E+02 -0.17888560791E+03  0.19736441270E+03  0.00000000000E+00 0. -1.
         21    1    1    2  503  501  0.47936929749E+02 -0.27820839242E+02 -0.70947788742E+02  0.90030756174E+02  0.00000000000E+00 0.  1.
          1    1    1    2  501    0 -0.41947464620E+02 -0.54244373089E+02 -0.86194259161E+02  0.11014305295E+03  0.00000000000E+00 0. -1.
<scales pt_clust_5="13000.00000" pt_clust_6="13000.00000" pt_clust_7="13000.00000" pt_clust_8="13000.00000" pt_clust_9="55.42516" pt_clust_10="68.54601"></scales>
<clustering>
<clus scale="   55.425">  1  9  2 -1</clus>
<clus scale="   68.546">  1 10  2 -1</clus>
<clus scale="   78.738">  5  6 -1 -1</clus>
<clus scale="   81.030">  1  5  2 -1</clus>
<clus scale="   90.560">  7  8 -1 -1</clus>
<clus scale="   55.425">  1  5  2 -1</clus>
</clustering>
</event>
<event>
10    4  0.3403565E-005  0.1769628E+03  0.7546771E-02  0.1201495E+00
          4   -1    0    0  503    0 -0.00000000000E+00  0.00000000000E+00  0.20670463694E+03  0.20670463694E+03  0.00000000000E+00 0. -1.
         21   -1    0    0  501  502  0.00000000000E+00 -0.00000000000E+00 -0.94987109986E+03  0.94987109986E+03  0.00000000000E+00 0. -1.
         24    2    1    2    0    0 -0.29380247998E+02 -0.25103028800E+02  0.85185674411E+02  0.12345025712E+03  0.80560572433E+02 0.  0.
         23    2    1    2    0    0  0.17265571380E+03 -0.82079788744E+02 -0.41455044027E+03  0.46638193413E+03  0.95461791967E+02 0.  0.
        -11    1    3    3    0    0 -0.25079827804E+01  0.24211174592E+02  0.53952184202E+02  0.59188758501E+02  0.00000000000E+00 0.  1.
         12    1    3    3    0    0 -0.26872265218E+02 -0.49314203391E+02  0.31233490209E+02  0.64261498619E+02  0.00000000000E+00 0. -1.
        -11    1    4    4    0    0  0.10655596254E+03  0.41383488963E+00 -0.18128728832E+03  0.21028415375E+03  0.00000000000E+00 0.  1.
         11    1    4    4    0    0  0.66099751258E+02 -0.82493623634E+02 -0.23326315195E+03  0.25609778038E+03  0.00000000000E+00 0. -1.
         21    1    1    2  503  502 -0.52335196883E+02  0.11173248460E+03 -0.45160330503E+03  0.46815453224E+03  0.00000000000E+00 0. -1.
          3    1    1    2  501    0 -0.90940268916E+02 -0.45496670537E+01  0.37801607967E+02  0.98589013311E+02  0.00000000000E+00 0. -1.
<scales pt_clust_5="13000.00000" pt_clust_6="13000.00000" pt_clust_7="13000.00000" pt_clust_8="13000.00000" pt_clust_9="149.00636" pt_clust_10="112.53751"></scales>
<clustering>
<clus scale="   80.561">  5  6 -1 -1</clus>
<clus scale="   89.350">  1  5  2 -1</clus>
<clus scale="   95.462">  7  8 -1 -1</clus>
<clus scale="  112.538">  2 10  1 -1</clus>
<clus scale="  149.006">  2  9  1 -1</clus>
<clus scale="  112.538">  2  5  1 -1</clus>
</clustering>
</event>
<event>
10    4  0.3403565E-005  0.2314789E+03  0.7546771E-02  0.1160046E+00
         21   -1    0    0  501  502  0.00000000000E+00  0.00000000000E+00  0.14203098331E+04  0.14203098331E+04  0.00000000000E+00 0. -1.
          4   -1    0    0  503    0 -0.00000000000E+00 -0.00000000000E+00 -0.11003118904E+03  0.11003118904E+03  0.00000000000E+00 0. -1.
         24    2    1    2    0    0  0.26996863839E+02 -0.26741698251E+02  0.37375119697E+02  0.10786989615E+03  0.93782012353E+02 0.  0.
         23    2    1    2    0    0 -0.22354982515E+03 -0.74510931009E+02  0.51319340370E+03  0.57265946250E+03  0.95105137729E+02 0.  0.
        -13    1    3    3    0    0 -0.19445255725E+02 -0.30460796521E+02 -0.13781232463E+02  0.38676872458E+02  0.00000000000E+00 0.  1.
         14    1    3    3    0    0  0.46442119565E+02  0.37190982693E+01  0.51156352160E+02  0.69193023694E+02  0.00000000000E+00 0. -1.
        -13    1    4    4    0    0 -0.16275923445E+03 -0.95514128032E+02  0.40464296867E+03  0.44648566511E+03  0.00000000000E+00 0.  1.
         13    1    4    4    0    0 -0.60790590693E+02  0.21003197023E+02  0.10855043503E+03  0.12617379739E+03  0.00000000000E+00 0. -1.
         21    1    1    2  503  502  0.16586413912E+03  0.73863908509E+02  0.78215523960E+03  0.80295305495E+03  0.00000000000E+00 0. -1.
          3    1    1    2  501    0  0.30688822185E+02  0.27388720751E+02 -0.22445118929E+02  0.46858608550E+02  0.00000000000E+00 0. -1.
<scales pt_clust_5="13000.00000" pt_clust_6="13000.00000" pt_clust_7="13000.00000" pt_clust_8="13000.00000" pt_clust_9="211.03905" pt_clust_10="41.13329"></scales>
<clustering>
<clus scale="   41.133">  1 10  2 -1</clus>
<clus scale="   93.782">  5  6 -1 -1</clus>
<clus scale="   95.105">  7  8 -1 -1</clus>
<clus scale="  101.259">  2  5  1 -1</clus>
<clus scale="  211.039">  1  9  2 -1</clus>
<clus scale="   41.133">  1  5  2 -1</clus>
</clustering>
</event>
<event>
10    4  0.3403565E-005  0.1168380E+03  0.7546771E-02  0.1251762E+00
         21   -1    0    0  503  502  0.00000000000E+00  0.00000000000E+00  0.33471430035E+03  0.33471430035E+03  0.00000000000E+00 0.  1.
         -3   -1    0    0    0  501 -0.00000000000E+00 -0.00000000000E+00 -0.10503435746E+03  0.10503435746E+03  0.00000000000E+00 0.  1.
         24    2    1    2    0    0 -0.65190902923E+02  0.36391107001E+02 -0.14082054631E+02  0.11083175172E+03  0.80692046909E+02 0.  0.
         23    2    1    2    0    0  0.23309447897E+02 -0.87411786148E+02  0.90423771399E+02  0.15679371424E+03  0.90684395977E+02 0.  0.
        -11    1    3    3    0    0 -0.62378787235E+02  0.59706871277E+02 -0.91202857378E+01  0.86828585077E+02  0.00000000000E+00 0.  1.
         12    1    3    3    0    0 -0.28121156880E+01 -0.23315764276E+02 -0.49617688929E+01  0.24003166645E+02  0.00000000000E+00 0. -1.
        -13    1    4    4    0    0  0.56105062389E+01 -0.62773369614E+02  0.10552025749E+03  0.12290849627E+03  0.00000000000E+00 0.  1.
         13    1    4    4    0    0  0.17698941658E+02 -0.24638416534E+02 -0.15096486093E+02  0.33885217979E+02  0.00000000000E+00 0. -1.
         21    1    1    2  503  501  0.21745739253E+02  0.48098195854E+02  0.13412661791E+03  0.14413973516E+03  0.00000000000E+00 0.  1.
         -4    1    1    2    0  502  0.20135715773E+02  0.29224832934E+01  0.19211608204E+02  0.27983456685E+02  0.00000000000E+00 0.  1.
<scales pt_clust_5="13000.00000" pt_clust_6="13000.00000" pt_clust_7="13000.00000" pt_clust_8="13000.00000" pt_clust_9="58.19334" pt_clust_10="20.34669"></scales>
<clustering>
<clus scale="   20.347">  1 10  2 -1</clus>
<clus scale="   58.193">  1  9  2 -1</clus>
<clus scale="   80.692">  5  6 -1 -1</clus>
<clus scale="   90.684">  7  8 -1 -1</clus>
<clus scale="  109.264">  2  5  1 -1</clus>
<clus scale="   20.347">  1  5  2 -1</clus>
</clustering>
</event>
<event>
10    4  0.3403565E-005  0.1330656E+03  0.7546771E-02  0.1224949E+00
          2   -1    0    0  503    0 -0.00000000000E+00  0.00000000000E+00  0.10387745304E+04  0.10387745304E+04  0.00000000000E+00 0. -1.
         21   -1    0    0  501  502  0.00000000000E+00 -0.00000000000E+00 -0.10940156653E+03  0.10940156653E+03  0.00000000000E+00 0.  1.
         24    2    1    2    0    0 -0.62965532884E+02  0.62163698737E+02  0.23595642802E+03  0.26440105045E+03  0.80021845666E+02 0.  0.
         23    2    1    2    0    0  0.26006502387E+02 -0.15399235641E+03  0.12156774417E+03  0.21672800412E+03  0.88330783690E+02 0.  0.
        -11    1    3    3    0    0 -0.56909356766E+02  0.81150147843E+02  0.18966169582E+03  0.21399901926E+03  0.00000000000E+00 0.  1.
         12    1    3    3    0    0 -0.60561761177E+01 -0.18986449106E+02  0.46294732201E+02  0.50402031193E+02  0.00000000000E+00 0. -1.
        -11    1    4    4    0    0  0.32608237450E+02 -0.67914577013E+02  0.10516520802E+02  0.76067628662E+02  0.00000000000E+00 0.  1.
         11    1    4    4    0    0 -0.66017350635E+01 -0.86077779393E+02  0.11105122337E+03  0.14066037545E+03  0.00000000000E+00 0. -1.
         21    1    1    2  503  502 -0.89795522083E+02  0.33596721216E+02  0.20126810244E+02  0.97964605615E+02  0.00000000000E+00 0.  1.
          1    1    1    2  501    0  0.12675455258E+03  0.58231936453E+02  0.55172198143E+03  0.56908243675E+03  0.00000000000E+00 0. -1.
<scales pt_clust_5="13000.00000" pt_clust_6="13000.00000" pt_clust_7="13000.00000" pt_clust_8="13000.00000" pt_clust_9="95.87479" pt_clust_10="131.43632"></scales>
<clustering>
<clus scale="   80.022">  5  6 -1 -1</clus>
<clus scale="   88.331">  7  8 -1 -1</clus>
<clus scale="   95.875">  2  9  1 -1</clus>
<clus scale="  131.436">  2 10  1 -1</clus>
<clus scale="  127.701">  1  5  2 -1</clus>
<clus scale="   95.875">  2  5  1 -1</clus>
</clustering>
</event>
<event>
10    4  0.3403565E-005  0.1162459E+03  0.7546771E-02  0.1253855E+00
         21   -1    0    0  501  502  0.00000000000E+00  0.00000000000E+00  0.82146492649E+02  0.82146492649E+02  0.00000000000E+00 0.  1.
          2   -1    0    0  503    0 -0.00000000000E+00 -0.00000000000E+00 -0.29562361349E+03  0.29562361349E+03  0.00000000000E+00 0. -1.
         23    2    1    2    0    0 -0.10660598080E+02  0.73237685663E+02 -0.16873126266E+03  0.20588000629E+03  0.91863654618E+02 0.  0.
         24    2    1    2    0    0  0.35284000373E+02 -0.59537799736E+02 -0.35859376910E+02  0.11102413875E+03  0.79061711290E+02 0.  0.
        -13    1    4    4    0    0  0.88451568227E+01 -0.58689998316E+02  0.79147905271E+01  0.59878181424E+02  0.00000000000E+00 0.  1.
         14    1    4    4    0    0  0.26438843550E+02 -0.84780142011E+00 -0.43774167437E+02  0.51145957321E+02  0.00000000000E+00 0. -1.
        -11    1    3    3    0    0  0.35997396334E+02  0.55090697805E+02 -0.11457202562E+03  0.13212700929E+03  0.00000000000E+00 0. -1.
         11    1    3    3    0    0 -0.46657994415E+02  0.18146987858E+02 -0.54159237037E+02  0.73752997007E+02  0.00000000000E+00 0.  1.
         21    1    1    2  503  502 -0.58840479993E+01 -0.23214516086E+02  0.15612041134E+02  0.28587962613E+02  0.00000000000E+00 0.  1.
          1    1    1    2  501    0 -0.18739354293E+02  0.95146301590E+01 -0.24498522407E+02  0.32277998490E+02  0.00000000000E+00 0. -1.
<scales pt_clust_5="13000.00000" pt_clust_6="13000.00000" pt_clust_7="13000.00000" pt_clust_8="13000.00000" pt_clust_9="23.37276" pt_clust_10="21.01647"></scales>
<clustering>
<clus scale="   21.016">  1 10  2 -1</clus>
<clus scale="   23.373">  1  9  2 -1</clus>
<clus scale="   79.062">  5  6 -1 -1</clus>
<clus scale="   91.864">  7  8 -1 -1</clus>
<clus scale="  106.419">  1  5  2 -1</clus>
<clus scale="   21.016">  1  5  2 -1</clus>
</clustering>
</event>
<event>
10    4  0.3403565E-005  0.9547354E+02  0.7546771E-02  0.1297926E+00
          2   -1    0    0  502    0 -0.00000000000E+00  0.00000000000E+00  0.70811876709E+03  0.70811876709E+03  0.00000000000E+00 0. -1.
         21   -1    0    0  503  502  0.00000000000E+00 -0.00000000000E+00 -0.40000064540E+02  0.40000064540E+02  0.00000000000E+00 0. -1.
         24    2    1    2    0    0  0.23231972109E+02 -0.18620306021E+00  0.38230377312E+03  0.39116343158E+03  0.79453735393E+02 0.  0.
         23    2    1    2    0    0 -0.30606453721E+01 -0.53371826240E+02  0.19717236915E+03  0.22438316226E+03  0.92805931723E+02 0.  0.
        -13    1    3    3    0    0 -0.28613811210E+02 -0.92352947576E+01  0.14757680111E+03  0.15060860894E+03  0.00000000000E+00 0.  1.
         14    1    3    3    0    0  0.51845783318E+02  0.90490916974E+01  0.23472697201E+03  0.24055482264E+03  0.00000000000E+00 0. -1.
        -13    1    4    4    0    0 -0.23545661143E+02  0.16270714266E+02  0.26881596742E+02  0.39265182347E+02  0.00000000000E+00 0.  1.
         13    1    4    4    0    0  0.20485015771E+02 -0.69642540506E+02  0.17029077241E+03  0.18511797991E+03  0.00000000000E+00 0. -1.
         21    1    1    2  503  501 -0.21745038181E+02 -0.53404762659E+01 -0.40344097617E+01  0.22751787498E+02  0.00000000000E+00 0. -1.
          1    1    1    2  501    0  0.15737114442E+01  0.58898505566E+02  0.92676970047E+02  0.10982045029E+03  0.00000000000E+00 0. -1.
<scales pt_clust_5="13000.00000" pt_clust_6="13000.00000" pt_clust_7="13000.00000" pt_clust_8="13000.00000" pt_clust_9="22.39123" pt_clust_10="57.43543"></scales>
<clustering>
<clus scale="   22.391">  2  9  1 -1</clus>
<clus scale="   57.435">  2 10  1 -1</clus>
<clus scale="   79.454">  5  6 -1 -1</clus>
<clus scale="   82.554">  1  5  2 -1</clus>
<clus scale="   92.806">  7  8 -1 -1</clus>
<clus scale="   22.391">  2  5  1 -1</clus>
</clustering>
</event>
<event>
10    4  0.3403565E-005  0.1653506E+03  0.7546771E-02  0.1184173E+00
         21   -1    0    0  503  502  0.00000000000E+00  0.00000000000E+00  0.22854356139E+03  0.22854356139E+03  0.00000000000E+00 0. -1.
         -1   -1    0    0    0  501 -0.00000000000E+00 -0.00000000000E+00 -0.31453881884E+03  0.31453881884E+03  0.00000000000E+00 0.  1.
         23    2    1    2    0    0 -0.12074733886E+03 -0.83973700619E+02 -0.28377271245E+02  0.17535732547E+03  0.91177956955E+02 0.  0.
         24    2    1    2    0    0  0.12887740294E+02  0.15789622015E+03 -0.20148166824E+02  0.17936707487E+03  0.81665713335E+02 0.  0.
        -13    1    4    4    0    0  0.25830746533E+02  0.12284451342E+02 -0.16739842459E+02  0.33141477589E+02  0.00000000000E+00 0.  1.
         14    1    4    4    0    0 -0.12943006239E+02  0.14561176881E+03 -0.34083243649E+01  0.14622559728E+03  0.00000000000E+00 0. -1.
        -11    1    3    3    0    0 -0.34994122480E+02 -0.78872295096E+02 -0.55182866591E+01  0.86463165738E+02  0.00000000000E+00 0.  1.
         11    1    3    3    0    0 -0.85753216377E+02 -0.51014055229E+01 -0.22858984586E+02  0.88894159728E+02  0.00000000000E+00 0. -1.
         21    1    1    2  503  501  0.91831698322E+02 -0.43025579619E+02  0.35553829886E+02  0.10746318503E+03  0.00000000000E+00 0.  1.
         -2    1    1    2    0  502  0.16027900242E+02 -0.30896939913E+02 -0.73023649270E+02  0.80894794856E+02  0.00000000000E+00 0.  1.
<scales pt_clust_5="13000.00000" pt_clust_6="13000.00000" pt_clust_7="13000.00000" pt_clust_8="13000.00000" pt_clust_9="110.41157" pt_clust_10="34.80683"></scales>
<clustering>
<clus scale="   34.807">  1 10  2 -1</clus>
<clus scale="   81.666">  5  6 -1 -1</clus>
<clus scale="   91.178">  7  8 -1 -1</clus>
<clus scale="  110.412">  1  9  2 -1</clus>
<clus scale="  160.302">  1  5  2 -1</clus>
<clus scale="   34.807">  1  5  2 -1</clus>
</clustering>
</event>
<event>
10    4  0.3403565E-005  0.1655346E+03  0.7546771E-02  0.1184055E+00
          2   -1    0    0  502    0 -0.00000000000E+00  0.00000000000E+00  0.95236868368E+03  0.95236868368E+03  0.00000000000E+00 0. -1.
         21   -1    0    0  503  502  0.00000000000E+00 -0.00000000000E+00 -0.19642791286E+03  0.19642791286E+03  0.00000000000E+00 0. -1.
         23    2    1    2    0    0  0.50968080252E+02  0.13966683394E+03  0.16784901121E+03  0.24202606175E+03  0.91097498827E+02 0.  0.
         24    2    1    2    0    0  0.10124066842E+03 -0.13225887663E+03 -0.24434357008E+02  0.18680492076E+03  0.80975040779E+02 0.  0.
        -13    1    4    4    0    0  0.16610697504E+02 -0.85006730993E+02  0.90702195573E+00  0.86619179600E+02  0.00000000000E+00 0.  1.
         14    1    4    4    0    0  0.84629970915E+02 -0.47252145635E+02 -0.25341378964E+02  0.10018574116E+03  0.00000000000E+00 0. -1.
        -11    1    3    3    0    0 -0.26277926304E+02  0.26670319181E+02  0.33746573966E+02  0.50405025449E+02  0.00000000000E+00 0.  1.
         11    1    3    3    0    0  0.77246006556E+02  0.11299651476E+03  0.13410243725E+03  0.19162103630E+03  0.00000000000E+00 0. -1.
         21    1    1    2  503  501 -0.42812728762E+02  0.27177835881E+02 -0.35473990594E+02  0.61886739419E+02  0.00000000000E+00 0. -1.
          1    1    1    2  501    0 -0.10939601991E+03 -0.34585793189E+02  0.64800010721E+03  0.65807887461E+03  0.00000000000E+00 0. -1.
<scales pt_clust_5="13000.00000" pt_clust_6="13000.00000" pt_clust_7="13000.00000" pt_clust_8="13000.00000" pt_clust_9="50.71060" pt_clust_10="115.85354"></scales>
<clustering>
<clus scale="   50.711">  2  9  1 -1</clus>
<clus scale="   80.975">  5  6 -1 -1</clus>
<clus scale="   91.097">  7  8 -1 -1</clus>
<clus scale="  115.854">  2 10  1 -1</clus>
<clus scale="  160.187">  2  5  1 -1</clus>
<clus scale="   50.711">  2  5  1 -1</clus>
</clustering>
</event>
<event>
10    4  0.3403565E-005  0.2097276E+03  0.7546771E-02  0.1177967E+00
         -1   -1    0    0    0  501 -0.00000000000E+00  0.00000000000E+00  0.13016236097E+03  0.13016236097E+03  0.00000000000E+00 0.  1.
         21   -1    0    0  503  502  0.00000000000E+00 -0.00000000000E+00 -0.60734321428E+03  0.60734321428E+03  0.00000000000E+00 0.  1.
         24    2    1    2    0    0 -0.17212181635E+02 -0.35784176878E+02 -0.12444889712E+03  0.15313448730E+03  0.79911680582E+02 0.  0.
         23    2    1    2    0    0 -0.10914762206E+03  0.18370683839E+03 -0.94508209203E+02  0.25099552658E+03  0.91681769638E+02 0.  0.
        -13    1    3    3    0    0 -0.28408672582E+02 -0.96835686314E+00 -0.11032833626E+03  0.11393126075E+03  0.00000000000E+00 0.  1.
         14    1    3    3    0    0  0.11196490948E+02 -0.34815820015E+02 -0.14120560856E+02  0.39203226547E+02  0.00000000000E+00 0. -1.
        -11    1    4    4    0    0 -0.58597615562E+02  0.58298488252E+02 -0.79956236055E+02  0.11500171288E+03  0.00000000000E+00 0. -1.
         11    1    4    4    0    0 -0.50550006498E+02  0.12540835014E+03 -0.14551973147E+02  0.13599381370E+03  0.00000000000E+00 0.  1.
         21    1    1    2  503  501  0.17744530481E+02 -0.16208616259E+02 -0.92039729163E+02  0.95125702874E+02  0.00000000000E+00 0.  1.
         -2    1    1    2    0  502  0.10861527321E+03 -0.13171404525E+03 -0.16618401783E+03  0.23824985850E+03  0.00000000000E+00 0.  1.
<scales pt_clust_5="13000.00000" pt_clust_6="13000.00000" pt_clust_7="13000.00000" pt_clust_8="13000.00000" pt_clust_9="24.03305" pt_clust_10="188.62695"></scales>
<clustering>
<clus scale="   24.033">  2  9  1 -1</clus>
<clus scale="   79.912">  5  6 -1 -1</clus>
<clus scale="   90.295">  1  5  2 -1</clus>
<clus scale="   91.682">  7  8 -1 -1</clus>
<clus scale="  188.627">  2 10  1 -1</clus>
<clus scale="   24.033">  2  5  1 -1</clus>
</clustering>
</event>
<event>
10    4  0.3403565E-005  0.2442911E+03  0.7546771E-02  0.1116967E+00
          2   -1    0    0  503    0 -0.00000000000E+00  0.00000000000E+00  0.67304110365E+03  0.67304110365E+03  0.00000000000E+00 0. -1.
         21   -1    0    0  501  502  0.00000000000E+00 -0.00000000000E+00 -0.13862634626E+03  0.13862634626E+03  0.00000000000E+00 0. -1.
         24    2    1    2    0    0  0.68609407660E+02 -0.47390650782E+02  0.39519184234E+03  0.41219654670E+03  0.82318140514E+02 0.  0.
         23    2    1    2    0    0  0.55911965001E+02 -0.54568427140E+02  0.17754838186E+03  0.21322056001E+03  0.88519592397E+02 0.  0.
        -13    1    3    3    0    0  0.75803625887E+02 -0.70162563317E+01  0.26157295930E+03  0.27242582585E+03  0.00000000000E+00 0.  1.
         14    1    3    3    0    0 -0.71942182277E+01 -0.40374394450E+02  0.13361888304E+03  0.13977072085E+03  0.00000000000E+00 0. -1.
        -13    1    4    4    0    0  0.20643902361E+02 -0.73043061389E+02  0.13551337653E+03  0.15532332323E+03  0.00000000000E+00 0.  1.
         13    1    4    4    0    0  0.35268062640E+02  0.18474634249E+02  0.42035005334E+02  0.57897236778E+02  0.00000000000E+00 0. -1.
         21    1    1    2  503  502 -0.78240139275E+02  0.77225034282E+02 -0.64658344920E+02  0.12753794291E+03  0.00000000000E+00 0. -1.
          1    1    1    2  501    0 -0.46281233386E+02  0.24734043640E+02  0.26332878107E+02  0.58712400291E+02  0.00000000000E+00 0. -1.
<scales pt_clust_5="13000.00000" pt_clust_6="13000.00000" pt_clust_7="13000.00000" pt_clust_8="13000.00000" pt_clust_9="149.88060" pt_clust_10="52.47595"></scales>
<clustering>
<clus scale="   52.476">  2 10  1 -1</clus>
<clus scale="   82.318">  5  6 -1 -1</clus>
<clus scale="   88.520">  7  8 -1 -1</clus>
<clus scale="  109.747">  5  7 -1 -1</clus>
<clus scale="  149.881">  2  9  1 -1</clus>
<clus scale="   52.476">  2  5  1 -1</clus>
</clustering>
</event>
<event>
10    4  0.3403565E-005  0.1031257E+03  0.7546771E-02  0.1281907E+00
         21   -1    0    0  501  502  0.00000000000E+00  0.00000000000E+00  0.30485620137E+03  0.30485620137E+03  0.00000000000E+00 0. -1.
         -3   -1    0    0    0  501 -0.00000000000E+00 -0.00000000000E+00 -0.21899800411E+03  0.21899800411E+03  0.00000000000E+00 0.  1.
         24    2    1    2    0    0 -0.17313916348E+02 -0.31794810330E+02 -0.69436460240E+02  0.11138638838E+03  0.79213785688E+02 0.  0.
         23    2    1    2    0    0  0.19129162599E+02  0.49406365495E+02  0.57043197789E+02  0.12308720415E+03  0.95339496530E+02 0.  0.
        -11    1    3    3    0    0  0.14131629963E+02  0.20856756583E+02 -0.26219322865E+02  0.36361520211E+02  0.00000000000E+00 0.  1.
         12    1    3    3    0    0 -0.31445546312E+02 -0.52651566913E+02 -0.43217137375E+02  0.75024868171E+02  0.00000000000E+00 0. -1.
        -13    1    4    4    0    0  0.19689322510E+02  0.76352230695E+02  0.54840022592E+02  0.96045617448E+02  0.00000000000E+00 0. -1.
         13    1    4    4    0    0 -0.56015991092E+00 -0.26945865200E+02  0.22031751967E+01  0.27041586704E+02  0.00000000000E+00 0.  1.
         21    1    1    2  503  502 -0.37121730730E+02 -0.13274981062E+01  0.18796709204E+03  0.19160222554E+03  0.00000000000E+00 0. -1.
         -4    1    1    2    0  503  0.35306484480E+02 -0.16284057059E+02 -0.89715632328E+02  0.97778387411E+02  0.00000000000E+00 0.  1.
<scales pt_clust_5="13000.00000" pt_clust_6="13000.00000" pt_clust_7="13000.00000" pt_clust_8="13000.00000" pt_clust_9="37.14546" pt_clust_10="37.72393"></scales>
<clustering>
<clus scale="   37.145">  1  9  2 -1</clus>
<clus scale="   37.724">  1 10  2 -1</clus>
<clus scale="   79.214">  5  6 -1 -1</clus>
<clus scale="   88.431">  2  5  1 -1</clus>
<clus scale="   95.339">  7  8 -1 -1</clus>
<clus scale="   37.145">  1  5  2 -1</clus>
</clustering>
</event>
<event>
10    4  0.3403565E-005  0.1350731E+03  0.7546771E-02  0.1239635E+00
         21   -1    0    0  501  502  0.00000000000E+00  0.00000000000E+00  0.10571354076E+03  0.10571354076E+03  0.00000000000E+00 0.  1.
          2   -1    0    0  503    0 -0.00000000000E+00 -0.00000000000E+00 -0.64665266152E+03  0.64665266152E+03  0.00000000000E+00 0. -1.
         24    2    1    2    0    0 -0.53327213713E+02 -0.25081269328E+02  0.10960059482E+02  0.96772199281E+02  0.75972849469E+02 0.  0.
         23    2    1    2    0    0  0.13498637627E+03 -0.20338513960E+02 -0.49421114275E+03  0.52061548055E+03  0.90337412158E+02 0.  0.
        -11    1    3    3    0    0 -0.14015220026E+02 -0.40427265620E+02 -0.17116875471E+02  0.46084461847E+02  0.00000000000E+00 0.  1.
         12    1    3    3    0    0 -0.39311993687E+02  0.15345996292E+02  0.28076934952E+02  0.50687737434E+02  0.00000000000E+00 0. -1.
        -13    1    4    4    0    0  0.49823855673E+02  0.81691013743E+01 -0.66049026183E+02  0.83136181480E+02  0.00000000000E+00 0.  1.
         13    1    4    4    0    0  0.85162520599E+02 -0.28507615335E+02 -0.42816211657E+03  0.43747929907E+03  0.00000000000E+00 0. -1.
         21    1    1    2  503  502  0.12123612474E+02  0.21081050530E+02 -0.18092257367E+02  0.30310434631E+02  0.00000000000E+00 0. -1.
          1    1    1    2  501    0 -0.93782775033E+02  0.24338732758E+02 -0.39595780129E+02  0.10466808783E+03  0.00000000000E+00 0. -1.
<scales pt_clust_5="13000.00000" pt_clust_6="13000.00000" pt_clust_7="13000.00000" pt_clust_8="13000.00000" pt_clust_9="24.31857" pt_clust_10="100.41864"></scales>
<clustering>
<clus scale="   24.319">  1  9  2 -1</clus>
<clus scale="   75.973">  5  6 -1 -1</clus>
<clus scale="   90.258">  2  5  1 -1</clus>
<clus scale="   90.337">  7  8 -1 -1</clus>
<clus scale="  100.419">  1 10  2 -1</clus>
<clus scale="   24.319">  1  5  2 -1</clus>
</clustering>
</event>
<event>
10    4  0.3403565E-005  0.1155769E+03  0.7546771E-02  0.1254162E+00
         -3   -1    0    0    0  501 -0.00000000000E+00  0.00000000000E+00  0.13000965485E+03  0.13000965485E+03  0.00000000000E+00 0.  1.
         21   -1    0    0  503  502  0.00000000000E+00 -0.00000000000E+00 -0.28659707832E+03  0.28659707832E+03  0.00000000000E+00 0.  1.
         24    2    1    2    0    0  0.12288548045E+02 -0.74701570108E+02  0.63608571581E+02  0.12734118523E+03  0.80239604236E+02 0.  0.
         23    2    1    2    0    0  0.11560452410E+02  0.59942908486E+02 -0.82646482191E+02  0.13701037849E+03  0.90634466165E+02 0.  0.
        -11    1    3    3    0    0  0.28760330845E+02 -0.45080217036E+02 -0.19833853176E+01  0.53509965574E+02  0.00000000000E+00 0.  1.
         12    1    3    3    0    0 -0.16471782800E+02 -0.29621353071E+02  0.65591956899E+02  0.73831219658E+02  0.00000000000E+00 0. -1.
        -13    1    4    4    0    0 -0.39511749317E+02  0.19254782437E+02 -0.34677890079E+02  0.55986436224E+02  0.00000000000E+00 0.  1.
         13    1    4    4    0    0  0.51072201727E+02  0.40688126049E+02 -0.47968592113E+02  0.81023942263E+02  0.00000000000E+00 0. -1.
         21    1    1    2  503  501 -0.30747668247E+02 -0.64219226091E+01 -0.11957505341E+03  0.12363192788E+03  0.00000000000E+00 0.  1.
         -4    1    1    2    0  502  0.68986677919E+01  0.21180584231E+02 -0.17974459449E+02  0.28623241573E+02  0.00000000000E+00 0.  1.
<scales pt_clust_5="13000.00000" pt_clust_6="13000.00000" pt_clust_7="13000.00000" pt_clust_8="13000.00000" pt_clust_9="27.76562" pt_clust_10="22.27574"></scales>
<clustering>
<clus scale="   22.276">  2 10  1 -1</clus>
<clus scale="   27.766">  2  9  1 -1</clus>
<clus scale="   80.240">  5  6 -1 -1</clus>
<clus scale="   90.634">  7  8 -1 -1</clus>
<clus scale="  107.619">  1  5  2 -1</clus>
<clus scale="   22.276">  2  5  1 -1</clus>
</clustering>
</event>
<event>
10    4  0.3403565E-005  0.1808408E+03  0.7546771E-02  0.1200881E+00
         -1   -1    0    0    0  501 -0.00000000000E+00  0.00000000000E+00  0.24759591864E+03  0.24759591864E+03  0.00000000000E+00 0.  1.
         21   -1    0    0  501  502  0.00000000000E+00 -0.00000000000E+00 -0.94606006975E+03  0.94606006975E+03  0.00000000000E+00 0.  1.
         24    2    1    2    0    0  0.25342515690E+02 -0.30081255777E+02  0.17386344145E+03  0.19337728075E+03  0.74960999105E+02 0.  0.
         23    2    1    2    0    0  0.81145325539E+02  0.15677937100E+03 -0.73569004500E+03  0.76224685600E+03  0.92822907460E+02 0.  0.
        -13    1    3    3    0    0  0.46198496299E+02 -0.22543425636E+02  0.15788887267E+03  0.16604638874E+03  0.00000000000E+00 0.  1.
         14    1    3    3    0    0 -0.20855980609E+02 -0.75378301414E+01  0.15974568774E+02  0.27330892007E+02  0.00000000000E+00 0. -1.
        -13    1    4    4    0    0  0.62132581245E+02  0.96932898542E+02 -0.62013115504E+03  0.63072901783E+03  0.00000000000E+00 0.  1.
         13    1    4    4    0    0  0.19012744294E+02  0.59846472457E+02 -0.11555888995E+03  0.13151783817E+03  0.00000000000E+00 0. -1.
         21    1    1    2  503  502  0.15201624885E+02 -0.36277762385E+02 -0.49301072642E+02  0.63069495055E+02  0.00000000000E+00 0.  1.
         -2    1    1    2    0  503 -0.12168946611E+03 -0.90420352836E+02 -0.87336474920E+02  0.17496235658E+03  0.00000000000E+00 0.  1.
<scales pt_clust_5="13000.00000" pt_clust_6="13000.00000" pt_clust_7="13000.00000" pt_clust_8="13000.00000" pt_clust_9="39.33402" pt_clust_10="155.20097"></scales>
<clustering>
<clus scale="   39.334">  2  9  1 -1</clus>
<clus scale="   74.961">  5  6 -1 -1</clus>
<clus scale="   84.846">  1  5  2 -1</clus>
<clus scale="   92.823">  7  8 -1 -1</clus>
<clus scale="  155.201">  2 10  1 -1</clus>
<clus scale="   39.334">  2  5  1 -1</clus>
</clustering>
</event>
<event>
10    4  0.3403565E-005  0.1234099E+03  0.7546771E-02  0.1241440E+00
         21   -1    0    0  501  502  0.00000000000E+00  0.00000000000E+00  0.91280433326E+02  0.91280433326E+02  0.00000000000E+00 0. -1.
          2   -1    0    0  503    0 -0.00000000000E+00 -0.00000000000E+00 -0.56871068552E+03  0.56871068552E+03  0.00000000000E+00 0. -1.
         23    2    1    2    0    0  0.65684835239E+02  0.53323256652E+01 -0.31217981057E+03  0.33256619924E+03  0.93814239170E+02 0.  0.
         24    2    1    2    0    0 -0.12150796360E+03  0.16176711358E+02 -0.15685654221E+03  0.21498143382E+03  0.81161387651E+02 0.  0.
        -11    1    4    4    0    0 -0.78749585634E+02 -0.16614029853E+02 -0.48501393503E+02  0.93967592271E+02  0.00000000000E+00 0.  1.
         12    1    4    4    0    0 -0.42758377962E+02  0.32790741210E+02 -0.10835514871E+03  0.12101384155E+03  0.00000000000E+00 0. -1.
        -11    1    3    3    0    0  0.24139554698E+02 -0.21891095251E+02 -0.24866957257E+02  0.40991507847E+02  0.00000000000E+00 0.  1.
         11    1    3    3    0    0  0.41545280541E+02  0.27223420916E+02 -0.28731285331E+03  0.29157469139E+03  0.00000000000E+00 0. -1.
         21    1    1    2  503  502  0.58616862924E+02  0.43845919614E+01  0.30043762546E+02  0.66013551136E+02  0.00000000000E+00 0. -1.
          1    1    1    2  501    0 -0.27937345670E+01 -0.25893628985E+02 -0.38437661956E+02  0.46429934648E+02  0.00000000000E+00 0. -1.
<scales pt_clust_5="13000.00000" pt_clust_6="13000.00000" pt_clust_7="13000.00000" pt_clust_8="13000.00000" pt_clust_9="57.92555" pt_clust_10="26.04392"></scales>
<clustering>
<clus scale="   26.044">  1 10  2 -1</clus>
<clus scale="   57.926">  1  9  2 -1</clus>
<clus scale="   81.161">  5  6 -1 -1</clus>
<clus scale="   93.814">  7  8 -1 -1</clus>
<clus scale="  114.088">  1  5  2 -1</clus>
<clus scale="   26.044">  1  5  2 -1</clus>
</clustering>
</event>
<event>
10    4  0.3403565E-005  0.1020434E+03  0.7546771E-02  0.1281806E+00
          2   -1    0    0  502    0 -0.00000000000E+00  0.00000000000E+00  0.52903619572E+03  0.52903619572E+03  0.00000000000E+00 0. -1.
         21   -1    0    0  503  502  0.00000000000E+00 -0.00000000000E+00 -0.11502763610E+03  0.11502763610E+03  0.00000000000E+00 0.  1.
         23    2    1    2    0    0  0.19663153236E+02 -0.14108173519E+02  0.35545332000E+03  0.36656019845E+03  0.86218537639E+02 0.  0.
         24    2    1    2    0    0 -0.59104507238E+02  0.71420585467E+01  0.12901296758E+03  0.17225582736E+03  0.97382608712E+02 0.  0.
        -11    1    4    4    0    0 -0.29368773506E+02 -0.52269751990E+01 -0.85033841009E+01  0.31018601970E+02  0.00000000000E+00 0.  1.
         12    1    4    4    0    0 -0.29735733732E+02  0.12369033746E+02  0.13751635168E+03  0.14123722539E+03  0.00000000000E+00 0. -1.
        -13    1    3    3    0    0  0.47879745503E+02 -0.28807084555E+02  0.18872247959E+03  0.19682096548E+03  0.00000000000E+00 0. -1.
         13    1    3    3    0    0 -0.28216592268E+02  0.14698911037E+02  0.16673084041E+03  0.16973923297E+03  0.00000000000E+00 0.  1.
         21    1    1    2  503  501 -0.48069725827E+01  0.20843678431E+02 -0.50344431264E+02  0.54700344380E+02  0.00000000000E+00 0.  1.
          1    1    1    2  501    0  0.44248326585E+02 -0.13877563459E+02 -0.20113296703E+02  0.50547461631E+02  0.00000000000E+00 0. -1.
<scales pt_clust_5="13000.00000" pt_clust_6="13000.00000" pt_clust_7="13000.00000" pt_clust_8="13000.00000" pt_clust_9="21.39079" pt_clust_10="41.58409"></scales>
<clustering>
<clus scale="   21.391">  2  9  1 -1</clus>
<clus scale="   41.584">  2 10  1 -1</clus>
<clus scale="   86.219">  7  8 -1 -1</clus>
<clus scale="   91.450">  1  7  2 -1</clus>
<clus scale="   97.383">  5  6 -1 -1</clus>
<clus scale="   21.391">  2  5  1 -1</clus>
</clustering>
</event>
<event>
10    4  0.3403565E-005  0.9841442E+02  0.7546771E-02  0.1290133E+00
         21   -1    0    0  501  502  0.00000000000E+00  0.00000000000E+00  0.34043173349E+03  0.34043173349E+03  0.00000000000E+00 0. -1.
          2   -1    0    0  503    0 -0.00000000000E+00 -0.00000000000E+00 -0.95144941297E+02  0.95144941297E+02  0.00000000000E+00 0. -1.
         23    2    1    2    0    0 -0.33298015619E+02 -0.22555894013E+02 -0.34724132948E+02  0.10653828456E+03  0.92342376349E+02 0.  0.
         24    2    1    2    0    0 -0.29609048460E+02  0.39456336520E+02  0.16314834361E+03  0.18837503974E+03  0.80213934777E+02 0.  0.
        -11    1    4    4    0    0  0.21792689987E+02 -0.85325287511E+01  0.33201142030E+02  0.40620699352E+02  0.00000000000E+00 0.  1.
         12    1    4    4    0    0 -0.51401738447E+02  0.47988865271E+02  0.12994720158E+03  0.14775434039E+03  0.00000000000E+00 0. -1.
        -11    1    3    3    0    0  0.13920399138E+02 -0.36482092504E+02  0.96931939555E+01  0.40232804956E+02  0.00000000000E+00 0.  1.
         11    1    3    3    0    0 -0.47218414757E+02  0.13926198491E+02 -0.44417326904E+02  0.66305479606E+02  0.00000000000E+00 0. -1.
         21    1    1    2  503  502  0.10411321085E+02 -0.18744060973E+02  0.57656910806E+02  0.61514671357E+02  0.00000000000E+00 0. -1.
          1    1    1    2  501    0  0.52495742994E+02  0.18436184663E+01  0.59205670730E+02  0.79148679130E+02  0.00000000000E+00 0. -1.
<scales pt_clust_5="13000.00000" pt_clust_6="13000.00000" pt_clust_7="13000.00000" pt_clust_8="13000.00000" pt_clust_9="21.44144" pt_clust_10="55.13003"></scales>
<clustering>
<clus scale="   21.441">  1  9  2 -1</clus>
<clus scale="   55.130">  1 10  2 -1</clus>
<clus scale="   80.214">  5  6 -1 -1</clus>
<clus scale="   87.135">  1  5  2 -1</clus>
<clus scale="   92.342">  7  8 -1 -1</clus>
<clus scale="   21.441">  1  5  2 -1</clus>
</clustering>
</event>
<event>
10    4  0.3403565E-005  0.1910581E+03  0.7546771E-02  0.1185782E+00
         -3   -1    0    0    0  501 -0.00000000000E+00  0.00000000000E+00  0.73660748770E+03  0.73660748770E+03  0.00000000000E+00 0.  1.
         21   -1    0    0  503  502  0.00000000000E+00 -0.00000000000E+00 -0.15711984829E+03  0.15711984829E+03  0.00000000000E+00 0.  1.
         23    2    1    2    0    0 -0.43312004670E+02  0.10847815974E+01  0.25939562613E+03  0.27836318354E+03  0.91229735265E+02 0.  0.
         24    2    1    2    0    0 -0.29326861957E+02 -0.17835244873E+03  0.31540811570E+03  0.37231533708E+03  0.80416229546E+02 0.  0.
        -13    1    4    4    0    0 -0.47118029122E+02 -0.16368657821E+03  0.24629130766E+03  0.29945419146E+03  0.00000000000E+00 0.  1.
         14    1    4    4    0    0  0.17791167165E+02 -0.14665870521E+02  0.69116808041E+02  0.72861145620E+02  0.00000000000E+00 0. -1.
        -11    1    3    3    0    0 -0.67812400507E+02 -0.16900818612E+02  0.19527078372E+03  0.20740018878E+03  0.00000000000E+00 0.  1.
         11    1    3    3    0    0  0.24500395838E+02  0.17985600210E+02  0.64124842415E+02  0.70962994764E+02  0.00000000000E+00 0. -1.
         21    1    1    2  503  501  0.18610892018E+02  0.30703971644E+02 -0.63235014781E+02  0.72717028754E+02  0.00000000000E+00 0.  1.
         -4    1    1    2    0  502  0.54027974609E+02  0.14656369549E+03  0.67918912367E+02  0.17033178662E+03  0.00000000000E+00 0.  1.
<scales pt_clust_5="13000.00000" pt_clust_6="13000.00000" pt_clust_7="13000.00000" pt_clust_8="13000.00000" pt_clust_9="35.90403" pt_clust_10="173.31022"></scales>
<clustering>
<clus scale="   35.904">  2  9  1 -1</clus>
<clus scale="   80.416">  5  6 -1 -1</clus>
<clus scale="   91.230">  7  8 -1 -1</clus>
<clus scale="  100.250">  1  7  2 -1</clus>
<clus scale="  173.310">  2 10  1 -1</clus>
<clus scale="   35.904">  2  5  1 -1</clus>
</clustering>
</event>
<event>
10    4  0.3403565E-005  0.2602841E+03  0.7546771E-02  0.1127068E+00
         21   -1    0    0  501  502  0.00000000000E+00  0.00000000000E+00  0.51351581134E+03  0.51351581134E+03  0.00000000000E+00 0. -1.
          2   -1    0    0  503    0 -0.00000000000E+00 -0.00000000000E+00 -0.50731273934E+03  0.50731273934E+03  0.00000000000E+00 0. -1.
         24    2    1    2    0    0  0.12009008366E+03 -0.69273531922E+02 -0.16936884777E+03  0.23243244520E+03  0.78221381808E+02 0.  0.
         23    2    1    2    0    0 -0.26413443955E+03  0.13646224428E+03  0.18286965025E+03  0.36047063317E+03  0.90048998472E+02 0.  0.
        -11    1    3    3    0    0  0.57036161437E+02 -0.59580235925E+02 -0.13934502831E+03  0.16192580134E+03  0.00000000000E+00 0.  1.
         12    1    3    3    0    0  0.63053922220E+02 -0.96932959977E+01 -0.30023819460E+02  0.70506643868E+02  0.00000000000E+00 0. -1.
        -13    1    4    4    0    0 -0.17983789329E+03  0.44061171915E+02  0.11816307882E+03  0.21964873760E+03  0.00000000000E+00 0. -1.
         13    1    4    4    0    0 -0.84296546257E+02  0.92401072366E+02  0.64706571438E+02  0.14082189557E+03  0.00000000000E+00 0.  1.
         21    1    1    2  503  502  0.20481593452E+03 -0.42833715033E+02  0.15005932108E+03  0.25749193001E+03  0.00000000000E+00 0. -1.
          1    1    1    2  501    0 -0.60771578625E+02 -0.24354997325E+02 -0.15735705157E+03  0.17043354230E+03  0.00000000000E+00 0. -1.
<scales pt_clust_5="13000.00000" pt_clust_6="13000.00000" pt_clust_7="13000.00000" pt_clust_8="13000.00000" pt_clust_9="244.21101" pt_clust_10="65.47026"></scales>
<clustering>
<clus scale="   65.470">  1 10  2 -1</clus>
<clus scale="   78.221">  5  6 -1 -1</clus>
<clus scale="   90.049">  7  8 -1 -1</clus>
<clus scale="  157.028">  2  5  1 -1</clus>
<clus scale="  244.211">  1  9  2 -1</clus>
<clus scale="   65.470">  1  5  2 -1</clus>
</clustering>
</event>
<event>
10    4  0.3403565E-005  0.1741757E+03  0.7546771E-02  0.1192567E+00
          2   -1    0    0  503    0 -0.00000000000E+00  0.00000000000E+00  0.47195517907E+03  0.47195517907E+03  0.00000000000E+00 0. -1.
         21   -1    0    0  501  502  0.00000000000E+00 -0.00000000000E+00 -0.21024443283E+03  0.21024443283E+03  0.00000000000E+00 0. -1.
         23    2    1    2    0    0 -0.59749541393E+02  0.25527797863E+02  0.26167817429E+03  0.28470559729E+03  0.91433768768E+02 0.  0.
         24    2    1    2    0    0 -0.77207067458E+02  0.72221001385E+02 -0.12386988201E+02  0.13333675313E+03  0.80302228806E+02 0.  0.
        -13    1    4    4    0    0 -0.25302929806E+02  0.76590144808E+02 -0.66937272039E+01  0.80938831980E+02  0.00000000000E+00 0.  1.
         14    1    4    4    0    0 -0.51904137652E+02 -0.43691434228E+01 -0.56932609968E+01  0.52397921146E+02  0.00000000000E+00 0. -1.
        -13    1    3    3    0    0 -0.25040806161E+02 -0.20395456184E+02  0.24217054874E+02  0.40366847201E+02  0.00000000000E+00 0.  1.
         13    1    3    3    0    0 -0.34708735232E+02  0.45923254047E+02  0.23746111941E+03  0.24433875009E+03  0.00000000000E+00 0. -1.
         21    1    1    2  503  502 -0.37819782509E+02  0.27740995103E+02 -0.95884120851E+01  0.47873128211E+02  0.00000000000E+00 0.  1.
          1    1    1    2  501    0  0.17477639136E+03 -0.12548979435E+03  0.22007972231E+02  0.21628413327E+03  0.00000000000E+00 0. -1.
<scales pt_clust_5="13000.00000" pt_clust_6="13000.00000" pt_clust_7="13000.00000" pt_clust_8="13000.00000" pt_clust_9="46.90308" pt_clust_10="154.55983"></scales>
<clustering>
<clus scale="   46.903">  2  9  1 -1</clus>
<clus scale="   80.302">  5  6 -1 -1</clus>
<clus scale="   91.434">  7  8 -1 -1</clus>
<clus scale="  113.874">  1  7  2 -1</clus>
<clus scale="  154.560">  2 10  1 -1</clus>
<clus scale="   46.903">  2  5  1 -1</clus>
</clustering>
</event>
<event>
10    4  0.3403565E-005  0.3181636E+03  0.7546771E-02  0.1076498E+00
         21   -1    0    0  503  502  0.00000000000E+00  0.00000000000E+00  0.11959553857E+03  0.11959553857E+03  0.00000000000E+00 0.  1.
          2   -1    0    0  502    0 -0.00000000000E+00 -0.00000000000E+00 -0.13959345565E+04  0.13959345565E+04  0.00000000000E+00 0. -1.
         24    2    1    2    0    0  0.19513418475E+03 -0.24362284860E+02 -0.62389770683E+02  0.22240278828E+03  0.83064106365E+02 0.  0.
         23    2    1    2    0    0  0.29550708987E+02  0.95817418242E+01 -0.87750301843E+02  0.13070008639E+03  0.91746078555E+02 0.  0.
        -13    1    3    3    0    0  0.58774792183E+02 -0.11732469963E+02 -0.60908725141E+02  0.85451739865E+02  0.00000000000E+00 0.  1.
         14    1    3    3    0    0  0.13635939257E+03 -0.12629814897E+02 -0.14810455419E+01  0.13695104841E+03  0.00000000000E+00 0. -1.
        -13    1    4    4    0    0  0.49349532467E+02  0.13559154798E+02 -0.12356990639E+02  0.52649047961E+02  0.00000000000E+00 0.  1.
         13    1    4    4    0    0 -0.19798823480E+02 -0.39774129739E+01 -0.75393311205E+02  0.78051038427E+02  0.00000000000E+00 0. -1.
         21    1    1    2  503  501 -0.44647014076E+01 -0.20391482516E+02 -0.82399451918E+01  0.22441987760E+02  0.00000000000E+00 0. -1.
          1    1    1    2  501    0 -0.22022019233E+03  0.35172025552E+02 -0.11179590002E+04  0.11399852327E+04  0.00000000000E+00 0. -1.
<scales pt_clust_5="13000.00000" pt_clust_6="13000.00000" pt_clust_7="13000.00000" pt_clust_8="13000.00000" pt_clust_9="20.87453" pt_clust_10="223.13743"></scales>
<clustering>
<clus scale="   20.875">  1  9  2 -1</clus>
<clus scale="   83.064">  5  6 -1 -1</clus>
<clus scale="   91.746">  7  8 -1 -1</clus>
<clus scale="   92.601">  5  7 -1 -1</clus>
<clus scale="  223.137">  1 10  2 -1</clus>
<clus scale="   20.875">  1  5  2 -1</clus>
</clustering>
</event>
<event>
10    4  0.3403565E-005  0.1067189E+03  0.7546771E-02  0.1269589E+00
         -1   -1    0    0    0  501 -0.00000000000E+00  0.00000000000E+00  0.21667272425E+03  0.21667272425E+03  0.00000000000E+00 0.  1.
         21   -1    0    0  501  502  0.00000000000E+00 -0.00000000000E+00 -0.25784909610E+03  0.25784909610E+03  0.00000000000E+00 0.  1.
         23    2    1    2    0    0 -0.23077306374E+02 -0.71217688029E+02  0.53718143157E+02  0.12739998854E+03  0.87980662752E+02 0.  0.
         24    2    1    2    0    0 -0.78358699477E+01  0.35094534932E+02 -0.45554105625E+02  0.99642788414E+02  0.80996799343E+02 0.  0.
        -11    1    4    4    0    0  0.14606752767E+02  0.47831187799E+02 -0.52914367679E+02  0.72808722414E+02  0.00000000000E+00 0.  1.
         12    1    4    4    0    0 -0.22442622715E+02 -0.12736652867E+02  0.73602620545E+01  0.26834066000E+02  0.00000000000E+00 0. -1.
        -13    1    3    3    0    0 -0.46543843597E+02 -0.75644549645E+02  0.30010664264E+02  0.93750025266E+02  0.00000000000E+00 0.  1.
         13    1    3    3    0    0  0.23466537223E+02  0.44268616154E+01  0.23707478893E+02  0.33649963275E+02  0.00000000000E+00 0. -1.
         21    1    1    2  503  502  0.11153025429E+02 -0.18150040447E+02 -0.13911096492E+03  0.14073263483E+03  0.00000000000E+00 0.  1.
         -2    1    1    2    0  503  0.19760150893E+02  0.54273193544E+02  0.89770555541E+02  0.10674640857E+03  0.00000000000E+00 0.  1.
<scales pt_clust_5="13000.00000" pt_clust_6="13000.00000" pt_clust_7="13000.00000" pt_clust_8="13000.00000" pt_clust_9="21.30291" pt_clust_10="56.81831"></scales>
<clustering>
<clus scale="   21.303">  2  9  1 -1</clus>
<clus scale="   56.818">  2 10  1 -1</clus>
<clus scale="   80.997">  5  6 -1 -1</clus>
<clus scale="   87.981">  7  8 -1 -1</clus>
<clus scale="  101.039">  2  5  1 -1</clus>
<clus scale="   21.303">  2  5  1 -1</clus>
</clustering>
</event>
<event>
10    4  0.3403565E-005  0.1239503E+03  0.7546771E-02  0.1241569E+00
          2   -1    0    0  503    0 -0.00000000000E+00  0.00000000000E+00  0.16585022395E+04  0.16585022395E+04  0.00000000000E+00 0. -1.
         21   -1    0    0  501  502  0.00000000000E+00 -0.00000000000E+00 -0.18055987254E+03  0.18055987254E+03  0.00000000000E+00 0. -1.
         24    2    1    2    0    0  0.83841326971E+02 -0.75702465707E+01  0.11997105698E+04  0.12053966608E+04  0.81172543869E+02 0.  0.
         23    2    1    2    0    0 -0.51431682791E+02  0.31268785236E+02  0.32213545240E+03  0.34166338092E+03  0.96641922822E+02 0.  0.
        -11    1    3    3    0    0  0.26555166531E+02  0.26489796297E+02  0.20133758133E+03  0.20480163045E+03  0.00000000000E+00 0.  1.
         12    1    3    3    0    0  0.57286160440E+02 -0.34060042868E+02  0.99837298847E+03  0.10005950304E+04  0.00000000000E+00 0. -1.
        -11    1    4    4    0    0 -0.39125027969E+02  0.62088961924E+02  0.15807366578E+03  0.17427877329E+03  0.00000000000E+00 0. -1.
         11    1    4    4    0    0 -0.12306654822E+02 -0.30820176688E+02  0.16406178661E+03  0.16738460763E+03  0.00000000000E+00 0.  1.
         21    1    1    2  503  502  0.24194435419E+02 -0.83287033435E+01 -0.15994540079E+03  0.16197922471E+03  0.00000000000E+00 0. -1.
          1    1    1    2  501    0 -0.56604079599E+02 -0.15369835322E+02  0.11604174555E+03  0.13002284559E+03  0.00000000000E+00 0. -1.
<scales pt_clust_5="13000.00000" pt_clust_6="13000.00000" pt_clust_7="13000.00000" pt_clust_8="13000.00000" pt_clust_9="25.58785" pt_clust_10="51.36018"></scales>
<clustering>
<clus scale="   25.588">  2  9  1 -1</clus>
<clus scale="   51.360">  2 10  1 -1</clus>
<clus scale="   81.173">  5  6 -1 -1</clus>
<clus scale="   96.642">  7  8 -1 -1</clus>
<clus scale="  112.308">  1  5  2 -1</clus>
<clus scale="   25.588">  2  5  1 -1</clus>
</clustering>
</event>
<event>
10    4  0.3403565E-005  0.2131372E+03  0.7546771E-02  0.1139719E+00
         -1   -1    0    0    0  501 -0.00000000000E+00  0.00000000000E+00  0.72263380797E+03  0.72263380797E+03  0.00000000000E+00 0.  1.
         21   -1    0    0  503  502  0.00000000000E+00 -0.00000000000E+00 -0.43722689538E+03  0.43722689538E+03  0.00000000000E+00 0.  1.
         24    2    1    2    0    0 -0.16961323657E+03  0.82439519721E+02  0.52745243138E+03  0.56595588314E+03  0.80839778956E+02 0.  0.
         23    2    1    2    0    0  0.16067323632E+03 -0.16856561383E+03  0.55597588002E+02  0.25530947220E+03  0.88665550037E+02 0.  0.
        -11    1    3    3    0    0 -0.15971872983E+03  0.74097446507E+02  0.52366352726E+03  0.55247080830E+03  0.00000000000E+00 0.  1.
         12    1    3    3    0    0 -0.98945067382E+01  0.83420732139E+01  0.37889041189E+01  0.13485074843E+02  0.00000000000E+00 0. -1.
        -11    1    4    4    0    0  0.14759529462E+03 -0.10912733420E+03  0.62850288608E+02  0.19401882600E+03  0.00000000000E+00 0. -1.
         11    1    4    4    0    0  0.13077941700E+02 -0.59438279633E+02 -0.72527006057E+01  0.61290646194E+02  0.00000000000E+00 0.  1.
         21    1    1    2  503  501  0.58678533874E+01 -0.33643457157E+02 -0.30386823430E+02  0.45712940739E+02  0.00000000000E+00 0.  1.
         -2    1    1    2    0  502  0.30721468618E+01  0.11976955127E+03 -0.26725628336E+03  0.29288240727E+03  0.00000000000E+00 0.  1.
<scales pt_clust_5="13000.00000" pt_clust_6="13000.00000" pt_clust_7="13000.00000" pt_clust_8="13000.00000" pt_clust_9="34.15134" pt_clust_10="96.43308"></scales>
<clustering>
<clus scale="   34.151">  2  9  1 -1</clus>
<clus scale="   80.840">  5  6 -1 -1</clus>
<clus scale="   88.666">  7  8 -1 -1</clus>
<clus scale="   96.433">  2 10  1 -1</clus>
<clus scale="  210.002">  1  5  2 -1</clus>
<clus scale="   34.151">  2  5  1 -1</clus>
</clustering>
</event>
<event>
10    4  0.3403565E-005  0.1672380E+03  0.7546771E-02  0.1211881E+00
          2   -1    0    0  503    0 -0.00000000000E+00  0.00000000000E+00  0.74323177628E+03  0.74323177628E+03  0.00000000000E+00 0. -1.
         21   -1    0    0  501  502  0.00000000000E+00 -0.00000000000E+00 -0.61583982279E+02  0.61583982279E+02  0.00000000000E+00 0.  1.
         24    2    1    2    0    0  0.85070416832E+01  0.18960927716E+02  0.14336645400E+03  0.16698817770E+03  0.83061572458E+02 0.  0.
         23    2    1    2    0    0  0.14313238101E+03  0.24702678996E+02  0.31204995710E+03  0.35568448344E+03  0.89661447661E+02 0.  0.
        -11    1    3    3    0    0 -0.21880165269E+02  0.41868881639E+02  0.72109123110E+02  0.86205977273E+02  0.00000000000E+00 0.  1.
         12    1    3    3    0    0  0.30387206953E+02 -0.22907953923E+02  0.71257330894E+02  0.80782200425E+02  0.00000000000E+00 0. -1.
        -13    1    4    4    0    0  0.12656241549E+03  0.51553208299E+02  0.22689192313E+03  0.26486925658E+03  0.00000000000E+00 0.  1.
         13    1    4    4    0    0  0.16569965519E+02 -0.26850529303E+02  0.85158033967E+02  0.90815226863E+02  0.00000000000E+00 0. -1.
         21    1    1    2  503  502 -0.17547646638E+02 -0.13756006154E+02  0.69080668811E+01  0.23342429091E+02  0.00000000000E+00 0.  1.
          1    1    1    2  501    0 -0.13409177605E+03 -0.29907600558E+02  0.21932331602E+03  0.25880066833E+03  0.00000000000E+00 0. -1.
<scales pt_clust_5="13000.00000" pt_clust_6="13000.00000" pt_clust_7="13000.00000" pt_clust_8="13000.00000" pt_clust_9="22.29681" pt_clust_10="141.17155"></scales>
<clustering>
<clus scale="   22.297">  2  9  1 -1</clus>
<clus scale="   83.062">  5  6 -1 -1</clus>
<clus scale="   84.699">  1  5  2 -1</clus>
<clus scale="   89.661">  7  8 -1 -1</clus>
<clus scale="  141.172">  2 10  1 -1</clus>
<clus scale="   22.297">  2  5  1 -1</clus>
</clustering>
</event>
<event>
10    4  0.3403565E-005  0.1168487E+03  0.7546771E-02  0.1251029E+00
         21   -1    0    0  501  502  0.00000000000E+00  0.00000000000E+00  0.42389658232E+03  0.42389658232E+03  0.00000000000E+00 0. -1.
          4   -1    0    0  503    0 -0.00000000000E+00 -0.00000000000E+00 -0.25424549351E+03  0.25424549351E+03  0.00000000000E+00 0. -1.
         24    2    1    2    0    0 -0.80032193161E+02 -0.94002423092E+01 -0.20392926181E+03  0.23474860870E+03  0.83822723449E+02 0.  0.
         23    2    1    2    0    0  0.23660858054E+02 -0.11160756341E+02  0.72168775613E+02  0.11952835757E+03  0.91620398403E+02 0.  0.
        -11    1    3    3    0    0 -0.16173154553E+02 -0.39942904585E+02 -0.55164077983E+02  0.70000586102E+02  0.00000000000E+00 0.  1.
         12    1    3    3    0    0 -0.63859038609E+02  0.30542662276E+02 -0.14876518383E+03  0.16474802260E+03  0.00000000000E+00 0. -1.
        -11    1    4    4    0    0  0.42540907081E+02 -0.32871133554E+02  0.73101514605E+02  0.90741785490E+02  0.00000000000E+00 0. -1.
         11    1    4    4    0    0 -0.18880049027E+02  0.21710377213E+02 -0.93273899252E+00  0.28786572078E+02  0.00000000000E+00 0.  1.
         21    1    1    2  503  502  0.30057327599E+02 -0.39831389495E+02  0.96710272552E+02  0.10882490225E+03  0.00000000000E+00 0.  1.
          3    1    1    2  501    0  0.26314007507E+02  0.60392388146E+02  0.20470130246E+03  0.21504020732E+03  0.00000000000E+00 0. -1.
<scales pt_clust_5="13000.00000" pt_clust_6="13000.00000" pt_clust_7="13000.00000" pt_clust_8="13000.00000" pt_clust_9="49.89972" pt_clust_10="57.38279"></scales>
<clustering>
<clus scale="   49.900">  1  9  2 -1</clus>
<clus scale="   57.383">  1 10  2 -1</clus>
<clus scale="   83.823">  5  6 -1 -1</clus>
<clus scale="   91.620">  7  8 -1 -1</clus>
<clus scale="  110.840">  2  5  1 -1</clus>
<clus scale="   49.900">  1  5  2 -1</clus>
</clustering>
</event>
<event>
10    4  0.3403565E-005  0.1314956E+03  0.7546771E-02  0.1247014E+00
          2   -1    0    0  503    0 -0.00000000000E+00  0.00000000000E+00  0.93636894951E+03  0.93636894951E+03  0.00000000000E+00 0. -1.
         21   -1    0    0  501  502  0.00000000000E+00 -0.00000000000E+00 -0.90041548646E+02  0.90041548646E+02  0.00000000000E+00 0.  1.
         24    2    1    2    0    0 -0.18409454995E+02 -0.21505355137E+02  0.53455103586E+03  0.54104425646E+03  0.78630078051E+02 0.  0.
         23    2    1    2    0    0 -0.83625481760E+02  0.53313586140E+01  0.20542076869E+03  0.24123390524E+03  0.94733627840E+02 0.  0.
        -11    1    3    3    0    0 -0.47523720768E+02 -0.24962001445E+02  0.31444631909E+03  0.31899544376E+03  0.00000000000E+00 0.  1.
         12    1    3    3    0    0  0.29114265773E+02  0.34566463081E+01  0.22010471677E+03  0.22204881270E+03  0.00000000000E+00 0. -1.
        -11    1    4    4    0    0 -0.55316564745E+02 -0.90483655238E+01  0.31213472618E+02  0.64156653020E+02  0.00000000000E+00 0.  1.
         11    1    4    4    0    0 -0.28308917015E+02  0.14379724138E+02  0.17420729608E+03  0.17707725222E+03  0.00000000000E+00 0. -1.
         21    1    1    2  503  502  0.14226762425E+02 -0.40521042843E+02 -0.43695099910E+02  0.61266772710E+02  0.00000000000E+00 0.  1.
          1    1    1    2  501    0  0.87808174330E+02  0.56695039366E+02  0.15005069622E+03  0.18286556374E+03  0.00000000000E+00 0. -1.
<scales pt_clust_5="13000.00000" pt_clust_6="13000.00000" pt_clust_7="13000.00000" pt_clust_8="13000.00000" pt_clust_9="42.94596" pt_clust_10="91.19566"></scales>
<clustering>
<clus scale="   42.946">  2  9  1 -1</clus>
<clus scale="   78.630">  5  6 -1 -1</clus>
<clus scale="   84.281">  1  5  2 -1</clus>
<clus scale="   91.196">  2 10  1 -1</clus>
<clus scale="   94.734">  7  8 -1 -1</clus>
<clus scale="   42.946">  2  5  1 -1</clus>
</clustering>
</event>
<event>
10    4  0.3403565E-005  0.1103095E+03  0.7546771E-02  0.1263943E+00
         21   -1    0    0  503  502  0.00000000000E+00  0.00000000000E+00  0.62738718069E+02  0.62738718069E+02  0.00000000000E+00 0.  1.
         -1   -1    0    0    0  501 -0.00000000000E+00 -0.00000000000E+00 -0.67526197059E+03  0.67526197059E+03  0.00000000000E+00 0.  1.
         24    2    1    2    0    0  0.38791355965E+01  0.61726471347E+02 -0.10871410926E+03  0.14918486072E+03  0.81315190214E+02 0.  0.
         23    2    1    2    0    0 -0.70850934883E+02 -0.38037427865E+02 -0.14073644910E+03  0.18608679380E+03  0.91404845758E+02 0.  0.
        -13    1    3    3    0    0 -0.36819406244E+02  0.40065289080E+02 -0.71996241537E+02  0.90246079475E+02  0.00000000000E+00 0.  1.
         14    1    3    3    0    0  0.40698541840E+02  0.21661182267E+02 -0.36717867721E+02  0.58938781249E+02  0.00000000000E+00 0. -1.
        -13    1    4    4    0    0 -0.12113709296E+02 -0.54427267743E+02 -0.41097642686E+02  0.69268215375E+02  0.00000000000E+00 0.  1.
         13    1    4    4    0    0 -0.58737225587E+02  0.16389839879E+02 -0.99638806417E+02  0.11681857842E+03  0.00000000000E+00 0. -1.
         21    1    1    2  503  501  0.40213104110E+02  0.62339341802E+02 -0.98999448994E+02  0.12371005691E+03  0.00000000000E+00 0.  1.
         -2    1    1    2    0  502  0.26758695177E+02 -0.86028385284E+02 -0.26407324516E+03  0.27901897723E+03  0.00000000000E+00 0.  1.
<scales pt_clust_5="13000.00000" pt_clust_6="13000.00000" pt_clust_7="13000.00000" pt_clust_8="13000.00000" pt_clust_9="74.18414" pt_clust_10="83.46447"></scales>
<clustering>
<clus scale="   74.184">  1  9  2 -1</clus>
<clus scale="   81.315">  5  6 -1 -1</clus>
<clus scale="   83.464">  1 10  2 -1</clus>
<clus scale="   91.405">  7  8 -1 -1</clus>
<clus scale="  102.105">  2  5  1 -1</clus>
<clus scale="   74.184">  1  5  2 -1</clus>
</clustering>
</event>
<event>
10    4  0.3403565E-005  0.1699165E+03  0.7546771E-02  0.1205655E+00
          2   -1    0    0  503    0 -0.00000000000E+00  0.00000000000E+00  0.19220609505E+04  0.19220609505E+04  0.00000000000E+00 0. -1.
         21   -1    0    0  501  502  0.00000000000E+00 -0.00000000000E+00 -0.29182528965E+02  0.29182528965E+02  0.00000000000E+00 0.  1.
         24    2    1    2    0    0  0.35768204059E+02 -0.19743562304E+02  0.57601667219E+03  0.58313822081E+03  0.81152974381E+02 0.  0.
         23    2    1    2    0    0  0.42469161563E+02 -0.12239867257E+03  0.45656295220E+03  0.48339150241E+03  0.91828920007E+02 0.  0.
        -11    1    3    3    0    0  0.19609839366E+02  0.31080186997E+02  0.19848846683E+03  0.20186182226E+03  0.00000000000E+00 0.  1.
         12    1    3    3    0    0  0.16158364693E+02 -0.50823749301E+02  0.37752820536E+03  0.38127639854E+03  0.00000000000E+00 0. -1.
        -11    1    4    4    0    0  0.29622397845E+02 -0.43033278223E+02  0.63686588421E+02  0.82373120818E+02  0.00000000000E+00 0.  1.
         11    1    4    4    0    0  0.12846763719E+02 -0.79365394347E+02  0.39287636378E+03  0.40101838159E+03  0.00000000000E+00 0. -1.
         21    1    1    2  503  502  0.34322010040E+02  0.18522886176E+02  0.14727773355E+03  0.15235428608E+03  0.00000000000E+00 0. -1.
          1    1    1    2  501    0 -0.11255937566E+03  0.12361934870E+03  0.71302106356E+03  0.73235947014E+03  0.00000000000E+00 0. -1.
<scales pt_clust_5="13000.00000" pt_clust_6="13000.00000" pt_clust_7="13000.00000" pt_clust_8="13000.00000" pt_clust_9="39.00125" pt_clust_10="142.96533"></scales>
<clustering>
<clus scale="   39.001">  2  9  1 -1</clus>
<clus scale="   81.153">  5  6 -1 -1</clus>
<clus scale="   91.829">  7  8 -1 -1</clus>
<clus scale="   92.263">  1  5  2 -1</clus>
<clus scale="  142.965">  2 10  1 -1</clus>
<clus scale="   39.001">  2  5  1 -1</clus>
</clustering>
</event>
<event>
10    4  0.3403565E-005  0.2347471E+03  0.7546771E-02  0.1123993E+00
          2   -1    0    0  503    0 -0.00000000000E+00  0.00000000000E+00  0.89691908365E+03  0.89691908365E+03  0.00000000000E+00 0. -1.
         21   -1    0    0  501  502  0.00000000000E+00 -0.00000000000E+00 -0.10345397963E+03  0.10345397963E+03  0.00000000000E+00 0. -1.
         24    2    1    2    0    0  0.81827694239E+02  0.22950746294E+03  0.47815237777E+03  0.54279285677E+03  0.81393746123E+02 0.  0.
         23    2    1    2    0    0 -0.94506013166E+01 -0.18856082655E+03  0.25263631706E+03  0.32840055729E+03  0.91527690656E+02 0.  0.
        -13    1    3    3    0    0  0.27967006424E+02  0.36606577639E+02  0.39895189871E+02  0.60941128556E+02  0.00000000000E+00 0.  1.
         14    1    3    3    0    0  0.53860687814E+02  0.19290088530E+03  0.43825718790E+03  0.48185172821E+03  0.00000000000E+00 0. -1.
        -11    1    4    4    0    0 -0.38630016554E+02 -0.54098538514E+02  0.48767212850E+02  0.82444957987E+02  0.00000000000E+00 0.  1.
         11    1    4    4    0    0  0.29179415238E+02 -0.13446228803E+03  0.20386910421E+03  0.24595559930E+03  0.00000000000E+00 0. -1.
         21    1    1    2  503  502 -0.48372943529E+01 -0.44431337853E+02  0.31693795239E+02  0.54790873845E+02  0.00000000000E+00 0.  1.
          1    1    1    2  501    0 -0.67539798569E+02  0.34847014608E+01  0.30982613952E+02  0.74388775379E+02  0.00000000000E+00 0. -1.
<scales pt_clust_5="13000.00000" pt_clust_6="13000.00000" pt_clust_7="13000.00000" pt_clust_8="13000.00000" pt_clust_9="44.69388" pt_clust_10="69.03867"></scales>
<clustering>
<clus scale="   44.694">  2  9  1 -1</clus>
<clus scale="   69.039">  2 10  1 -1</clus>
<clus scale="   81.394">  5  6 -1 -1</clus>
<clus scale="   91.528">  7  8 -1 -1</clus>
<clus scale="  230.984">  1  5  2 -1</clus>
<clus scale="   44.694">  2  5  1 -1</clus>
</clustering>
</event>
<event>
10    4  0.3403565E-005  0.3291923E+03  0.7546771E-02  0.1112404E+00
         -3   -1    0    0    0  501 -0.00000000000E+00  0.00000000000E+00  0.15311566995E+03  0.15311566995E+03  0.00000000000E+00 0.  1.
         21   -1    0    0  503  502  0.00000000000E+00 -0.00000000000E+00 -0.17190461590E+04  0.17190461590E+04  0.00000000000E+00 0. -1.
         24    2    1    2    0    0 -0.20722940977E+01  0.20933179886E+02 -0.16127427261E+03  0.19636568322E+03  0.11003453148E+03 0.  0.
         23    2    1    2    0    0  0.37631424322E+03 -0.40843235966E+02 -0.48471745583E+03  0.62212940245E+03  0.93879720007E+02 0.  0.
        -11    1    3    3    0    0 -0.14121547910E+02 -0.43883574192E+02 -0.66566021968E+02  0.80970497590E+02  0.00000000000E+00 0.  1.
         12    1    3    3    0    0  0.12049253812E+02  0.64816754078E+02 -0.94708250639E+02  0.11539518563E+03  0.00000000000E+00 0. -1.
        -11    1    4    4    0    0  0.56555046721E+02 -0.40318633919E+02 -0.72066552042E+02  0.10008822845E+03  0.00000000000E+00 0.  1.
         11    1    4    4    0    0  0.31975919650E+03 -0.52460204700E+00 -0.41265090379E+03  0.52204117400E+03  0.00000000000E+00 0. -1.
         21    1    1    2  503  501 -0.10466834907E+03  0.10714093150E+03 -0.63274816026E+03  0.65023447833E+03  0.00000000000E+00 0.  1.
         -4    1    1    2    0  502 -0.26957360006E+03 -0.87230875418E+02 -0.28719060031E+03  0.40343226492E+03  0.00000000000E+00 0.  1.
<scales pt_clust_5="13000.00000" pt_clust_6="13000.00000" pt_clust_7="13000.00000" pt_clust_8="13000.00000" pt_clust_9="150.84344" pt_clust_10="315.52220"></scales>
<clustering>
<clus scale="   93.880">  7  8 -1 -1</clus>
<clus scale="  110.035">  5  6 -1 -1</clus>
<clus scale="  112.027">  1  5  2 -1</clus>
<clus scale="  150.843">  2  9  1 -1</clus>
<clus scale="  315.522">  2 10  1 -1</clus>
<clus scale="  150.843">  2  5  1 -1</clus>
</clustering>
</event>
<event>
10    4  0.3403565E-005  0.1482163E+03  0.7546771E-02  0.1217582E+00
         21   -1    0    0  503  502  0.00000000000E+00  0.00000000000E+00  0.24438233719E+03  0.24438233719E+03  0.00000000000E+00 0. -1.
          2   -1    0    0  502    0 -0.00000000000E+00 -0.00000000000E+00 -0.27748961771E+03  0.27748961771E+03  0.00000000000E+00 0. -1.
         24    2    1    2    0    0 -0.44132463217E+02 -0.55630377424E+02 -0.68292533826E+02  0.12792145329E+03  0.81594208336E+02 0.  0.
         23    2    1    2    0    0  0.72292985912E+01 -0.89011924569E+02  0.11892596703E+03  0.17499948636E+03  0.92228244696E+02 0.  0.
        -11    1    3    3    0    0  0.23758590861E+02 -0.19651766438E+02 -0.14139281211E+02  0.33920227549E+02  0.00000000000E+00 0.  1.
         12    1    3    3    0    0 -0.67891054078E+02 -0.35978610986E+02 -0.54153252615E+02  0.94001225743E+02  0.00000000000E+00 0. -1.
        -13    1    4    4    0    0  0.33166547330E+02 -0.92570097867E+02  0.10950613769E+03  0.14717621096E+03  0.00000000000E+00 0. -1.
         13    1    4    4    0    0 -0.25937248738E+02  0.35581732983E+01  0.94198293394E+01  0.27823275402E+02  0.00000000000E+00 0.  1.
         21    1    1    2  503  501  0.29676948276E+02 -0.17225391641E+02  0.42428692690E+01  0.34575096758E+02  0.00000000000E+00 0. -1.
          1    1    1    2  501    0  0.72262163500E+01  0.16186769363E+03 -0.87983582988E+02  0.18437591849E+03  0.00000000000E+00 0. -1.
<scales pt_clust_5="13000.00000" pt_clust_6="13000.00000" pt_clust_7="13000.00000" pt_clust_8="13000.00000" pt_clust_9="34.31378" pt_clust_10="116.02598"></scales>
<clustering>
<clus scale="   34.314">  1  9  2 -1</clus>
<clus scale="   81.594">  5  6 -1 -1</clus>
<clus scale="   92.228">  7  8 -1 -1</clus>
<clus scale="  107.831">  2  5  1 -1</clus>
<clus scale="  116.026">  1 10  2 -1</clus>
<clus scale="   34.314">  1  5  2 -1</clus>
</clustering>
</event>
<event>
10    4  0.3403565E-005  0.1049740E+03  0.7546771E-02  0.1274057E+00
          2   -1    0    0  503    0 -0.00000000000E+00  0.00000000000E+00  0.42641187416E+03  0.42641187416E+03  0.00000000000E+00 0. -1.
         21   -1    0    0  501  502  0.00000000000E+00 -0.00000000000E+00 -0.64915746168E+03  0.64915746168E+03  0.00000000000E+00 0. -1.
         24    2    1    2    0    0 -0.17604415504E+02  0.96343075935E+02  0.12431547260E+03  0.17756162476E+03  0.80510186532E+02 0.  0.
         23    2    1    2    0    0 -0.17676471118E+02  0.48142493999E+02 -0.23924288761E+02  0.10591152540E+03  0.89524981213E+02 0.  0.
        -11    1    3    3    0    0 -0.35909492143E+02  0.14598485338E+02  0.19522743922E+02  0.43402130482E+02  0.00000000000E+00 0.  1.
         12    1    3    3    0    0  0.18305076638E+02  0.81744590597E+02  0.10479272868E+03  0.13415949428E+03  0.00000000000E+00 0. -1.
        -13    1    4    4    0    0 -0.45650463047E+02  0.38700255179E+02 -0.40298724492E+02  0.72150271815E+02  0.00000000000E+00 0. -1.
         13    1    4    4    0    0  0.27973991930E+02  0.94422388208E+01  0.16374435731E+02  0.33761253590E+02  0.00000000000E+00 0.  1.
         21    1    1    2  503  502  0.40397781568E+02 -0.64827818608E+02 -0.54809708291E+03  0.55339410831E+03  0.00000000000E+00 0. -1.
          1    1    1    2  501    0 -0.51168949459E+01 -0.79657751327E+02  0.22496031155E+03  0.23870207736E+03  0.00000000000E+00 0. -1.
<scales pt_clust_5="13000.00000" pt_clust_6="13000.00000" pt_clust_7="13000.00000" pt_clust_8="13000.00000" pt_clust_9="76.38473" pt_clust_10="84.21523"></scales>
<clustering>
<clus scale="   76.385">  2  9  1 -1</clus>
<clus scale="   80.510">  5  6 -1 -1</clus>
<clus scale="   84.215">  2 10  1 -1</clus>
<clus scale="   89.525">  7  8 -1 -1</clus>
<clus scale="   97.400">  1  5  2 -1</clus>
<clus scale="   76.385">  2  5  1 -1</clus>
</clustering>
</event>
<event>
10    4  0.3403565E-005  0.4365538E+03  0.7546771E-02  0.1073533E+00
         21   -1    0    0  501  502  0.00000000000E+00  0.00000000000E+00  0.12860009466E+03  0.12860009466E+03  0.00000000000E+00 0. -1.
          2   -1    0    0  503    0 -0.00000000000E+00 -0.00000000000E+00 -0.25467871276E+04  0.25467871276E+04  0.00000000000E+00 0. -1.
         24    2    1    2    0    0  0.91437099003E+02  0.59015378150E+02 -0.34805794978E+03  0.37376043547E+03  0.81908294985E+02 0.  0.
         23    2    1    2    0    0  0.70150765649E+02 -0.42581546387E+03 -0.74721805013E+03  0.86744726834E+03  0.88825726683E+02 0.  0.
        -13    1    3    3    0    0 -0.13201545994E+02  0.20710346432E+02 -0.55073695155E+02  0.60301833836E+02  0.00000000000E+00 0.  1.
         14    1    3    3    0    0  0.10463864500E+03  0.38305031718E+02 -0.29298425462E+03  0.31345860163E+03  0.00000000000E+00 0. -1.
        -13    1    4    4    0    0  0.15781059179E+02 -0.30661276859E+03 -0.47912586135E+03  0.56905362024E+03  0.00000000000E+00 0. -1.
         13    1    4    4    0    0  0.54369706470E+02 -0.11920269528E+03 -0.26809218878E+03  0.29839364810E+03  0.00000000000E+00 0.  1.
         21    1    1    2  503  502 -0.18404799589E+02 -0.22476756796E+02  0.15531650207E+02  0.32941970222E+02  0.00000000000E+00 0. -1.
          1    1    1    2  501    0 -0.14318306506E+03  0.38927684252E+03 -0.13384426832E+04  0.14012375482E+04  0.00000000000E+00 0. -1.
<scales pt_clust_5="13000.00000" pt_clust_6="13000.00000" pt_clust_7="13000.00000" pt_clust_8="13000.00000" pt_clust_9="29.05067" pt_clust_10="427.42175"></scales>
<clustering>
<clus scale="   29.051">  1  9  2 -1</clus>
<clus scale="   81.908">  5  6 -1 -1</clus>
<clus scale="   88.826">  7  8 -1 -1</clus>
<clus scale="  133.507">  2  5  1 -1</clus>
<clus scale="  427.422">  1 10  2 -1</clus>
<clus scale="   29.051">  1  5  2 -1</clus>
</clustering>
</event>
<event>
10    4  0.3403565E-005  0.9489185E+02  0.7546771E-02  0.1299332E+00
         21   -1    0    0  501  502  0.00000000000E+00  0.00000000000E+00  0.25454009473E+03  0.25454009473E+03  0.00000000000E+00 0.  1.
          2   -1    0    0  503    0 -0.00000000000E+00 -0.00000000000E+00 -0.25061838454E+03  0.25061838454E+03  0.00000000000E+00 0. -1.
         24    2    1    2    0    0 -0.17140666834E+02 -0.81116222465E+01 -0.17413396787E+03  0.19253289660E+03  0.79916685567E+02 0.  0.
         23    2    1    2    0    0  0.21058019913E+02 -0.22616560439E+02 -0.17558544763E+02  0.99712745235E+02  0.93163190474E+02 0.  0.
        -13    1    3    3    0    0 -0.12696835295E+02  0.30650125195E+02 -0.12742428457E+03  0.13167227536E+03  0.00000000000E+00 0.  1.
         14    1    3    3    0    0 -0.44438315393E+01 -0.38761747442E+02 -0.46709683302E+02  0.60860621239E+02  0.00000000000E+00 0. -1.
        -13    1    4    4    0    0 -0.24471968934E+02 -0.19786482841E+02  0.22754376761E+02  0.38834827520E+02  0.00000000000E+00 0. -1.
         13    1    4    4    0    0  0.45529988846E+02 -0.28300775981E+01 -0.40312921524E+02  0.60877917715E+02  0.00000000000E+00 0.  1.
         21    1    1    2  503  502  0.20185008312E+02  0.49498766405E+02  0.12829950836E+03  0.13899038198E+03  0.00000000000E+00 0.  1.
          1    1    1    2  501    0 -0.24102361390E+02 -0.18770583719E+02  0.67314714462E+02  0.73922455457E+02  0.00000000000E+00 0. -1.
<scales pt_clust_5="13000.00000" pt_clust_6="13000.00000" pt_clust_7="13000.00000" pt_clust_8="13000.00000" pt_clust_9="35.95864" pt_clust_10="30.54928"></scales>
<clustering>
<clus scale="   30.549">  1 10  2 -1</clus>
<clus scale="   35.959">  1  9  2 -1</clus>
<clus scale="   79.917">  5  6 -1 -1</clus>
<clus scale="   81.925">  2  5  1 -1</clus>
<clus scale="   93.163">  7  8 -1 -1</clus>
<clus scale="   30.549">  1  5  2 -1</clus>
</clustering>
</event>
<event>
10    4  0.3403565E-005  0.1017639E+03  0.7546771E-02  0.1282529E+00
         21   -1    0    0  503  502  0.00000000000E+00  0.00000000000E+00  0.26864053425E+03  0.26864053425E+03  0.00000000000E+00 0. -1.
          2   -1    0    0  502    0 -0.00000000000E+00 -0.00000000000E+00 -0.31758194001E+03  0.31758194001E+03  0.00000000000E+00 0. -1.
         24    2    1    2    0    0 -0.19213959680E+02 -0.30277031974E+02 -0.17580171135E+03  0.19615546546E+03  0.79277045883E+02 0.  0.
         23    2    1    2    0    0 -0.32255963587E+02  0.96643544806E+02 -0.76604648655E+02  0.15689975807E+03  0.91481363931E+02 0.  0.
        -13    1    3    3    0    0  0.23859742680E+02 -0.36032218384E+02 -0.96290001856E+02  0.10554322593E+03  0.00000000000E+00 0.  1.
         14    1    3    3    0    0 -0.43073702360E+02  0.57551864098E+01 -0.79511709491E+02  0.90612239525E+02  0.00000000000E+00 0. -1.
        -13    1    4    4    0    0  0.30528075851E+02  0.18101373291E+02 -0.12386275700E+02  0.37590463630E+02  0.00000000000E+00 0.  1.
         13    1    4    4    0    0 -0.62784039438E+02  0.78542171515E+02 -0.64218372955E+02  0.11930929444E+03  0.00000000000E+00 0. -1.
         21    1    1    2  503  501  0.27639532934E+02  0.34007001308E+00  0.12254294465E+03  0.12562178439E+03  0.00000000000E+00 0.  1.
          1    1    1    2  501    0  0.23830390333E+02 -0.66706582845E+02  0.80922009588E+02  0.10754546636E+03  0.00000000000E+00 0. -1.
<scales pt_clust_5="13000.00000" pt_clust_6="13000.00000" pt_clust_7="13000.00000" pt_clust_8="13000.00000" pt_clust_9="27.64162" pt_clust_10="78.55882"></scales>
<clustering>
<clus scale="   27.642">  1  9  2 -1</clus>
<clus scale="   78.559">  1 10  2 -1</clus>
<clus scale="   79.277">  5  6 -1 -1</clus>
<clus scale="   90.950">  2  5  1 -1</clus>
<clus scale="   91.481">  7  8 -1 -1</clus>
<clus scale="   27.642">  1  5  2 -1</clus>
</clustering>
</event>
<event>
10    4  0.1018344E-004  0.7327008E+03  0.7546771E-02  0.1031227E+00
          2   -1    0    0  503    0 -0.00000000000E+00  0.00000000000E+00  0.21218490351E+04  0.21218490351E+04  0.00000000000E+00 0. -1.
         21   -1    0    0  501  502  0.00000000000E+00 -0.00000000000E+00 -0.33904379054E+03  0.33904379054E+03  0.00000000000E+00 0. -1.
         23    2    1    2    0    0  0.28073226662E+01 -0.17436098821E+02  0.15176124529E+03  0.17831983011E+03  0.91948831619E+02 0.  0.
         24    2    1    2    0    0 -0.46436005402E+03 -0.54004903871E+03  0.59952550294E+03  0.93445915346E+03  0.80621689629E+02 0.  0.
        -13    1    4    4    0    0 -0.97168021797E+02 -0.88641389229E+02  0.14750211020E+03  0.19762538515E+03  0.00000000000E+00 0.  1.
         14    1    4    4    0    0 -0.36719203222E+03 -0.45140764948E+03  0.45202339274E+03  0.73683376831E+03  0.00000000000E+00 0. -1.
        -13    1    3    3    0    0  0.34884468693E+02 -0.27761152270E+02  0.13183978123E+03  0.13917376062E+03  0.00000000000E+00 0.  1.
         13    1    3    3    0    0 -0.32077146027E+02  0.10325053449E+02  0.19921464059E+02  0.39146069486E+02  0.00000000000E+00 0. -1.
         21    1    1    2  503  502  0.10569774829E+02 -0.34113699669E+02 -0.33537024862E+02  0.48991802189E+02  0.00000000000E+00 0. -1.
          1    1    1    2  501    0  0.45098295652E+03  0.59159883720E+03  0.10650555212E+04  0.12991220399E+04  0.00000000000E+00 0. -1.
<scales pt_clust_5="13000.00000" pt_clust_6="13000.00000" pt_clust_7="13000.00000" pt_clust_8="13000.00000" pt_clust_9="35.71365" pt_clust_10="728.25207"></scales>
<clustering>
<clus scale="   35.714">  2  9  1 -1</clus>
<clus scale="   80.622">  5  6 -1 -1</clus>
<clus scale="   91.949">  7  8 -1 -1</clus>
<clus scale="   93.940">  1  7  2 -1</clus>
<clus scale="  728.252">  2 10  1 -1</clus>
<clus scale="   35.714">  2  5  1 -1</clus>
</clustering>
</event>
<event>
10    4  0.3403565E-005  0.1118860E+03  0.7546771E-02  0.1263540E+00
          2   -1    0    0  502    0 -0.00000000000E+00  0.00000000000E+00  0.25470796705E+03  0.25470796705E+03  0.00000000000E+00 0. -1.
         21   -1    0    0  503  502  0.00000000000E+00 -0.00000000000E+00 -0.93951338757E+02  0.93951338757E+02  0.00000000000E+00 0. -1.
         24    2    1    2    0    0 -0.26550012106E+02  0.32672150225E+02  0.72293801777E+02  0.11519661741E+03  0.79192766999E+02 0.  0.
         23    2    1    2    0    0  0.83514350987E+02 -0.34541810193E+02  0.90177835660E+02  0.15925913838E+03  0.95203191334E+02 0.  0.
        -11    1    3    3    0    0 -0.30782065071E+02  0.47045035926E+02  0.18241335304E+02  0.59105983191E+02  0.00000000000E+00 0.  1.
         12    1    3    3    0    0  0.42320529645E+01 -0.14372885701E+02  0.54052466473E+02  0.56090634222E+02  0.00000000000E+00 0. -1.
        -13    1    4    4    0    0  0.30536415732E+02  0.13198779401E+02  0.80736887317E+02  0.87321964230E+02  0.00000000000E+00 0.  1.
         13    1    4    4    0    0  0.52977935255E+02 -0.47740589594E+02  0.94409483428E+01  0.71937174147E+02  0.00000000000E+00 0. -1.
         21    1    1    2  503  501 -0.26097763873E+02  0.20183808944E+01 -0.24488396630E+02  0.35844786373E+02  0.00000000000E+00 0. -1.
          1    1    1    2  501    0 -0.30866575008E+02 -0.14872092593E+00  0.22773387485E+02  0.38358763642E+02  0.00000000000E+00 0. -1.
<scales pt_clust_5="13000.00000" pt_clust_6="13000.00000" pt_clust_7="13000.00000" pt_clust_8="13000.00000" pt_clust_9="26.17570" pt_clust_10="34.05514"></scales>
<clustering>
<clus scale="   26.176">  2  9  1 -1</clus>
<clus scale="   34.055">  2 10  1 -1</clus>
<clus scale="   79.193">  5  6 -1 -1</clus>
<clus scale="   95.203">  7  8 -1 -1</clus>
<clus scale="   98.622">  1  5  2 -1</clus>
<clus scale="   26.176">  2  5  1 -1</clus>
</clustering>
</event>
<event>
10    4  0.3403565E-005  0.1173594E+03  0.7546771E-02  0.1250915E+00
         21   -1    0    0  503  502  0.00000000000E+00  0.00000000000E+00  0.25520708515E+03  0.25520708515E+03  0.00000000000E+00 0.  1.
          2   -1    0    0  502    0 -0.00000000000E+00 -0.00000000000E+00 -0.47879194374E+03  0.47879194374E+03  0.00000000000E+00 0. -1.
         23    2    1    2    0    0 -0.33103835437E+02  0.68167472561E+02 -0.27853374890E+03  0.30245300443E+03  0.90300068542E+02 0.  0.
         24    2    1    2    0    0  0.31381235772E+02 -0.51438934860E+02  0.20694173748E+03  0.22991170427E+03  0.80023515726E+02 0.  0.
        -11    1    4    4    0    0 -0.30980786798E+01 -0.63374716123E+02  0.13883941538E+03  0.15265102685E+03  0.00000000000E+00 0.  1.
         12    1    4    4    0    0  0.34479314452E+02  0.11935781263E+02  0.68102322108E+02  0.77260677423E+02  0.00000000000E+00 0. -1.
        -13    1    3    3    0    0 -0.63767886886E+02  0.51790095261E+02 -0.21252679618E+03  0.22785125951E+03  0.00000000000E+00 0. -1.
         13    1    3    3    0    0  0.30664051449E+02  0.16377377299E+02 -0.66006952719E+02  0.74601744924E+02  0.00000000000E+00 0.  1.
         21    1    1    2  503  501  0.20441309998E+02  0.56935720895E+01  0.18807404838E+02  0.28354583304E+02  0.00000000000E+00 0. -1.
          1    1    1    2  501    0 -0.18718710333E+02 -0.22422109790E+02 -0.17080025202E+03  0.17327973688E+03  0.00000000000E+00 0. -1.
<scales pt_clust_5="13000.00000" pt_clust_6="13000.00000" pt_clust_7="13000.00000" pt_clust_8="13000.00000" pt_clust_9="21.21942" pt_clust_10="29.11516"></scales>
<clustering>
<clus scale="   21.219">  1  9  2 -1</clus>
<clus scale="   29.115">  1 10  2 -1</clus>
<clus scale="   80.024">  5  6 -1 -1</clus>
<clus scale="   90.300">  7  8 -1 -1</clus>
<clus scale="  109.649">  1  5  2 -1</clus>
<clus scale="   21.219">  1  5  2 -1</clus>
</clustering>
</event>
<event>
10    4  0.3403565E-005  0.1195884E+03  0.7546771E-02  0.1247193E+00
         -3   -1    0    0    0  501 -0.00000000000E+00  0.00000000000E+00  0.49669710985E+03  0.49669710985E+03  0.00000000000E+00 0.  1.
         21   -1    0    0  501  502  0.00000000000E+00 -0.00000000000E+00 -0.70030702753E+02  0.70030702753E+02  0.00000000000E+00 0. -1.
         23    2    1    2    0    0  0.34410849311E+02 -0.81904984938E+02  0.33244638961E+03  0.35574342532E+03  0.90223331694E+02 0.  0.
         24    2    1    2    0    0 -0.62597635792E+02  0.20131597491E+02  0.38539418933E+02  0.11005542388E+03  0.79392469986E+02 0.  0.
        -11    1    4    4    0    0 -0.23523738798E+02  0.44940237221E+02  0.38649013863E+02  0.63770976793E+02  0.00000000000E+00 0.  1.
         12    1    4    4    0    0 -0.39073896994E+02 -0.24808639730E+02 -0.10959493009E+00  0.46284447092E+02  0.00000000000E+00 0. -1.
        -11    1    3    3    0    0 -0.28988036760E+02 -0.11509602374E+02  0.99358269008E+02  0.10413857519E+03  0.00000000000E+00 0. -1.
         11    1    3    3    0    0  0.63398886071E+02 -0.70395382565E+02  0.23308812060E+03  0.25160485013E+03  0.00000000000E+00 0.  1.
         21    1    1    2  503  502  0.22110068638E+02  0.18277598415E+01  0.64018777573E+01  0.23090688167E+02  0.00000000000E+00 0. -1.
         -4    1    1    2    0  503  0.60767178424E+01  0.59945627606E+02  0.49278720800E+02  0.77838275241E+02  0.00000000000E+00 0.  1.
<scales pt_clust_5="13000.00000" pt_clust_6="13000.00000" pt_clust_7="13000.00000" pt_clust_8="13000.00000" pt_clust_9="22.18549" pt_clust_10="61.39798"></scales>
<clustering>
<clus scale="   22.185">  2  9  1 -1</clus>
<clus scale="   61.398">  2 10  1 -1</clus>
<clus scale="   79.392">  5  6 -1 -1</clus>
<clus scale="   90.223">  7  8 -1 -1</clus>
<clus scale="  111.644">  2  5  1 -1</clus>
<clus scale="   22.185">  2  5  1 -1</clus>
</clustering>
</event>
<event>
10    4  0.3403565E-005  0.2252750E+03  0.7546771E-02  0.1148211E+00
         -1   -1    0    0    0  501 -0.00000000000E+00  0.00000000000E+00  0.80472248119E+03  0.80472248119E+03  0.00000000000E+00 0.  1.
         21   -1    0    0  503  502  0.00000000000E+00 -0.00000000000E+00 -0.16681303772E+03  0.16681303772E+03  0.00000000000E+00 0.  1.
         24    2    1    2    0    0  0.11523493095E+03 -0.10835234146E+02  0.10645783630E+03  0.17691503841E+03  0.81050405894E+02 0.  0.
         23    2    1    2    0    0 -0.17352814541E+03  0.18248952332E+03  0.35364182563E+03  0.44359743228E+03  0.91113652755E+02 0.  0.
        -11    1    3    3    0    0  0.10366614906E+03 -0.37628772637E+02  0.95008410789E+02  0.14556508205E+03  0.00000000000E+00 0.  1.
         12    1    3    3    0    0  0.11568781886E+02  0.26793538491E+02  0.11449425514E+02  0.31349956360E+02  0.00000000000E+00 0. -1.
        -11    1    4    4    0    0 -0.14076108043E+02  0.33571554353E+02  0.12184584562E+02  0.38388151561E+02  0.00000000000E+00 0. -1.
         11    1    4    4    0    0 -0.15945203737E+03  0.14891796897E+03  0.34145724107E+03  0.40520928072E+03  0.00000000000E+00 0.  1.
         21    1    1    2  503  501  0.16039250871E+02  0.12650364832E+02 -0.50561313160E+02  0.54531969407E+02  0.00000000000E+00 0.  1.
         -2    1    1    2    0  502  0.42253963591E+02 -0.18430465401E+03  0.22837109469E+03  0.29649107881E+03  0.00000000000E+00 0.  1.
<scales pt_clust_5="13000.00000" pt_clust_6="13000.00000" pt_clust_7="13000.00000" pt_clust_8="13000.00000" pt_clust_9="20.42766" pt_clust_10="206.02701"></scales>
<clustering>
<clus scale="   20.428">  2  9  1 -1</clus>
<clus scale="   81.050">  5  6 -1 -1</clus>
<clus scale="   91.114">  7  8 -1 -1</clus>
<clus scale="  145.122">  1  5  2 -1</clus>
<clus scale="  206.027">  2 10  1 -1</clus>
<clus scale="   20.428">  2  5  1 -1</clus>
</clustering>
</event>
<event>
10    4  0.3403565E-005  0.1432495E+03  0.7546771E-02  0.1233846E+00
          2   -1    0    0  502    0 -0.00000000000E+00  0.00000000000E+00  0.93672576260E+03  0.93672576260E+03  0.00000000000E+00 0. -1.
         21   -1    0    0  503  502  0.00000000000E+00 -0.00000000000E+00 -0.42726804516E+02  0.42726804516E+02  0.00000000000E+00 0.  1.
         24    2    1    2    0    0  0.10448824994E+02  0.33363489904E+02  0.76612871940E+02  0.11455216720E+03  0.77655434202E+02 0.  0.
         23    2    1    2    0    0  0.10145701484E+03 -0.26850643967E+02  0.60027490407E+03  0.61641983007E+03  0.92892214457E+02 0.  0.
        -11    1    3    3    0    0  0.53611321604E+01  0.55184448735E+02  0.30489854462E+02  0.63274768631E+02  0.00000000000E+00 0.  1.
         12    1    3    3    0    0  0.50876928341E+01 -0.21820958831E+02  0.46123017478E+02  0.51277398569E+02  0.00000000000E+00 0. -1.
        -13    1    4    4    0    0 -0.16303891257E+02 -0.13541979987E+02  0.74645238019E+02  0.77595835268E+02  0.00000000000E+00 0.  1.
         13    1    4    4    0    0  0.11776090610E+03 -0.13308663980E+02  0.52562966605E+03  0.53882399480E+03  0.00000000000E+00 0. -1.
         21    1    1    2  503  501 -0.25569375665E+02 -0.16388919543E+02  0.32746203857E+02  0.44662103877E+02  0.00000000000E+00 0.  1.
          1    1    1    2  501    0 -0.86336464174E+02  0.98760736060E+01  0.18436497822E+03  0.20381846597E+03  0.00000000000E+00 0. -1.
<scales pt_clust_5="13000.00000" pt_clust_6="13000.00000" pt_clust_7="13000.00000" pt_clust_8="13000.00000" pt_clust_9="26.70142" pt_clust_10="118.03157"></scales>
<clustering>
<clus scale="   26.701">  9 10 -1 -1</clus>
<clus scale="   77.655">  5  6 -1 -1</clus>
<clus scale="   85.163">  1  5  2 -1</clus>
<clus scale="   92.892">  7  8 -1 -1</clus>
<clus scale="  118.032">  2  9  1 -1</clus>
<clus scale="  118.032">  2  5  1 -1</clus>
</clustering>
</event>
<event>
10    4  0.3403565E-005  0.1220611E+03  0.7546771E-02  0.1254876E+00
         21   -1    0    0  501  502  0.00000000000E+00  0.00000000000E+00  0.71743200395E+02  0.71743200395E+02  0.00000000000E+00 0. -1.
          2   -1    0    0  503    0 -0.00000000000E+00 -0.00000000000E+00 -0.94331716406E+03  0.94331716406E+03  0.00000000000E+00 0. -1.
         24    2    1    2    0    0 -0.32735930427E+02  0.23464778924E+02 -0.67929046778E+03  0.68511925717E+03  0.79565192947E+02 0.  0.
         23    2    1    2    0    0 -0.12412288362E+02  0.47679962406E+02 -0.67699861729E+02  0.12373547880E+03  0.91102984140E+02 0.  0.
        -13    1    3    3    0    0 -0.24385671499E+02 -0.98803624214E+01 -0.68764545999E+02  0.73626390122E+02  0.00000000000E+00 0.  1.
         14    1    3    3    0    0 -0.83502589286E+01  0.33345141345E+02 -0.61052592179E+03  0.61149286705E+03  0.00000000000E+00 0. -1.
        -11    1    4    4    0    0 -0.98351414831E+01  0.71682831538E+02 -0.68423511804E+02  0.99583810496E+02  0.00000000000E+00 0. -1.
         11    1    4    4    0    0 -0.25771468785E+01 -0.24002869132E+02  0.72365007423E+00  0.24151668308E+02  0.00000000000E+00 0.  1.
         21    1    1    2  503  502 -0.45777208141E+02  0.46736674151E+00 -0.19083758673E+02  0.49597994536E+02  0.00000000000E+00 0. -1.
          1    1    1    2  501    0  0.90925426930E+02 -0.71612108071E+02 -0.10549987548E+03  0.15660763395E+03  0.00000000000E+00 0. -1.
<scales pt_clust_5="13000.00000" pt_clust_6="13000.00000" pt_clust_7="13000.00000" pt_clust_8="13000.00000" pt_clust_9="45.77959" pt_clust_10="81.23518"></scales>
<clustering>
<clus scale="   45.780">  1  9  2 -1</clus>
<clus scale="   79.565">  5  6 -1 -1</clus>
<clus scale="   90.079">  2  5  1 -1</clus>
<clus scale="   81.235">  1 10  2 -1</clus>
<clus scale="   91.103">  7  8 -1 -1</clus>
<clus scale="   45.780">  1  5  2 -1</clus>
</clustering>
</event>
<event>
10    4  0.3403565E-005  0.1913225E+03  0.7546771E-02  0.1194773E+00
          2   -1    0    0  502    0 -0.00000000000E+00  0.00000000000E+00  0.11433387771E+04  0.11433387771E+04  0.00000000000E+00 0. -1.
         21   -1    0    0  503  502  0.00000000000E+00 -0.00000000000E+00 -0.88288049738E+02  0.88288049738E+02  0.00000000000E+00 0. -1.
         24    2    1    2    0    0  0.93061631242E+01 -0.35108244340E+02  0.30522092583E+03  0.31637749593E+03  0.74938060253E+02 0.  0.
         23    2    1    2    0    0 -0.17118782513E+03  0.52632022179E+02  0.42942765768E+03  0.47299207954E+03  0.85076394474E+02 0.  0.
        -13    1    3    3    0    0  0.42348774992E+02 -0.18529769565E+02  0.16256168907E+03  0.16900613556E+03  0.00000000000E+00 0.  1.
         14    1    3    3    0    0 -0.33042611868E+02 -0.16578474775E+02  0.14265923676E+03  0.14737136037E+03  0.00000000000E+00 0. -1.
        -11    1    4    4    0    0 -0.65942111113E+02  0.58622514333E+02  0.24714497311E+03  0.26242255798E+03  0.00000000000E+00 0.  1.
         11    1    4    4    0    0 -0.10524571402E+03 -0.59904921537E+01  0.18228268457E+03  0.21056952156E+03  0.00000000000E+00 0. -1.
         21    1    1    2  503  501  0.34735847785E+01  0.29743616663E+02 -0.37519321330E+02  0.48004666403E+02  0.00000000000E+00 0. -1.
          1    1    1    2  501    0  0.15840807723E+03 -0.47267394503E+02  0.35792146521E+03  0.39425258499E+03  0.00000000000E+00 0. -1.
<scales pt_clust_5="13000.00000" pt_clust_6="13000.00000" pt_clust_7="13000.00000" pt_clust_8="13000.00000" pt_clust_9="29.94576" pt_clust_10="171.36604"></scales>
<clustering>
<clus scale="   29.946">  2  9  1 -1</clus>
<clus scale="   74.938">  5  6 -1 -1</clus>
<clus scale="   81.856">  1  5  2 -1</clus>
<clus scale="   85.076">  7  8 -1 -1</clus>
<clus scale="  171.366">  2 10  1 -1</clus>
<clus scale="   29.946">  2  5  1 -1</clus>
</clustering>
</event>
<event>
10    4  0.3403565E-005  0.3819058E+03  0.7546771E-02  0.1064919E+00
         21   -1    0    0  501  502  0.00000000000E+00  0.00000000000E+00  0.97502614185E+03  0.97502614185E+03  0.00000000000E+00 0. -1.
          2   -1    0    0  503    0 -0.00000000000E+00 -0.00000000000E+00 -0.63281324094E+03  0.63281324094E+03  0.00000000000E+00 0. -1.
         23    2    1    2    0    0 -0.15877093476E+03 -0.10088478410E+03  0.17964116207E+03  0.27572702270E+03  0.91479476121E+02 0.  0.
         24    2    1    2    0    0 -0.35812407111E+02  0.41291243983E+03 -0.27609780133E+03  0.50442983168E+03  0.80251154032E+02 0.  0.
        -11    1    4    4    0    0 -0.19743480307E+01  0.32419765890E+03 -0.18724668272E+03  0.37439196075E+03  0.00000000000E+00 0.  1.
         12    1    4    4    0    0 -0.33838059080E+02  0.88714780929E+02 -0.88851118614E+02  0.13003787093E+03  0.00000000000E+00 0. -1.
        -13    1    3    3    0    0 -0.11963724498E+03 -0.82721566083E+02  0.18144348120E+03  0.23254604867E+03  0.00000000000E+00 0. -1.
         13    1    3    3    0    0 -0.39133689773E+02 -0.18163218016E+02 -0.18023191294E+01  0.43180974030E+02  0.00000000000E+00 0.  1.
         21    1    1    2  503  502 -0.10298269108E+03 -0.51861217104E+02  0.41609591562E+03  0.43177636746E+03  0.00000000000E+00 0. -1.
          1    1    1    2  501    0  0.29756603295E+03 -0.26016643863E+03  0.22573624556E+02  0.39590616095E+03  0.00000000000E+00 0. -1.
<scales pt_clust_5="13000.00000" pt_clust_6="13000.00000" pt_clust_7="13000.00000" pt_clust_8="13000.00000" pt_clust_9="115.30404" pt_clust_10="373.37889"></scales>
<clustering>
<clus scale="   80.251">  5  6 -1 -1</clus>
<clus scale="   91.479">  7  8 -1 -1</clus>
<clus scale="  115.304">  1  9  2 -1</clus>
<clus scale="  252.701">  2  7  1 -1</clus>
<clus scale="  373.379">  1 10  2 -1</clus>
<clus scale="  115.304">  1  5  2 -1</clus>
</clustering>
</event>
<event>
10    4  0.3403565E-005  0.2876119E+03  0.7546771E-02  0.1107946E+00
         21   -1    0    0  501  502  0.00000000000E+00  0.00000000000E+00  0.43282910539E+03  0.43282910539E+03  0.00000000000E+00 0. -1.
          2   -1    0    0  503    0 -0.00000000000E+00 -0.00000000000E+00 -0.48223712178E+03  0.48223712178E+03  0.00000000000E+00 0. -1.
         24    2    1    2    0    0 -0.14770388556E+03 -0.57307969556E+02  0.71749213374E+02  0.19121504504E+03  0.79464474119E+02 0.  0.
         23    2    1    2    0    0 -0.11582027693E+03  0.21964163544E+03 -0.94451118645E+01  0.26426457420E+03  0.89943151364E+02 0.  0.
        -13    1    3    3    0    0 -0.82883982034E+02 -0.19607674485E+02  0.78625051134E+02  0.11591425297E+03  0.00000000000E+00 0.  1.
         14    1    3    3    0    0 -0.64819903523E+02 -0.37700295071E+02 -0.68758377597E+01  0.75300792068E+02  0.00000000000E+00 0. -1.
        -13    1    4    4    0    0  0.10189031728E+02  0.59077573360E+02 -0.40764237679E+01  0.60088212425E+02  0.00000000000E+00 0.  1.
         13    1    4    4    0    0 -0.12600930865E+03  0.16056406208E+03 -0.53686880966E+01  0.20417636178E+03  0.00000000000E+00 0. -1.
         21    1    1    2  503  502 -0.36578597062E+02  0.22836117063E+01  0.64815661490E+02  0.74459912838E+02  0.00000000000E+00 0. -1.
          1    1    1    2  501    0  0.30010275955E+03 -0.16461727759E+03 -0.17652777939E+03  0.38512669508E+03  0.00000000000E+00 0. -1.
<scales pt_clust_5="13000.00000" pt_clust_6="13000.00000" pt_clust_7="13000.00000" pt_clust_8="13000.00000" pt_clust_9="36.64981" pt_clust_10="273.18660"></scales>
<clustering>
<clus scale="   36.650">  1  9  2 -1</clus>
<clus scale="   79.464">  5  6 -1 -1</clus>
<clus scale="   89.943">  7  8 -1 -1</clus>
<clus scale="  188.171">  2  5  1 -1</clus>
<clus scale="  273.187">  1 10  2 -1</clus>
<clus scale="   36.650">  1  5  2 -1</clus>
</clustering>
</event>
<event>
10    4  0.3403565E-005  0.1985114E+03  0.7546771E-02  0.1152247E+00
         -3   -1    0    0    0  501 -0.00000000000E+00  0.00000000000E+00  0.17073535097E+04  0.17073535097E+04  0.00000000000E+00 0.  1.
         21   -1    0    0  503  502  0.00000000000E+00 -0.00000000000E+00 -0.43999047264E+02  0.43999047264E+02  0.00000000000E+00 0.  1.
         23    2    1    2    0    0  0.14531262082E+03 -0.11499535211E+03  0.97766969015E+03  0.99925467150E+03  0.91280812320E+02 0.  0.
         24    2    1    2    0    0 -0.10424111160E+03  0.12541211166E+03  0.42152547981E+03  0.45864806186E+03  0.77973761102E+02 0.  0.
        -13    1    4    4    0    0 -0.63423579798E+02  0.59697008152E+02  0.12606186192E+03  0.15322492058E+03  0.00000000000E+00 0.  1.
         14    1    4    4    0    0 -0.40817531804E+02  0.65715103507E+02  0.29546361789E+03  0.30542314128E+03  0.00000000000E+00 0. -1.
        -13    1    3    3    0    0  0.10311550982E+03 -0.11357428722E+03  0.87326295131E+03  0.88663414620E+03  0.00000000000E+00 0.  1.
         13    1    3    3    0    0  0.42197111005E+02 -0.14210648829E+01  0.10440673884E+03  0.11262052529E+03  0.00000000000E+00 0. -1.
         21    1    1    2  503  501 -0.26364585221E+02 -0.56188411344E+02  0.70572078338E+02  0.93982164075E+02  0.00000000000E+00 0. -1.
         -4    1    1    2    0  502 -0.14706923998E+02  0.45771651791E+02  0.19358721415E+03  0.19946765954E+03  0.00000000000E+00 0.  1.
<scales pt_clust_5="13000.00000" pt_clust_6="13000.00000" pt_clust_7="13000.00000" pt_clust_8="13000.00000" pt_clust_9="52.86577" pt_clust_10="48.07640"></scales>
<clustering>
<clus scale="   48.076">  2 10  1 -1</clus>
<clus scale="   52.866">  2  9  1 -1</clus>
<clus scale="   77.974">  5  6 -1 -1</clus>
<clus scale="   91.281">  7  8 -1 -1</clus>
<clus scale="  192.755">  2  5  1 -1</clus>
<clus scale="   48.076">  2  5  1 -1</clus>
</clustering>
</event>
<event>
10    4  0.3403565E-005  0.3235353E+03  0.7546771E-02  0.1074034E+00
          2   -1    0    0  503    0 -0.00000000000E+00  0.00000000000E+00  0.14459334186E+04  0.14459334186E+04  0.00000000000E+00 0. -1.
         21   -1    0    0  501  502  0.00000000000E+00 -0.00000000000E+00 -0.78835151093E+02  0.78835151093E+02  0.00000000000E+00 0. -1.
         24    2    1    2    0    0 -0.12719946121E+02 -0.13749906426E+03  0.41951228903E+03  0.44862500737E+03  0.78778467199E+02 0.  0.
         23    2    1    2    0    0  0.80370684743E+01 -0.13663430330E+03  0.52162392762E+03  0.54698562263E+03  0.91477987487E+02 0.  0.
        -11    1    3    3    0    0  0.27216687858E+02 -0.47297360840E+02  0.96213837605E+02  0.11061144148E+03  0.00000000000E+00 0.  1.
         12    1    3    3    0    0 -0.39936633979E+02 -0.90201703416E+02  0.32329845143E+03  0.33801356589E+03  0.00000000000E+00 0. -1.
        -13    1    4    4    0    0  0.23463514742E+02 -0.62810069496E+02  0.38619987170E+03  0.39197701751E+03  0.00000000000E+00 0.  1.
         13    1    4    4    0    0 -0.15426446268E+02 -0.73824233800E+02  0.13542405592E+03  0.15500860512E+03  0.00000000000E+00 0. -1.
         21    1    1    2  503  502  0.25377291421E+02  0.37633197545E+01  0.17868606706E+01  0.25716966511E+02  0.00000000000E+00 0. -1.
          1    1    1    2  501    0 -0.20694413774E+02  0.27037004780E+03  0.42417519023E+03  0.50344097322E+03  0.00000000000E+00 0. -1.
<scales pt_clust_5="13000.00000" pt_clust_6="13000.00000" pt_clust_7="13000.00000" pt_clust_8="13000.00000" pt_clust_9="25.65481" pt_clust_10="272.65913"></scales>
<clustering>
<clus scale="   25.655">  2  9  1 -1</clus>
<clus scale="   78.778">  5  6 -1 -1</clus>
<clus scale="   91.478">  7  8 -1 -1</clus>
<clus scale="   98.320">  5  7 -1 -1</clus>
<clus scale="  272.659">  2 10  1 -1</clus>
<clus scale="   25.655">  2  5  1 -1</clus>
</clustering>
</event>
<event>
10    4  0.3403565E-005  0.1505231E+03  0.7546771E-02  0.1201166E+00
          2   -1    0    0  502    0 -0.00000000000E+00  0.00000000000E+00  0.31714189280E+03  0.31714189280E+03  0.00000000000E+00 0. -1.
         21   -1    0    0  503  502  0.00000000000E+00 -0.00000000000E+00 -0.12893218347E+03  0.12893218347E+03  0.00000000000E+00 0. -1.
         24    2    1    2    0    0 -0.69274911435E+01 -0.12485240612E+03  0.16414581833E+03  0.22193709272E+03  0.81707466015E+02 0.  0.
         23    2    1    2    0    0  0.68620582510E+01  0.11140233137E+03 -0.48668880535E+01  0.14294179047E+03  0.89168949663E+02 0.  0.
        -13    1    3    3    0    0 -0.18909721600E+01 -0.48517856322E+02  0.12883420963E+03  0.13768010651E+03  0.00000000000E+00 0.  1.
         14    1    3    3    0    0 -0.50365189835E+01 -0.76334549793E+02  0.35311608699E+02  0.84256986206E+02  0.00000000000E+00 0. -1.
        -11    1    4    4    0    0  0.21776625634E+02  0.33626501009E+02  0.35969287875E+02  0.53840065605E+02  0.00000000000E+00 0.  1.
         11    1    4    4    0    0 -0.14914567383E+02  0.77775830365E+02 -0.40836175928E+02  0.89101724864E+02  0.00000000000E+00 0. -1.
         21    1    1    2  503  501 -0.34901606281E+02  0.17601738132E+01  0.10340196934E+01  0.34961257551E+02  0.00000000000E+00 0.  1.
          1    1    1    2  501    0  0.34967039174E+02  0.11689900928E+02  0.27896759353E+02  0.46233935531E+02  0.00000000000E+00 0. -1.
<scales pt_clust_5="13000.00000" pt_clust_6="13000.00000" pt_clust_7="13000.00000" pt_clust_8="13000.00000" pt_clust_9="34.94596" pt_clust_10="34.22047"></scales>
<clustering>
<clus scale="   34.946">  2  9  1 -1</clus>
<clus scale="   34.220">  2 10  1 -1</clus>
<clus scale="   81.707">  5  6 -1 -1</clus>
<clus scale="   89.169">  7  8 -1 -1</clus>
<clus scale="  146.227">  1  5  2 -1</clus>
<clus scale="   34.946">  2  5  1 -1</clus>
</clustering>
</event>
<event>
10    4  0.3403565E-005  0.3844026E+03  0.7546771E-02  0.1049318E+00
         21   -1    0    0  503  502  0.00000000000E+00  0.00000000000E+00  0.58111493908E+03  0.58111493908E+03  0.00000000000E+00 0. -1.
          2   -1    0    0  502    0 -0.00000000000E+00 -0.00000000000E+00 -0.27516105257E+03  0.27516105257E+03  0.00000000000E+00 0. -1.
         24    2    1    2    0    0  0.27744295522E+02  0.17079739591E+03  0.43499266036E+02  0.19594279561E+03  0.80993188728E+02 0.  0.
         23    2    1    2    0    0  0.11826708603E+03  0.12192985254E+03 -0.22710122536E+02  0.19471272850E+03  0.92429997277E+02 0.  0.
        -11    1    3    3    0    0  0.13567801002E+02  0.14173288415E+03  0.65608322472E+02  0.15676972811E+03  0.00000000000E+00 0.  1.
         12    1    3    3    0    0  0.14176494520E+02  0.29064511762E+02 -0.22109056435E+02  0.39173067500E+02  0.00000000000E+00 0. -1.
        -11    1    4    4    0    0  0.38469412765E+02 -0.78903015396E+01  0.57641617749E+01  0.39691033469E+02  0.00000000000E+00 0.  1.
         11    1    4    4    0    0  0.79797673267E+02  0.12982015408E+03 -0.28474284310E+02  0.15502169504E+03  0.00000000000E+00 0. -1.
         21    1    1    2  503  501 -0.27833575927E+02 -0.43223113099E+01  0.98213608536E+02  0.10217290847E+03  0.00000000000E+00 0. -1.
          1    1    1    2  501    0 -0.11817780563E+03 -0.28840493715E+03  0.18695113447E+03  0.36344755907E+03  0.00000000000E+00 0. -1.
<scales pt_clust_5="13000.00000" pt_clust_6="13000.00000" pt_clust_7="13000.00000" pt_clust_8="13000.00000" pt_clust_9="28.16719" pt_clust_10="320.30356"></scales>
<clustering>
<clus scale="   28.167">  1  9  2 -1</clus>
<clus scale="   80.993">  5  6 -1 -1</clus>
<clus scale="   92.430">  7  8 -1 -1</clus>
<clus scale="  152.171">  5  7 -1 -1</clus>
<clus scale="  320.304">  1 10  2 -1</clus>
<clus scale="   28.167">  1  5  2 -1</clus>
</clustering>
</event>
<event>
10    4  0.3403565E-005  0.2875070E+03  0.7546771E-02  0.1123705E+00
         21   -1    0    0  501  502  0.00000000000E+00  0.00000000000E+00  0.38650628480E+03  0.38650628480E+03  0.00000000000E+00 0. -1.
          2   -1    0    0  503    0 -0.00000000000E+00 -0.00000000000E+00 -0.91162120120E+03  0.91162120120E+03  0.00000000000E+00 0. -1.
         23    2    1    2    0    0  0.17493778294E+02  0.77510450944E+02 -0.44027851164E+03  0.45768359631E+03  0.96515305717E+02 0.  0.
         24    2    1    2    0    0  0.24064762556E+03  0.82408554086E+01  0.13811766356E+03  0.29012318911E+03  0.84355109451E+02 0.  0.
        -11    1    4    4    0    0  0.14705485784E+03  0.39590325373E+02  0.10878186132E+03  0.18715239360E+03  0.00000000000E+00 0.  1.
         12    1    4    4    0    0  0.93592767716E+02 -0.31349469964E+02  0.29335802239E+02  0.10297079551E+03  0.00000000000E+00 0. -1.
        -11    1    3    3    0    0 -0.91082392062E+00 -0.22644909171E+02 -0.97462788320E+02  0.10006306321E+03  0.00000000000E+00 0.  1.
         11    1    3    3    0    0  0.18404602214E+02  0.10015536012E+03 -0.34281572332E+03  0.35762053310E+03  0.00000000000E+00 0. -1.
         21    1    1    2  503  502  0.21139119652E+02  0.82857334302E+02  0.71034687720E+02  0.11116711333E+03  0.00000000000E+00 0. -1.
          1    1    1    2  501    0 -0.27928052350E+03 -0.16860864065E+03 -0.29398875604E+03  0.43915358725E+03  0.00000000000E+00 0. -1.
<scales pt_clust_5="13000.00000" pt_clust_6="13000.00000" pt_clust_7="13000.00000" pt_clust_8="13000.00000" pt_clust_9="85.51140" pt_clust_10="274.85373"></scales>
<clustering>
<clus scale="   84.355">  5  6 -1 -1</clus>
<clus scale="   85.511">  1  9  2 -1</clus>
<clus scale="   96.515">  7  8 -1 -1</clus>
<clus scale="  126.632">  2  7  1 -1</clus>
<clus scale="  274.854">  1 10  2 -1</clus>
<clus scale="   85.511">  1  5  2 -1</clus>
</clustering>
</event>
<event>
10    4  0.3403565E-005  0.1004537E+03  0.7546771E-02  0.1288543E+00
         21   -1    0    0  501  502  0.00000000000E+00  0.00000000000E+00  0.36385715194E+03  0.36385715194E+03  0.00000000000E+00 0. -1.
         -3   -1    0    0    0  501 -0.00000000000E+00 -0.00000000000E+00 -0.95163803802E+02  0.95163803802E+02  0.00000000000E+00 0.  1.
         24    2    1    2    0    0  0.21007899188E+02  0.39968456494E+01 -0.46983811571E+02  0.95834293873E+02  0.80742967056E+02 0.  0.
         23    2    1    2    0    0 -0.59443276729E+02  0.17627409185E+02  0.22729469948E+03  0.25493461217E+03  0.97388640843E+02 0.  0.
        -11    1    3    3    0    0  0.40183824970E+02  0.14290417470E+02 -0.57558254220E+02  0.71637339772E+02  0.00000000000E+00 0.  1.
         12    1    3    3    0    0 -0.19175925782E+02 -0.10293571821E+02  0.10574442649E+02  0.24196954101E+02  0.00000000000E+00 0. -1.
        -13    1    4    4    0    0 -0.35280403987E+02 -0.23223033873E+02  0.29485661633E+02  0.51511362336E+02  0.00000000000E+00 0.  1.
         13    1    4    4    0    0 -0.24162872742E+02  0.40850443058E+02  0.19780903785E+03  0.20342324983E+03  0.00000000000E+00 0. -1.
         21    1    1    2  503  502  0.95089752699E+01 -0.22255669395E+02  0.69771835815E+02  0.73850148977E+02  0.00000000000E+00 0.  1.
         -4    1    1    2    0  503  0.28926402271E+02  0.63141456030E+00  0.18610624417E+02  0.34401900731E+02  0.00000000000E+00 0.  1.
<scales pt_clust_5="13000.00000" pt_clust_6="13000.00000" pt_clust_7="13000.00000" pt_clust_8="13000.00000" pt_clust_9="24.20197" pt_clust_10="29.82178"></scales>
<clustering>
<clus scale="   24.202">  1  9  2 -1</clus>
<clus scale="   29.822">  1 10  2 -1</clus>
<clus scale="   80.743">  5  6 -1 -1</clus>
<clus scale="   84.415">  2  5  1 -1</clus>
<clus scale="   97.389">  7  8 -1 -1</clus>
<clus scale="   24.202">  1  5  2 -1</clus>
</clustering>
</event>
<event>
10    4  0.3403565E-005  0.3031204E+03  0.7546771E-02  0.1127790E+00
         21   -1    0    0  501  502  0.00000000000E+00  0.00000000000E+00  0.35795212879E+03  0.35795212879E+03  0.00000000000E+00 0.  1.
          2   -1    0    0  503    0 -0.00000000000E+00 -0.00000000000E+00 -0.63190558166E+03  0.63190558166E+03  0.00000000000E+00 0. -1.
         23    2    1    2    0    0 -0.27383348795E+02 -0.14978239750E+02  0.25322768263E+02  0.10121049306E+03  0.92887705617E+02 0.  0.
         24    2    1    2    0    0  0.27878601682E+03  0.11038390415E+03 -0.25692754150E+03  0.40279151120E+03  0.79517233645E+02 0.  0.
        -13    1    4    4    0    0  0.27144486290E+03  0.10228836672E+03 -0.21940067565E+03  0.36370576024E+03  0.00000000000E+00 0.  1.
         14    1    4    4    0    0  0.73411539202E+01  0.80955374246E+01 -0.37526865855E+02  0.39085750959E+02  0.00000000000E+00 0. -1.
        -11    1    3    3    0    0  0.30274698710E+01 -0.40193702011E+02  0.42105321346E+02  0.58288569555E+02  0.00000000000E+00 0.  1.
         11    1    3    3    0    0 -0.30410818666E+02  0.25215462261E+02 -0.16782553083E+02  0.42921923500E+02  0.00000000000E+00 0. -1.
         21    1    1    2  503  502  0.33936212701E+02 -0.33001219767E+02  0.13574330146E+03  0.14376018548E+03  0.00000000000E+00 0.  1.
          1    1    1    2  501    0 -0.28533888072E+03 -0.62404444632E+02 -0.17809198110E+03  0.34209552071E+03  0.00000000000E+00 0. -1.
<scales pt_clust_5="13000.00000" pt_clust_6="13000.00000" pt_clust_7="13000.00000" pt_clust_8="13000.00000" pt_clust_9="47.33653" pt_clust_10="292.50472"></scales>
<clustering>
<clus scale="   47.337">  1  9  2 -1</clus>
<clus scale="   79.517">  5  6 -1 -1</clus>
<clus scale="   92.888">  7  8 -1 -1</clus>
<clus scale="   97.665">  2  7  1 -1</clus>
<clus scale="  292.505">  1 10  2 -1</clus>
<clus scale="   47.337">  1  5  2 -1</clus>
</clustering>
</event>
<event>
10    4  0.3403565E-005  0.1326688E+03  0.7546771E-02  0.1238353E+00
         21   -1    0    0  503  502  0.00000000000E+00  0.00000000000E+00  0.54628566883E+03  0.54628566883E+03  0.00000000000E+00 0. -1.
          4   -1    0    0  502    0 -0.00000000000E+00 -0.00000000000E+00 -0.82768394381E+02  0.82768394381E+02  0.00000000000E+00 0. -1.
         23    2    1    2    0    0 -0.33520159868E+02  0.23130040159E+02  0.18113022623E+03  0.20655584961E+03  0.90545901515E+02 0.  0.
         24    2    1    2    0    0 -0.53576647287E+02 -0.10519408559E+03  0.77446090901E+02  0.16291931748E+03  0.81293014664E+02 0.  0.
        -13    1    4    4    0    0 -0.32062481272E+02 -0.85578963381E+01  0.50304321342E+02  0.60264127312E+02  0.00000000000E+00 0.  1.
         14    1    4    4    0    0 -0.21514166015E+02 -0.96636189255E+02  0.27141769559E+02  0.10265519017E+03  0.00000000000E+00 0. -1.
        -13    1    3    3    0    0  0.26556059821E+02 -0.10867687390E+02  0.37683860894E+02  0.47364589245E+02  0.00000000000E+00 0.  1.
         13    1    3    3    0    0 -0.60076219689E+02  0.33997727549E+02  0.14344636533E+03  0.15919126037E+03  0.00000000000E+00 0. -1.
         21    1    1    2  503  501  0.21023648252E+02  0.11174700884E+02  0.14209865039E+03  0.14407947172E+03  0.00000000000E+00 0. -1.
          3    1    1    2  501    0  0.66073158903E+02  0.70889344550E+02  0.62842306930E+02  0.11549942441E+03  0.00000000000E+00 0. -1.
<scales pt_clust_5="13000.00000" pt_clust_6="13000.00000" pt_clust_7="13000.00000" pt_clust_8="13000.00000" pt_clust_9="23.80898" pt_clust_10="104.84486"></scales>
<clustering>
<clus scale="   23.809">  1  9  2 -1</clus>
<clus scale="   81.293">  5  6 -1 -1</clus>
<clus scale="   90.546">  7  8 -1 -1</clus>
<clus scale="   97.771">  2  7  1 -1</clus>
<clus scale="  104.845">  1 10  2 -1</clus>
<clus scale="   23.809">  1  5  2 -1</clus>
</clustering>
</event>
<event>
10    4  0.3403565E-005  0.9646291E+02  0.7546771E-02  0.1295222E+00
         -1   -1    0    0    0  501 -0.00000000000E+00  0.00000000000E+00  0.20604046581E+03  0.20604046581E+03  0.00000000000E+00 0.  1.
         21   -1    0    0  503  502  0.00000000000E+00 -0.00000000000E+00 -0.74778366780E+02  0.74778366780E+02  0.00000000000E+00 0. -1.
         23    2    1    2    0    0 -0.27795544289E+02 -0.20530209701E+02  0.94127317531E+02  0.13493174794E+03  0.90291433177E+02 0.  0.
         24    2    1    2    0    0  0.23005176935E+02  0.24150428739E+02  0.27906121916E+02  0.88432916880E+02  0.77000959562E+02 0.  0.
        -11    1    4    4    0    0  0.28622788602E+02  0.98463720931E+01  0.51816594659E+02  0.60009787142E+02  0.00000000000E+00 0.  1.
         12    1    4    4    0    0 -0.56176116670E+01  0.14304056645E+02 -0.23910472743E+02  0.28423129739E+02  0.00000000000E+00 0. -1.
        -11    1    3    3    0    0 -0.43622329289E+02  0.16294700531E+02  0.79748951897E+02  0.92348904740E+02  0.00000000000E+00 0.  1.
         11    1    3    3    0    0  0.15826785001E+02 -0.36824910233E+02  0.14378365634E+02  0.42582843205E+02  0.00000000000E+00 0. -1.
         21    1    1    2  503  501 -0.17383825906E+01 -0.29723984682E+02  0.39865589328E+01  0.30040470894E+02  0.00000000000E+00 0.  1.
         -2    1    1    2    0  502  0.65287499440E+01  0.26103765645E+02  0.52421006461E+01  0.27413696866E+02  0.00000000000E+00 0.  1.
<scales pt_clust_5="13000.00000" pt_clust_6="13000.00000" pt_clust_7="13000.00000" pt_clust_8="13000.00000" pt_clust_9="24.38835" pt_clust_10="26.90783"></scales>
<clustering>
<clus scale="   26.908">  2 10  1 -1</clus>
<clus scale="   24.388">  2  9  1 -1</clus>
<clus scale="   77.001">  5  6 -1 -1</clus>
<clus scale="   84.153">  2  5  1 -1</clus>
<clus scale="   90.291">  7  8 -1 -1</clus>
<clus scale="   26.908">  2  5  1 -1</clus>
</clustering>
</event>
<event>
10    4  0.3403565E-005  0.2437196E+03  0.7546771E-02  0.1143170E+00
         21   -1    0    0  501  502  0.00000000000E+00  0.00000000000E+00  0.26847753058E+03  0.26847753058E+03  0.00000000000E+00 0.  1.
          2   -1    0    0  503    0 -0.00000000000E+00 -0.00000000000E+00 -0.64882481575E+03  0.64882481575E+03  0.00000000000E+00 0. -1.
         24    2    1    2    0    0  0.10761865153E+03  0.87064924083E+02 -0.94593440745E+02  0.18200210308E+03  0.70815050165E+02 0.  0.
         23    2    1    2    0    0 -0.58267137970E+02 -0.18545868598E+03  0.35479180931E+02  0.21781483524E+03  0.91621758330E+02 0.  0.
        -13    1    3    3    0    0  0.11266525335E+03  0.85020285199E+02 -0.71397370080E+02  0.15817551221E+03  0.00000000000E+00 0.  1.
         14    1    3    3    0    0 -0.50466018221E+01  0.20446388831E+01 -0.23196070665E+02  0.23826590868E+02  0.00000000000E+00 0. -1.
        -11    1    4    4    0    0 -0.22817174224E+02 -0.17686612503E+03  0.26979117413E+02  0.18036108893E+03  0.00000000000E+00 0.  1.
         11    1    4    4    0    0 -0.35449963746E+02 -0.85925609513E+01  0.85000635178E+01  0.37453746316E+02  0.00000000000E+00 0. -1.
         21    1    1    2  503  502 -0.12352425261E+03 -0.60222971029E+02  0.15151266571E+02  0.13825558977E+03  0.00000000000E+00 0. -1.
          1    1    1    2  501    0  0.74172739054E+02  0.15861673293E+03 -0.33638429193E+03  0.37922981824E+03  0.00000000000E+00 0. -1.
<scales pt_clust_5="13000.00000" pt_clust_6="13000.00000" pt_clust_7="13000.00000" pt_clust_8="13000.00000" pt_clust_9="137.42288" pt_clust_10="225.84227"></scales>
<clustering>
<clus scale="   70.815">  5  6 -1 -1</clus>
<clus scale="   91.622">  7  8 -1 -1</clus>
<clus scale="  137.423">  1  9  2 -1</clus>
<clus scale="  129.262">  2  5  1 -1</clus>
<clus scale="  225.842">  1 10  2 -1</clus>
<clus scale="  137.423">  1  5  2 -1</clus>
</clustering>
</event>
<event>
10    4  0.3403565E-005  0.3389253E+03  0.7546771E-02  0.1113255E+00
         21   -1    0    0  503  502  0.00000000000E+00  0.00000000000E+00  0.28378990845E+03  0.28378990845E+03  0.00000000000E+00 0. -1.
          2   -1    0    0  502    0 -0.00000000000E+00 -0.00000000000E+00 -0.66802479765E+03  0.66802479765E+03  0.00000000000E+00 0. -1.
         24    2    1    2    0    0 -0.41613697906E+02 -0.44891411450E+02 -0.20140580887E+03  0.22482416561E+03  0.78959907050E+02 0.  0.
         23    2    1    2    0    0 -0.30062599857E+03  0.42598002814E+02 -0.12344790500E+03  0.34050975311E+03  0.92287192255E+02 0.  0.
        -13    1    3    3    0    0  0.41436235166E+01 -0.36388028747E+02 -0.30394372959E+02  0.47592816260E+02  0.00000000000E+00 0.  1.
         14    1    3    3    0    0 -0.45757321423E+02 -0.85033827027E+01 -0.17101143591E+03  0.17723134935E+03  0.00000000000E+00 0. -1.
        -11    1    4    4    0    0 -0.17568770477E+03 -0.13851436889E+02 -0.42456306000E+02  0.18127484611E+03  0.00000000000E+00 0.  1.
         11    1    4    4    0    0 -0.12493829380E+03  0.56449439702E+02 -0.80991599001E+02  0.15923490701E+03  0.00000000000E+00 0. -1.
         21    1    1    2  503  501 -0.78917528081E+01 -0.19970036995E+02  0.17043612209E+02  0.27414719716E+02  0.00000000000E+00 0. -1.
          1    1    1    2  501    0  0.35013144929E+03  0.22263445631E+02 -0.76424787544E+02  0.35906606766E+03  0.00000000000E+00 0. -1.
<scales pt_clust_5="13000.00000" pt_clust_6="13000.00000" pt_clust_7="13000.00000" pt_clust_8="13000.00000" pt_clust_9="21.47282" pt_clust_10="326.11875"></scales>
<clustering>
<clus scale="   21.473">  1  9  2 -1</clus>
<clus scale="   78.960">  5  6 -1 -1</clus>
<clus scale="   92.287">  7  8 -1 -1</clus>
<clus scale="  100.460">  2  5  1 -1</clus>
<clus scale="  326.119">  1 10  2 -1</clus>
<clus scale="   21.473">  1  5  2 -1</clus>
</clustering>
</event>
<event>
10    4  0.3403565E-005  0.2076668E+03  0.7546771E-02  0.1172747E+00
         21   -1    0    0  501  502  0.00000000000E+00  0.00000000000E+00  0.41557141091E+03  0.41557141091E+03  0.00000000000E+00 0. -1.
          2   -1    0    0  503    0 -0.00000000000E+00 -0.00000000000E+00 -0.37507694080E+03  0.37507694080E+03  0.00000000000E+00 0. -1.
         24    2    1    2    0    0  0.47946897382E+02 -0.46264134983E+02  0.66843348033E+02  0.12420787073E+03  0.80748292989E+02 0.  0.
         23    2    1    2    0    0 -0.17568572070E+03 -0.12833950774E+03 -0.97688612678E+02  0.25708276175E+03  0.95979058331E+02 0.  0.
        -13    1    3    3    0    0 -0.16170146880E+01  0.21040214867E+02  0.13648197166E+02  0.25131228860E+02  0.00000000000E+00 0.  1.
         14    1    3    3    0    0  0.49563912070E+02 -0.67304349849E+02  0.53195150867E+02  0.99076641870E+02  0.00000000000E+00 0. -1.
        -11    1    4    4    0    0 -0.11751736303E+03 -0.56816415964E+02 -0.11767437346E+02  0.13106070471E+03  0.00000000000E+00 0.  1.
         11    1    4    4    0    0 -0.58168357668E+02 -0.71523091776E+02 -0.85921175332E+02  0.12602205704E+03  0.00000000000E+00 0. -1.
         21    1    1    2  503  502  0.10444624443E+03  0.72201752595E+02  0.20392266216E+03  0.24022190407E+03  0.00000000000E+00 0. -1.
          1    1    1    2  501    0  0.23292578888E+02  0.10240189013E+03 -0.13258292740E+03  0.16913581517E+03  0.00000000000E+00 0. -1.
<scales pt_clust_5="13000.00000" pt_clust_6="13000.00000" pt_clust_7="13000.00000" pt_clust_8="13000.00000" pt_clust_9="184.15620" pt_clust_10="93.36464"></scales>
<clustering>
<clus scale="   80.748">  5  6 -1 -1</clus>
<clus scale="   95.979">  7  8 -1 -1</clus>
<clus scale="  104.688">  2  5  1 -1</clus>
<clus scale="   93.365">  1 10  2 -1</clus>
<clus scale="  184.156">  1  9  2 -1</clus>
<clus scale="   93.365">  1  5  2 -1</clus>
</clustering>
</event>
<event>
10    4  0.3403565E-005  0.1710518E+03  0.7546771E-02  0.1209847E+00
          2   -1    0    0  502    0 -0.00000000000E+00  0.00000000000E+00  0.66218190749E+03  0.66218190749E+03  0.00000000000E+00 0. -1.
         21   -1    0    0  503  502  0.00000000000E+00 -0.00000000000E+00 -0.71834102581E+02  0.71834102581E+02  0.00000000000E+00 0. -1.
         24    2    1    2    0    0  0.13212945813E+02 -0.22310962694E+02  0.14820602570E+03  0.17033494893E+03  0.79853664789E+02 0.  0.
         23    2    1    2    0    0 -0.12037870340E+03 -0.63647569482E+02  0.28628571948E+03  0.33456145628E+03  0.10691028723E+03 0.  0.
        -11    1    3    3    0    0 -0.24500440811E+02  0.16270291819E+02  0.62278898111E+02  0.68874197968E+02  0.00000000000E+00 0.  1.
         12    1    3    3    0    0  0.37713386623E+02 -0.38581254513E+02  0.85927127592E+02  0.10146075097E+03  0.00000000000E+00 0. -1.
        -11    1    4    4    0    0 -0.11823448198E+02 -0.35314956239E+02  0.16579207726E+03  0.16992337375E+03  0.00000000000E+00 0.  1.
         11    1    4    4    0    0 -0.10855525520E+03 -0.28332613242E+02  0.12049364221E+03  0.16463808253E+03  0.00000000000E+00 0. -1.
         21    1    1    2  503  501 -0.82783740972E+01  0.23426472391E+02 -0.62656530465E+00  0.24854047366E+02  0.00000000000E+00 0. -1.
          1    1    1    2  501    0  0.11544413169E+03  0.62532059785E+02  0.15648262504E+03  0.20426555750E+03  0.00000000000E+00 0. -1.
<scales pt_clust_5="13000.00000" pt_clust_6="13000.00000" pt_clust_7="13000.00000" pt_clust_8="13000.00000" pt_clust_9="24.84615" pt_clust_10="133.52490"></scales>
<clustering>
<clus scale="   24.846">  2  9  1 -1</clus>
<clus scale="   79.854">  5  6 -1 -1</clus>
<clus scale="   82.668">  1  5  2 -1</clus>
<clus scale="  106.910">  7  8 -1 -1</clus>
<clus scale="  133.525">  2 10  1 -1</clus>
<clus scale="   24.846">  2  5  1 -1</clus>
</clustering>
</event>
<event>
10    4  0.3403565E-005  0.2291348E+03  0.7546771E-02  0.1162982E+00
         21   -1    0    0  503  502  0.00000000000E+00  0.00000000000E+00  0.19053982986E+03  0.19053982986E+03  0.00000000000E+00 0. -1.
         -1   -1    0    0    0  501 -0.00000000000E+00 -0.00000000000E+00 -0.52328537577E+03  0.52328537577E+03  0.00000000000E+00 0.  1.
         24    2    1    2    0    0  0.48916373581E+02 -0.20300405638E+02 -0.40994751252E+02  0.10526430692E+03  0.81210138579E+02 0.  0.
         23    2    1    2    0    0  0.12482488103E+03 -0.12032608840E+03 -0.22856292011E+03  0.30195867843E+03  0.94225349873E+02 0.  0.
        -13    1    3    3    0    0  0.66953514609E+02  0.96164409619E+00 -0.18582379531E+02  0.69491026089E+02  0.00000000000E+00 0.  1.
         14    1    3    3    0    0 -0.18037141028E+02 -0.21262049734E+02 -0.22412371722E+02  0.35773280833E+02  0.00000000000E+00 0. -1.
        -11    1    4    4    0    0  0.10865271549E+03 -0.47661497652E+02 -0.16966425315E+03  0.20703378888E+03  0.00000000000E+00 0.  1.
         11    1    4    4    0    0  0.16172165533E+02 -0.72664590744E+02 -0.58898666965E+02  0.94924889551E+02  0.00000000000E+00 0. -1.
         21    1    1    2  503  501 -0.82936810814E+01 -0.27788958959E+02  0.39622502120E+02  0.49101466985E+02  0.00000000000E+00 0. -1.
         -2    1    1    2    0  502 -0.16544757353E+03  0.16841545299E+03 -0.10281037666E+03  0.25750075328E+03  0.00000000000E+00 0.  1.
<scales pt_clust_5="13000.00000" pt_clust_6="13000.00000" pt_clust_7="13000.00000" pt_clust_8="13000.00000" pt_clust_9="29.00020" pt_clust_10="208.86443"></scales>
<clustering>
<clus scale="   29.000">  1  9  2 -1</clus>
<clus scale="   81.210">  5  6 -1 -1</clus>
<clus scale="   94.225">  7  8 -1 -1</clus>
<clus scale="   97.521">  2  5  1 -1</clus>
<clus scale="  208.864">  1 10  2 -1</clus>
<clus scale="   29.000">  1  5  2 -1</clus>
</clustering>
</event>
<event>
10    4  0.3403565E-005  0.1060832E+03  0.7546771E-02  0.1272294E+00
         21   -1    0    0  503  502  0.00000000000E+00  0.00000000000E+00  0.99507044761E+02  0.99507044761E+02  0.00000000000E+00 0. -1.
         -3   -1    0    0    0  501 -0.00000000000E+00 -0.00000000000E+00 -0.25618119242E+03  0.25618119242E+03  0.00000000000E+00 0.  1.
         23    2    1    2    0    0 -0.31875440483E+02  0.46610033657E+02 -0.15206076635E+03  0.18529314470E+03  0.89568598658E+02 0.  0.
         24    2    1    2    0    0  0.55339368998E+02 -0.30979081532E+02  0.22247673995E+02  0.10400908628E+03  0.79377463908E+02 0.  0.
        -11    1    4    4    0    0  0.49976117520E+02 -0.39616841333E+02 -0.14903171734E+02  0.65492067972E+02  0.00000000000E+00 0.  1.
         12    1    4    4    0    0  0.53632514775E+01  0.86377598011E+01  0.37150845729E+02  0.38517018305E+02  0.00000000000E+00 0. -1.
        -13    1    3    3    0    0 -0.46383948022E+02 -0.56410160009E+01 -0.43026906786E+02  0.63518551647E+02  0.00000000000E+00 0.  1.
         13    1    3    3    0    0  0.14508507540E+02  0.52251049657E+02 -0.10903385957E+03  0.12177459305E+03  0.00000000000E+00 0. -1.
         21    1    1    2  503  501 -0.34783034570E+01 -0.21345615695E+02  0.10185989520E+02  0.23905821192E+02  0.00000000000E+00 0. -1.
         -4    1    1    2    0  502 -0.19985625058E+02  0.57146635705E+01 -0.37047044821E+02  0.42480185012E+02  0.00000000000E+00 0.  1.
<scales pt_clust_5="13000.00000" pt_clust_6="13000.00000" pt_clust_7="13000.00000" pt_clust_8="13000.00000" pt_clust_9="21.50942" pt_clust_10="20.78661"></scales>
<clustering>
<clus scale="   20.787">  1 10  2 -1</clus>
<clus scale="   21.509">  1  9  2 -1</clus>
<clus scale="   79.377">  5  6 -1 -1</clus>
<clus scale="   89.569">  7  8 -1 -1</clus>
<clus scale="   97.631">  1  5  2 -1</clus>
<clus scale="   20.787">  1  5  2 -1</clus>
</clustering>
</event>
<event>
10    4  0.3403565E-005  0.1351315E+03  0.7546771E-02  0.1223245E+00
          2   -1    0    0  502    0 -0.00000000000E+00  0.00000000000E+00  0.17469964883E+04  0.17469964883E+04  0.00000000000E+00 0. -1.
         21   -1    0    0  503  502  0.00000000000E+00 -0.00000000000E+00 -0.27874724276E+03  0.27874724276E+03  0.00000000000E+00 0.  1.
         23    2    1    2    0    0 -0.54177166001E+02  0.10634778292E+03  0.65246733414E+03  0.66980074390E+03  0.93136449166E+02 0.  0.
         24    2    1    2    0    0  0.11276183822E+02 -0.72944350579E+02  0.26447269911E+03  0.28595575322E+03  0.79855204111E+02 0.  0.
        -13    1    4    4    0    0 -0.35512618722E+00 -0.62459668812E+02  0.83345072962E+02  0.10415247251E+03  0.00000000000E+00 0.  1.
         14    1    4    4    0    0  0.11631310010E+02 -0.10484681767E+02  0.18112762614E+03  0.18180328071E+03  0.00000000000E+00 0. -1.
        -13    1    3    3    0    0  0.25518088411E+02  0.37107811096E+02  0.16525522471E+03  0.17128179055E+03  0.00000000000E+00 0. -1.
         13    1    3    3    0    0 -0.79695254413E+02  0.69239971821E+02  0.48721210943E+03  0.49851895335E+03  0.00000000000E+00 0.  1.
         21    1    1    2  503  501 -0.56292373426E+02  0.19309251677E+01 -0.25280711579E+03  0.25900578675E+03  0.00000000000E+00 0.  1.
          1    1    1    2  501    0  0.99193355605E+02 -0.35334357506E+02  0.80411632809E+03  0.81098144721E+03  0.00000000000E+00 0. -1.
<scales pt_clust_5="13000.00000" pt_clust_6="13000.00000" pt_clust_7="13000.00000" pt_clust_8="13000.00000" pt_clust_9="56.32548" pt_clust_10="97.26610"></scales>
<clustering>
<clus scale="   56.325">  2  9  1 -1</clus>
<clus scale="   79.855">  5  6 -1 -1</clus>
<clus scale="   93.136">  7  8 -1 -1</clus>
<clus scale="   97.266">  2 10  1 -1</clus>
<clus scale="  126.345">  2  5  1 -1</clus>
<clus scale="   56.325">  2  5  1 -1</clus>
</clustering>
</event>
<event>
10    4  0.3403565E-005  0.9255552E+02  0.7546771E-02  0.1303592E+00
         -3   -1    0    0    0  501 -0.00000000000E+00  0.00000000000E+00  0.13223114196E+03  0.13223114196E+03  0.00000000000E+00 0.  1.
         21   -1    0    0  503  502  0.00000000000E+00 -0.00000000000E+00 -0.33908593252E+03  0.33908593252E+03  0.00000000000E+00 0. -1.
         23    2    1    2    0    0 -0.91962101474E+00  0.14443460671E+02  0.44368680237E+02  0.10239460051E+03  0.91140634013E+02 0.  0.
         24    2    1    2    0    0 -0.11827479999E+02 -0.31575564683E+02 -0.26071097448E+03  0.27479312121E+03  0.80025881319E+02 0.  0.
        -13    1    4    4    0    0 -0.43417805362E+02 -0.17632678805E+02 -0.10029481284E+03  0.11070260461E+03  0.00000000000E+00 0.  1.
         14    1    4    4    0    0  0.31590325362E+02 -0.13942885878E+02 -0.16041616164E+03  0.16409051660E+03  0.00000000000E+00 0. -1.
        -13    1    3    3    0    0  0.13907779525E+02 -0.36568683259E+02  0.20216443203E+02  0.44038613765E+02  0.00000000000E+00 0.  1.
         13    1    3    3    0    0 -0.14827400539E+02  0.51012143929E+02  0.24152237034E+02  0.58355986743E+02  0.00000000000E+00 0. -1.
         21    1    1    2  503  501  0.41699147899E+01 -0.32996404676E+02 -0.16377947019E+02  0.37072740112E+02  0.00000000000E+00 0.  1.
         -4    1    1    2    0  502  0.85771862243E+01  0.50128508688E+02  0.25865450705E+02  0.57056612649E+02  0.00000000000E+00 0.  1.
<scales pt_clust_5="13000.00000" pt_clust_6="13000.00000" pt_clust_7="13000.00000" pt_clust_8="13000.00000" pt_clust_9="33.25885" pt_clust_10="49.27067"></scales>
<clustering>
<clus scale="   33.259">  2  9  1 -1</clus>
<clus scale="   49.271">  2 10  1 -1</clus>
<clus scale="   80.026">  5  6 -1 -1</clus>
<clus scale="   81.634">  2  5  1 -1</clus>
<clus scale="   91.141">  7  8 -1 -1</clus>
<clus scale="   33.259">  2  5  1 -1</clus>
</clustering>
</event>
<event>
10    4  0.3403565E-005  0.1468703E+03  0.7546771E-02  0.1214621E+00
         21   -1    0    0  501  502  0.00000000000E+00  0.00000000000E+00  0.57622903482E+02  0.57622903482E+02  0.00000000000E+00 0. -1.
          2   -1    0    0  503    0 -0.00000000000E+00 -0.00000000000E+00 -0.17109399487E+04  0.17109399487E+04  0.00000000000E+00 0. -1.
         24    2    1    2    0    0 -0.72334408714E+02  0.40516150768E+02 -0.25496598225E+03  0.28001847432E+03  0.80801415207E+02 0.  0.
         23    2    1    2    0    0  0.18386369864E+02  0.12386348688E+03 -0.27015419428E+03  0.31154907778E+03  0.91647788825E+02 0.  0.
        -11    1    3    3    0    0 -0.70982078165E+02  0.60846957027E+02 -0.22627032953E+03  0.24482456908E+03  0.00000000000E+00 0.  1.
         12    1    3    3    0    0 -0.13523305498E+01 -0.20330806258E+02 -0.28695652714E+02  0.35193905235E+02  0.00000000000E+00 0. -1.
        -13    1    4    4    0    0 -0.17248813039E+02  0.11483970488E+03 -0.18024474090E+03  0.21441512538E+03  0.00000000000E+00 0. -1.
         13    1    4    4    0    0  0.35635182902E+02  0.90237820082E+01 -0.89909453379E+02  0.97133952401E+02  0.00000000000E+00 0.  1.
         21    1    1    2  503  502 -0.23810329053E+02 -0.28313310379E+02  0.96790956345E+00  0.37006920476E+02  0.00000000000E+00 0. -1.
          1    1    1    2  501    0  0.77758367904E+02 -0.13606632727E+03 -0.11291647783E+04  0.11399883796E+04  0.00000000000E+00 0. -1.
<scales pt_clust_5="13000.00000" pt_clust_6="13000.00000" pt_clust_7="13000.00000" pt_clust_8="13000.00000" pt_clust_9="36.99426" pt_clust_10="114.76747"></scales>
<clustering>
<clus scale="   36.994">  1  9  2 -1</clus>
<clus scale="   80.801">  5  6 -1 -1</clus>
<clus scale="   91.648">  7  8 -1 -1</clus>
<clus scale="  117.981">  2  5  1 -1</clus>
<clus scale="  114.767">  1 10  2 -1</clus>
<clus scale="   36.994">  1  5  2 -1</clus>
</clustering>
</event>
<event>
10    4  0.3403565E-005  0.4239844E+03  0.7546771E-02  0.1036078E+00
         21   -1    0    0  501  502  0.00000000000E+00  0.00000000000E+00  0.18823851209E+04  0.18823851209E+04  0.00000000000E+00 0. -1.
          2   -1    0    0  503    0 -0.00000000000E+00 -0.00000000000E+00 -0.28751435324E+03  0.28751435324E+03  0.00000000000E+00 0. -1.
         23    2    1    2    0    0  0.31760559956E+03  0.24841104714E+03  0.68154106664E+02  0.41896894099E+03  0.91151665049E+02 0.  0.
         24    2    1    2    0    0 -0.45325806916E+03 -0.19449497441E+03  0.14273823029E+04  0.15119053117E+04  0.71876703139E+02 0.  0.
        -13    1    4    4    0    0 -0.88724174789E+02 -0.10034309417E+02  0.28553848749E+03  0.29917368600E+03  0.00000000000E+00 0.  1.
         14    1    4    4    0    0 -0.36453389438E+03 -0.18446066499E+03  0.11418438154E+04  0.12127316257E+04  0.00000000000E+00 0. -1.
        -11    1    3    3    0    0  0.80479971793E+02  0.36191188622E+02 -0.16286541762E+02  0.89733379722E+02  0.00000000000E+00 0.  1.
         11    1    3    3    0    0  0.23712562777E+03  0.21221985852E+03  0.84440648426E+02  0.32923556126E+03  0.00000000000E+00 0. -1.
         21    1    1    2  503  502 -0.27120897557E+02  0.16529415862E+02  0.41934976337E+02  0.52605198540E+02  0.00000000000E+00 0.  1.
          1    1    1    2  501    0  0.16277336716E+03 -0.70445488595E+02  0.57399381710E+02  0.18642002291E+03  0.00000000000E+00 0. -1.
<scales pt_clust_5="13000.00000" pt_clust_6="13000.00000" pt_clust_7="13000.00000" pt_clust_8="13000.00000" pt_clust_9="31.76106" pt_clust_10="175.27400"></scales>
<clustering>
<clus scale="   31.761">  1  9  2 -1</clus>
<clus scale="   71.877">  5  6 -1 -1</clus>
<clus scale="   91.152">  7  8 -1 -1</clus>
<clus scale="  175.274">  1 10  2 -1</clus>
<clus scale="  420.262">  1  5  2 -1</clus>
<clus scale="   31.761">  1  5  2 -1</clus>
</clustering>
</event>
<event>
10    4  0.3403565E-005  0.6063555E+03  0.7546771E-02  0.9892308E-01
         21   -1    0    0  503  502  0.00000000000E+00  0.00000000000E+00  0.55452306852E+03  0.55452306852E+03  0.00000000000E+00 0. -1.
          2   -1    0    0  502    0 -0.00000000000E+00 -0.00000000000E+00 -0.70233979460E+03  0.70233979460E+03  0.00000000000E+00 0. -1.
         24    2    1    2    0    0 -0.67126516213E+02 -0.28897316902E+03 -0.27103523389E+02  0.30916609484E+03  0.82689851996E+02 0.  0.
         23    2    1    2    0    0  0.12661742189E+03 -0.27984666248E+03  0.34986947819E+02  0.32228972876E+03  0.91106842331E+02 0.  0.
        -13    1    3    3    0    0 -0.20900263354E+02 -0.81713663963E+01  0.43275583652E+01  0.22854321220E+02  0.00000000000E+00 0.  1.
         14    1    3    3    0    0 -0.46226252859E+02 -0.28080180263E+03 -0.31431081754E+02  0.28631177362E+03  0.00000000000E+00 0. -1.
        -11    1    4    4    0    0  0.25086043960E+02 -0.32953406271E+02 -0.25408328011E+02  0.48588267295E+02  0.00000000000E+00 0.  1.
         11    1    4    4    0    0  0.10153137793E+03 -0.24689325621E+03  0.60395275829E+02  0.27370146147E+03  0.00000000000E+00 0. -1.
         21    1    1    2  503  501 -0.24020555010E+02  0.41726757396E+02  0.39434513417E+02  0.62234959582E+02  0.00000000000E+00 0. -1.
          1    1    1    2  501    0 -0.35470350670E+02  0.52709307411E+03 -0.19513466393E+03  0.56317207994E+03  0.00000000000E+00 0. -1.
<scales pt_clust_5="13000.00000" pt_clust_6="13000.00000" pt_clust_7="13000.00000" pt_clust_8="13000.00000" pt_clust_9="48.14675" pt_clust_10="544.13979"></scales>
<clustering>
<clus scale="   48.147">  1  9  2 -1</clus>
<clus scale="   82.690">  5  6 -1 -1</clus>
<clus scale="   91.107">  7  8 -1 -1</clus>
<clus scale="  221.827">  5  7 -1 -1</clus>
<clus scale="  544.140">  1 10  2 -1</clus>
<clus scale="   48.147">  1  5  2 -1</clus>
</clustering>
</event>
<event>
10    4  0.3403565E-005  0.1018714E+03  0.7546771E-02  0.1279026E+00
         -1   -1    0    0    0  501 -0.00000000000E+00  0.00000000000E+00  0.29276867451E+03  0.29276867451E+03  0.00000000000E+00 0.  1.
         21   -1    0    0  503  502  0.00000000000E+00 -0.00000000000E+00 -0.13052654575E+03  0.13052654575E+03  0.00000000000E+00 0.  1.
         24    2    1    2    0    0 -0.10456932519E+02  0.65694847982E+02  0.15147891409E+03  0.18537778676E+03  0.83629551720E+02 0.  0.
         23    2    1    2    0    0 -0.25694394307E+02 -0.20902857081E+02  0.52531247157E+02  0.10880150623E+03  0.89337027587E+02 0.  0.
        -13    1    3    3    0    0 -0.45743497540E+02  0.27614790780E+02  0.92333786812E+02  0.10667976577E+03  0.00000000000E+00 0.  1.
         14    1    3    3    0    0  0.35286565021E+02  0.38080057201E+02  0.59145127282E+02  0.78698020996E+02  0.00000000000E+00 0. -1.
        -11    1    4    4    0    0 -0.31227532759E+02  0.53998358862E+01 -0.15772894158E+02  0.35399169764E+02  0.00000000000E+00 0.  1.
         11    1    4    4    0    0  0.55331384530E+01 -0.26302692967E+02  0.68304141316E+02  0.73402336471E+02  0.00000000000E+00 0. -1.
         21    1    1    2  503  501 -0.16977814241E+02  0.20982443382E+02 -0.35133594697E+02  0.44304385596E+02  0.00000000000E+00 0.  1.
         -2    1    1    2    0  502  0.53129141066E+02 -0.65774434283E+02 -0.66344377920E+01  0.84811541670E+02  0.00000000000E+00 0.  1.
<scales pt_clust_5="13000.00000" pt_clust_6="13000.00000" pt_clust_7="13000.00000" pt_clust_8="13000.00000" pt_clust_9="26.99091" pt_clust_10="70.96132"></scales>
<clustering>
<clus scale="   26.991">  2  9  1 -1</clus>
<clus scale="   70.961">  2 10  1 -1</clus>
<clus scale="   83.630">  5  6 -1 -1</clus>
<clus scale="   89.337">  7  8 -1 -1</clus>
<clus scale="   96.905">  1  5  2 -1</clus>
<clus scale="   26.991">  2  5  1 -1</clus>
</clustering>
</event>
<event>
10    4  0.3403565E-005  0.2236771E+03  0.7546771E-02  0.1131267E+00
          2   -1    0    0  503    0 -0.00000000000E+00  0.00000000000E+00  0.14206810887E+04  0.14206810887E+04  0.00000000000E+00 0. -1.
         21   -1    0    0  501  502  0.00000000000E+00 -0.00000000000E+00 -0.10629371436E+03  0.10629371436E+03  0.00000000000E+00 0. -1.
         24    2    1    2    0    0  0.18107054985E+03 -0.15009860393E+03  0.57871199773E+03  0.63100144225E+03  0.89101677204E+02 0.  0.
         23    2    1    2    0    0 -0.21911608187E+03 -0.66188626156E+02  0.51513141642E+03  0.57090060401E+03  0.90412012006E+02 0.  0.
        -13    1    3    3    0    0  0.19142625335E+03 -0.14157702699E+03  0.54845275060E+03  0.59790340748E+03  0.00000000000E+00 0.  1.
         14    1    3    3    0    0 -0.10355703496E+02 -0.85215769414E+01  0.30259247131E+02  0.33098034767E+02  0.00000000000E+00 0. -1.
        -13    1    4    4    0    0 -0.19880639637E+03 -0.86897743391E+02  0.44819830180E+03  0.49795272745E+03  0.00000000000E+00 0. -1.
         13    1    4    4    0    0 -0.20309685502E+02  0.20709117236E+02  0.66933114619E+02  0.72947876559E+02  0.00000000000E+00 0.  1.
         21    1    1    2  503  502 -0.38966771850E+01  0.40189602719E+02  0.82424367076E+00  0.40386478398E+02  0.00000000000E+00 0. -1.
          1    1    1    2  501    0  0.41942209203E+02  0.17609762737E+03  0.21971971654E+03  0.28468627840E+03  0.00000000000E+00 0. -1.
<scales pt_clust_5="13000.00000" pt_clust_6="13000.00000" pt_clust_7="13000.00000" pt_clust_8="13000.00000" pt_clust_9="40.37807" pt_clust_10="195.42603"></scales>
<clustering>
<clus scale="   40.378">  2  9  1 -1</clus>
<clus scale="   89.102">  5  6 -1 -1</clus>
<clus scale="   90.412">  7  8 -1 -1</clus>
<clus scale="  195.426">  2 10  1 -1</clus>
<clus scale="  223.151">  1  5  2 -1</clus>
<clus scale="   40.378">  2  5  1 -1</clus>
</clustering>
</event>
<event>
10    4  0.3403565E-005  0.9738658E+02  0.7546771E-02  0.1290814E+00
          2   -1    0    0  503    0 -0.00000000000E+00  0.00000000000E+00  0.91881505433E+03  0.91881505433E+03  0.00000000000E+00 0. -1.
         21   -1    0    0  501  502  0.00000000000E+00 -0.00000000000E+00 -0.83979235365E+02  0.83979235365E+02  0.00000000000E+00 0.  1.
         24    2    1    2    0    0 -0.12362923163E+02 -0.38797913469E+02  0.51190049970E+03  0.51995052133E+03  0.81537127014E+02 0.  0.
         23    2    1    2    0    0 -0.10272102556E+01  0.19825647733E+02  0.17119920107E+03  0.19481497332E+03  0.90827286173E+02 0.  0.
        -11    1    3    3    0    0 -0.18623292321E+01 -0.62280131040E+02  0.29353157522E+03  0.30007177248E+03  0.00000000000E+00 0.  1.
         12    1    3    3    0    0 -0.10500593931E+02  0.23482217571E+02  0.21836892448E+03  0.21987874885E+03  0.00000000000E+00 0. -1.
        -11    1    4    4    0    0  0.29066352526E+02  0.34862076813E+02  0.43901474970E+02  0.63147104078E+02  0.00000000000E+00 0.  1.
         11    1    4    4    0    0 -0.30093562782E+02 -0.15036429080E+02  0.12729772610E+03  0.13166786924E+03  0.00000000000E+00 0. -1.
         21    1    1    2  503  502 -0.89514261878E+01  0.36386242484E+02 -0.61989230047E+02  0.72434462203E+02  0.00000000000E+00 0.  1.
          1    1    1    2  501    0  0.22341559606E+02 -0.17413976747E+02  0.21372534824E+03  0.21559433284E+03  0.00000000000E+00 0. -1.
<scales pt_clust_5="13000.00000" pt_clust_6="13000.00000" pt_clust_7="13000.00000" pt_clust_8="13000.00000" pt_clust_9="24.08974" pt_clust_10="28.32654"></scales>
<clustering>
<clus scale="   28.327">  2 10  1 -1</clus>
<clus scale="   24.090">  2  9  1 -1</clus>
<clus scale="   81.537">  5  6 -1 -1</clus>
<clus scale="   88.785">  1  5  2 -1</clus>
<clus scale="   90.827">  7  8 -1 -1</clus>
<clus scale="   28.327">  2  5  1 -1</clus>
</clustering>
</event>
<event>
10    4  0.3403565E-005  0.1172319E+03  0.7546771E-02  0.1255936E+00
         21   -1    0    0  503  502  0.00000000000E+00  0.00000000000E+00  0.16400820059E+03  0.16400820059E+03  0.00000000000E+00 0. -1.
         -1   -1    0    0    0  501 -0.00000000000E+00 -0.00000000000E+00 -0.57711878685E+03  0.57711878685E+03  0.00000000000E+00 0.  1.
         24    2    1    2    0    0  0.66087940093E+02  0.41439168301E+02 -0.44379543190E+03  0.45729743078E+03  0.77985475099E+02 0.  0.
         23    2    1    2    0    0  0.23670503049E+01  0.13447733778E+02 -0.55255210086E+02  0.11468037503E+03  0.99559056371E+02 0.  0.
        -11    1    3    3    0    0  0.79417318408E+02  0.22662393230E+02 -0.28111737140E+03  0.29299773213E+03  0.00000000000E+00 0.  1.
         12    1    3    3    0    0 -0.13329378315E+02  0.18776775071E+02 -0.16267806050E+03  0.16429969865E+03  0.00000000000E+00 0. -1.
        -11    1    4    4    0    0  0.31359140630E+02  0.50127890984E+01  0.17249656471E+02  0.36139651409E+02  0.00000000000E+00 0. -1.
         11    1    4    4    0    0 -0.28992090325E+02  0.84349446792E+01 -0.72504866557E+02  0.78540723625E+02  0.00000000000E+00 0.  1.
         21    1    1    2  503  501 -0.25632048101E+02 -0.24628930991E+02  0.10691944816E+03  0.11267366385E+03  0.00000000000E+00 0. -1.
         -2    1    1    2    0  502 -0.42822942296E+02 -0.30257971087E+02 -0.20979392432E+02  0.56475517776E+02  0.00000000000E+00 0.  1.
<scales pt_clust_5="13000.00000" pt_clust_6="13000.00000" pt_clust_7="13000.00000" pt_clust_8="13000.00000" pt_clust_9="35.54696" pt_clust_10="63.96429"></scales>
<clustering>
<clus scale="   35.547">  1  9  2 -1</clus>
<clus scale="   63.964">  1 10  2 -1</clus>
<clus scale="   77.985">  5  6 -1 -1</clus>
<clus scale="   99.559">  7  8 -1 -1</clus>
<clus scale="   99.564">  2  5  1 -1</clus>
<clus scale="   35.547">  1  5  2 -1</clus>
</clustering>
</event>
<event>
10    4  0.3403565E-005  0.2974277E+03  0.7546771E-02  0.1127659E+00
         21   -1    0    0  503  502  0.00000000000E+00  0.00000000000E+00  0.71032824798E+03  0.71032824798E+03  0.00000000000E+00 0.  1.
         -1   -1    0    0    0  501 -0.00000000000E+00 -0.00000000000E+00 -0.30217235369E+03  0.30217235369E+03  0.00000000000E+00 0.  1.
         23    2    1    2    0    0  0.20949045489E+02  0.64850172754E+02 -0.11349137578E+03  0.15361903459E+03  0.77936563936E+02 0.  0.
         24    2    1    2    0    0 -0.25265965773E+03  0.85189359683E+02  0.16912510956E+03  0.32555666271E+03  0.79307681231E+02 0.  0.
        -11    1    4    4    0    0 -0.25129730715E+03  0.94309152380E+02  0.15949133487E+03  0.31222113750E+03  0.00000000000E+00 0.  1.
         12    1    4    4    0    0 -0.13623505885E+01 -0.91197926963E+01  0.96337746919E+01  0.13335525215E+02  0.00000000000E+00 0. -1.
        -13    1    3    3    0    0 -0.14695592774E+02  0.61217077752E+02 -0.93115844726E+02  0.11240129712E+03  0.00000000000E+00 0.  1.
         13    1    3    3    0    0  0.35644638263E+02  0.36330950013E+01 -0.20375531058E+02  0.41217737469E+02  0.00000000000E+00 0. -1.
         21    1    1    2  503  501 -0.31527152852E+02  0.17780642685E+02  0.16549322468E+03  0.16940519483E+03  0.00000000000E+00 0.  1.
         -2    1    1    2    0  502  0.26323776510E+03 -0.16782017512E+03  0.18702893584E+03  0.36391970954E+03  0.00000000000E+00 0.  1.
<scales pt_clust_5="13000.00000" pt_clust_6="13000.00000" pt_clust_7="13000.00000" pt_clust_8="13000.00000" pt_clust_9="36.19548" pt_clust_10="286.65921"></scales>
<clustering>
<clus scale="   36.195">  1  9  2 -1</clus>
<clus scale="   77.937">  7  8 -1 -1</clus>
<clus scale="   79.308">  5  6 -1 -1</clus>
<clus scale="  103.715">  2  7  1 -1</clus>
<clus scale="  286.659">  1 10  2 -1</clus>
<clus scale="   36.195">  1  5  2 -1</clus>
</clustering>
</event>
<event>
10    4  0.3403565E-005  0.1359794E+03  0.7546771E-02  0.1233798E+00
         21   -1    0    0  501  502  0.00000000000E+00  0.00000000000E+00  0.11860003025E+03  0.11860003025E+03  0.00000000000E+00 0. -1.
          2   -1    0    0  503    0 -0.00000000000E+00 -0.00000000000E+00 -0.58310552502E+03  0.58310552502E+03  0.00000000000E+00 0. -1.
         23    2    1    2    0    0 -0.14857451268E+02 -0.71331741219E+01 -0.42492107098E+02  0.10337364721E+03  0.92784189071E+02 0.  0.
         24    2    1    2    0    0  0.25516521901E+02 -0.66848678722E+02 -0.89263801606E+02  0.13959517409E+03  0.79993422323E+02 0.  0.
        -11    1    4    4    0    0  0.19390438512E+02  0.10658251662E+02 -0.44959410594E+02  0.50109241015E+02  0.00000000000E+00 0.  1.
         12    1    4    4    0    0  0.61260833893E+01 -0.77506930383E+02 -0.44304391013E+02  0.89485933074E+02  0.00000000000E+00 0. -1.
        -13    1    3    3    0    0  0.42183917900E+01  0.21540067415E+02 -0.60608359475E+02  0.64460395374E+02  0.00000000000E+00 0.  1.
         13    1    3    3    0    0 -0.19075843058E+02 -0.28673241537E+02  0.18116252377E+02  0.38913251841E+02  0.00000000000E+00 0. -1.
         21    1    1    2  503  502  0.28269804771E+02 -0.67218145482E+02  0.20982756861E+02  0.75879753751E+02  0.00000000000E+00 0. -1.
          1    1    1    2  501    0 -0.38928875403E+02  0.14119999833E+03 -0.35373234293E+03  0.38285698022E+03  0.00000000000E+00 0. -1.
<scales pt_clust_5="13000.00000" pt_clust_6="13000.00000" pt_clust_7="13000.00000" pt_clust_8="13000.00000" pt_clust_9="72.92092" pt_clust_10="109.96122"></scales>
<clustering>
<clus scale="   72.921">  1  9  2 -1</clus>
<clus scale="   79.993">  5  6 -1 -1</clus>
<clus scale="   92.784">  7  8 -1 -1</clus>
<clus scale="   99.664">  2  7  1 -1</clus>
<clus scale="  109.961">  1 10  2 -1</clus>
<clus scale="   72.921">  1  5  2 -1</clus>
</clustering>
</event>
<event>
10    4  0.3403565E-005  0.1513365E+03  0.7546771E-02  0.1219696E+00
          2   -1    0    0  502    0 -0.00000000000E+00  0.00000000000E+00  0.26004077966E+03  0.26004077966E+03  0.00000000000E+00 0. -1.
         21   -1    0    0  503  502  0.00000000000E+00 -0.00000000000E+00 -0.32327556756E+03  0.32327556756E+03  0.00000000000E+00 0. -1.
         23    2    1    2    0    0 -0.59554872425E+01  0.33925891861E+02  0.15815674744E+03  0.18530200890E+03  0.90204455403E+02 0.  0.
         24    2    1    2    0    0 -0.96875468369E+02 -0.66212517696E+02 -0.96453364516E+02  0.17233706465E+03  0.81411660429E+02 0.  0.
        -13    1    4    4    0    0 -0.25620801475E+02 -0.91560958404E+01 -0.73265923522E+02  0.78154687055E+02  0.00000000000E+00 0.  1.
         14    1    4    4    0    0 -0.71254666895E+02 -0.57056421855E+02 -0.23187440994E+02  0.94182377593E+02  0.00000000000E+00 0. -1.
        -11    1    3    3    0    0  0.22114733242E+02  0.28769487240E+02  0.14894891709E+02  0.39225025449E+02  0.00000000000E+00 0.  1.
         11    1    3    3    0    0 -0.28070220485E+02  0.51564046207E+01  0.14326185573E+03  0.14607698345E+03  0.00000000000E+00 0. -1.
         21    1    1    2  503  501 -0.37822441316E+02  0.10576260088E+02 -0.53688064114E+02  0.66519189508E+02  0.00000000000E+00 0.  1.
          1    1    1    2  501    0  0.14065339693E+03  0.21710365747E+02 -0.71250106712E+02  0.15915808416E+03  0.00000000000E+00 0. -1.
<scales pt_clust_5="13000.00000" pt_clust_6="13000.00000" pt_clust_7="13000.00000" pt_clust_8="13000.00000" pt_clust_9="39.27333" pt_clust_10="127.57299"></scales>
<clustering>
<clus scale="   39.273">  2  9  1 -1</clus>
<clus scale="   81.412">  5  6 -1 -1</clus>
<clus scale="   90.204">  7  8 -1 -1</clus>
<clus scale="   96.890">  1  7  2 -1</clus>
<clus scale="  127.573">  2 10  1 -1</clus>
<clus scale="   39.273">  2  5  1 -1</clus>
</clustering>
</event>
<event>
10    4  0.3403565E-005  0.1266175E+03  0.7546771E-02  0.1235707E+00
          2   -1    0    0  502    0 -0.00000000000E+00  0.00000000000E+00  0.10225884047E+04  0.10225884047E+04  0.00000000000E+00 0. -1.
         21   -1    0    0  503  502  0.00000000000E+00 -0.00000000000E+00 -0.45947227667E+02  0.45947227667E+02  0.00000000000E+00 0. -1.
         23    2    1    2    0    0  0.88283643621E+02  0.20624790536E+02  0.42897005174E+03  0.44781563638E+03  0.91127137474E+02 0.  0.
         24    2    1    2    0    0 -0.84834313164E+02  0.56255307306E+02  0.36147085566E+03  0.38391018497E+03  0.79776753147E+02 0.  0.
        -13    1    4    4    0    0 -0.19623069411E+02 -0.17730694424E+02  0.12373091771E+03  0.12652581703E+03  0.00000000000E+00 0.  1.
         14    1    4    4    0    0 -0.65211243752E+02  0.73986001730E+02  0.23773993795E+03  0.25738436794E+03  0.00000000000E+00 0. -1.
        -11    1    3    3    0    0  0.16950828733E+02 -0.34390929036E+02  0.11942518863E+03  0.12542903282E+03  0.00000000000E+00 0.  1.
         11    1    3    3    0    0  0.71332814888E+02  0.55015719573E+02  0.30954486311E+03  0.32238660356E+03  0.00000000000E+00 0. -1.
         21    1    1    2  503  501 -0.18964154939E+02  0.31289711314E+02  0.55053924531E+02  0.66103099874E+02  0.00000000000E+00 0. -1.
          1    1    1    2  501    0  0.15514824482E+02 -0.10816980916E+03  0.13114634508E+03  0.17070671111E+03  0.00000000000E+00 0. -1.
<scales pt_clust_5="13000.00000" pt_clust_6="13000.00000" pt_clust_7="13000.00000" pt_clust_8="13000.00000" pt_clust_9="36.58805" pt_clust_10="93.06777"></scales>
<clustering>
<clus scale="   36.588">  2  9  1 -1</clus>
<clus scale="   79.777">  5  6 -1 -1</clus>
<clus scale="   91.127">  7  8 -1 -1</clus>
<clus scale="   93.068">  2 10  1 -1</clus>
<clus scale="  118.710">  2  5  1 -1</clus>
<clus scale="   36.588">  2  5  1 -1</clus>
</clustering>
</event>
<event>
10    4  0.3403565E-005  0.3054723E+03  0.7546771E-02  0.1123440E+00
         21   -1    0    0  501  502  0.00000000000E+00  0.00000000000E+00  0.16317670731E+04  0.16317670731E+04  0.00000000000E+00 0.  1.
         -3   -1    0    0    0  501 -0.00000000000E+00 -0.00000000000E+00 -0.10257980717E+03  0.10257980717E+03  0.00000000000E+00 0.  1.
         23    2    1    2    0    0  0.54385705876E+02  0.48630907529E+02  0.10939034347E+03  0.15111272871E+03  0.74471735341E+02 0.  0.
         24    2    1    2    0    0  0.21715129217E+03 -0.14893858370E+03  0.32479219559E+03  0.42883573868E+03  0.95250905770E+02 0.  0.
        -13    1    4    4    0    0  0.12469707158E+03 -0.13264209799E+03  0.24742362259E+03  0.30718355235E+03  0.00000000000E+00 0.  1.
         14    1    4    4    0    0  0.92454220585E+02 -0.16296485707E+02  0.77368573002E+02  0.12165218633E+03  0.00000000000E+00 0. -1.
        -13    1    3    3    0    0  0.18290372977E+02  0.52914965955E+02  0.98272467197E+02  0.11310176468E+03  0.00000000000E+00 0.  1.
         13    1    3    3    0    0  0.36095332899E+02 -0.42840584264E+01  0.11117876270E+02  0.38010964029E+02  0.00000000000E+00 0. -1.
         21    1    1    2  503  502  0.39051970848E+02  0.46439405395E+01  0.15015710649E+03  0.15522170996E+03  0.00000000000E+00 0.  1.
         -4    1    1    2    0  503 -0.31058896889E+03  0.95663735631E+02  0.94484762040E+03  0.99917670293E+03  0.00000000000E+00 0.  1.
<scales pt_clust_5="13000.00000" pt_clust_6="13000.00000" pt_clust_7="13000.00000" pt_clust_8="13000.00000" pt_clust_9="39.32712" pt_clust_10="290.24232"></scales>
<clustering>
<clus scale="   39.327">  1  9  2 -1</clus>
<clus scale="   74.472">  7  8 -1 -1</clus>
<clus scale="   95.251">  5  6 -1 -1</clus>
<clus scale="  106.276">  2  7  1 -1</clus>
<clus scale="  290.242">  1 10  2 -1</clus>
<clus scale="   39.327">  1  5  2 -1</clus>
</clustering>
</event>
<event>
10    4  0.3403565E-005  0.3313395E+03  0.7546771E-02  0.1070818E+00
         21   -1    0    0  503  502  0.00000000000E+00  0.00000000000E+00  0.55662409915E+03  0.55662409915E+03  0.00000000000E+00 0. -1.
          2   -1    0    0  502    0 -0.00000000000E+00 -0.00000000000E+00 -0.26832459188E+03  0.26832459188E+03  0.00000000000E+00 0. -1.
         23    2    1    2    0    0  0.22361305266E+03  0.26278364990E+03  0.64285785269E+02  0.36245718697E+03  0.90468260885E+02 0.  0.
         24    2    1    2    0    0 -0.19814244989E+03 -0.21079805007E+03  0.14676342565E+03  0.33435738658E+03  0.80988335498E+02 0.  0.
        -11    1    4    4    0    0 -0.48064958226E+02 -0.11020668834E+02  0.13278591436E+02  0.51068741333E+02  0.00000000000E+00 0.  1.
         12    1    4    4    0    0 -0.15007749166E+03 -0.19977738124E+03  0.13348483422E+03  0.28328864524E+03  0.00000000000E+00 0. -1.
        -13    1    3    3    0    0 -0.28822470480E+01  0.34970621264E+02  0.11349386045E+02  0.36878994879E+02  0.00000000000E+00 0.  1.
         13    1    3    3    0    0  0.22649529971E+03  0.22781302863E+03  0.52936399223E+02  0.32557819209E+03  0.00000000000E+00 0. -1.
         21    1    1    2  503  501  0.25874549071E+02  0.39487468483E+01  0.17057911161E+02  0.31241914545E+02  0.00000000000E+00 0.  1.
          1    1    1    2  501    0 -0.51345151841E+02 -0.55934346675E+02  0.60192385181E+02  0.96892202934E+02  0.00000000000E+00 0. -1.
<scales pt_clust_5="13000.00000" pt_clust_6="13000.00000" pt_clust_7="13000.00000" pt_clust_8="13000.00000" pt_clust_9="26.17413" pt_clust_10="72.95748"></scales>
<clustering>
<clus scale="   26.174">  1  9  2 -1</clus>
<clus scale="   72.957">  1 10  2 -1</clus>
<clus scale="   80.988">  5  6 -1 -1</clus>
<clus scale="   90.468">  7  8 -1 -1</clus>
<clus scale="  328.878">  1  5  2 -1</clus>
<clus scale="   26.174">  1  5  2 -1</clus>
</clustering>
</event>
<event>
10    4  0.3403565E-005  0.1052222E+03  0.7546771E-02  0.1273733E+00
          4   -1    0    0  503    0 -0.00000000000E+00  0.00000000000E+00  0.53623899158E+03  0.53623899158E+03  0.00000000000E+00 0. -1.
         21   -1    0    0  501  502  0.00000000000E+00 -0.00000000000E+00 -0.41670206446E+02  0.41670206446E+02  0.00000000000E+00 0.  1.
         24    2    1    2    0    0 -0.45970197944E+02  0.20537592797E+02  0.21835958615E+03  0.23985485114E+03  0.85524200883E+02 0.  0.
         23    2    1    2    0    0  0.46294004509E+02  0.11194650988E+02  0.22823309798E+03  0.25154464192E+03  0.94424068980E+02 0.  0.
        -11    1    3    3    0    0 -0.19936917777E+02 -0.29218024327E+02  0.42755055619E+02  0.55490255154E+02  0.00000000000E+00 0.  1.
         12    1    3    3    0    0 -0.26033280167E+02  0.49755617124E+02  0.17560453053E+03  0.18436459599E+03  0.00000000000E+00 0. -1.
        -13    1    4    4    0    0 -0.27553923550E+02  0.15649101022E+02  0.63861370456E+02  0.71290866892E+02  0.00000000000E+00 0.  1.
         13    1    4    4    0    0  0.73847928059E+02 -0.44544500336E+01  0.16437172752E+03  0.18025377503E+03  0.00000000000E+00 0. -1.
         21    1    1    2  503  502 -0.26414108572E+02 -0.32157428602E+02  0.14507688246E+02  0.44071287299E+02  0.00000000000E+00 0.  1.
          3    1    1    2  501    0  0.26090302007E+02  0.42518481753E+00  0.33468412763E+02  0.42438417664E+02  0.00000000000E+00 0. -1.
<scales pt_clust_5="13000.00000" pt_clust_6="13000.00000" pt_clust_7="13000.00000" pt_clust_8="13000.00000" pt_clust_9="35.78586" pt_clust_10="26.09377"></scales>
<clustering>
<clus scale="   26.094">  2 10  1 -1</clus>
<clus scale="   35.786">  2  9  1 -1</clus>
<clus scale="   85.524">  5  6 -1 -1</clus>
<clus scale="   94.424">  7  8 -1 -1</clus>
<clus scale="   97.315">  1  5  2 -1</clus>
<clus scale="   26.094">  2  5  1 -1</clus>
</clustering>
</event>
<event>
10    4  0.3403565E-005  0.2550049E+03  0.7546771E-02  0.1129743E+00
         21   -1    0    0  503  502  0.00000000000E+00  0.00000000000E+00  0.10937066237E+03  0.10937066237E+03  0.00000000000E+00 0. -1.
          2   -1    0    0  502    0 -0.00000000000E+00 -0.00000000000E+00 -0.21873060906E+04  0.21873060906E+04  0.00000000000E+00 0. -1.
         23    2    1    2    0    0  0.12347198902E+03  0.25779152651E+02 -0.45042403249E+03  0.47678344810E+03  0.92362062345E+02 0.  0.
         24    2    1    2    0    0 -0.11827332258E+03 -0.28476093158E+03 -0.97933764189E+03  0.10299877442E+04  0.81824015186E+02 0.  0.
        -11    1    4    4    0    0 -0.28518533910E+02 -0.12094782980E+03 -0.28396306720E+03  0.30996242973E+03  0.00000000000E+00 0.  1.
         12    1    4    4    0    0 -0.89754788668E+02 -0.16381310179E+03 -0.69537457469E+03  0.72002531451E+03  0.00000000000E+00 0. -1.
        -13    1    3    3    0    0  0.28195994377E+02  0.50553732006E+02 -0.16871586596E+03  0.17836966487E+03  0.00000000000E+00 0.  1.
         13    1    3    3    0    0  0.95275994640E+02 -0.24774579355E+02 -0.28170816652E+03  0.29841378323E+03  0.00000000000E+00 0. -1.
         21    1    1    2  503  501 -0.15685041358E+03  0.11807728519E+03 -0.13984106185E+03  0.24103904268E+03  0.00000000000E+00 0. -1.
          1    1    1    2  501    0  0.15165174714E+03  0.14090449374E+03 -0.50833269204E+03  0.54886651799E+03  0.00000000000E+00 0. -1.
<scales pt_clust_5="13000.00000" pt_clust_6="13000.00000" pt_clust_7="13000.00000" pt_clust_8="13000.00000" pt_clust_9="187.43462" pt_clust_10="241.52090"></scales>
<clustering>
<clus scale="   81.824">  5  6 -1 -1</clus>
<clus scale="   92.362">  7  8 -1 -1</clus>
<clus scale="  156.335">  2  7  1 -1</clus>
<clus scale="  187.435">  1  9  2 -1</clus>
<clus scale="  241.521">  1 10  2 -1</clus>
<clus scale="  187.435">  1  5  2 -1</clus>
</clustering>
</event>
<event>
10    4  0.3403565E-005  0.4772592E+03  0.7546771E-02  0.1066320E+00
         -1   -1    0    0    0  501 -0.00000000000E+00  0.00000000000E+00  0.70693371838E+03  0.70693371838E+03  0.00000000000E+00 0.  1.
         21   -1    0    0  503  502  0.00000000000E+00 -0.00000000000E+00 -0.78863127410E+03  0.78863127410E+03  0.00000000000E+00 0.  1.
         23    2    1    2    0    0  0.66485848016E+02  0.21285808858E+02 -0.41977168228E+02  0.13144006455E+03  0.10315500119E+03 0.  0.
         24    2    1    2    0    0 -0.25382022203E+03 -0.11537599798E+03 -0.59260952428E+02  0.29626421897E+03  0.80773144888E+02 0.  0.
        -13    1    4    4    0    0 -0.25829900689E+03 -0.10474994594E+03 -0.57482805865E+02  0.28459655849E+03  0.00000000000E+00 0.  1.
         14    1    4    4    0    0  0.44787848586E+01 -0.10626052040E+02 -0.17781465624E+01  0.11667660475E+02  0.00000000000E+00 0. -1.
        -11    1    3    3    0    0  0.57189975724E+02 -0.13999700509E+02  0.17708492379E+02  0.61483946197E+02  0.00000000000E+00 0. -1.
         11    1    3    3    0    0  0.92958722925E+01  0.35285509368E+02 -0.59685660607E+02  0.69956118353E+02  0.00000000000E+00 0.  1.
         21    1    1    2  503  501 -0.18777945308E+03  0.43850153125E+03 -0.19491491641E+03  0.51530237778E+03  0.00000000000E+00 0.  1.
         -2    1    1    2    0  502  0.37511382710E+03 -0.34441134213E+03  0.21445548134E+03  0.55255833117E+03  0.00000000000E+00 0.  1.
<scales pt_clust_5="13000.00000" pt_clust_6="13000.00000" pt_clust_7="13000.00000" pt_clust_8="13000.00000" pt_clust_9="477.25919" pt_clust_10="13000.00000"></scales>
<clustering>
<clus scale="   80.773">  5  6 -1 -1</clus>
<clus scale="  103.155">  7  8 -1 -1</clus>
<clus scale="  124.557">  1  7  2 -1</clus>
<clus scale="  278.385">  1  5  2 -1</clus>
<clus scale="  477.259">  2  9  1 -1</clus>
<clus scale="  477.259">  2  5  1 -1</clus>
</clustering>
</event>
<event>
10    4  0.3403565E-005  0.2362298E+03  0.7546771E-02  0.1159894E+00
         21   -1    0    0  501  502  0.00000000000E+00  0.00000000000E+00  0.23844376820E+03  0.23844376820E+03  0.00000000000E+00 0. -1.
          2   -1    0    0  503    0 -0.00000000000E+00 -0.00000000000E+00 -0.11641730639E+04  0.11641730639E+04  0.00000000000E+00 0. -1.
         24    2    1    2    0    0 -0.22241342437E+02  0.31672211535E+02 -0.36237610448E+03  0.37462383921E+03  0.86768505276E+02 0.  0.
         23    2    1    2    0    0 -0.19434873091E+03 -0.64390136137E+02 -0.67698744103E+03  0.71293517279E+03  0.89705331271E+02 0.  0.
        -11    1    3    3    0    0  0.86353222689E+01  0.50904583124E+02 -0.13848697563E+03  0.14779880850E+03  0.00000000000E+00 0.  1.
         12    1    3    3    0    0 -0.30876664706E+02 -0.19232371589E+02 -0.22388912885E+03  0.22682503071E+03  0.00000000000E+00 0. -1.
        -11    1    4    4    0    0 -0.17749934842E+03 -0.85034654009E+02 -0.59062831106E+03  0.62255820041E+03  0.00000000000E+00 0. -1.
         11    1    4    4    0    0 -0.16849382494E+02  0.20644517872E+02 -0.86359129967E+02  0.90376972384E+02  0.00000000000E+00 0.  1.
         21    1    1    2  503  502 -0.20464521142E+02  0.47339183762E+02 -0.44670261311E+00  0.51575134397E+02  0.00000000000E+00 0. -1.
          1    1    1    2  501    0  0.23705459449E+03 -0.14621259161E+02  0.11408095239E+03  0.26348268574E+03  0.00000000000E+00 0. -1.
<scales pt_clust_5="13000.00000" pt_clust_6="13000.00000" pt_clust_7="13000.00000" pt_clust_8="13000.00000" pt_clust_9="51.57320" pt_clust_10="218.53482"></scales>
<clustering>
<clus scale="   51.573">  1  9  2 -1</clus>
<clus scale="   86.769">  5  6 -1 -1</clus>
<clus scale="   89.705">  7  8 -1 -1</clus>
<clus scale="   95.610">  2  5  1 -1</clus>
<clus scale="  218.535">  1 10  2 -1</clus>
<clus scale="   51.573">  1  5  2 -1</clus>
</clustering>
</event>
<event>
10    4  0.3403565E-005  0.1319944E+03  0.7546771E-02  0.1227351E+00
         21   -1    0    0  503  502  0.00000000000E+00  0.00000000000E+00  0.14972081429E+03  0.14972081429E+03  0.00000000000E+00 0. -1.
          2   -1    0    0  502    0 -0.00000000000E+00 -0.00000000000E+00 -0.14240971876E+04  0.14240971876E+04  0.00000000000E+00 0. -1.
         24    2    1    2    0    0  0.67089106980E+02  0.54923824511E+02 -0.91483225411E+03  0.92230270246E+03  0.78782276011E+02 0.  0.
         23    2    1    2    0    0 -0.10761283106E+03 -0.92601727320E+02 -0.38343396868E+03  0.41870626170E+03  0.90209333971E+02 0.  0.
        -11    1    3    3    0    0  0.18958525632E+02 -0.19242652451E+02 -0.15409946938E+03  0.15644919888E+03  0.00000000000E+00 0.  1.
         12    1    3    3    0    0  0.48130581348E+02  0.74166476962E+02 -0.76073278473E+03  0.76585350357E+03  0.00000000000E+00 0. -1.
        -13    1    4    4    0    0 -0.39528749353E+02 -0.81899757767E+02 -0.15100312857E+03  0.17627262177E+03  0.00000000000E+00 0.  1.
         13    1    4    4    0    0 -0.68084081706E+02 -0.10701969552E+02 -0.23243084011E+03  0.24243363993E+03  0.00000000000E+00 0. -1.
         21    1    1    2  503  501 -0.20886649168E+01 -0.89883046754E+02  0.37944583598E+02  0.97586454180E+02  0.00000000000E+00 0. -1.
          1    1    1    2  501    0  0.42612388996E+02  0.12756094956E+03 -0.14054734106E+02  0.13522258354E+03  0.00000000000E+00 0. -1.
<scales pt_clust_5="13000.00000" pt_clust_6="13000.00000" pt_clust_7="13000.00000" pt_clust_8="13000.00000" pt_clust_9="89.90731" pt_clust_10="73.63320"></scales>
<clustering>
<clus scale="   78.782">  5  6 -1 -1</clus>
<clus scale="   89.907">  1  9  2 -1</clus>
<clus scale="   73.633">  1 10  2 -1</clus>
<clus scale="   90.209">  7  8 -1 -1</clus>
<clus scale="  124.465">  2  5  1 -1</clus>
<clus scale="   89.907">  1  5  2 -1</clus>
</clustering>
</event>
<event>
10    4  0.3403565E-005  0.2385527E+03  0.7546771E-02  0.1120818E+00
          2   -1    0    0  503    0 -0.00000000000E+00  0.00000000000E+00  0.27017570019E+04  0.27017570019E+04  0.00000000000E+00 0. -1.
         21   -1    0    0  501  502  0.00000000000E+00 -0.00000000000E+00 -0.16588964837E+03  0.16588964837E+03  0.00000000000E+00 0. -1.
         24    2    1    2    0    0 -0.16033780888E+02 -0.22032307728E+03  0.19462060398E+04  0.19607521897E+04  0.89620643443E+02 0.  0.
         23    2    1    2    0    0 -0.12933373719E+03  0.22442933418E+03 -0.20558164134E+02  0.27516114204E+03  0.90527754632E+02 0.  0.
        -11    1    3    3    0    0  0.19728653155E+02 -0.16695864541E+02  0.11262842712E+03  0.11555576249E+03  0.00000000000E+00 0.  1.
         12    1    3    3    0    0 -0.35762434043E+02 -0.20362721274E+03  0.18335776127E+04  0.18451964272E+04  0.00000000000E+00 0. -1.
        -11    1    4    4    0    0 -0.68118304083E+02  0.13152610631E+03  0.32896433147E+02  0.15172803072E+03  0.00000000000E+00 0.  1.
         11    1    4    4    0    0 -0.61215433103E+02  0.92903227870E+02 -0.53454597281E+02  0.12343311132E+03  0.00000000000E+00 0. -1.
         21    1    1    2  503  502  0.32250112127E+02  0.12558632042E+02  0.55915343895E+02  0.65759521393E+02  0.00000000000E+00 0. -1.
          1    1    1    2  501    0  0.11311740595E+03 -0.16664888941E+02  0.55430413397E+03  0.56597379709E+03  0.00000000000E+00 0. -1.
<scales pt_clust_5="13000.00000" pt_clust_6="13000.00000" pt_clust_7="13000.00000" pt_clust_8="13000.00000" pt_clust_9="34.60909" pt_clust_10="115.43030"></scales>
<clustering>
<clus scale="   34.609">  2  9  1 -1</clus>
<clus scale="   89.621">  5  6 -1 -1</clus>
<clus scale="   90.528">  7  8 -1 -1</clus>
<clus scale="  115.430">  2 10  1 -1</clus>
<clus scale="  238.210">  1  5  2 -1</clus>
<clus scale="   34.609">  2  5  1 -1</clus>
</clustering>
</event>
<event>
10    4  0.3403565E-005  0.1063479E+03  0.7546771E-02  0.1281971E+00
         21   -1    0    0  503  502  0.00000000000E+00  0.00000000000E+00  0.24385150950E+03  0.24385150950E+03  0.00000000000E+00 0.  1.
         -1   -1    0    0    0  501 -0.00000000000E+00 -0.00000000000E+00 -0.19105101479E+03  0.19105101479E+03  0.00000000000E+00 0.  1.
         24    2    1    2    0    0  0.38406532171E+02 -0.42615828218E+02 -0.13643257787E+03  0.15953115183E+03  0.59541326598E+02 0.  0.
         23    2    1    2    0    0 -0.78483215285E+01  0.39470171906E+02  0.34801199522E+02  0.10582776974E+03  0.91481707127E+02 0.  0.
        -13    1    3    3    0    0 -0.52284142569E+01 -0.28280174181E+02 -0.21949780124E+02  0.36178687301E+02  0.00000000000E+00 0.  1.
         14    1    3    3    0    0  0.43634946428E+02 -0.14335654037E+02 -0.11448279775E+03  0.12335246453E+03  0.00000000000E+00 0. -1.
        -13    1    4    4    0    0  0.28984502920E+02 -0.62249546285E+01 -0.10749307685E+02  0.31534094015E+02  0.00000000000E+00 0.  1.
         13    1    4    4    0    0 -0.36832824448E+02  0.45695126535E+02  0.45550507207E+02  0.74293675725E+02  0.00000000000E+00 0. -1.
         21    1    1    2  503  501  0.11945673662E+02 -0.17551823940E+02  0.33067638003E+02  0.39296747015E+02  0.00000000000E+00 0.  1.
         -2    1    1    2    0  502 -0.42503884304E+02  0.20697480252E+02  0.12136423506E+03  0.13024685571E+03  0.00000000000E+00 0.  1.
<scales pt_clust_5="13000.00000" pt_clust_6="13000.00000" pt_clust_7="13000.00000" pt_clust_8="13000.00000" pt_clust_9="21.23124" pt_clust_10="36.67525"></scales>
<clustering>
<clus scale="   21.231">  1  9  2 -1</clus>
<clus scale="   36.675">  1 10  2 -1</clus>
<clus scale="   59.541">  5  6 -1 -1</clus>
<clus scale="   80.537">  2  5  1 -1</clus>
<clus scale="   91.482">  7  8 -1 -1</clus>
<clus scale="   21.231">  1  5  2 -1</clus>
</clustering>
</event>
<event>
10    4  0.3403565E-005  0.3116118E+03  0.7546771E-02  0.1127559E+00
         21   -1    0    0  501  502  0.00000000000E+00  0.00000000000E+00  0.14090732943E+03  0.14090732943E+03  0.00000000000E+00 0. -1.
          2   -1    0    0  503    0 -0.00000000000E+00 -0.00000000000E+00 -0.11269526598E+04  0.11269526598E+04  0.00000000000E+00 0. -1.
         24    2    1    2    0    0 -0.30334233338E+02 -0.11324252237E+02 -0.18845815750E+03  0.20887934969E+03  0.84057725394E+02 0.  0.
         23    2    1    2    0    0 -0.98618035530E+02 -0.25171312267E+03 -0.60704642432E+03  0.67317020135E+03  0.10755345484E+03 0.  0.
        -13    1    3    3    0    0  0.18711606224E+02 -0.30671883410E+02 -0.58756879136E+02  0.68871325566E+02  0.00000000000E+00 0.  1.
         14    1    3    3    0    0 -0.49045839561E+02  0.19347631174E+02 -0.12970127836E+03  0.14000802412E+03  0.00000000000E+00 0. -1.
        -11    1    4    4    0    0 -0.69177106048E+02 -0.54137315695E+02 -0.23513989190E+03  0.25101213061E+03  0.00000000000E+00 0.  1.
         11    1    4    4    0    0 -0.29440929482E+02 -0.19757580698E+03 -0.37190653242E+03  0.42215807074E+03  0.00000000000E+00 0. -1.
         21    1    1    2  503  502 -0.52116893434E+01 -0.19913766769E+02 -0.22230876575E+02  0.30297387446E+02  0.00000000000E+00 0. -1.
          1    1    1    2  501    0  0.13416395821E+03  0.28295114168E+03 -0.16830987200E+03  0.35551305078E+03  0.00000000000E+00 0. -1.
<scales pt_clust_5="13000.00000" pt_clust_6="13000.00000" pt_clust_7="13000.00000" pt_clust_8="13000.00000" pt_clust_9="20.58446" pt_clust_10="292.46224"></scales>
<clustering>
<clus scale="   20.584">  1  9  2 -1</clus>
<clus scale="   84.058">  5  6 -1 -1</clus>
<clus scale="   90.408">  2  5  1 -1</clus>
<clus scale="  107.553">  7  8 -1 -1</clus>
<clus scale="  292.462">  1 10  2 -1</clus>
<clus scale="   20.584">  1  5  2 -1</clus>
</clustering>
</event>
<event>
10    4  0.3403565E-005  0.1265187E+03  0.7546771E-02  0.1235556E+00
         -1   -1    0    0    0  501 -0.00000000000E+00  0.00000000000E+00  0.28253823204E+03  0.28253823204E+03  0.00000000000E+00 0.  1.
         21   -1    0    0  501  502  0.00000000000E+00 -0.00000000000E+00 -0.27644640082E+03  0.27644640082E+03  0.00000000000E+00 0. -1.
         23    2    1    2    0    0 -0.62752638511E+02  0.20958143003E+00  0.51508094777E+02  0.12194199752E+03  0.90988072668E+02 0.  0.
         24    2    1    2    0    0  0.16378147814E+03  0.90007981018E+02 -0.34924623109E+02  0.20655122276E+03  0.80733320865E+02 0.  0.
        -11    1    4    4    0    0  0.32335201403E+02  0.43203762734E+02  0.18639576561E+02  0.57092593027E+02  0.00000000000E+00 0.  1.
         12    1    4    4    0    0  0.13144627673E+03  0.46804218284E+02 -0.53564199670E+02  0.14945862973E+03  0.00000000000E+00 0. -1.
        -11    1    3    3    0    0 -0.33660875987E+02  0.31170390230E+02  0.62997576077E+02  0.77931652047E+02  0.00000000000E+00 0. -1.
         11    1    3    3    0    0 -0.29091762524E+02 -0.30960808800E+02 -0.11489481299E+02  0.44010345475E+02  0.00000000000E+00 0.  1.
         21    1    1    2  503  502 -0.58810368217E+02 -0.23252894696E+02 -0.95366346144E+02  0.11442943895E+03  0.00000000000E+00 0. -1.
         -2    1    1    2    0  503 -0.42218471407E+02 -0.66964667752E+02  0.84874705699E+02  0.11606197363E+03  0.00000000000E+00 0.  1.
<scales pt_clust_5="13000.00000" pt_clust_6="13000.00000" pt_clust_7="13000.00000" pt_clust_8="13000.00000" pt_clust_9="63.24047" pt_clust_10="83.87005"></scales>
<clustering>
<clus scale="   63.240">  2  9  1 -1</clus>
<clus scale="   80.733">  5  6 -1 -1</clus>
<clus scale="   83.870">  2 10  1 -1</clus>
<clus scale="   90.988">  7  8 -1 -1</clus>
<clus scale="  119.357">  2  5  1 -1</clus>
<clus scale="   63.240">  2  5  1 -1</clus>
</clustering>
</event>
<event>
10    4  0.3403565E-005  0.9886350E+02  0.7546771E-02  0.1289712E+00
          2   -1    0    0  502    0 -0.00000000000E+00  0.00000000000E+00  0.12660400712E+04  0.12660400712E+04  0.00000000000E+00 0. -1.
         21   -1    0    0  503  502  0.00000000000E+00 -0.00000000000E+00 -0.39673901918E+02  0.39673901918E+02  0.00000000000E+00 0. -1.
         24    2    1    2    0    0 -0.19811738594E+00 -0.19165448206E+02  0.48516144507E+03  0.49191434831E+03  0.78935065971E+02 0.  0.
         23    2    1    2    0    0  0.44656489927E+02  0.66770088922E+02  0.45232377721E+03  0.46856016888E+03  0.92192112308E+02 0.  0.
        -13    1    3    3    0    0  0.11667438287E+02 -0.34815085038E+02  0.10479970207E+03  0.11104592210E+03  0.00000000000E+00 0.  1.
         14    1    3    3    0    0 -0.11865555673E+02  0.15649636832E+02  0.38036174300E+03  0.38086842621E+03  0.00000000000E+00 0. -1.
        -13    1    4    4    0    0 -0.12860528364E+02  0.62374346305E+02  0.26562135438E+03  0.27314951249E+03  0.00000000000E+00 0.  1.
         13    1    4    4    0    0  0.57517018291E+02  0.43957426165E+01  0.18670242282E+03  0.19541065640E+03  0.00000000000E+00 0. -1.
         21    1    1    2  503  501  0.43094696949E+02 -0.31092515618E+02  0.12139502555E+02  0.54509310717E+02  0.00000000000E+00 0. -1.
          1    1    1    2  501    0 -0.87553069489E+02 -0.16512125098E+02  0.27674144445E+03  0.29073014520E+03  0.00000000000E+00 0. -1.
<scales pt_clust_5="13000.00000" pt_clust_6="13000.00000" pt_clust_7="13000.00000" pt_clust_8="13000.00000" pt_clust_9="53.14036" pt_clust_10="76.65549"></scales>
<clustering>
<clus scale="   53.140">  2  9  1 -1</clus>
<clus scale="   76.655">  2 10  1 -1</clus>
<clus scale="   78.935">  5  6 -1 -1</clus>
<clus scale="   86.633">  1  5  2 -1</clus>
<clus scale="   92.192">  7  8 -1 -1</clus>
<clus scale="   53.140">  2  5  1 -1</clus>
</clustering>
</event>
<event>
10    4  0.3403565E-005  0.1646306E+03  0.7546771E-02  0.1203221E+00
         21   -1    0    0  503  502  0.00000000000E+00  0.00000000000E+00  0.37646981645E+03  0.37646981645E+03  0.00000000000E+00 0.  1.
          2   -1    0    0  502    0 -0.00000000000E+00 -0.00000000000E+00 -0.10693337798E+04  0.10693337798E+04  0.00000000000E+00 0. -1.
         23    2    1    2    0    0  0.33322782542E+02 -0.58055309831E+02 -0.38719339400E+03  0.40341822642E+03  0.91360353613E+02 0.  0.
         24    2    1    2    0    0 -0.79316838499E+02  0.10950741563E+03 -0.21109254616E+03  0.26322522896E+03  0.80277164685E+02 0.  0.
        -13    1    4    4    0    0 -0.91686609471E+02  0.96800690342E+02 -0.15530093387E+03  0.20468314065E+03  0.00000000000E+00 0.  1.
         14    1    4    4    0    0  0.12369770972E+02  0.12706725287E+02 -0.55791612290E+02  0.58542088307E+02  0.00000000000E+00 0. -1.
        -13    1    3    3    0    0  0.53541188736E+02 -0.69272995062E+02 -0.33645362074E+03  0.34765851873E+03  0.00000000000E+00 0. -1.
         13    1    3    3    0    0 -0.20218406194E+02  0.11217685230E+02 -0.50739773265E+02  0.55759707692E+02  0.00000000000E+00 0.  1.
         21    1    1    2  503  501 -0.20155287662E+02  0.59923058404E+02  0.32961789009E+03  0.33562622368E+03  0.00000000000E+00 0.  1.
          1    1    1    2  501    0  0.66149343618E+02 -0.11137516420E+03 -0.42419591331E+03  0.44353391723E+03  0.00000000000E+00 0. -1.
<scales pt_clust_5="13000.00000" pt_clust_6="13000.00000" pt_clust_7="13000.00000" pt_clust_8="13000.00000" pt_clust_9="63.22190" pt_clust_10="143.73181"></scales>
<clustering>
<clus scale="   63.222">  1  9  2 -1</clus>
<clus scale="   80.277">  5  6 -1 -1</clus>
<clus scale="   91.360">  7  8 -1 -1</clus>
<clus scale="  106.904">  2  7  1 -1</clus>
<clus scale="  143.732">  1 10  2 -1</clus>
<clus scale="   63.222">  1  5  2 -1</clus>
</clustering>
</event>
<event>
10    4  0.3403565E-005  0.1733435E+03  0.7546771E-02  0.1175792E+00
         21   -1    0    0  503  502  0.00000000000E+00  0.00000000000E+00  0.19420542308E+03  0.19420542308E+03  0.00000000000E+00 0.  1.
         -1   -1    0    0    0  501 -0.00000000000E+00 -0.00000000000E+00 -0.54726391500E+03  0.54726391500E+03  0.00000000000E+00 0.  1.
         23    2    1    2    0    0 -0.78578350519E+02  0.13662257905E+03 -0.13312075587E+03  0.22542868212E+03  0.90866213751E+02 0.  0.
         24    2    1    2    0    0  0.14808493104E+03 -0.48850211009E+02 -0.64012122481E+01  0.17544646198E+03  0.80156070179E+02 0.  0.
        -11    1    4    4    0    0  0.77938766238E+02 -0.23232458956E+02  0.36697989764E+02  0.89224104841E+02  0.00000000000E+00 0.  1.
         12    1    4    4    0    0  0.70146164799E+02 -0.25617752053E+02 -0.43099202012E+02  0.86222357137E+02  0.00000000000E+00 0. -1.
        -11    1    3    3    0    0 -0.30054960980E+02  0.53598543439E+02 -0.11081358956E+03  0.12671131034E+03  0.00000000000E+00 0. -1.
         11    1    3    3    0    0 -0.48523389539E+02  0.83024035612E+02 -0.22307166317E+02  0.98717371778E+02  0.00000000000E+00 0.  1.
         21    1    1    2  503  501  0.12893332734E+02  0.70611053860E+02 -0.14521095739E+02  0.73232651035E+02  0.00000000000E+00 0.  1.
         -2    1    1    2    0  502 -0.82399913252E+02 -0.15838342190E+03 -0.19901542806E+03  0.26736154294E+03  0.00000000000E+00 0.  1.
<scales pt_clust_5="13000.00000" pt_clust_6="13000.00000" pt_clust_7="13000.00000" pt_clust_8="13000.00000" pt_clust_9="71.77854" pt_clust_10="164.37554"></scales>
<clustering>
<clus scale="   71.779">  1  9  2 -1</clus>
<clus scale="   80.156">  5  6 -1 -1</clus>
<clus scale="   90.866">  7  8 -1 -1</clus>
<clus scale="  164.376">  1 10  2 -1</clus>
<clus scale="  167.977">  1  5  2 -1</clus>
<clus scale="   71.779">  1  5  2 -1</clus>
</clustering>
</event>
<event>
10    4  0.3403565E-005  0.2623131E+03  0.7546771E-02  0.1142242E+00
          2   -1    0    0  503    0 -0.00000000000E+00  0.00000000000E+00  0.41080733170E+03  0.41080733170E+03  0.00000000000E+00 0. -1.
         21   -1    0    0  501  502  0.00000000000E+00 -0.00000000000E+00 -0.36985212815E+03  0.36985212815E+03  0.00000000000E+00 0. -1.
         24    2    1    2    0    0  0.23670151618E+02 -0.63284398073E+02  0.44304457417E+02  0.11530965970E+03  0.82269323298E+02 0.  0.
         23    2    1    2    0    0  0.19599460644E+03  0.14121673883E+03  0.14951217716E+03  0.29846388246E+03  0.91491775222E+02 0.  0.
        -11    1    3    3    0    0  0.29212139314E+02 -0.52300540483E+02 -0.90230180307E+01  0.60581436699E+02  0.00000000000E+00 0.  1.
         12    1    3    3    0    0 -0.55419876959E+01 -0.10983857589E+02  0.53327475447E+02  0.54728223000E+02  0.00000000000E+00 0. -1.
        -13    1    4    4    0    0  0.10894700421E+03  0.27985957127E+02  0.43527879224E+02  0.12061235340E+03  0.00000000000E+00 0.  1.
         13    1    4    4    0    0  0.87047602224E+02  0.11323078170E+03  0.10598429794E+03  0.17785152905E+03  0.00000000000E+00 0. -1.
         21    1    1    2  503  502  0.29910473580E+02  0.18381935865E+02 -0.83417917928E+02  0.90504591195E+02  0.00000000000E+00 0. -1.
          1    1    1    2  501    0 -0.24957523164E+03 -0.96314276618E+02 -0.69443513098E+02  0.27638132650E+03  0.00000000000E+00 0. -1.
<scales pt_clust_5="13000.00000" pt_clust_6="13000.00000" pt_clust_7="13000.00000" pt_clust_8="13000.00000" pt_clust_9="35.10744" pt_clust_10="245.84019"></scales>
<clustering>
<clus scale="   35.107">  2  9  1 -1</clus>
<clus scale="   82.269">  5  6 -1 -1</clus>
<clus scale="   91.492">  7  8 -1 -1</clus>
<clus scale="  106.012">  1  5  2 -1</clus>
<clus scale="  245.840">  2 10  1 -1</clus>
<clus scale="   35.107">  2  5  1 -1</clus>
</clustering>
</event>
<event>
10    4  0.3403565E-005  0.1771073E+03  0.7546771E-02  0.1205415E+00
          2   -1    0    0  503    0 -0.00000000000E+00  0.00000000000E+00  0.17305679477E+04  0.17305679477E+04  0.00000000000E+00 0. -1.
         21   -1    0    0  501  502  0.00000000000E+00 -0.00000000000E+00 -0.12933878885E+03  0.12933878885E+03  0.00000000000E+00 0. -1.
         24    2    1    2    0    0  0.13640809315E+02 -0.25066444204E+02  0.28690012372E+03  0.29855168364E+03  0.77505022477E+02 0.  0.
         23    2    1    2    0    0  0.55920126968E+02 -0.15725194699E+03  0.11249084376E+03  0.22178887909E+03  0.93171248383E+02 0.  0.
        -13    1    3    3    0    0 -0.25224243756E+02  0.36449449143E+01  0.43624306698E+02  0.50523541358E+02  0.00000000000E+00 0.  1.
         14    1    3    3    0    0  0.38865053072E+02 -0.28711389119E+02  0.24327581703E+03  0.24802814229E+03  0.00000000000E+00 0. -1.
        -13    1    4    4    0    0  0.24409771853E+02  0.13517862281E+01 -0.61380437671E+00  0.24454877709E+02  0.00000000000E+00 0. -1.
         13    1    4    4    0    0  0.31510355114E+02 -0.15860373322E+03  0.11310464814E+03  0.19733400138E+03  0.00000000000E+00 0.  1.
         21    1    1    2  503  502 -0.13417743794E+02  0.19641287309E+02 -0.60782662455E+02  0.65271341880E+02  0.00000000000E+00 0. -1.
          1    1    1    2  501    0 -0.56143192489E+02  0.16267710389E+03  0.12626208538E+04  0.12742948320E+04  0.00000000000E+00 0. -1.
<scales pt_clust_5="13000.00000" pt_clust_6="13000.00000" pt_clust_7="13000.00000" pt_clust_8="13000.00000" pt_clust_9="23.78689" pt_clust_10="150.61924"></scales>
<clustering>
<clus scale="   23.787">  2  9  1 -1</clus>
<clus scale="   77.505">  5  6 -1 -1</clus>
<clus scale="   81.897">  1  5  2 -1</clus>
<clus scale="   93.171">  7  8 -1 -1</clus>
<clus scale="  150.619">  2 10  1 -1</clus>
<clus scale="   23.787">  2  5  1 -1</clus>
</clustering>
</event>
<event>
10    4  0.3403565E-005  0.2194819E+03  0.7546771E-02  0.1157441E+00
          2   -1    0    0  503    0 -0.00000000000E+00  0.00000000000E+00  0.26433723404E+03  0.26433723404E+03  0.00000000000E+00 0. -1.
         21   -1    0    0  501  502  0.00000000000E+00 -0.00000000000E+00 -0.35273250391E+03  0.35273250391E+03  0.00000000000E+00 0. -1.
         24    2    1    2    0    0  0.25095899671E+02 -0.10222903098E+03  0.13997757568E+02  0.13365607389E+03  0.81162983646E+02 0.  0.
         23    2    1    2    0    0 -0.15109814167E+03  0.15492895333E+03 -0.97094762980E+02  0.25435988496E+03  0.91858200946E+02 0.  0.
        -13    1    3    3    0    0  0.31329802232E+02 -0.33742783371E+01 -0.72899354493E+01  0.32343243824E+02  0.00000000000E+00 0.  1.
         14    1    3    3    0    0 -0.62339025609E+01 -0.98854752642E+02  0.21287693017E+02  0.10131283006E+03  0.00000000000E+00 0. -1.
        -13    1    4    4    0    0 -0.22803644916E+02  0.23524999192E+02 -0.57974351201E+02  0.66591720248E+02  0.00000000000E+00 0.  1.
         13    1    4    4    0    0 -0.12829449675E+03  0.13140395414E+03 -0.39120411779E+02  0.18776816471E+03  0.00000000000E+00 0. -1.
         21    1    1    2  503  502 -0.21347880293E+02  0.41145947830E+02 -0.25977223000E+02  0.53136965764E+02  0.00000000000E+00 0. -1.
          1    1    1    2  501    0  0.14735012229E+03 -0.93845870184E+02  0.20678958543E+02  0.17591681334E+03  0.00000000000E+00 0. -1.
<scales pt_clust_5="13000.00000" pt_clust_6="13000.00000" pt_clust_7="13000.00000" pt_clust_8="13000.00000" pt_clust_9="46.35430" pt_clust_10="199.33488"></scales>
<clustering>
<clus scale="   46.354">  2  9  1 -1</clus>
<clus scale="   81.163">  5  6 -1 -1</clus>
<clus scale="   91.858">  7  8 -1 -1</clus>
<clus scale="  126.232">  1  5  2 -1</clus>
<clus scale="  199.335">  2 10  1 -1</clus>
<clus scale="   46.354">  2  5  1 -1</clus>
</clustering>
</event>
<event>
10    4  0.3403565E-005  0.1574094E+03  0.7546771E-02  0.1203342E+00
         21   -1    0    0  501  502  0.00000000000E+00  0.00000000000E+00  0.16258901360E+03  0.16258901360E+03  0.00000000000E+00 0. -1.
          2   -1    0    0  503    0 -0.00000000000E+00 -0.00000000000E+00 -0.79426935725E+03  0.79426935725E+03  0.00000000000E+00 0. -1.
         23    2    1    2    0    0  0.56845918952E+02  0.51005061092E+02 -0.10715660489E+03  0.15950322251E+03  0.90143026698E+02 0.  0.
         24    2    1    2    0    0 -0.12440809229E+03  0.54171759675E+02 -0.30530844752E+03  0.34383797964E+03  0.81236415135E+02 0.  0.
        -11    1    4    4    0    0 -0.21391793110E+02  0.50338437934E+02 -0.11719298234E+03  0.12932811858E+03  0.00000000000E+00 0.  1.
         12    1    4    4    0    0 -0.10301629919E+03  0.38333217413E+01 -0.18811546518E+03  0.21450986106E+03  0.00000000000E+00 0. -1.
        -13    1    3    3    0    0  0.39345029106E+02  0.18937283151E+02  0.26830304754E+01  0.43747578916E+02  0.00000000000E+00 0. -1.
         13    1    3    3    0    0  0.17500889846E+02  0.32067777942E+02 -0.10983963537E+03  0.11575564360E+03  0.00000000000E+00 0.  1.
         21    1    1    2  503  502  0.77528866511E+02 -0.16520171616E+03  0.40365606925E+02  0.18690027926E+03  0.00000000000E+00 0. -1.
          1    1    1    2  501    0 -0.99666931679E+01  0.60024895391E+02 -0.25958089816E+03  0.26661688943E+03  0.00000000000E+00 0. -1.
<scales pt_clust_5="13000.00000" pt_clust_6="13000.00000" pt_clust_7="13000.00000" pt_clust_8="13000.00000" pt_clust_9="134.82716" pt_clust_10="60.84675"></scales>
<clustering>
<clus scale="   60.847">  1 10  2 -1</clus>
<clus scale="   81.236">  5  6 -1 -1</clus>
<clus scale="   90.143">  7  8 -1 -1</clus>
<clus scale="  121.984">  2  7  1 -1</clus>
<clus scale="  134.827">  1  9  2 -1</clus>
<clus scale="   60.847">  1  5  2 -1</clus>
</clustering>
</event>
<event>
10    4  0.3403565E-005  0.9258529E+02  0.7546771E-02  0.1314005E+00
         21   -1    0    0  501  502  0.00000000000E+00  0.00000000000E+00  0.11004147603E+03  0.11004147603E+03  0.00000000000E+00 0.  1.
          2   -1    0    0  503    0 -0.00000000000E+00 -0.00000000000E+00 -0.40729708951E+03  0.40729708951E+03  0.00000000000E+00 0. -1.
         23    2    1    2    0    0 -0.10475891757E+02 -0.47333466686E+01 -0.64976457234E+02  0.11360017459E+03  0.92471134920E+02 0.  0.
         24    2    1    2    0    0 -0.28176873077E+02 -0.10505876594E+02  0.34745799100E+01  0.73822281424E+02  0.67330133742E+02 0.  0.
        -13    1    4    4    0    0 -0.41774864016E+02 -0.10723251496E+02  0.23880965407E+02  0.49299370127E+02  0.00000000000E+00 0.  1.
         14    1    4    4    0    0  0.13597990939E+02  0.21737490226E+00 -0.20406385497E+02  0.24522911297E+02  0.00000000000E+00 0. -1.
        -13    1    3    3    0    0 -0.27003488421E+02 -0.38271306649E+02 -0.59636763961E+02  0.75831556196E+02  0.00000000000E+00 0.  1.
         13    1    3    3    0    0  0.16527596664E+02  0.33537959980E+02 -0.53396932731E+01  0.37768618393E+02  0.00000000000E+00 0. -1.
         21    1    1    2  503  502 -0.45844055249E+02  0.22446068085E+02  0.24192214368E+02  0.56486871132E+02  0.00000000000E+00 0.  1.
          1    1    1    2  501    0  0.84496820083E+02 -0.72068448225E+01 -0.25994595053E+03  0.27342923840E+03  0.00000000000E+00 0. -1.
<scales pt_clust_5="13000.00000" pt_clust_6="13000.00000" pt_clust_7="13000.00000" pt_clust_8="13000.00000" pt_clust_9="51.04413" pt_clust_10="80.22099"></scales>
<clustering>
<clus scale="   51.044">  1  9  2 -1</clus>
<clus scale="   67.330">  5  6 -1 -1</clus>
<clus scale="   80.221">  1 10  2 -1</clus>
<clus scale="   67.487">  1  5  2 -1</clus>
<clus scale="   92.471">  7  8 -1 -1</clus>
<clus scale="   51.044">  1  5  2 -1</clus>
</clustering>
</event>
<event>
10    4  0.3403565E-005  0.1069488E+03  0.7546771E-02  0.1270498E+00
         21   -1    0    0  503  502  0.00000000000E+00  0.00000000000E+00  0.29153180636E+02  0.29153180636E+02  0.00000000000E+00 0. -1.
          2   -1    0    0  502    0 -0.00000000000E+00 -0.00000000000E+00 -0.57853066282E+03  0.57853066282E+03  0.00000000000E+00 0. -1.
         23    2    1    2    0    0  0.60704431385E+02  0.93655473984E+01 -0.27632578425E+03  0.29722450827E+03  0.90629618822E+02 0.  0.
         24    2    1    2    0    0 -0.50355439487E+02 -0.64518050731E+01 -0.15372782292E+03  0.18087265758E+03  0.80655927542E+02 0.  0.
        -11    1    4    4    0    0 -0.25517042347E+02  0.19763121981E+01 -0.15248069208E+03  0.15461366924E+03  0.00000000000E+00 0.  1.
         12    1    4    4    0    0 -0.24838397141E+02 -0.84281172712E+01 -0.12471308368E+01  0.26258988339E+02  0.00000000000E+00 0. -1.
        -13    1    3    3    0    0  0.28222534025E+02 -0.36801323131E+02 -0.75412256635E+02  0.88531673777E+02  0.00000000000E+00 0.  1.
         13    1    3    3    0    0  0.32481897360E+02  0.46166870529E+02 -0.20091352761E+03  0.20869283449E+03  0.00000000000E+00 0. -1.
         21    1    1    2  503  501  0.25431149250E+01  0.20376700420E+02 -0.29809482051E+02  0.36197825538E+02  0.00000000000E+00 0. -1.
          1    1    1    2  501    0 -0.12892106823E+02 -0.23290442746E+02 -0.89514392971E+02  0.93388852068E+02  0.00000000000E+00 0. -1.
<scales pt_clust_5="13000.00000" pt_clust_6="13000.00000" pt_clust_7="13000.00000" pt_clust_8="13000.00000" pt_clust_9="20.53478" pt_clust_10="25.20464"></scales>
<clustering>
<clus scale="   20.535">  1  9  2 -1</clus>
<clus scale="   25.205">  1 10  2 -1</clus>
<clus scale="   80.656">  5  6 -1 -1</clus>
<clus scale="   90.630">  7  8 -1 -1</clus>
<clus scale="   98.639">  1  5  2 -1</clus>
<clus scale="   20.535">  1  5  2 -1</clus>
</clustering>
</event>
<event>
10    4  0.3403565E-005  0.2815384E+03  0.7546771E-02  0.1130799E+00
          2   -1    0    0  503    0 -0.00000000000E+00  0.00000000000E+00  0.10707203414E+04  0.10707203414E+04  0.00000000000E+00 0. -1.
         21   -1    0    0  501  502  0.00000000000E+00 -0.00000000000E+00 -0.48862921405E+03  0.48862921405E+03  0.00000000000E+00 0. -1.
         24    2    1    2    0    0 -0.72551203463E+02  0.32252940260E+02  0.14837992004E+03  0.18662792457E+03  0.80681176736E+02 0.  0.
         23    2    1    2    0    0  0.13405029795E+03 -0.35321664122E+03  0.66104723807E+03  0.76657097528E+03  0.88972642761E+02 0.  0.
        -13    1    3    3    0    0 -0.52534346138E+02 -0.14570973733E+02  0.42456012205E+02  0.69099086623E+02  0.00000000000E+00 0.  1.
         14    1    3    3    0    0 -0.20016857324E+02  0.46823913992E+02  0.10592390783E+03  0.11752883794E+03  0.00000000000E+00 0. -1.
        -11    1    4    4    0    0  0.14199117815E+03 -0.29013140791E+03  0.52522716229E+03  0.61660465497E+03  0.00000000000E+00 0. -1.
         11    1    4    4    0    0 -0.79408801993E+01 -0.63085233312E+02  0.13582007578E+03  0.14996632030E+03  0.00000000000E+00 0.  1.
         21    1    1    2  503  502  0.70795406704E+02  0.18711688154E+03 -0.33436822743E+03  0.38964962272E+03  0.00000000000E+00 0. -1.
          1    1    1    2  501    0 -0.13229450119E+03  0.13384681941E+03  0.10703219667E+03  0.21650103287E+03  0.00000000000E+00 0. -1.
<scales pt_clust_5="13000.00000" pt_clust_6="13000.00000" pt_clust_7="13000.00000" pt_clust_8="13000.00000" pt_clust_9="200.21396" pt_clust_10="267.10993"></scales>
<clustering>
<clus scale="   80.681">  5  6 -1 -1</clus>
<clus scale="   88.973">  7  8 -1 -1</clus>
<clus scale="  113.196">  1  5  2 -1</clus>
<clus scale="  200.214">  2  9  1 -1</clus>
<clus scale="  267.110">  2 10  1 -1</clus>
<clus scale="  200.214">  2  5  1 -1</clus>
</clustering>
</event>
<event>
10    4  0.3403565E-005  0.1267136E+03  0.7546771E-02  0.1233978E+00
          2   -1    0    0  502    0 -0.00000000000E+00  0.00000000000E+00  0.80073218568E+03  0.80073218568E+03  0.00000000000E+00 0. -1.
         21   -1    0    0  503  502  0.00000000000E+00 -0.00000000000E+00 -0.97070985726E+02  0.97070985726E+02  0.00000000000E+00 0. -1.
         24    2    1    2    0    0 -0.73257818982E+02  0.31777778218E+02  0.56304805416E+03  0.57487896631E+03  0.84179447491E+02 0.  0.
         23    2    1    2    0    0  0.13132708993E+03 -0.56271158273E+02  0.17837487619E+03  0.24559173569E+03  0.89913605110E+02 0.  0.
        -11    1    3    3    0    0 -0.43237540213E+01  0.45529839830E+02  0.22035995947E+03  0.22505593282E+03  0.00000000000E+00 0.  1.
         12    1    3    3    0    0 -0.68934064961E+02 -0.13752061612E+02  0.34268809470E+03  0.34982303349E+03  0.00000000000E+00 0. -1.
        -13    1    4    4    0    0  0.10504551286E+03  0.16293105583E+01  0.10576020191E+03  0.14907191128E+03  0.00000000000E+00 0. -1.
         13    1    4    4    0    0  0.26281577066E+02 -0.57900468832E+02  0.72614674274E+02  0.96519824409E+02  0.00000000000E+00 0.  1.
         21    1    1    2  503  501 -0.29210907980E+02  0.22708554593E+02 -0.29330494611E+02  0.47214759460E+02  0.00000000000E+00 0. -1.
          1    1    1    2  501    0 -0.28858362968E+02  0.17848254630E+01 -0.84312357857E+01  0.30117709940E+02  0.00000000000E+00 0. -1.
<scales pt_clust_5="13000.00000" pt_clust_6="13000.00000" pt_clust_7="13000.00000" pt_clust_8="13000.00000" pt_clust_9="21.33352" pt_clust_10="67.48602"></scales>
<clustering>
<clus scale="   21.334">  9 10 -1 -1</clus>
<clus scale="   67.486">  2  9  1 -1</clus>
<clus scale="   84.179">  5  6 -1 -1</clus>
<clus scale="   89.914">  7  8 -1 -1</clus>
<clus scale="  122.711">  1  5  2 -1</clus>
<clus scale="   67.486">  2  5  1 -1</clus>
</clustering>
</event>
<event>
10    4  0.4650272E-005  0.1823715E+03  0.7546771E-02  0.1191804E+00
         21   -1    0    0  503  502  0.00000000000E+00  0.00000000000E+00  0.31747587701E+03  0.31747587701E+03  0.00000000000E+00 0.  1.
          2   -1    0    0  502    0 -0.00000000000E+00 -0.00000000000E+00 -0.52583448540E+03  0.52583448540E+03  0.00000000000E+00 0. -1.
         24    2    1    2    0    0 -0.28651611368E+02  0.60125929463E+01 -0.60217613022E+02  0.11695054014E+03  0.95886400569E+02 0.  0.
         23    2    1    2    0    0  0.10642569107E+03 -0.14480490773E+03  0.22328808837E+03  0.30003872902E+03  0.88717413642E+02 0.  0.
        -11    1    3    3    0    0 -0.18705710269E+02 -0.44058947898E+02 -0.19638476274E+02  0.51737454875E+02  0.00000000000E+00 0.  1.
         12    1    3    3    0    0 -0.99459010987E+01  0.50071540844E+02 -0.40579136748E+02  0.65213085270E+02  0.00000000000E+00 0. -1.
        -13    1    4    4    0    0  0.94147634840E+02 -0.63121155064E+02  0.15950220874E+03  0.19567578275E+03  0.00000000000E+00 0.  1.
         13    1    4    4    0    0  0.12278056228E+02 -0.81683752662E+02  0.63785879633E+02  0.10436294627E+03  0.00000000000E+00 0. -1.
         21    1    1    2  503  501 -0.20009801672E+02  0.11776622823E+02  0.59531749052E+01  0.23969173943E+02  0.00000000000E+00 0. -1.
          1    1    1    2  501    0 -0.57764278028E+02  0.12701569196E+03 -0.37738225865E+03  0.40235191930E+03  0.00000000000E+00 0. -1.
<scales pt_clust_5="13000.00000" pt_clust_6="13000.00000" pt_clust_7="13000.00000" pt_clust_8="13000.00000" pt_clust_9="23.21812" pt_clust_10="159.33806"></scales>
<clustering>
<clus scale="   23.218">  1  9  2 -1</clus>
<clus scale="   88.717">  7  8 -1 -1</clus>
<clus scale="   95.886">  5  6 -1 -1</clus>
<clus scale="  100.880">  2  5  1 -1</clus>
<clus scale="  159.338">  1 10  2 -1</clus>
<clus scale="   23.218">  1  5  2 -1</clus>
</clustering>
</event>
<event>
10    4  0.3403565E-005  0.5294945E+03  0.7546771E-02  0.1041684E+00
          2   -1    0    0  503    0 -0.00000000000E+00  0.00000000000E+00  0.17941510753E+04  0.17941510753E+04  0.00000000000E+00 0. -1.
         21   -1    0    0  501  502  0.00000000000E+00 -0.00000000000E+00 -0.92772398868E+03  0.92772398868E+03  0.00000000000E+00 0. -1.
         24    2    1    2    0    0 -0.12361201552E+03 -0.11309351910E+03  0.38492023816E+03  0.42720157565E+03  0.79167683100E+02 0.  0.
         23    2    1    2    0    0 -0.40747382745E+03  0.20108634102E+03  0.12369619001E+04  0.13208526773E+04  0.90035638459E+02 0.  0.
        -13    1    3    3    0    0 -0.31773618049E+02 -0.33221134156E+02  0.38302132881E+02  0.59835273390E+02  0.00000000000E+00 0.  1.
         14    1    3    3    0    0 -0.91838397474E+02 -0.79872384943E+02  0.34661810528E+03  0.36736630226E+03  0.00000000000E+00 0. -1.
        -11    1    4    4    0    0 -0.38427074302E+03  0.21032051781E+03  0.11783361977E+04  0.12571296349E+04  0.00000000000E+00 0. -1.
         11    1    4    4    0    0 -0.23203084428E+02 -0.92341767929E+01  0.58625702451E+02  0.63723042425E+02  0.00000000000E+00 0.  1.
         21    1    1    2  503  502  0.69260576118E+02  0.20869782735E+02 -0.32573427557E+03  0.33366958734E+03  0.00000000000E+00 0. -1.
          1    1    1    2  501    0  0.46182526686E+03 -0.10886260465E+03 -0.42972077609E+03  0.64015122370E+03  0.00000000000E+00 0. -1.
<scales pt_clust_5="13000.00000" pt_clust_6="13000.00000" pt_clust_7="13000.00000" pt_clust_8="13000.00000" pt_clust_9="72.33654" pt_clust_10="521.78353"></scales>
<clustering>
<clus scale="   72.337">  2  9  1 -1</clus>
<clus scale="   79.168">  5  6 -1 -1</clus>
<clus scale="   90.036">  7  8 -1 -1</clus>
<clus scale="  183.227">  1  5  2 -1</clus>
<clus scale="  521.784">  2 10  1 -1</clus>
<clus scale="   72.337">  2  5  1 -1</clus>
</clustering>
</event>
<event>
10    4  0.3403565E-005  0.1713507E+03  0.7546771E-02  0.1195705E+00
         21   -1    0    0  501  502  0.00000000000E+00  0.00000000000E+00  0.17852478692E+03  0.17852478692E+03  0.00000000000E+00 0.  1.
         -1   -1    0    0    0  501 -0.00000000000E+00 -0.00000000000E+00 -0.50635358374E+03  0.50635358374E+03  0.00000000000E+00 0.  1.
         23    2    1    2    0    0  0.13044720329E+02  0.63225138409E+02  0.23174420353E+02  0.11874517068E+03  0.96931826274E+02 0.  0.
         24    2    1    2    0    0  0.10729820311E+03  0.56906799436E+02 -0.31715529100E+03  0.34901746907E+03  0.80463823502E+02 0.  0.
        -13    1    4    4    0    0  0.11474861387E+03  0.31599985524E+02 -0.25072382995E+03  0.27753962307E+03  0.00000000000E+00 0.  1.
         14    1    4    4    0    0 -0.74504107611E+01  0.25306813911E+02 -0.66431461053E+02  0.71477845998E+02  0.00000000000E+00 0. -1.
        -13    1    3    3    0    0 -0.51977243215E+01  0.44051032007E+02 -0.33903670197E+02  0.55829818304E+02  0.00000000000E+00 0. -1.
         13    1    3    3    0    0  0.18242444650E+02  0.19174106402E+02  0.57078090550E+02  0.62915352371E+02  0.00000000000E+00 0.  1.
         21    1    1    2  503  502  0.57235133875E+01 -0.20039196268E+02  0.36037683691E+02  0.41629828710E+02  0.00000000000E+00 0. -1.
         -2    1    1    2    0  503 -0.12606643683E+03 -0.10009274158E+03 -0.69885609864E+02  0.17548590222E+03  0.00000000000E+00 0.  1.
<scales pt_clust_5="13000.00000" pt_clust_6="13000.00000" pt_clust_7="13000.00000" pt_clust_8="13000.00000" pt_clust_9="20.84054" pt_clust_10="151.28327"></scales>
<clustering>
<clus scale="   20.841">  1  9  2 -1</clus>
<clus scale="   80.464">  5  6 -1 -1</clus>
<clus scale="   96.932">  7  8 -1 -1</clus>
<clus scale="  111.643">  2  7  1 -1</clus>
<clus scale="  151.283">  1 10  2 -1</clus>
<clus scale="   20.841">  1  5  2 -1</clus>
</clustering>
</event>
<event>
10    4  0.3403565E-005  0.9468777E+02  0.7546771E-02  0.1300560E+00
         21   -1    0    0  503  502  0.00000000000E+00  0.00000000000E+00  0.25617714450E+03  0.25617714450E+03  0.00000000000E+00 0. -1.
         -1   -1    0    0    0  501 -0.00000000000E+00 -0.00000000000E+00 -0.30310291383E+03  0.30310291383E+03  0.00000000000E+00 0.  1.
         23    2    1    2    0    0  0.44134430416E+01 -0.15775907526E+01 -0.71785540382E+02  0.11829823505E+03  0.93911348275E+02 0.  0.
         24    2    1    2    0    0 -0.63255108719E+02  0.39830302154E+01  0.14186194271E+03  0.17462355876E+03  0.79696318462E+02 0.  0.
        -11    1    4    4    0    0 -0.73633453276E+01 -0.30819885961E+02  0.71786417494E+02  0.78468936285E+02  0.00000000000E+00 0.  1.
         12    1    4    4    0    0 -0.55891763391E+02  0.34802916176E+02  0.70075525218E+02  0.96154622478E+02  0.00000000000E+00 0. -1.
        -11    1    3    3    0    0 -0.18561857233E+02 -0.18027656050E+02 -0.83717503373E+02  0.87625106548E+02  0.00000000000E+00 0.  1.
         11    1    3    3    0    0  0.22975300274E+02  0.16450065298E+02  0.11931962991E+02  0.30673128497E+02  0.00000000000E+00 0. -1.
         21    1    1    2  503  501  0.10156214576E+03 -0.18862775740E+02  0.33856746543E+02  0.10870580963E+03  0.00000000000E+00 0.  1.
         -2    1    1    2    0  502 -0.42720480082E+02  0.16457336277E+02 -0.15085891819E+03  0.15765245490E+03  0.00000000000E+00 0.  1.
<scales pt_clust_5="13000.00000" pt_clust_6="13000.00000" pt_clust_7="13000.00000" pt_clust_8="13000.00000" pt_clust_9="90.63818" pt_clust_10="45.78084"></scales>
<clustering>
<clus scale="   45.781">  1 10  2 -1</clus>
<clus scale="   79.696">  5  6 -1 -1</clus>
<clus scale="   90.638">  1  9  2 -1</clus>
<clus scale="   80.610">  1  5  2 -1</clus>
<clus scale="   93.911">  7  8 -1 -1</clus>
<clus scale="   45.781">  1  5  2 -1</clus>
</clustering>
</event>
<event>
10    4  0.3403565E-005  0.1033457E+03  0.7546771E-02  0.1276238E+00
          2   -1    0    0  503    0 -0.00000000000E+00  0.00000000000E+00  0.36775202664E+03  0.36775202664E+03  0.00000000000E+00 0. -1.
         21   -1    0    0  501  502  0.00000000000E+00 -0.00000000000E+00 -0.18508350203E+03  0.18508350203E+03  0.00000000000E+00 0.  1.
         24    2    1    2    0    0 -0.63881940824E+02  0.21775952257E+02  0.13128868216E+03  0.16794536447E+03  0.80086409105E+02 0.  0.
         23    2    1    2    0    0  0.44309877770E+02 -0.32718135430E+00  0.85475334121E+02  0.12954010249E+03  0.86666793500E+02 0.  0.
        -13    1    3    3    0    0 -0.82894256186E+02  0.14137493675E+02  0.10185655537E+03  0.13208362619E+03  0.00000000000E+00 0.  1.
         14    1    3    3    0    0  0.19012315362E+02  0.76384585821E+01  0.29432126794E+02  0.35861738281E+02  0.00000000000E+00 0. -1.
        -11    1    4    4    0    0 -0.56362452664E+01  0.19341602664E+02 -0.80579735274E+01  0.21697829193E+02  0.00000000000E+00 0.  1.
         11    1    4    4    0    0  0.49946123036E+02 -0.19668784019E+02  0.93533307648E+02  0.10784227330E+03  0.00000000000E+00 0. -1.
         21    1    1    2  503  502 -0.72458868509E+02  0.70753321697E+01 -0.11053783643E+03  0.13235921288E+03  0.00000000000E+00 0.  1.
          1    1    1    2  501    0  0.92030931564E+02 -0.28524103072E+02  0.76442344757E+02  0.12299084882E+03  0.00000000000E+00 0. -1.
<scales pt_clust_5="13000.00000" pt_clust_6="13000.00000" pt_clust_7="13000.00000" pt_clust_8="13000.00000" pt_clust_9="72.80349" pt_clust_10="70.47547"></scales>
<clustering>
<clus scale="   72.803">  2  9  1 -1</clus>
<clus scale="   70.475">  2 10  1 -1</clus>
<clus scale="   80.086">  5  6 -1 -1</clus>
<clus scale="   86.667">  7  8 -1 -1</clus>
<clus scale="   97.893">  1  5  2 -1</clus>
<clus scale="   72.803">  2  5  1 -1</clus>
</clustering>
</event>
<event>
10    4  0.3403565E-005  0.1524522E+03  0.7546771E-02  0.1198984E+00
         -3   -1    0    0    0  501 -0.00000000000E+00  0.00000000000E+00  0.37416218843E+03  0.37416218843E+03  0.00000000000E+00 0.  1.
         21   -1    0    0  503  502  0.00000000000E+00 -0.00000000000E+00 -0.38454575489E+03  0.38454575489E+03  0.00000000000E+00 0.  1.
         23    2    1    2    0    0 -0.27425367325E+02  0.12020434169E+03  0.49863371778E+02  0.16087090648E+03  0.90508884493E+02 0.  0.
         24    2    1    2    0    0  0.19122459148E+02 -0.12004934977E+03 -0.71003417972E+02  0.16293614408E+03  0.82031621086E+02 0.  0.
        -11    1    4    4    0    0  0.64345354932E+01 -0.95046233061E+02 -0.88382524120E+02  0.12994868309E+03  0.00000000000E+00 0.  1.
         12    1    4    4    0    0  0.12687923655E+02 -0.25003116714E+02  0.17379106149E+02  0.32987460991E+02  0.00000000000E+00 0. -1.
        -11    1    3    3    0    0  0.21505677760E+02  0.83003188300E+02  0.71934847883E+01  0.86045160627E+02  0.00000000000E+00 0.  1.
         11    1    3    3    0    0 -0.48931045085E+02  0.37201153391E+02  0.42669886989E+02  0.74825745853E+02  0.00000000000E+00 0. -1.
         21    1    1    2  503  501 -0.76441356693E+02 -0.23373964618E+02 -0.19522771591E+03  0.21095848950E+03  0.00000000000E+00 0.  1.
         -4    1    1    2    0  502  0.84744264870E+02  0.23218972702E+02  0.20598419565E+03  0.22394240326E+03  0.00000000000E+00 0.  1.
<scales pt_clust_5="13000.00000" pt_clust_6="13000.00000" pt_clust_7="13000.00000" pt_clust_8="13000.00000" pt_clust_9="79.93512" pt_clust_10="83.91385"></scales>
<clustering>
<clus scale="   79.935">  2  9  1 -1</clus>
<clus scale="   82.032">  5  6 -1 -1</clus>
<clus scale="   83.914">  2 10  1 -1</clus>
<clus scale="   90.509">  7  8 -1 -1</clus>
<clus scale="  147.577">  2  5  1 -1</clus>
<clus scale="   79.935">  2  5  1 -1</clus>
</clustering>
</event>
<event>
10    4  0.3403565E-005  0.2818099E+03  0.7546771E-02  0.1129753E+00
          2   -1    0    0  503    0 -0.00000000000E+00  0.00000000000E+00  0.15009902131E+04  0.15009902131E+04  0.00000000000E+00 0. -1.
         21   -1    0    0  501  502  0.00000000000E+00 -0.00000000000E+00 -0.29332829507E+03  0.29332829507E+03  0.00000000000E+00 0. -1.
         24    2    1    2    0    0  0.63432644350E+02  0.51539532158E+02 -0.61776572525E+02  0.13125285670E+03  0.82042328920E+02 0.  0.
         23    2    1    2    0    0  0.17634432457E+03 -0.26371822585E+02  0.15316523937E+03  0.25118321730E+03  0.88547299615E+02 0.  0.
        -13    1    3    3    0    0  0.44930953695E+02  0.67760597512E+02 -0.21572671294E+02  0.84116997818E+02  0.00000000000E+00 0.  1.
         14    1    3    3    0    0  0.18501690655E+02 -0.16221065354E+02 -0.40203901231E+02  0.47135858882E+02  0.00000000000E+00 0. -1.
        -13    1    4    4    0    0  0.47978393019E+02  0.28869179575E+02  0.65686688686E+02  0.86313943233E+02  0.00000000000E+00 0.  1.
         13    1    4    4    0    0  0.12836593155E+03 -0.55241002160E+02  0.87478550684E+02  0.16486927407E+03  0.00000000000E+00 0. -1.
         21    1    1    2  503  502  0.16557067909E+03 -0.11363116909E+03 -0.20411646061E+02  0.20184728797E+03  0.00000000000E+00 0. -1.
          1    1    1    2  501    0 -0.40534764801E+03  0.88463459521E+02  0.11366848972E+04  0.12100351462E+04  0.00000000000E+00 0. -1.
<scales pt_clust_5="13000.00000" pt_clust_6="13000.00000" pt_clust_7="13000.00000" pt_clust_8="13000.00000" pt_clust_9="202.30219" pt_clust_10="267.53737"></scales>
<clustering>
<clus scale="   82.042">  5  6 -1 -1</clus>
<clus scale="   88.547">  7  8 -1 -1</clus>
<clus scale="  115.806">  1  5  2 -1</clus>
<clus scale="  202.302">  2  9  1 -1</clus>
<clus scale="  267.537">  2 10  1 -1</clus>
<clus scale="  202.302">  2  5  1 -1</clus>
</clustering>
</event>
<event>
10    4  0.3403565E-005  0.1042293E+03  0.7546771E-02  0.1276924E+00
          2   -1    0    0  503    0 -0.00000000000E+00  0.00000000000E+00  0.96179376898E+03  0.96179376898E+03  0.00000000000E+00 0. -1.
         21   -1    0    0  501  502  0.00000000000E+00 -0.00000000000E+00 -0.32901416319E+02  0.32901416319E+02  0.00000000000E+00 0.  1.
         24    2    1    2    0    0 -0.37463436747E+02 -0.20725909836E+02  0.65174074520E+03  0.65811133523E+03  0.80693606776E+02 0.  0.
         23    2    1    2    0    0  0.26140940291E+02 -0.61371418023E+01  0.13627483070E+03  0.16672496675E+03  0.92224572574E+02 0.  0.
        -13    1    3    3    0    0 -0.32745786166E+02  0.93575803857E+01  0.10215004948E+03  0.10767768307E+03  0.00000000000E+00 0.  1.
         14    1    3    3    0    0 -0.47176505812E+01 -0.30083490222E+02  0.54959069572E+03  0.55043365216E+03  0.00000000000E+00 0. -1.
        -11    1    4    4    0    0  0.17324105260E+02  0.32866190192E+02  0.11617303950E+03  0.12196920180E+03  0.00000000000E+00 0. -1.
         11    1    4    4    0    0  0.88168350308E+01 -0.39003331994E+02  0.20101791194E+02  0.44755764945E+02  0.00000000000E+00 0.  1.
         21    1    1    2  503  502 -0.12705420220E+02 -0.27102780190E+02  0.78189416941E+02  0.83723194627E+02  0.00000000000E+00 0.  1.
          1    1    1    2  501    0  0.24027916675E+02  0.53965831829E+02  0.62687359815E+02  0.86135688685E+02  0.00000000000E+00 0. -1.
<scales pt_clust_5="13000.00000" pt_clust_6="13000.00000" pt_clust_7="13000.00000" pt_clust_8="13000.00000" pt_clust_9="29.93307" pt_clust_10="56.54509"></scales>
<clustering>
<clus scale="   29.933">  1  9  2 -1</clus>
<clus scale="   56.545">  2 10  1 -1</clus>
<clus scale="   80.694">  5  6 -1 -1</clus>
<clus scale="   92.225">  7  8 -1 -1</clus>
<clus scale="   94.180">  1  5  2 -1</clus>
<clus scale="   56.545">  2  5  1 -1</clus>
</clustering>
</event>
<event>
10    4  0.3403565E-005  0.3275475E+03  0.7546771E-02  0.1100980E+00
         21   -1    0    0  501  502  0.00000000000E+00  0.00000000000E+00  0.25886445514E+03  0.25886445514E+03  0.00000000000E+00 0. -1.
          2   -1    0    0  503    0 -0.00000000000E+00 -0.00000000000E+00 -0.10285483451E+04  0.10285483451E+04  0.00000000000E+00 0. -1.
         24    2    1    2    0    0  0.12670576772E+03  0.30290370887E+02 -0.20413343023E+03  0.25475066061E+03  0.79092247397E+02 0.  0.
         23    2    1    2    0    0 -0.84192889087E+02 -0.12372146287E+03 -0.28070078655E+02  0.17815141740E+03  0.92490838786E+02 0.  0.
        -11    1    3    3    0    0  0.28646693459E+02  0.24205839001E+02 -0.11893129921E+03  0.12470448917E+03  0.00000000000E+00 0.  1.
         12    1    3    3    0    0  0.98059074266E+02  0.60845318861E+01 -0.85202131021E+02  0.13004617143E+03  0.00000000000E+00 0. -1.
        -11    1    4    4    0    0 -0.44717608465E+02 -0.92631917309E+02 -0.59551699894E+02  0.11885596986E+03  0.00000000000E+00 0. -1.
         11    1    4    4    0    0 -0.39475280622E+02 -0.31089545560E+02  0.31481621239E+02  0.59295447542E+02  0.00000000000E+00 0.  1.
         21    1    1    2  503  502 -0.11274546505E+03 -0.26530890844E+03 -0.31306855498E+03  0.42557288084E+03  0.00000000000E+00 0. -1.
          1    1    1    2  501    0  0.70232586411E+02  0.35874000042E+03 -0.22441182611E+03  0.42893784141E+03  0.00000000000E+00 0. -1.
<scales pt_clust_5="13000.00000" pt_clust_6="13000.00000" pt_clust_7="13000.00000" pt_clust_8="13000.00000" pt_clust_9="327.54749" pt_clust_10="13000.00000"></scales>
<clustering>
<clus scale="   79.092">  5  6 -1 -1</clus>
<clus scale="   92.491">  7  8 -1 -1</clus>
<clus scale="  152.406">  2  5  1 -1</clus>
<clus scale="  165.869">  2  7  1 -1</clus>
<clus scale="  327.547">  2  9  1 -1</clus>
<clus scale="  327.547">  1  5  2 -1</clus>
</clustering>
</event>
<event>
10    4  0.3403565E-005  0.2744160E+03  0.7546771E-02  0.1099178E+00
          2   -1    0    0  503    0 -0.00000000000E+00  0.00000000000E+00  0.21832496266E+04  0.21832496266E+04  0.00000000000E+00 0. -1.
         21   -1    0    0  501  502  0.00000000000E+00 -0.00000000000E+00 -0.57197465573E+02  0.57197465573E+02  0.00000000000E+00 0. -1.
         24    2    1    2    0    0 -0.12895816456E+03  0.21414489960E+03  0.11945173123E+04  0.12230673576E+04  0.80832577688E+02 0.  0.
         23    2    1    2    0    0  0.20219975262E+03 -0.20634958474E+03  0.57884430469E+03  0.65315151861E+03  0.89895973862E+02 0.  0.
        -11    1    3    3    0    0 -0.25013008768E+02  0.39548180292E+00  0.11838050588E+03  0.12099483951E+03  0.00000000000E+00 0.  1.
         12    1    3    3    0    0 -0.10394515579E+03  0.21374941780E+03  0.10761368064E+04  0.11020725181E+04  0.00000000000E+00 0. -1.
        -13    1    4    4    0    0 -0.12952131939E+00 -0.38742116416E+02  0.94543771509E+02  0.10217383761E+03  0.00000000000E+00 0.  1.
         13    1    4    4    0    0  0.20232927394E+03 -0.16760746832E+03  0.48430053318E+03  0.55097768100E+03  0.00000000000E+00 0. -1.
         21    1    1    2  503  502 -0.32051268278E+02  0.10218272729E+01  0.55749996586E+02  0.64314773175E+02  0.00000000000E+00 0. -1.
          1    1    1    2  501    0 -0.41190319781E+02 -0.88171421396E+01  0.29694054748E+03  0.29991344280E+03  0.00000000000E+00 0. -1.
<scales pt_clust_5="13000.00000" pt_clust_6="13000.00000" pt_clust_7="13000.00000" pt_clust_8="13000.00000" pt_clust_9="32.06755" pt_clust_10="42.99841"></scales>
<clustering>
<clus scale="   32.068">  2  9  1 -1</clus>
<clus scale="   42.998">  2 10  1 -1</clus>
<clus scale="   80.833">  5  6 -1 -1</clus>
<clus scale="   89.896">  7  8 -1 -1</clus>
<clus scale="  271.582">  1  5  2 -1</clus>
<clus scale="   32.068">  2  5  1 -1</clus>
</clustering>
</event>
<event>
10    4  0.3403565E-005  0.1733066E+03  0.7546771E-02  0.1193919E+00
          2   -1    0    0  502    0 -0.00000000000E+00  0.00000000000E+00  0.72334087773E+03  0.72334087773E+03  0.00000000000E+00 0. -1.
         21   -1    0    0  503  502  0.00000000000E+00 -0.00000000000E+00 -0.12997497522E+04  0.12997497522E+04  0.00000000000E+00 0.  1.
         24    2    1    2    0    0 -0.61430272904E+02 -0.21442067539E+02 -0.44690677875E+03  0.45897853954E+03  0.81866905263E+02 0.  0.
         23    2    1    2    0    0 -0.13142310917E+03 -0.60758635793E+02  0.64259684479E+02  0.18244870049E+03  0.90523896365E+02 0.  0.
        -11    1    3    3    0    0 -0.74899224813E+02 -0.11524818408E+01 -0.38920586455E+03  0.39634887043E+03  0.00000000000E+00 0.  1.
         12    1    3    3    0    0  0.13468951910E+02 -0.20289585698E+02 -0.57700914204E+02  0.62629669114E+02  0.00000000000E+00 0. -1.
        -13    1    4    4    0    0 -0.68103895429E+01  0.19638026795E+02  0.16851618240E+02  0.26758373259E+02  0.00000000000E+00 0.  1.
         13    1    4    4    0    0 -0.12461271963E+03 -0.80396662588E+02  0.47408066239E+02  0.15569032723E+03  0.00000000000E+00 0. -1.
         21    1    1    2  503  501  0.70496276890E+02 -0.64391673303E+02 -0.76933835025E+03  0.77524029166E+03  0.00000000000E+00 0.  1.
          1    1    1    2  501    0  0.12235710518E+03  0.14659237663E+03  0.57557657005E+03  0.60642309823E+03  0.00000000000E+00 0. -1.
<scales pt_clust_5="13000.00000" pt_clust_6="13000.00000" pt_clust_7="13000.00000" pt_clust_8="13000.00000" pt_clust_9="95.47781" pt_clust_10="147.78568"></scales>
<clustering>
<clus scale="   81.867">  5  6 -1 -1</clus>
<clus scale="   90.524">  7  8 -1 -1</clus>
<clus scale="   95.478">  2  9  1 -1</clus>
<clus scale="  112.212">  1  5  2 -1</clus>
<clus scale="  147.786">  2 10  1 -1</clus>
<clus scale="   95.478">  2  5  1 -1</clus>
</clustering>
</event>
<event>
10    4  0.3403565E-005  0.1660643E+03  0.7546771E-02  0.1187575E+00
         -1   -1    0    0    0  501 -0.00000000000E+00  0.00000000000E+00  0.64358444792E+03  0.64358444792E+03  0.00000000000E+00 0.  1.
         21   -1    0    0  501  502  0.00000000000E+00 -0.00000000000E+00 -0.11840923786E+03  0.11840923786E+03  0.00000000000E+00 0.  1.
         24    2    1    2    0    0 -0.63287456085E+02  0.11718353601E+03  0.63104730175E+02  0.16743329129E+03  0.79463305080E+02 0.  0.
         23    2    1    2    0    0  0.78394044787E+02  0.89982955180E+02  0.18221538528E+03  0.23488900931E+03  0.87908142852E+02 0.  0.
        -13    1    3    3    0    0 -0.39965369554E+02  0.34278773257E+02 -0.11032735375E+02  0.53795783380E+02  0.00000000000E+00 0.  1.
         14    1    3    3    0    0 -0.23322086532E+02  0.82904762750E+02  0.74137465550E+02  0.11363750791E+03  0.00000000000E+00 0. -1.
        -11    1    4    4    0    0  0.68755637361E+02  0.10759629742E+03  0.16339014176E+03  0.20736595505E+03  0.00000000000E+00 0.  1.
         11    1    4    4    0    0  0.96384074258E+01 -0.17613342236E+02  0.18825243514E+02  0.27523054260E+02  0.00000000000E+00 0. -1.
         21    1    1    2  503  502  0.10745247928E+02 -0.17425436901E+02 -0.11980300038E+00  0.20472434076E+02  0.00000000000E+00 0.  1.
         -2    1    1    2    0  503 -0.25851836630E+02 -0.18974105429E+03  0.27997489761E+03  0.33919895110E+03  0.00000000000E+00 0.  1.
<scales pt_clust_5="13000.00000" pt_clust_6="13000.00000" pt_clust_7="13000.00000" pt_clust_8="13000.00000" pt_clust_9="20.47208" pt_clust_10="140.88840"></scales>
<clustering>
<clus scale="   20.472">  2  9  1 -1</clus>
<clus scale="   79.463">  5  6 -1 -1</clus>
<clus scale="   87.908">  7  8 -1 -1</clus>
<clus scale="  146.706">  1  5  2 -1</clus>
<clus scale="  140.888">  2 10  1 -1</clus>
<clus scale="   20.472">  2  5  1 -1</clus>
</clustering>
</event>
<event>
10    4  0.3403565E-005  0.9974583E+02  0.7546771E-02  0.1285584E+00
         21   -1    0    0  501  502  0.00000000000E+00  0.00000000000E+00  0.50541076855E+02  0.50541076855E+02  0.00000000000E+00 0. -1.
          2   -1    0    0  503    0 -0.00000000000E+00 -0.00000000000E+00 -0.50210374391E+03  0.50210374391E+03  0.00000000000E+00 0. -1.
         24    2    1    2    0    0  0.10559996455E+02  0.28426264593E+02 -0.22982684063E+03  0.24607178819E+03  0.82531098548E+02 0.  0.
         23    2    1    2    0    0  0.11967905037E+02 -0.62563920707E+02 -0.14234905245E+03  0.18102684204E+03  0.91923826507E+02 0.  0.
        -11    1    3    3    0    0 -0.23632756796E+02  0.17175941285E+02 -0.26056947264E+02  0.39146962251E+02  0.00000000000E+00 0.  1.
         12    1    3    3    0    0  0.34192753251E+02  0.11250323308E+02 -0.20376989336E+03  0.20692482594E+03  0.00000000000E+00 0. -1.
        -13    1    4    4    0    0 -0.26357803322E+02 -0.20061986735E+02 -0.66941139991E+01  0.33793908770E+02  0.00000000000E+00 0.  1.
         13    1    4    4    0    0  0.38325708359E+02 -0.42501933972E+02 -0.13565493845E+03  0.14723293327E+03  0.00000000000E+00 0. -1.
         21    1    1    2  503  502 -0.70317961191E+01 -0.29020954603E+02 -0.12853663198E+02  0.32509669643E+02  0.00000000000E+00 0. -1.
          1    1    1    2  501    0 -0.15496105373E+02  0.63158610717E+02 -0.66533110781E+02  0.93036520892E+02  0.00000000000E+00 0. -1.
<scales pt_clust_5="13000.00000" pt_clust_6="13000.00000" pt_clust_7="13000.00000" pt_clust_8="13000.00000" pt_clust_9="29.86071" pt_clust_10="56.58041"></scales>
<clustering>
<clus scale="   29.861">  1  9  2 -1</clus>
<clus scale="   56.580">  1 10  2 -1</clus>
<clus scale="   82.531">  5  6 -1 -1</clus>
<clus scale="   91.163">  2  5  1 -1</clus>
<clus scale="   91.924">  7  8 -1 -1</clus>
<clus scale="   29.861">  1  5  2 -1</clus>
</clustering>
</event>
<event>
10    4  0.3403565E-005  0.2149918E+03  0.7546771E-02  0.1173610E+00
         21   -1    0    0  501  502  0.00000000000E+00  0.00000000000E+00  0.23549936336E+03  0.23549936336E+03  0.00000000000E+00 0. -1.
          2   -1    0    0  503    0 -0.00000000000E+00 -0.00000000000E+00 -0.70320289532E+03  0.70320289532E+03  0.00000000000E+00 0. -1.
         23    2    1    2    0    0 -0.39350455463E+01  0.94562924169E+01 -0.11657799029E+03  0.14885944241E+03  0.91998911540E+02 0.  0.
         24    2    1    2    0    0  0.19584995970E+03  0.75052682521E+02 -0.24931793225E+03  0.33588940458E+03  0.81683222860E+02 0.  0.
        -11    1    4    4    0    0  0.23661317394E+02  0.43988484489E+02 -0.60832869595E+02  0.78711388830E+02  0.00000000000E+00 0.  1.
         12    1    4    4    0    0  0.17218864231E+03  0.31064198032E+02 -0.18848506266E+03  0.25717801575E+03  0.00000000000E+00 0. -1.
        -13    1    3    3    0    0 -0.40070759132E+02  0.65566550440E+01 -0.19125351947E+02  0.44882452583E+02  0.00000000000E+00 0. -1.
         13    1    3    3    0    0  0.36135713585E+02  0.28996373728E+01 -0.97452638346E+02  0.10397698983E+03  0.00000000000E+00 0.  1.
         21    1    1    2  503  502 -0.15645366147E+02 -0.13312141954E+02  0.14273739742E+03  0.14420802761E+03  0.00000000000E+00 0. -1.
          1    1    1    2  501    0 -0.17626954801E+03 -0.71196832984E+02 -0.24454500684E+03  0.30974538407E+03  0.00000000000E+00 0. -1.
<scales pt_clust_5="13000.00000" pt_clust_6="13000.00000" pt_clust_7="13000.00000" pt_clust_8="13000.00000" pt_clust_9="20.54241" pt_clust_10="198.87023"></scales>
<clustering>
<clus scale="   20.542">  1  9  2 -1</clus>
<clus scale="   81.683">  5  6 -1 -1</clus>
<clus scale="   91.999">  7  8 -1 -1</clus>
<clus scale="   92.516">  2  7  1 -1</clus>
<clus scale="  198.870">  1 10  2 -1</clus>
<clus scale="   20.542">  1  5  2 -1</clus>
</clustering>
</event>
<event>
10    4  0.3403565E-005  0.1610946E+03  0.7546771E-02  0.1211898E+00
         21   -1    0    0  503  502  0.00000000000E+00  0.00000000000E+00  0.24285170255E+03  0.24285170255E+03  0.00000000000E+00 0.  1.
         -3   -1    0    0    0  501 -0.00000000000E+00 -0.00000000000E+00 -0.27382521034E+03  0.27382521034E+03  0.00000000000E+00 0.  1.
         23    2    1    2    0    0  0.13081540317E+02 -0.19380902232E+02 -0.16294802272E+02  0.94010856904E+02  0.89586687439E+02 0.  0.
         24    2    1    2    0    0 -0.17442337536E+03 -0.71603866650E+02  0.41520436033E+02  0.20423717727E+03  0.66620194987E+02 0.  0.
        -13    1    4    4    0    0 -0.17500796465E+03 -0.70501301907E+02  0.50383851449E+02  0.19528633784E+03  0.00000000000E+00 0.  1.
         14    1    4    4    0    0  0.58458928857E+00 -0.11025647429E+01 -0.88634154156E+01  0.89508394287E+01  0.00000000000E+00 0. -1.
        -11    1    3    3    0    0  0.19746582052E+02  0.33540449575E+02 -0.29846917985E+01  0.39035850772E+02  0.00000000000E+00 0.  1.
         11    1    3    3    0    0 -0.66650417345E+01 -0.52921351806E+02 -0.13310110473E+02  0.54975006131E+02  0.00000000000E+00 0. -1.
         21    1    1    2  503  501  0.61635171126E+02  0.85340631200E+01  0.23451065857E+02  0.66495691913E+02  0.00000000000E+00 0.  1.
         -4    1    1    2    0  502  0.99706663919E+02  0.82450705762E+02 -0.79650207415E+02  0.15193318680E+03  0.00000000000E+00 0.  1.
<scales pt_clust_5="13000.00000" pt_clust_6="13000.00000" pt_clust_7="13000.00000" pt_clust_8="13000.00000" pt_clust_9="62.22318" pt_clust_10="146.67395"></scales>
<clustering>
<clus scale="   62.223">  1  9  2 -1</clus>
<clus scale="   66.620">  5  6 -1 -1</clus>
<clus scale="   89.587">  7  8 -1 -1</clus>
<clus scale="   94.729">  2  7  1 -1</clus>
<clus scale="  146.674">  1 10  2 -1</clus>
<clus scale="   62.223">  1  5  2 -1</clus>
</clustering>
</event>
<event>
10    4  0.3403565E-005  0.1735982E+03  0.7546771E-02  0.1201310E+00
         21   -1    0    0  501  502  0.00000000000E+00  0.00000000000E+00  0.93551351100E+02  0.93551351100E+02  0.00000000000E+00 0. -1.
          2   -1    0    0  503    0 -0.00000000000E+00 -0.00000000000E+00 -0.13457209998E+04  0.13457209998E+04  0.00000000000E+00 0. -1.
         23    2    1    2    0    0 -0.10734674547E+02  0.26416235387E+02 -0.51327886725E+03  0.52200138298E+03  0.90648759191E+02 0.  0.
         24    2    1    2    0    0 -0.97440861269E+02  0.48386837491E+02 -0.22617126461E+03  0.26058620340E+03  0.70112202813E+02 0.  0.
        -13    1    4    4    0    0 -0.96603363035E+02  0.20437460521E+02 -0.19589210763E+03  0.21937095837E+03  0.00000000000E+00 0.  1.
         14    1    4    4    0    0 -0.83749823369E+00  0.27949376971E+02 -0.30279156975E+02  0.41215245037E+02  0.00000000000E+00 0. -1.
        -11    1    3    3    0    0 -0.18855798203E+02  0.58700353335E+02 -0.32275033476E+03  0.32858644402E+03  0.00000000000E+00 0. -1.
         11    1    3    3    0    0  0.81211236557E+01 -0.32284117948E+02 -0.19052853249E+03  0.19341493897E+03  0.00000000000E+00 0.  1.
         21    1    1    2  503  502 -0.34860988838E+02  0.10790239961E+03 -0.24327123735E+02  0.11597424426E+03  0.00000000000E+00 0. -1.
          1    1    1    2  501    0  0.14303652465E+03 -0.18270547248E+03 -0.48839239314E+03  0.54071052027E+03  0.00000000000E+00 0. -1.
<scales pt_clust_5="13000.00000" pt_clust_6="13000.00000" pt_clust_7="13000.00000" pt_clust_8="13000.00000" pt_clust_9="115.80325" pt_clust_10="158.81001"></scales>
<clustering>
<clus scale="   70.112">  5  6 -1 -1</clus>
<clus scale="   90.649">  7  8 -1 -1</clus>
<clus scale="   95.028">  2  7  1 -1</clus>
<clus scale="  115.803">  1  9  2 -1</clus>
<clus scale="  158.810">  1 10  2 -1</clus>
<clus scale="  115.803">  1  5  2 -1</clus>
</clustering>
</event>
<event>
10    4  0.3403565E-005  0.1258443E+03  0.7546771E-02  0.1237662E+00
         21   -1    0    0  503  502  0.00000000000E+00  0.00000000000E+00  0.46519937340E+02  0.46519937340E+02  0.00000000000E+00 0. -1.
          2   -1    0    0  502    0 -0.00000000000E+00 -0.00000000000E+00 -0.62349034312E+03  0.62349034312E+03  0.00000000000E+00 0. -1.
         23    2    1    2    0    0  0.19672075543E+02  0.47459549603E+02 -0.15880937108E+03  0.19144239047E+03  0.93756989715E+02 0.  0.
         24    2    1    2    0    0 -0.81277170519E+02 -0.92932376563E+02 -0.27065228784E+03  0.30813373120E+03  0.80320173860E+02 0.  0.
        -11    1    4    4    0    0  0.26166195975E+01 -0.36872780079E+02 -0.12918701401E+03  0.13437162348E+03  0.00000000000E+00 0.  1.
         12    1    4    4    0    0 -0.83893790116E+02 -0.56059596483E+02 -0.14146527383E+03  0.17376210771E+03  0.00000000000E+00 0. -1.
        -11    1    3    3    0    0  0.47327316581E+02  0.38503635731E+02 -0.50197059289E+02  0.79007275745E+02  0.00000000000E+00 0.  1.
         11    1    3    3    0    0 -0.27655241038E+02  0.89559138722E+01 -0.10861231179E+03  0.11243511473E+03  0.00000000000E+00 0. -1.
         21    1    1    2  503  501  0.33150784971E+02  0.21304438567E+02 -0.38027448114E+02  0.54762582635E+02  0.00000000000E+00 0. -1.
          1    1    1    2  501    0  0.28454310005E+02  0.24168388392E+02 -0.10948129874E+03  0.11567157615E+03  0.00000000000E+00 0. -1.
<scales pt_clust_5="13000.00000" pt_clust_6="13000.00000" pt_clust_7="13000.00000" pt_clust_8="13000.00000" pt_clust_9="36.75573" pt_clust_10="85.37552"></scales>
<clustering>
<clus scale="   36.756">  9 10 -1 -1</clus>
<clus scale="   80.320">  5  6 -1 -1</clus>
<clus scale="   85.376">  1  9  2 -1</clus>
<clus scale="   93.757">  7  8 -1 -1</clus>
<clus scale="  116.180">  1  5  2 -1</clus>
<clus scale="   85.376">  1  5  2 -1</clus>
</clustering>
</event>
<event>
10    4  0.3403565E-005  0.8443522E+03  0.7546771E-02  0.9497949E-01
         21   -1    0    0  501  502  0.00000000000E+00  0.00000000000E+00  0.80981460958E+03  0.80981460958E+03  0.00000000000E+00 0. -1.
         -1   -1    0    0    0  501 -0.00000000000E+00 -0.00000000000E+00 -0.12908931710E+04  0.12908931710E+04  0.00000000000E+00 0.  1.
         24    2    1    2    0    0  0.45042848263E+03 -0.10077679989E+03 -0.36349849220E+03  0.59277683288E+03  0.78812679176E+02 0.  0.
         23    2    1    2    0    0  0.33029450717E+03  0.24782456417E+02 -0.11354631571E+03  0.36160644846E+03  0.90320685035E+02 0.  0.
        -11    1    3    3    0    0  0.50285860063E+02 -0.38396618362E+02 -0.49080064510E+02  0.80073845644E+02  0.00000000000E+00 0.  1.
         12    1    3    3    0    0  0.40014262257E+03 -0.62380181524E+02 -0.31441842769E+03  0.51270298723E+03  0.00000000000E+00 0. -1.
        -11    1    4    4    0    0  0.22894743586E+03  0.49911949124E+02 -0.50735802205E+02  0.23975456758E+03  0.00000000000E+00 0.  1.
         11    1    4    4    0    0  0.10134707131E+03 -0.25129492707E+02 -0.62810513501E+02  0.12185188088E+03  0.00000000000E+00 0. -1.
         21    1    1    2  503  502  0.41768730007E+02 -0.41848243505E+01  0.27187105688E+03  0.27509273187E+03  0.00000000000E+00 0. -1.
         -2    1    1    2    0  503 -0.82249171981E+03  0.80179167820E+02 -0.27590481041E+03  0.87123176739E+03  0.00000000000E+00 0.  1.
<scales pt_clust_5="13000.00000" pt_clust_6="13000.00000" pt_clust_7="13000.00000" pt_clust_8="13000.00000" pt_clust_9="41.97785" pt_clust_10="803.09302"></scales>
<clustering>
<clus scale="   41.978">  1  9  2 -1</clus>
<clus scale="   78.813">  5  6 -1 -1</clus>
<clus scale="   90.321">  7  8 -1 -1</clus>
<clus scale="  188.202">  5  7 -1 -1</clus>
<clus scale="  803.093">  1 10  2 -1</clus>
<clus scale="   41.978">  1  5  2 -1</clus>
</clustering>
</event>
<event>
10    4  0.3403565E-005  0.2138742E+03  0.7546771E-02  0.1173214E+00
         21   -1    0    0  501  502  0.00000000000E+00  0.00000000000E+00  0.32642298921E+03  0.32642298921E+03  0.00000000000E+00 0. -1.
          2   -1    0    0  503    0 -0.00000000000E+00 -0.00000000000E+00 -0.40340066924E+03  0.40340066924E+03  0.00000000000E+00 0. -1.
         23    2    1    2    0    0  0.12497829043E+02  0.22960675668E+02 -0.18726502263E+03  0.20958316101E+03  0.90407545696E+02 0.  0.
         24    2    1    2    0    0 -0.46297151387E+02  0.15548258207E+03  0.56161061241E+02  0.18936943986E+03  0.79927844963E+02 0.  0.
        -13    1    4    4    0    0  0.16365718316E+02  0.75698831411E+02  0.10641425295E+02  0.78175378127E+02  0.00000000000E+00 0.  1.
         14    1    4    4    0    0 -0.62662869702E+02  0.79783750659E+02  0.45519635946E+02  0.11119406174E+03  0.00000000000E+00 0. -1.
        -11    1    3    3    0    0  0.14509585800E+02 -0.16141405295E+02 -0.38592714274E+01  0.22044659692E+02  0.00000000000E+00 0. -1.
         11    1    3    3    0    0 -0.20117567569E+01  0.39102080963E+02 -0.18340575120E+03  0.18753850131E+03  0.00000000000E+00 0.  1.
         21    1    1    2  503  502  0.92686360898E+01  0.54836483023E+02  0.77229505853E+02  0.95170079645E+02  0.00000000000E+00 0.  1.
          1    1    1    2  501    0  0.24530686254E+02 -0.23327974076E+03 -0.23103224503E+02  0.23570097794E+03  0.00000000000E+00 0. -1.
<scales pt_clust_5="13000.00000" pt_clust_6="13000.00000" pt_clust_7="13000.00000" pt_clust_8="13000.00000" pt_clust_9="55.61427" pt_clust_10="198.37786"></scales>
<clustering>
<clus scale="   55.614">  1  9  2 -1</clus>
<clus scale="   79.928">  5  6 -1 -1</clus>
<clus scale="   90.408">  7  8 -1 -1</clus>
<clus scale="   94.823">  2  7  1 -1</clus>
<clus scale="  198.378">  1 10  2 -1</clus>
<clus scale="   55.614">  1  5  2 -1</clus>
</clustering>
</event>
<event>
10    4  0.3403565E-005  0.2166098E+03  0.7546771E-02  0.1175875E+00
         21   -1    0    0  501  502  0.00000000000E+00  0.00000000000E+00  0.98782090200E+02  0.98782090200E+02  0.00000000000E+00 0. -1.
          2   -1    0    0  503    0 -0.00000000000E+00 -0.00000000000E+00 -0.10144247876E+04  0.10144247876E+04  0.00000000000E+00 0. -1.
         24    2    1    2    0    0  0.11537220446E+01  0.21341851959E+02 -0.23978859869E+03  0.25453893195E+03  0.82672184555E+02 0.  0.
         23    2    1    2    0    0 -0.18798015852E+03 -0.80989114003E+02 -0.57506305878E+03  0.61806267520E+03  0.96995733466E+02 0.  0.
        -13    1    3    3    0    0  0.36971672474E+02  0.15479799378E+02 -0.67791543822E+02  0.78754188258E+02  0.00000000000E+00 0.  1.
         14    1    3    3    0    0 -0.35817950429E+02  0.58620525816E+01 -0.17199705487E+03  0.17578474369E+03  0.00000000000E+00 0. -1.
        -13    1    4    4    0    0 -0.61071525782E+02 -0.18558534541E+02 -0.32100843540E+03  0.32729278340E+03  0.00000000000E+00 0.  1.
         13    1    4    4    0    0 -0.12690863274E+03 -0.62430579462E+02 -0.25405462338E+03  0.29076989180E+03  0.00000000000E+00 0. -1.
         21    1    1    2  503  502  0.62666031119E+01  0.22178505748E+02  0.10384317089E+02  0.25278260881E+02  0.00000000000E+00 0. -1.
          1    1    1    2  501    0  0.18055983336E+03  0.37468756296E+02 -0.11117535699E+03  0.21532700974E+03  0.00000000000E+00 0. -1.
<scales pt_clust_5="13000.00000" pt_clust_6="13000.00000" pt_clust_7="13000.00000" pt_clust_8="13000.00000" pt_clust_9="23.04683" pt_clust_10="193.67923"></scales>
<clustering>
<clus scale="   23.047">  1  9  2 -1</clus>
<clus scale="   82.672">  5  6 -1 -1</clus>
<clus scale="   85.927">  2  5  1 -1</clus>
<clus scale="   96.996">  7  8 -1 -1</clus>
<clus scale="  193.679">  1 10  2 -1</clus>
<clus scale="   23.047">  1  5  2 -1</clus>
</clustering>
</event>
<event>
10    4  0.3403565E-005  0.1546817E+03  0.7546771E-02  0.1210495E+00
          2   -1    0    0  503    0 -0.00000000000E+00  0.00000000000E+00  0.16959663552E+03  0.16959663552E+03  0.00000000000E+00 0. -1.
         21   -1    0    0  501  502  0.00000000000E+00 -0.00000000000E+00 -0.68765931447E+03  0.68765931447E+03  0.00000000000E+00 0. -1.
         23    2    1    2    0    0  0.49161045151E+02 -0.30001027141E+02 -0.20610600904E+02  0.10989946176E+03  0.91302928959E+02 0.  0.
         24    2    1    2    0    0 -0.67374508164E+02  0.15865234166E+03 -0.56003537028E+02  0.19800246097E+03  0.79741385284E+02 0.  0.
        -13    1    4    4    0    0 -0.21146375519E+02 -0.11172003163E+01  0.32830080317E+01  0.21428846816E+02  0.00000000000E+00 0.  1.
         14    1    4    4    0    0 -0.46228132645E+02  0.15976954197E+03 -0.59286545060E+02  0.17657361416E+03  0.00000000000E+00 0. -1.
        -11    1    3    3    0    0  0.21353924828E+01 -0.45466150622E+02 -0.36029444681E+02  0.58050423233E+02  0.00000000000E+00 0. -1.
         11    1    3    3    0    0  0.47025652668E+02  0.15465123481E+02  0.15418843777E+02  0.51849038531E+02  0.00000000000E+00 0.  1.
         21    1    1    2  503  502 -0.33298970767E+01 -0.81644458877E+02 -0.47870046957E+03  0.48562438720E+03  0.00000000000E+00 0. -1.
          1    1    1    2  501    0  0.21543360089E+02 -0.47006855641E+02  0.37251928545E+02  0.63729640055E+02  0.00000000000E+00 0. -1.
<scales pt_clust_5="13000.00000" pt_clust_6="13000.00000" pt_clust_7="13000.00000" pt_clust_8="13000.00000" pt_clust_9="132.54340" pt_clust_10="51.70845"></scales>
<clustering>
<clus scale="   51.708">  2 10  1 -1</clus>
<clus scale="   79.741">  5  6 -1 -1</clus>
<clus scale="   91.303">  7  8 -1 -1</clus>
<clus scale="  110.254">  1  7  2 -1</clus>
<clus scale="  132.543">  2  9  1 -1</clus>
<clus scale="   51.708">  2  5  1 -1</clus>
</clustering>
</event>
<event>
10    4  0.3403565E-005  0.1242355E+03  0.7546771E-02  0.1250918E+00
         -3   -1    0    0    0  501 -0.00000000000E+00  0.00000000000E+00  0.63659616224E+02  0.63659616224E+02  0.00000000000E+00 0.  1.
         21   -1    0    0  501  502  0.00000000000E+00 -0.00000000000E+00 -0.52926073016E+03  0.52926073016E+03  0.00000000000E+00 0.  1.
         24    2    1    2    0    0 -0.15752869498E+02  0.57203191506E+02 -0.16218920009E+03  0.19044925979E+03  0.80282164335E+02 0.  0.
         23    2    1    2    0    0  0.50724930209E+02  0.54392685642E+02 -0.76477842572E+02  0.14061559035E+03  0.91609503044E+02 0.  0.
        -11    1    3    3    0    0 -0.16890107229E+02  0.74172817312E+02 -0.15357812340E+03  0.17138588780E+03  0.00000000000E+00 0.  1.
         12    1    3    3    0    0  0.11372377317E+01 -0.16969625806E+02 -0.86110766944E+01  0.19063371986E+02  0.00000000000E+00 0. -1.
        -11    1    4    4    0    0  0.31732489765E+02  0.63623343675E+02 -0.11158889271E+02  0.71968059421E+02  0.00000000000E+00 0.  1.
         11    1    4    4    0    0  0.18992440444E+02 -0.92306580329E+01 -0.65318953302E+02  0.68647530925E+02  0.00000000000E+00 0. -1.
         21    1    1    2  503  502  0.19819390790E+01 -0.32333191437E+02 -0.11687426651E+03  0.12128049111E+03  0.00000000000E+00 0.  1.
         -4    1    1    2    0  503 -0.36953999791E+02 -0.79262685711E+02 -0.11005980475E+03  0.14057500513E+03  0.00000000000E+00 0.  1.
<scales pt_clust_5="13000.00000" pt_clust_6="13000.00000" pt_clust_7="13000.00000" pt_clust_8="13000.00000" pt_clust_9="32.39388" pt_clust_10="83.91756"></scales>
<clustering>
<clus scale="   32.394">  2  9  1 -1</clus>
<clus scale="   80.282">  5  6 -1 -1</clus>
<clus scale="   91.610">  7  8 -1 -1</clus>
<clus scale="   92.426">  1  5  2 -1</clus>
<clus scale="   83.918">  2 10  1 -1</clus>
<clus scale="   32.394">  2  5  1 -1</clus>
</clustering>
</event>
<event>
10    4  0.3403565E-005  0.1477719E+03  0.7546771E-02  0.1221928E+00
         21   -1    0    0  503  502  0.00000000000E+00  0.00000000000E+00  0.62501651152E+02  0.62501651152E+02  0.00000000000E+00 0. -1.
          2   -1    0    0  502    0 -0.00000000000E+00 -0.00000000000E+00 -0.84953079694E+03  0.84953079694E+03  0.00000000000E+00 0. -1.
         24    2    1    2    0    0  0.48263138719E+01 -0.59607945388E+02 -0.46482777436E+03  0.47531884521E+03  0.79288992516E+02 0.  0.
         23    2    1    2    0    0 -0.11474318638E+03  0.49743414353E+02 -0.98961816512E+02  0.18372604382E+03  0.91221773489E+02 0.  0.
        -11    1    3    3    0    0  0.15262934737E+02  0.16345044662E+02 -0.90674160566E+02  0.93391225798E+02  0.00000000000E+00 0.  1.
         12    1    3    3    0    0 -0.10436620865E+02 -0.75952990050E+02 -0.37415361379E+03  0.38192761941E+03  0.00000000000E+00 0. -1.
        -13    1    4    4    0    0 -0.10239103810E+03  0.26149794274E+02 -0.11207541280E+03  0.15404101589E+03  0.00000000000E+00 0.  1.
         13    1    4    4    0    0 -0.12352148285E+02  0.23593620079E+02  0.13113596285E+02  0.29685027931E+02  0.00000000000E+00 0. -1.
         21    1    1    2  503  501  0.23760504431E+02 -0.68093543468E+00 -0.16990936810E+02  0.29218439000E+02  0.00000000000E+00 0. -1.
          1    1    1    2  501    0  0.86156368078E+02  0.10545466469E+02 -0.20624861811E+03  0.22376912006E+03  0.00000000000E+00 0. -1.
<scales pt_clust_5="13000.00000" pt_clust_6="13000.00000" pt_clust_7="13000.00000" pt_clust_8="13000.00000" pt_clust_9="23.33150" pt_clust_10="124.51073"></scales>
<clustering>
<clus scale="   23.332">  9 10 -1 -1</clus>
<clus scale="   79.289">  5  6 -1 -1</clus>
<clus scale="   91.222">  7  8 -1 -1</clus>
<clus scale="   99.313">  2  5  1 -1</clus>
<clus scale="  124.511">  1  9  2 -1</clus>
<clus scale="  124.511">  1  5  2 -1</clus>
</clustering>
</event>
<event>
10    4  0.3403565E-005  0.9270967E+02  0.7546771E-02  0.1302479E+00
         21   -1    0    0  503  502  0.00000000000E+00  0.00000000000E+00  0.28017590550E+03  0.28017590550E+03  0.00000000000E+00 0. -1.
          2   -1    0    0  502    0 -0.00000000000E+00 -0.00000000000E+00 -0.10069400887E+03  0.10069400887E+03  0.00000000000E+00 0. -1.
         23    2    1    2    0    0  0.62737578227E+01 -0.32984131990E+02  0.56668082230E+02  0.11245473669E+03  0.91145396259E+02 0.  0.
         24    2    1    2    0    0 -0.87957558767E+01 -0.68991097235E+02  0.64020392726E+02  0.12458322564E+03  0.81149446128E+02 0.  0.
        -11    1    4    4    0    0 -0.43897322250E+02 -0.40541668442E+02  0.47994262349E+02  0.76642357736E+02  0.00000000000E+00 0.  1.
         12    1    4    4    0    0  0.35101566374E+02 -0.28449428793E+02  0.16026130377E+02  0.47940867904E+02  0.00000000000E+00 0. -1.
        -13    1    3    3    0    0  0.92031897410E+01  0.31292767731E+02  0.15941756464E+02  0.36305311083E+02  0.00000000000E+00 0.  1.
         13    1    3    3    0    0 -0.29294319183E+01 -0.64276899722E+02  0.40726325766E+02  0.76149425603E+02  0.00000000000E+00 0. -1.
         21    1    1    2  503  501 -0.11129887435E+02  0.17203007353E+02  0.54087824609E+02  0.57838660317E+02  0.00000000000E+00 0. -1.
          1    1    1    2  501    0  0.13651885489E+02  0.84772221872E+02  0.47055970614E+01  0.85993291728E+02  0.00000000000E+00 0. -1.
<scales pt_clust_5="13000.00000" pt_clust_6="13000.00000" pt_clust_7="13000.00000" pt_clust_8="13000.00000" pt_clust_9="20.48946" pt_clust_10="88.98511"></scales>
<clustering>
<clus scale="   20.489">  1  9  2 -1</clus>
<clus scale="   81.149">  5  6 -1 -1</clus>
<clus scale="   88.985">  1 10  2 -1</clus>
<clus scale="   82.903">  1  5  2 -1</clus>
<clus scale="   91.145">  7  8 -1 -1</clus>
<clus scale="   20.489">  1  5  2 -1</clus>
</clustering>
</event>
<event>
10    4  0.3403565E-005  0.1177902E+03  0.7546771E-02  0.1251533E+00
         21   -1    0    0  501  502  0.00000000000E+00  0.00000000000E+00  0.23102232008E+03  0.23102232008E+03  0.00000000000E+00 0. -1.
          4   -1    0    0  503    0 -0.00000000000E+00 -0.00000000000E+00 -0.21210352069E+03  0.21210352069E+03  0.00000000000E+00 0. -1.
         24    2    1    2    0    0  0.43820275367E+01  0.60913179311E+02 -0.10814024875E+03  0.14782116362E+03  0.80169604193E+02 0.  0.
         23    2    1    2    0    0 -0.29898456415E+02 -0.11602644785E+03  0.32735708962E+02  0.15573819430E+03  0.93950541382E+02 0.  0.
        -11    1    3    3    0    0  0.24408315228E+02 -0.85026291634E+01 -0.14789796952E+02  0.29779164676E+02  0.00000000000E+00 0.  1.
         12    1    3    3    0    0 -0.20026287691E+02  0.69415808474E+02 -0.93350451797E+02  0.11804199895E+03  0.00000000000E+00 0. -1.
        -11    1    4    4    0    0  0.18662091506E+02 -0.99085878546E+02  0.21550986204E+02  0.10310543144E+03  0.00000000000E+00 0.  1.
         11    1    4    4    0    0 -0.48560547920E+02 -0.16940569301E+02  0.11184722759E+02  0.52632762855E+02  0.00000000000E+00 0. -1.
         21    1    1    2  503  502 -0.19068616227E+02  0.32285293173E+02  0.59221706478E+01  0.37960826984E+02  0.00000000000E+00 0. -1.
          3    1    1    2  501    0  0.44585045105E+02  0.22827975363E+02  0.88401168529E+02  0.10160565586E+03  0.00000000000E+00 0. -1.
<scales pt_clust_5="13000.00000" pt_clust_6="13000.00000" pt_clust_7="13000.00000" pt_clust_8="13000.00000" pt_clust_9="37.49603" pt_clust_10="51.92670"></scales>
<clustering>
<clus scale="   37.496">  1  9  2 -1</clus>
<clus scale="   51.927">  1 10  2 -1</clus>
<clus scale="   80.170">  5  6 -1 -1</clus>
<clus scale="   93.951">  7  8 -1 -1</clus>
<clus scale="  107.121">  2  5  1 -1</clus>
<clus scale="   37.496">  1  5  2 -1</clus>
</clustering>
</event>
<event>
10    4  0.3403565E-005  0.1603757E+03  0.7546771E-02  0.1213606E+00
         21   -1    0    0  501  502  0.00000000000E+00  0.00000000000E+00  0.14146332209E+03  0.14146332209E+03  0.00000000000E+00 0.  1.
          2   -1    0    0  503    0 -0.00000000000E+00 -0.00000000000E+00 -0.11678386835E+04  0.11678386835E+04  0.00000000000E+00 0. -1.
         24    2    1    2    0    0  0.11554458822E+02 -0.30834638089E+02 -0.52860149416E+03  0.53660635308E+03  0.86270262087E+02 0.  0.
         23    2    1    2    0    0 -0.98698784400E+02 -0.66158341785E+02 -0.53584637298E+03  0.55629456524E+03  0.90630743415E+02 0.  0.
        -13    1    3    3    0    0  0.35349201309E+02 -0.50064205853E+02 -0.32645223576E+03  0.33215516400E+03  0.00000000000E+00 0.  1.
         14    1    3    3    0    0 -0.23794742486E+02  0.19229567764E+02 -0.20214925840E+03  0.20445118908E+03  0.00000000000E+00 0. -1.
        -11    1    4    4    0    0 -0.27055861781E+02 -0.58614101263E+02 -0.14298941492E+03  0.15688723754E+03  0.00000000000E+00 0.  1.
         11    1    4    4    0    0 -0.71642922619E+02 -0.75442405222E+01 -0.39285695806E+03  0.39940732770E+03  0.00000000000E+00 0. -1.
         21    1    1    2  503  502  0.10443514848E+03  0.12700616713E+03  0.60420657828E+02  0.17517968666E+03  0.00000000000E+00 0.  1.
          1    1    1    2  501    0 -0.17290822899E+02 -0.30013187260E+02 -0.22348152131E+02  0.41221400627E+02  0.00000000000E+00 0. -1.
<scales pt_clust_5="13000.00000" pt_clust_6="13000.00000" pt_clust_7="13000.00000" pt_clust_8="13000.00000" pt_clust_9="132.31184" pt_clust_10="34.63761"></scales>
<clustering>
<clus scale="   34.638">  1 10  2 -1</clus>
<clus scale="   86.270">  5  6 -1 -1</clus>
<clus scale="   90.631">  7  8 -1 -1</clus>
<clus scale="   92.585">  2  5  1 -1</clus>
<clus scale="  132.312">  1  9  2 -1</clus>
<clus scale="   34.638">  1  5  2 -1</clus>
</clustering>
</event>
<event>
10    4  0.3403565E-005  0.1376134E+03  0.7546771E-02  0.1219510E+00
          2   -1    0    0  502    0 -0.00000000000E+00  0.00000000000E+00  0.45268062530E+03  0.45268062530E+03  0.00000000000E+00 0. -1.
         21   -1    0    0  503  502  0.00000000000E+00 -0.00000000000E+00 -0.15904569009E+03  0.15904569009E+03  0.00000000000E+00 0. -1.
         23    2    1    2    0    0  0.87017993188E+01  0.10827686051E+03  0.27745634044E+03  0.31219776443E+03  0.93197765187E+02 0.  0.
         24    2    1    2    0    0  0.54776828656E+02 -0.86366044171E+02  0.11392848880E+03  0.17298443551E+03  0.80525274446E+02 0.  0.
        -11    1    4    4    0    0  0.19868860711E+02 -0.90581791076E+02  0.67290064902E+02  0.11457654793E+03  0.00000000000E+00 0.  1.
         12    1    4    4    0    0  0.34907967945E+02  0.42157469044E+01  0.46638423898E+02  0.58407887582E+02  0.00000000000E+00 0. -1.
        -13    1    3    3    0    0  0.32283917998E+02  0.19291283869E+02  0.15203796780E+03  0.15662039665E+03  0.00000000000E+00 0. -1.
         13    1    3    3    0    0 -0.23582118679E+02  0.88985576637E+02  0.12541837264E+03  0.15557736778E+03  0.00000000000E+00 0.  1.
         21    1    1    2  503  501 -0.24122966388E+02  0.96509736169E+01 -0.53349254155E+02  0.59339714509E+02  0.00000000000E+00 0. -1.
          1    1    1    2  501    0 -0.39355661587E+02 -0.31561789952E+02 -0.44400639872E+02  0.67204400935E+02  0.00000000000E+00 0. -1.
<scales pt_clust_5="13000.00000" pt_clust_6="13000.00000" pt_clust_7="13000.00000" pt_clust_8="13000.00000" pt_clust_9="25.98189" pt_clust_10="58.69398"></scales>
<clustering>
<clus scale="   25.982">  2  9  1 -1</clus>
<clus scale="   58.694">  2 10  1 -1</clus>
<clus scale="   80.525">  5  6 -1 -1</clus>
<clus scale="   93.198">  7  8 -1 -1</clus>
<clus scale="  129.368">  2  5  1 -1</clus>
<clus scale="   25.982">  2  5  1 -1</clus>
</clustering>
</event>
<event>
10    4  0.3403565E-005  0.1726975E+03  0.7546771E-02  0.1195594E+00
         21   -1    0    0  501  502  0.00000000000E+00  0.00000000000E+00  0.54375639442E+03  0.54375639442E+03  0.00000000000E+00 0. -1.
          2   -1    0    0  503    0 -0.00000000000E+00 -0.00000000000E+00 -0.54545872761E+03  0.54545872761E+03  0.00000000000E+00 0. -1.
         23    2    1    2    0    0 -0.18812752542E+02 -0.56844439655E+02 -0.43724653429E+03  0.45074752955E+03  0.91671116864E+02 0.  0.
         24    2    1    2    0    0 -0.10539241591E+03  0.11487449200E+03  0.38809981152E+02  0.18170116546E+03  0.84884560713E+02 0.  0.
        -13    1    4    4    0    0 -0.66458443801E+02  0.15542060360E+02  0.30291018964E+02  0.74671455206E+02  0.00000000000E+00 0.  1.
         14    1    4    4    0    0 -0.38933972112E+02  0.99332431637E+02  0.85189621876E+01  0.10702971025E+03  0.00000000000E+00 0. -1.
        -13    1    3    3    0    0 -0.32130640227E+02 -0.77856308186E+02 -0.35268477698E+03  0.36260244715E+03  0.00000000000E+00 0. -1.
         13    1    3    3    0    0  0.13317887686E+02  0.21011868531E+02 -0.84561757309E+02  0.88145082397E+02  0.00000000000E+00 0.  1.
         21    1    1    2  503  502 -0.31358335824E+02  0.33397232184E+02  0.86012374970E+02  0.97451777773E+02  0.00000000000E+00 0. -1.
          1    1    1    2  501    0  0.15556350428E+03 -0.91427284526E+02  0.31072184498E+03  0.35931464925E+03  0.00000000000E+00 0. -1.
<scales pt_clust_5="13000.00000" pt_clust_6="13000.00000" pt_clust_7="13000.00000" pt_clust_8="13000.00000" pt_clust_9="45.81179" pt_clust_10="150.39623"></scales>
<clustering>
<clus scale="   45.812">  1  9  2 -1</clus>
<clus scale="   84.885">  5  6 -1 -1</clus>
<clus scale="   91.671">  7  8 -1 -1</clus>
<clus scale="  109.317">  2  7  1 -1</clus>
<clus scale="  150.396">  1 10  2 -1</clus>
<clus scale="   45.812">  1  5  2 -1</clus>
</clustering>
</event>
<event>
10    4  0.3403565E-005  0.9677338E+02  0.7546771E-02  0.1292269E+00
         -1   -1    0    0    0  501 -0.00000000000E+00  0.00000000000E+00  0.87445155408E+03  0.87445155408E+03  0.00000000000E+00 0.  1.
         21   -1    0    0  503  502  0.00000000000E+00 -0.00000000000E+00 -0.52157239127E+02  0.52157239127E+02  0.00000000000E+00 0.  1.
         23    2    1    2    0    0 -0.96912879054E+00  0.47035278233E+02  0.40149384286E+03  0.41429931844E+03  0.90737879614E+02 0.  0.
         24    2    1    2    0    0  0.46982334992E+02  0.27012697491E+02  0.69695382381E+02  0.12007003410E+03  0.81377768069E+02 0.  0.
        -11    1    4    4    0    0  0.48956774342E+02  0.27923541001E+02  0.63833723970E+01  0.56720695863E+02  0.00000000000E+00 0.  1.
         12    1    4    4    0    0 -0.19744393499E+01 -0.91084350933E+00  0.63312009984E+02  0.63349338235E+02  0.00000000000E+00 0. -1.
        -11    1    3    3    0    0  0.53739461408E+01  0.72216388222E+02  0.33856870630E+03  0.34622659475E+03  0.00000000000E+00 0.  1.
         11    1    3    3    0    0 -0.63430749314E+01 -0.25181109989E+02  0.62925136556E+02  0.68072723689E+02  0.00000000000E+00 0. -1.
         21    1    1    2  503  501 -0.22036190475E+02  0.15450758145E+02 -0.21847015475E+01  0.27001713626E+02  0.00000000000E+00 0. -1.
         -2    1    1    2    0  502 -0.23977015726E+02 -0.89498733869E+02  0.35328979126E+03  0.36523772704E+03  0.00000000000E+00 0.  1.
<scales pt_clust_5="13000.00000" pt_clust_6="13000.00000" pt_clust_7="13000.00000" pt_clust_8="13000.00000" pt_clust_9="26.91319" pt_clust_10="91.27689"></scales>
<clustering>
<clus scale="   26.913">  2  9  1 -1</clus>
<clus scale="   81.378">  5  6 -1 -1</clus>
<clus scale="   90.738">  7  8 -1 -1</clus>
<clus scale="   91.277">  2 10  1 -1</clus>
<clus scale="   88.057">  2  5  1 -1</clus>
<clus scale="   26.913">  2  5  1 -1</clus>
</clustering>
</event>
<event>
10    4  0.3403565E-005  0.2824423E+03  0.7546771E-02  0.1133193E+00
          2   -1    0    0  502    0 -0.00000000000E+00  0.00000000000E+00  0.14690705844E+04  0.14690705844E+04  0.00000000000E+00 0. -1.
         21   -1    0    0  503  502  0.00000000000E+00 -0.00000000000E+00 -0.30860173775E+03  0.30860173775E+03  0.00000000000E+00 0.  1.
         24    2    1    2    0    0 -0.53088498101E+02  0.33940636086E+02  0.37181581018E+03  0.38655779411E+03  0.84909222571E+02 0.  0.
         23    2    1    2    0    0 -0.12482749677E+03 -0.10378167200E+03 -0.19703307514E+03  0.27108065059E+03  0.91160007847E+02 0.  0.
        -13    1    3    3    0    0  0.14622398186E+01  0.40693626283E+02  0.81752311409E+02  0.91332085194E+02  0.00000000000E+00 0.  1.
         14    1    3    3    0    0 -0.54550737920E+02 -0.67529901966E+01  0.29006349877E+03  0.29522570892E+03  0.00000000000E+00 0. -1.
        -13    1    4    4    0    0 -0.54928292822E+02  0.37954868741E+01 -0.38716047458E+02  0.67308657718E+02  0.00000000000E+00 0. -1.
         13    1    4    4    0    0 -0.69899203953E+02 -0.10757715888E+03 -0.15831702768E+03  0.20377199288E+03  0.00000000000E+00 0.  1.
         21    1    1    2  503  501 -0.10785215451E+03 -0.45598911932E+02  0.37405134080E+02  0.12292474143E+03  0.00000000000E+00 0.  1.
          1    1    1    2  501    0  0.28576814938E+03  0.11543994785E+03  0.94828097748E+03  0.99710913596E+03  0.00000000000E+00 0. -1.
<scales pt_clust_5="13000.00000" pt_clust_6="13000.00000" pt_clust_7="13000.00000" pt_clust_8="13000.00000" pt_clust_9="119.78084" pt_clust_10="267.32669"></scales>
<clustering>
<clus scale="   84.909">  5  6 -1 -1</clus>
<clus scale="   91.160">  7  8 -1 -1</clus>
<clus scale="  105.735">  1  5  2 -1</clus>
<clus scale="  119.781">  2  9  1 -1</clus>
<clus scale="  267.327">  2 10  1 -1</clus>
<clus scale="  119.781">  2  5  1 -1</clus>
</clustering>
</event>
<event>
10    4  0.3403565E-005  0.1408919E+03  0.7546771E-02  0.1214016E+00
         -1   -1    0    0    0  501 -0.00000000000E+00  0.00000000000E+00  0.47136550606E+03  0.47136550606E+03  0.00000000000E+00 0.  1.
         21   -1    0    0  503  502  0.00000000000E+00 -0.00000000000E+00 -0.14270826135E+03  0.14270826135E+03  0.00000000000E+00 0.  1.
         23    2    1    2    0    0 -0.84858935345E+02  0.52231890148E+02  0.18240636492E+03  0.22603093002E+03  0.88818298261E+02 0.  0.
         24    2    1    2    0    0  0.46401546979E+02 -0.16807476437E+03  0.49422890430E+02  0.19801065324E+03  0.79770713419E+02 0.  0.
        -13    1    4    4    0    0  0.11303961782E+02 -0.14557863680E+03  0.20915261892E+02  0.14750717686E+03  0.00000000000E+00 0.  1.
         14    1    4    4    0    0  0.35097585197E+02 -0.22496127572E+02  0.28507628538E+02  0.50503476387E+02  0.00000000000E+00 0. -1.
        -11    1    3    3    0    0 -0.14397055021E+02 -0.19640317301E+02  0.74912655355E+02  0.78771334820E+02  0.00000000000E+00 0. -1.
         11    1    3    3    0    0 -0.70461880324E+02  0.71872207449E+02  0.10749370957E+03  0.14725959520E+03  0.00000000000E+00 0.  1.
         21    1    1    2  503  501  0.47234178887E+00  0.67622719069E+02 -0.84653707191E+01  0.68152166088E+02  0.00000000000E+00 0.  1.
         -2    1    1    2    0  502  0.37985046578E+02  0.48220155152E+02  0.10529336008E+03  0.12188001806E+03  0.00000000000E+00 0.  1.
<scales pt_clust_5="13000.00000" pt_clust_6="13000.00000" pt_clust_7="13000.00000" pt_clust_8="13000.00000" pt_clust_9="82.14632" pt_clust_10="61.38445"></scales>
<clustering>
<clus scale="   61.384">  2 10  1 -1</clus>
<clus scale="   79.771">  5  6 -1 -1</clus>
<clus scale="   82.146">  2  9  1 -1</clus>
<clus scale="   88.818">  7  8 -1 -1</clus>
<clus scale="  135.371">  2  5  1 -1</clus>
<clus scale="   61.384">  2  5  1 -1</clus>
</clustering>
</event>
<event>
10    4  0.3403565E-005  0.2389152E+03  0.7546771E-02  0.1155211E+00
         21   -1    0    0  501  502  0.00000000000E+00  0.00000000000E+00  0.49568947525E+03  0.49568947525E+03  0.00000000000E+00 0. -1.
          2   -1    0    0  503    0 -0.00000000000E+00 -0.00000000000E+00 -0.49344524085E+03  0.49344524085E+03  0.00000000000E+00 0. -1.
         24    2    1    2    0    0 -0.55780300306E+02  0.12610030305E+02 -0.11387679711E+03  0.15328220466E+03  0.85188347673E+02 0.  0.
         23    2    1    2    0    0  0.14016467463E+03 -0.21429718414E+03 -0.66697081931E+02  0.28022168692E+03  0.92229463505E+02 0.  0.
        -13    1    3    3    0    0 -0.41165649314E+02 -0.30172423452E+02 -0.33462713971E+02  0.61030640229E+02  0.00000000000E+00 0.  1.
         14    1    3    3    0    0 -0.14614650992E+02  0.42782453757E+02 -0.80414083141E+02  0.92251564434E+02  0.00000000000E+00 0. -1.
        -13    1    4    4    0    0  0.28597990133E+02 -0.97965636754E+01  0.14493652260E+02  0.33524374048E+02  0.00000000000E+00 0.  1.
         13    1    4    4    0    0  0.11156668449E+03 -0.20450062046E+03 -0.81190734192E+02  0.24669731287E+03  0.00000000000E+00 0. -1.
         21    1    1    2  503  502 -0.76699013716E+02  0.13818507719E+03  0.34598555850E+03  0.38037331788E+03  0.00000000000E+00 0. -1.
          1    1    1    2  501    0 -0.76853606039E+01  0.63502076644E+02 -0.16316744506E+03  0.17525750664E+03  0.00000000000E+00 0. -1.
<scales pt_clust_5="13000.00000" pt_clust_6="13000.00000" pt_clust_7="13000.00000" pt_clust_8="13000.00000" pt_clust_9="220.39551" pt_clust_10="63.96548"></scales>
<clustering>
<clus scale="   63.965">  1 10  2 -1</clus>
<clus scale="   85.188">  5  6 -1 -1</clus>
<clus scale="   92.229">  7  8 -1 -1</clus>
<clus scale="  103.117">  2  5  1 -1</clus>
<clus scale="  220.396">  1  9  2 -1</clus>
<clus scale="   63.965">  1  5  2 -1</clus>
</clustering>
</event>
<event>
10    4  0.3403565E-005  0.2255836E+03  0.7546771E-02  0.1169702E+00
          2   -1    0    0  503    0 -0.00000000000E+00  0.00000000000E+00  0.45470699074E+03  0.45470699074E+03  0.00000000000E+00 0. -1.
         21   -1    0    0  501  502  0.00000000000E+00 -0.00000000000E+00 -0.16940608085E+03  0.16940608085E+03  0.00000000000E+00 0. -1.
         24    2    1    2    0    0 -0.18106080379E+02  0.27677479159E+02  0.30581753108E+02  0.91223749398E+02  0.79326261930E+02 0.  0.
         23    2    1    2    0    0 -0.19606170576E+03 -0.48188736127E+01  0.79643757118E+02  0.23068567030E+03  0.91702434133E+02 0.  0.
        -13    1    3    3    0    0 -0.18952141113E+02  0.46324008616E+02  0.45258377236E+02  0.67479019976E+02  0.00000000000E+00 0.  1.
         14    1    3    3    0    0  0.84606073418E+00 -0.18646529456E+02 -0.14676624128E+02  0.23744729422E+02  0.00000000000E+00 0. -1.
        -11    1    4    4    0    0 -0.10023422841E+03  0.33431421426E+02  0.98560432019E+01  0.10612116693E+03  0.00000000000E+00 0. -1.
         11    1    4    4    0    0 -0.95827477346E+02 -0.38250295038E+02  0.69787713916E+02  0.12456450336E+03  0.00000000000E+00 0.  1.
         21    1    1    2  503  502 -0.25204487690E+01  0.23220628944E+02  0.78520734418E+01  0.24641536638E+02  0.00000000000E+00 0. -1.
          1    1    1    2  501    0  0.21668823490E+03 -0.46079234491E+02  0.16722332622E+03  0.27756211526E+03  0.00000000000E+00 0. -1.
<scales pt_clust_5="13000.00000" pt_clust_6="13000.00000" pt_clust_7="13000.00000" pt_clust_8="13000.00000" pt_clust_9="23.35702" pt_clust_10="206.10352"></scales>
<clustering>
<clus scale="   23.357">  2  9  1 -1</clus>
<clus scale="   79.326">  5  6 -1 -1</clus>
<clus scale="   87.551">  1  5  2 -1</clus>
<clus scale="   91.702">  7  8 -1 -1</clus>
<clus scale="  206.104">  2 10  1 -1</clus>
<clus scale="   23.357">  2  5  1 -1</clus>
</clustering>
</event>
<event>
10    4  0.3403565E-005  0.1330168E+03  0.7546771E-02  0.1233633E+00
          2   -1    0    0  502    0 -0.00000000000E+00  0.00000000000E+00  0.13423664879E+04  0.13423664879E+04  0.00000000000E+00 0. -1.
         21   -1    0    0  503  502  0.00000000000E+00 -0.00000000000E+00 -0.45194374546E+02  0.45194374546E+02  0.00000000000E+00 0. -1.
         23    2    1    2    0    0  0.21524866191E+02 -0.58910909796E+02  0.21801878477E+03  0.24431999372E+03  0.90698697146E+02 0.  0.
         24    2    1    2    0    0 -0.83526072750E+02 -0.32952492231E+02  0.94560581853E+03  0.95329992389E+03  0.80919152800E+02 0.  0.
        -11    1    4    4    0    0 -0.49081721047E+02  0.18818375984E+02  0.28775612823E+03  0.29251792415E+03  0.00000000000E+00 0.  1.
         12    1    4    4    0    0 -0.34444351704E+02 -0.51770868215E+02  0.65784969030E+03  0.66078199974E+03  0.00000000000E+00 0. -1.
        -11    1    3    3    0    0  0.46247176499E+02 -0.64655759737E+02  0.19277890023E+03  0.20852547320E+03  0.00000000000E+00 0.  1.
         11    1    3    3    0    0 -0.24722310307E+02  0.57448499415E+01  0.25239884542E+02  0.35794520523E+02  0.00000000000E+00 0. -1.
         21    1    1    2  503  501 -0.16169571005E+02  0.15821399616E+02  0.41356737207E+02  0.47139701152E+02  0.00000000000E+00 0.  1.
          1    1    1    2  501    0  0.78170777564E+02  0.76042002410E+02  0.92190772844E+02  0.14280124367E+03  0.00000000000E+00 0. -1.
<scales pt_clust_5="13000.00000" pt_clust_6="13000.00000" pt_clust_7="13000.00000" pt_clust_8="13000.00000" pt_clust_9="22.62237" pt_clust_10="105.57248"></scales>
<clustering>
<clus scale="   22.622">  2  9  1 -1</clus>
<clus scale="   80.919">  5  6 -1 -1</clus>
<clus scale="   90.699">  7  8 -1 -1</clus>
<clus scale="  106.835">  1  7  2 -1</clus>
<clus scale="  105.572">  2 10  1 -1</clus>
<clus scale="   22.622">  2  5  1 -1</clus>
</clustering>
</event>
<event>
10    4  0.3403565E-005  0.1075013E+03  0.7546771E-02  0.1270863E+00
          2   -1    0    0  502    0 -0.00000000000E+00  0.00000000000E+00  0.67964444169E+03  0.67964444169E+03  0.00000000000E+00 0. -1.
         21   -1    0    0  503  502  0.00000000000E+00 -0.00000000000E+00 -0.73020761926E+02  0.73020761926E+02  0.00000000000E+00 0.  1.
         23    2    1    2    0    0 -0.27994488782E+02  0.35975254402E+02  0.94667035747E+02  0.14041485726E+03  0.93148130148E+02 0.  0.
         24    2    1    2    0    0  0.88961690288E+02  0.20421676721E+02  0.67827800831E+02  0.13911668368E+03  0.80134972983E+02 0.  0.
        -13    1    4    4    0    0  0.30338632483E+02 -0.10262423217E+02 -0.13081933817E+02  0.34596053874E+02  0.00000000000E+00 0.  1.
         14    1    4    4    0    0  0.58623057804E+02  0.30684099938E+02  0.80909734648E+02  0.10452062981E+03  0.00000000000E+00 0. -1.
        -13    1    3    3    0    0 -0.49116811430E+02 -0.27668923548E+01  0.18831462546E+02  0.52675808869E+02  0.00000000000E+00 0. -1.
         13    1    3    3    0    0  0.21122322648E+02  0.38742146757E+02  0.75835573201E+02  0.87739048389E+02  0.00000000000E+00 0.  1.
         21    1    1    2  503  501 -0.72383600555E+01  0.27849850876E+02  0.14853837376E+02  0.32382781457E+02  0.00000000000E+00 0.  1.
          1    1    1    2  501    0 -0.53728841450E+02 -0.84246781998E+02  0.42927500581E+03  0.44075088122E+03  0.00000000000E+00 0. -1.
<scales pt_clust_5="13000.00000" pt_clust_6="13000.00000" pt_clust_7="13000.00000" pt_clust_8="13000.00000" pt_clust_9="28.77513" pt_clust_10="98.19036"></scales>
<clustering>
<clus scale="   28.775">  2  9  1 -1</clus>
<clus scale="   80.135">  5  6 -1 -1</clus>
<clus scale="   93.148">  7  8 -1 -1</clus>
<clus scale="   98.190">  2 10  1 -1</clus>
<clus scale="   96.445">  2  5  1 -1</clus>
<clus scale="   28.775">  2  5  1 -1</clus>
</clustering>
</event>
<event>
10    4  0.3403565E-005  0.4095034E+03  0.7546771E-02  0.1040782E+00
          2   -1    0    0  502    0 -0.00000000000E+00  0.00000000000E+00  0.22999128929E+04  0.22999128929E+04  0.00000000000E+00 0. -1.
         21   -1    0    0  503  502  0.00000000000E+00 -0.00000000000E+00 -0.20066755150E+03  0.20066755150E+03  0.00000000000E+00 0. -1.
         23    2    1    2    0    0 -0.27809133457E+02 -0.30714175468E+03  0.59814951617E+03  0.67604872929E+03  0.64417662994E+02 0.  0.
         24    2    1    2    0    0  0.12835294752E+03  0.51816489960E+03  0.12894676972E+04  0.13979311089E+04  0.80716174637E+02 0.  0.
        -13    1    4    4    0    0  0.98661841520E+02  0.31017556448E+03  0.69536533446E+03  0.76777339635E+03  0.00000000000E+00 0.  1.
         14    1    4    4    0    0  0.29691106002E+02  0.20798933512E+03  0.59410236273E+03  0.63015771256E+03  0.00000000000E+00 0. -1.
        -13    1    3    3    0    0  0.17066488116E+02 -0.14478875304E+03  0.30196967562E+03  0.33532183498E+03  0.00000000000E+00 0.  1.
         13    1    3    3    0    0 -0.44875621574E+02 -0.16235300164E+03  0.29617984055E+03  0.34072689431E+03  0.00000000000E+00 0. -1.
         21    1    1    2  503  501 -0.73444983037E+02 -0.67861801597E+02 -0.61246392536E+02  0.11726256968E+03  0.00000000000E+00 0. -1.
          1    1    1    2  501    0 -0.27098831028E+02 -0.14316134332E+03  0.27287452061E+03  0.30933803656E+03  0.00000000000E+00 0. -1.
<scales pt_clust_5="13000.00000" pt_clust_6="13000.00000" pt_clust_7="13000.00000" pt_clust_8="13000.00000" pt_clust_9="99.99695" pt_clust_10="159.14859"></scales>
<clustering>
<clus scale="   64.418">  7  8 -1 -1</clus>
<clus scale="   80.716">  5  6 -1 -1</clus>
<clus scale="   99.997">  2  9  1 -1</clus>
<clus scale="  159.149">  2 10  1 -1</clus>
<clus scale="  406.605">  1  7  2 -1</clus>
<clus scale="   99.997">  2  5  1 -1</clus>
</clustering>
</event>
<event>
10    4  0.3403565E-005  0.3203572E+03  0.7546771E-02  0.1115821E+00
          2   -1    0    0  502    0 -0.00000000000E+00  0.00000000000E+00  0.14015095241E+04  0.14015095241E+04  0.00000000000E+00 0. -1.
         21   -1    0    0  503  502  0.00000000000E+00 -0.00000000000E+00 -0.37670867770E+03  0.37670867770E+03  0.00000000000E+00 0. -1.
         23    2    1    2    0    0 -0.30760003448E+02 -0.67795529394E+02 -0.24488310726E+02  0.11883726850E+03  0.89332006606E+02 0.  0.
         24    2    1    2    0    0  0.25590298084E+03 -0.12078464662E+03 -0.14641718384E+03  0.32880206220E+03  0.81225229609E+02 0.  0.
        -13    1    4    4    0    0  0.11553925106E+03 -0.51715966843E+02 -0.21038113253E+02  0.12832171278E+03  0.00000000000E+00 0.  1.
         14    1    4    4    0    0  0.14036372978E+03 -0.69068679776E+02 -0.12537907058E+03  0.20048034942E+03  0.00000000000E+00 0. -1.
        -13    1    3    3    0    0 -0.21722699370E+02 -0.51819765026E+01  0.28575366783E+02  0.36266791079E+02  0.00000000000E+00 0. -1.
         13    1    3    3    0    0 -0.90373040775E+01 -0.62613552891E+02 -0.53063677508E+02  0.82570477420E+02  0.00000000000E+00 0.  1.
         21    1    1    2  503  501  0.48188618229E+02  0.19533661327E+02 -0.32301046403E+02  0.61213270215E+02  0.00000000000E+00 0. -1.
          1    1    1    2  501    0 -0.27333159562E+03  0.16904651469E+03  0.12280073874E+04  0.12693656009E+04  0.00000000000E+00 0. -1.
<scales pt_clust_5="13000.00000" pt_clust_6="13000.00000" pt_clust_7="13000.00000" pt_clust_8="13000.00000" pt_clust_9="51.99718" pt_clust_10="309.88920"></scales>
<clustering>
<clus scale="   51.997">  2  9  1 -1</clus>
<clus scale="   81.225">  5  6 -1 -1</clus>
<clus scale="   89.332">  7  8 -1 -1</clus>
<clus scale="  111.495">  1  7  2 -1</clus>
<clus scale="  309.889">  2 10  1 -1</clus>
<clus scale="   51.997">  2  5  1 -1</clus>
</clustering>
</event>
<event>
10    4  0.3403565E-005  0.1268081E+03  0.7546771E-02  0.1235679E+00
          2   -1    0    0  502    0 -0.00000000000E+00  0.00000000000E+00  0.10303058097E+04  0.10303058097E+04  0.00000000000E+00 0. -1.
         21   -1    0    0  503  502  0.00000000000E+00 -0.00000000000E+00 -0.28324061305E+03  0.28324061305E+03  0.00000000000E+00 0.  1.
         24    2    1    2    0    0 -0.11594945337E+03 -0.94602414910E+01  0.48545367088E+03  0.50544020199E+03  0.79188126097E+02 0.  0.
         23    2    1    2    0    0  0.69094958946E+00 -0.15444618516E+02  0.38910551316E+02  0.10060936967E+03  0.91483335148E+02 0.  0.
        -13    1    3    3    0    0 -0.12175193293E+03 -0.23679945837E+02  0.40630587354E+03  0.42481612008E+03  0.00000000000E+00 0.  1.
         14    1    3    3    0    0  0.58024795591E+01  0.14219704346E+02  0.79147797336E+02  0.80624081910E+02  0.00000000000E+00 0. -1.
        -13    1    4    4    0    0  0.77648709691E+01  0.34779827869E+02 -0.16370940637E+01  0.35673655892E+02  0.00000000000E+00 0.  1.
         13    1    4    4    0    0 -0.70739213796E+01 -0.50224446385E+02  0.40547645380E+02  0.64935713781E+02  0.00000000000E+00 0. -1.
         21    1    1    2  503  501  0.54123150116E+02  0.13767362358E+02 -0.23706303362E+03  0.24355233022E+03  0.00000000000E+00 0.  1.
          1    1    1    2  501    0  0.61135353661E+02  0.11137497649E+02  0.45976400804E+03  0.46394452083E+03  0.00000000000E+00 0. -1.
<scales pt_clust_5="13000.00000" pt_clust_6="13000.00000" pt_clust_7="13000.00000" pt_clust_8="13000.00000" pt_clust_9="55.84672" pt_clust_10="64.85441"></scales>
<clustering>
<clus scale="   55.847">  2  9  1 -1</clus>
<clus scale="   64.854">  2 10  1 -1</clus>
<clus scale="   79.188">  5  6 -1 -1</clus>
<clus scale="   91.483">  7  8 -1 -1</clus>
<clus scale="  118.245">  1  5  2 -1</clus>
<clus scale="   55.847">  2  5  1 -1</clus>
</clustering>
</event>
<event>
10    4  0.3403565E-005  0.1606551E+03  0.7546771E-02  0.1189339E+00
         21   -1    0    0  503  502  0.00000000000E+00  0.00000000000E+00  0.15306314224E+04  0.15306314224E+04  0.00000000000E+00 0.  1.
         -1   -1    0    0    0  501 -0.00000000000E+00 -0.00000000000E+00 -0.64216131879E+02  0.64216131879E+02  0.00000000000E+00 0.  1.
         24    2    1    2    0    0  0.94990204991E+02 -0.85754824008E+02  0.60286469683E+03  0.62172847953E+03  0.81996528508E+02 0.  0.
         23    2    1    2    0    0 -0.15300163323E+03  0.92679281698E+01  0.55481029133E+03  0.58272117537E+03  0.90852157894E+02 0.  0.
        -13    1    3    3    0    0  0.72654509478E+02 -0.80495630051E+02  0.31876598112E+03  0.33670458109E+03  0.00000000000E+00 0.  1.
         14    1    3    3    0    0  0.22335695513E+02 -0.52591939573E+01  0.28409871571E+03  0.28502389844E+03  0.00000000000E+00 0. -1.
        -11    1    4    4    0    0 -0.91556354465E+02 -0.37533764223E+02  0.35396423822E+03  0.36753507512E+03  0.00000000000E+00 0.  1.
         11    1    4    4    0    0 -0.61445278770E+02  0.46801692393E+02  0.20084605310E+03  0.21518610025E+03  0.00000000000E+00 0. -1.
         21    1    1    2  503  501 -0.43984767688E+02  0.11003941240E+03  0.22474462756E+03  0.25407376820E+03  0.00000000000E+00 0.  1.
         -2    1    1    2    0  502  0.10199619593E+03 -0.33552516563E+02  0.83995674755E+02  0.13632413114E+03  0.00000000000E+00 0.  1.
<scales pt_clust_5="13000.00000" pt_clust_6="13000.00000" pt_clust_7="13000.00000" pt_clust_8="13000.00000" pt_clust_9="107.76840" pt_clust_10="107.37321"></scales>
<clustering>
<clus scale="   81.997">  5  6 -1 -1</clus>
<clus scale="   90.852">  7  8 -1 -1</clus>
<clus scale="  107.373">  1 10  2 -1</clus>
<clus scale="  107.768">  2  9  1 -1</clus>
<clus scale="  155.818">  2  5  1 -1</clus>
<clus scale="  107.373">  1  5  2 -1</clus>
</clustering>
</event>
<event>
10    4  0.3403565E-005  0.1324413E+03  0.7546771E-02  0.1226141E+00
          2   -1    0    0  502    0 -0.00000000000E+00  0.00000000000E+00  0.30263465476E+03  0.30263465476E+03  0.00000000000E+00 0. -1.
         21   -1    0    0  503  502  0.00000000000E+00 -0.00000000000E+00 -0.20403260145E+03  0.20403260145E+03  0.00000000000E+00 0. -1.
         24    2    1    2    0    0  0.98835143313E+01 -0.55377484354E+02 -0.19232333285E+02  0.10080191528E+03  0.81405121772E+02 0.  0.
         23    2    1    2    0    0 -0.97345957465E+02  0.12112604641E+03  0.25296683970E+02  0.18163714363E+03  0.90578006016E+02 0.  0.
        -13    1    3    3    0    0  0.32565303402E+02  0.63564453232E+01 -0.61877367865E+01  0.33751910603E+02  0.00000000000E+00 0.  1.
         14    1    3    3    0    0 -0.22681789071E+02 -0.61733929677E+02 -0.13044596499E+02  0.67050004673E+02  0.00000000000E+00 0. -1.
        -11    1    4    4    0    0 -0.45140485637E+02  0.22271195956E+01  0.25273478397E+02  0.51781968054E+02  0.00000000000E+00 0.  1.
         11    1    4    4    0    0 -0.52205471828E+02  0.11889892681E+03  0.23205573340E-01  0.12985517558E+03  0.00000000000E+00 0. -1.
         21    1    1    2  503  501  0.25319535849E+02  0.35715580711E+01 -0.48736861110E+02  0.55037410491E+02  0.00000000000E+00 0. -1.
          1    1    1    2  501    0  0.62142907284E+02 -0.69320120127E+02  0.14127456374E+03  0.16919078680E+03  0.00000000000E+00 0. -1.
<scales pt_clust_5="13000.00000" pt_clust_6="13000.00000" pt_clust_7="13000.00000" pt_clust_8="13000.00000" pt_clust_9="25.57020" pt_clust_10="94.42353"></scales>
<clustering>
<clus scale="   25.570">  2  9  1 -1</clus>
<clus scale="   81.405">  5  6 -1 -1</clus>
<clus scale="   90.578">  7  8 -1 -1</clus>
<clus scale="   94.424">  2 10  1 -1</clus>
<clus scale="  126.345">  1  5  2 -1</clus>
<clus scale="   25.570">  2  5  1 -1</clus>
</clustering>
</event>
<event>
10    4  0.3403565E-005  0.1010721E+03  0.7546771E-02  0.1279513E+00
          2   -1    0    0  503    0 -0.00000000000E+00  0.00000000000E+00  0.60696559215E+03  0.60696559215E+03  0.00000000000E+00 0. -1.
         21   -1    0    0  501  502  0.00000000000E+00 -0.00000000000E+00 -0.48508741793E+02  0.48508741793E+02  0.00000000000E+00 0. -1.
         23    2    1    2    0    0  0.59748187863E+02 -0.71866093499E+00  0.11103463934E+03  0.15068858054E+03  0.82510573531E+02 0.  0.
         24    2    1    2    0    0 -0.40653940968E+02  0.60433309226E+02  0.10733915643E+03  0.15193038126E+03  0.79096260766E+02 0.  0.
        -13    1    4    4    0    0 -0.24251928404E+02  0.93602715642E+01 -0.58748133218E+01  0.26651156572E+02  0.00000000000E+00 0.  1.
         14    1    4    4    0    0 -0.16402012565E+02  0.51073037662E+02  0.11321396975E+03  0.12527922469E+03  0.00000000000E+00 0. -1.
        -11    1    3    3    0    0  0.26275463771E+02  0.15701257884E+02  0.10914677877E+03  0.11335761471E+03  0.00000000000E+00 0.  1.
         11    1    3    3    0    0  0.33472724092E+02 -0.16419918819E+02  0.18878605649E+01  0.37330965829E+02  0.00000000000E+00 0. -1.
         21    1    1    2  503  502  0.12878489319E+02 -0.20670894564E+02  0.29756810006E+02  0.38452686654E+02  0.00000000000E+00 0.  1.
          1    1    1    2  501    0 -0.31972736214E+02 -0.39043753727E+02  0.31032624459E+03  0.31440268549E+03  0.00000000000E+00 0. -1.
<scales pt_clust_5="13000.00000" pt_clust_6="13000.00000" pt_clust_7="13000.00000" pt_clust_8="13000.00000" pt_clust_9="24.35449" pt_clust_10="50.83726"></scales>
<clustering>
<clus scale="   24.354">  2  9  1 -1</clus>
<clus scale="   50.837">  2 10  1 -1</clus>
<clus scale="   79.096">  5  6 -1 -1</clus>
<clus scale="   82.511">  7  8 -1 -1</clus>
<clus scale="   98.305">  2  5  1 -1</clus>
<clus scale="   24.354">  2  5  1 -1</clus>
</clustering>
</event>
<event>
10    4  0.3403565E-005  0.1673030E+03  0.7546771E-02  0.1182282E+00
         -1   -1    0    0    0  501 -0.00000000000E+00  0.00000000000E+00  0.10641572185E+04  0.10641572185E+04  0.00000000000E+00 0.  1.
         21   -1    0    0  503  502  0.00000000000E+00 -0.00000000000E+00 -0.67019645139E+02  0.67019645139E+02  0.00000000000E+00 0. -1.
         24    2    1    2    0    0 -0.12666521241E+03  0.41577785775E+02  0.45475785040E+03  0.48054228047E+03  0.79645417442E+02 0.  0.
         23    2    1    2    0    0  0.10601211596E+03 -0.47645682886E+01  0.83520144165E+02  0.16281479934E+03  0.90949296643E+02 0.  0.
        -11    1    3    3    0    0 -0.83284354299E+02  0.53492433493E+02  0.38512033204E+03  0.39763726468E+03  0.00000000000E+00 0.  1.
         12    1    3    3    0    0 -0.43380858109E+02 -0.11914647717E+02  0.69637518355E+02  0.82905015790E+02  0.00000000000E+00 0. -1.
        -11    1    4    4    0    0 -0.76058052296E+01  0.18984612411E+02  0.26551411318E+02  0.33514791131E+02  0.00000000000E+00 0. -1.
         11    1    4    4    0    0  0.11361792119E+03 -0.23749180699E+02  0.56968732847E+02  0.12930000821E+03  0.00000000000E+00 0.  1.
         21    1    1    2  503  501 -0.69377310041E+02 -0.18735762456E+02  0.16562256477E+03  0.18054105878E+03  0.00000000000E+00 0. -1.
         -2    1    1    2    0  502  0.90030406487E+02 -0.18077455031E+02  0.29323701399E+03  0.30727872501E+03  0.00000000000E+00 0.  1.
<scales pt_clust_5="13000.00000" pt_clust_6="13000.00000" pt_clust_7="13000.00000" pt_clust_8="13000.00000" pt_clust_9="71.86265" pt_clust_10="70.97552"></scales>
<clustering>
<clus scale="   71.863">  1  9  2 -1</clus>
<clus scale="   70.976">  2 10  1 -1</clus>
<clus scale="   79.645">  5  6 -1 -1</clus>
<clus scale="   90.949">  7  8 -1 -1</clus>
<clus scale="  161.437">  1  5  2 -1</clus>
<clus scale="   70.976">  2  5  1 -1</clus>
</clustering>
</event>
<event>
10    4  0.3403565E-005  0.1274363E+03  0.7546771E-02  0.1233577E+00
          2   -1    0    0  503    0 -0.00000000000E+00  0.00000000000E+00  0.51926690632E+03  0.51926690632E+03  0.00000000000E+00 0. -1.
         21   -1    0    0  501  502  0.00000000000E+00 -0.00000000000E+00 -0.84981411949E+02  0.84981411949E+02  0.00000000000E+00 0. -1.
         23    2    1    2    0    0  0.74807186925E+01  0.54061214587E+02  0.15009380723E+03  0.18468310197E+03  0.92742229373E+02 0.  0.
         24    2    1    2    0    0 -0.58565847717E+02 -0.93344486630E+02  0.25701356864E+03  0.29706246064E+03  0.10023462152E+03 0.  0.
        -11    1    4    4    0    0 -0.10428374728E+02  0.21383651435E+02  0.31127395946E+02  0.39178135822E+02  0.00000000000E+00 0.  1.
         12    1    4    4    0    0 -0.48137472989E+02 -0.11472813806E+03  0.22588617270E+03  0.25788432482E+03  0.00000000000E+00 0. -1.
        -13    1    3    3    0    0 -0.29658056629E+02  0.29783703538E+02  0.18707327101E+02  0.46006884340E+02  0.00000000000E+00 0.  1.
         13    1    3    3    0    0  0.37138775321E+02  0.24277511049E+02  0.13138648013E+03  0.13867621763E+03  0.00000000000E+00 0. -1.
         21    1    1    2  503  502 -0.27729125959E+02  0.17666900389E+02 -0.75021290359E+01  0.33723963822E+02  0.00000000000E+00 0. -1.
          1    1    1    2  501    0  0.78814254983E+02  0.21616371654E+02  0.34680247538E+02  0.88778791844E+02  0.00000000000E+00 0. -1.
<scales pt_clust_5="13000.00000" pt_clust_6="13000.00000" pt_clust_7="13000.00000" pt_clust_8="13000.00000" pt_clust_9="32.87893" pt_clust_10="73.17137"></scales>
<clustering>
<clus scale="   32.879">  2  9  1 -1</clus>
<clus scale="   73.171">  2 10  1 -1</clus>
<clus scale="   92.742">  7  8 -1 -1</clus>
<clus scale="  100.235">  5  6 -1 -1</clus>
<clus scale="  121.631">  1  7  2 -1</clus>
<clus scale="   32.879">  2  5  1 -1</clus>
</clustering>
</event>
<event>
10    4  0.3403565E-005  0.1523230E+03  0.7546771E-02  0.1222702E+00
         21   -1    0    0  501  502  0.00000000000E+00  0.00000000000E+00  0.10903858746E+03  0.10903858746E+03  0.00000000000E+00 0.  1.
          2   -1    0    0  503    0 -0.00000000000E+00 -0.00000000000E+00 -0.16360660358E+04  0.16360660358E+04  0.00000000000E+00 0. -1.
         24    2    1    2    0    0 -0.20010918944E+02  0.31570483252E+02 -0.53775536589E+03  0.54491690294E+03  0.79727443672E+02 0.  0.
         23    2    1    2    0    0  0.13842372419E+03  0.79974878591E+02 -0.34726977287E+03  0.39280201010E+03  0.90222033701E+02 0.  0.
        -11    1    3    3    0    0 -0.12573343231E+02 -0.19627824497E+02 -0.60004695227E+02  0.64373161363E+02  0.00000000000E+00 0.  1.
         12    1    3    3    0    0 -0.74375757138E+01  0.51198307749E+02 -0.47775067066E+03  0.48054374157E+03  0.00000000000E+00 0. -1.
        -11    1    4    4    0    0  0.77976776251E+02 -0.66637394836E+00 -0.10832641193E+03  0.13347446651E+03  0.00000000000E+00 0. -1.
         11    1    4    4    0    0  0.60446947937E+02  0.80641252540E+02 -0.23894336095E+03  0.25932754359E+03  0.00000000000E+00 0.  1.
         21    1    1    2  503  502 -0.53415813539E+02 -0.10566097306E+02  0.68104636617E+02  0.87195946449E+02  0.00000000000E+00 0.  1.
          1    1    1    2  501    0 -0.64996991705E+02 -0.10097926454E+03 -0.71010694618E+03  0.72018976375E+03  0.00000000000E+00 0. -1.
<scales pt_clust_5="13000.00000" pt_clust_6="13000.00000" pt_clust_7="13000.00000" pt_clust_8="13000.00000" pt_clust_9="54.45082" pt_clust_10="122.72851"></scales>
<clustering>
<clus scale="   54.451">  1  9  2 -1</clus>
<clus scale="   79.727">  5  6 -1 -1</clus>
<clus scale="   89.219">  2  5  1 -1</clus>
<clus scale="   90.222">  7  8 -1 -1</clus>
<clus scale="  122.729">  1 10  2 -1</clus>
<clus scale="   54.451">  1  5  2 -1</clus>
</clustering>
</event>
<event>
10    4  0.3403565E-005  0.2229188E+03  0.7546771E-02  0.1174317E+00
          2   -1    0    0  503    0 -0.00000000000E+00  0.00000000000E+00  0.34172374020E+04  0.34172374020E+04  0.00000000000E+00 0. -1.
         21   -1    0    0  501  502  0.00000000000E+00 -0.00000000000E+00 -0.23142715052E+02  0.23142715052E+02  0.00000000000E+00 0.  1.
         24    2    1    2    0    0  0.14902126976E+02 -0.27987499986E+01  0.57853122557E+03  0.58432127248E+03  0.80641578141E+02 0.  0.
         23    2    1    2    0    0  0.98862391014E+02  0.19289618107E+03  0.11711569028E+04  0.11947203738E+04  0.93624631481E+02 0.  0.
        -13    1    3    3    0    0  0.55276243460E+01 -0.23059652084E+02  0.50202614110E+02  0.55521208998E+02  0.00000000000E+00 0.  1.
         14    1    3    3    0    0  0.93745026296E+01  0.20260902085E+02  0.52832861146E+03  0.52880006348E+03  0.00000000000E+00 0. -1.
        -11    1    4    4    0    0  0.60163688508E+02  0.28060256617E+02  0.29916624391E+03  0.30644328825E+03  0.00000000000E+00 0. -1.
         11    1    4    4    0    0  0.38698702506E+02  0.16483592445E+03  0.87199065891E+03  0.88827708560E+03  0.00000000000E+00 0.  1.
         21    1    1    2  503  502 -0.22262640796E+02 -0.17729108651E+02  0.82140212185E+02  0.86930782387E+02  0.00000000000E+00 0.  1.
          1    1    1    2  501    0 -0.91501877193E+02 -0.17236832242E+03  0.15622663463E+04  0.15744076883E+04  0.00000000000E+00 0. -1.
<scales pt_clust_5="13000.00000" pt_clust_6="13000.00000" pt_clust_7="13000.00000" pt_clust_8="13000.00000" pt_clust_9="28.45956" pt_clust_10="202.30492"></scales>
<clustering>
<clus scale="   28.460">  2  9  1 -1</clus>
<clus scale="   80.642">  5  6 -1 -1</clus>
<clus scale="   81.670">  1  5  2 -1</clus>
<clus scale="   93.625">  7  8 -1 -1</clus>
<clus scale="  202.305">  2 10  1 -1</clus>
<clus scale="   28.460">  2  5  1 -1</clus>
</clustering>
</event>
<event>
10    4  0.3403565E-005  0.2186820E+03  0.7546771E-02  0.1178869E+00
          2   -1    0    0  503    0 -0.00000000000E+00  0.00000000000E+00  0.89953129351E+03  0.89953129351E+03  0.00000000000E+00 0. -1.
         21   -1    0    0  501  502  0.00000000000E+00 -0.00000000000E+00 -0.45942948393E+03  0.45942948393E+03  0.00000000000E+00 0. -1.
         24    2    1    2    0    0 -0.12402266711E+02  0.12633645091E+02  0.55583197639E+02  0.95817288409E+02  0.76013391520E+02 0.  0.
         23    2    1    2    0    0 -0.17803207464E+03  0.84873530766E+02  0.35231085059E+03  0.41402602087E+03  0.91627914353E+02 0.  0.
        -13    1    3    3    0    0  0.21292885719E+02  0.24435353762E+02  0.33988483750E+01  0.32588735263E+02  0.00000000000E+00 0.  1.
         14    1    3    3    0    0 -0.33695152431E+02 -0.11801708671E+02  0.52184349264E+02  0.63228553146E+02  0.00000000000E+00 0. -1.
        -13    1    4    4    0    0 -0.13801455221E+03  0.61158638340E+02  0.17691568262E+03  0.23256731160E+03  0.00000000000E+00 0.  1.
         13    1    4    4    0    0 -0.40017522423E+02  0.23714892425E+02  0.17539516797E+03  0.18145870927E+03  0.00000000000E+00 0. -1.
         21    1    1    2  503  502  0.15694278305E+03  0.10631118657E+02 -0.38549087952E+03  0.41634994419E+03  0.00000000000E+00 0. -1.
          1    1    1    2  501    0  0.33491558297E+02 -0.10813829451E+03  0.41769864087E+03  0.43276752397E+03  0.00000000000E+00 0. -1.
<scales pt_clust_5="13000.00000" pt_clust_6="13000.00000" pt_clust_7="13000.00000" pt_clust_8="13000.00000" pt_clust_9="198.56022" pt_clust_10="105.16625"></scales>
<clustering>
<clus scale="   76.013">  5  6 -1 -1</clus>
<clus scale="   78.048">  1  5  2 -1</clus>
<clus scale="   91.628">  7  8 -1 -1</clus>
<clus scale="  105.166">  2 10  1 -1</clus>
<clus scale="  198.560">  2  9  1 -1</clus>
<clus scale="  105.166">  2  5  1 -1</clus>
</clustering>
</event>
<event>
10    4  0.3403565E-005  0.1213901E+03  0.7546771E-02  0.1243823E+00
          2   -1    0    0  502    0 -0.00000000000E+00  0.00000000000E+00  0.10752042349E+04  0.10752042349E+04  0.00000000000E+00 0. -1.
         21   -1    0    0  503  502  0.00000000000E+00 -0.00000000000E+00 -0.19104503470E+03  0.19104503470E+03  0.00000000000E+00 0.  1.
         24    2    1    2    0    0 -0.88517961905E+02 -0.24725836718E+02  0.58605756853E+03  0.59873126238E+03  0.81048469125E+02 0.  0.
         23    2    1    2    0    0  0.60920258048E+02 -0.45189433570E+02  0.21517165539E+03  0.24557402824E+03  0.90853724821E+02 0.  0.
        -13    1    3    3    0    0 -0.10237811350E+03 -0.29863197443E+02  0.48407804305E+03  0.49568603011E+03  0.00000000000E+00 0.  1.
         14    1    3    3    0    0  0.13860151596E+02  0.51373607251E+01  0.10197952548E+03  0.10304523227E+03  0.00000000000E+00 0. -1.
        -13    1    4    4    0    0  0.44356190857E+02  0.18432561273E+02  0.12554921748E+03  0.13442409379E+03  0.00000000000E+00 0.  1.
         13    1    4    4    0    0  0.16564067191E+02 -0.63621994843E+02  0.89622437912E+02  0.11114993444E+03  0.00000000000E+00 0. -1.
         21    1    1    2  503  501 -0.37131992142E+02  0.10187194459E+02 -0.15946275522E+03  0.16404552440E+03  0.00000000000E+00 0.  1.
          1    1    1    2  501    0  0.64729695999E+02  0.59728075829E+02  0.24239273155E+03  0.25789845462E+03  0.00000000000E+00 0. -1.
<scales pt_clust_5="13000.00000" pt_clust_6="13000.00000" pt_clust_7="13000.00000" pt_clust_8="13000.00000" pt_clust_9="38.50407" pt_clust_10="83.13230"></scales>
<clustering>
<clus scale="   38.504">  2  9  1 -1</clus>
<clus scale="   81.048">  5  6 -1 -1</clus>
<clus scale="   83.132">  2 10  1 -1</clus>
<clus scale="   90.854">  7  8 -1 -1</clus>
<clus scale="  114.237">  1  5  2 -1</clus>
<clus scale="   38.504">  2  5  1 -1</clus>
</clustering>
</event>
<event>
10    4  0.3403565E-005  0.2456390E+03  0.7546771E-02  0.1116718E+00
         21   -1    0    0  501  502  0.00000000000E+00  0.00000000000E+00  0.17907855686E+03  0.17907855686E+03  0.00000000000E+00 0. -1.
          2   -1    0    0  503    0 -0.00000000000E+00 -0.00000000000E+00 -0.94298539480E+03  0.94298539480E+03  0.00000000000E+00 0. -1.
         24    2    1    2    0    0 -0.15194637772E+02 -0.24451910749E+03 -0.59026481741E+03  0.64397536403E+03  0.79191185517E+02 0.  0.
         23    2    1    2    0    0 -0.13946065724E+03  0.17233532349E+03 -0.78230518174E+02  0.25181824700E+03  0.90242323265E+02 0.  0.
        -11    1    3    3    0    0 -0.43346081858E+02 -0.85897901014E+02 -0.23167509094E+03  0.25085988116E+03  0.00000000000E+00 0.  1.
         12    1    3    3    0    0  0.28151444086E+02 -0.15862120647E+03 -0.35858972647E+03  0.39311548288E+03  0.00000000000E+00 0. -1.
        -13    1    4    4    0    0 -0.65767640898E+02  0.37047762245E+02 -0.60514137121E+02  0.96746473157E+02  0.00000000000E+00 0.  1.
         13    1    4    4    0    0 -0.73693016338E+02  0.13528756125E+03 -0.17716381053E+02  0.15507177384E+03  0.00000000000E+00 0. -1.
         21    1    1    2  503  502 -0.17347581747E+02  0.17589006730E+02 -0.10900394877E+02  0.27002413942E+02  0.00000000000E+00 0.  1.
          1    1    1    2  501    0  0.17200287675E+03  0.54594777261E+02 -0.84511107486E+02  0.19926792668E+03  0.00000000000E+00 0. -1.
<scales pt_clust_5="13000.00000" pt_clust_6="13000.00000" pt_clust_7="13000.00000" pt_clust_8="13000.00000" pt_clust_9="24.70449" pt_clust_10="176.85161"></scales>
<clustering>
<clus scale="   24.704">  1  9  2 -1</clus>
<clus scale="   79.191">  5  6 -1 -1</clus>
<clus scale="   90.242">  7  8 -1 -1</clus>
<clus scale="  176.852">  1 10  2 -1</clus>
<clus scale="  241.798">  2  5  1 -1</clus>
<clus scale="   24.704">  1  5  2 -1</clus>
</clustering>
</event>
<event>
10    4  0.3403565E-005  0.1432431E+03  0.7546771E-02  0.1209494E+00
         21   -1    0    0  503  502  0.00000000000E+00  0.00000000000E+00  0.19769188647E+03  0.19769188647E+03  0.00000000000E+00 0.  1.
          4   -1    0    0  502    0 -0.00000000000E+00 -0.00000000000E+00 -0.10568667085E+04  0.10568667085E+04  0.00000000000E+00 0. -1.
         24    2    1    2    0    0  0.35978999070E+01 -0.11684709567E+03 -0.72978280961E+02  0.15994911476E+03  0.81189292204E+02 0.  0.
         23    2    1    2    0    0  0.12732686310E+03 -0.68355354385E+01  0.84553810836E+02  0.17738730780E+03  0.89766672145E+02 0.  0.
        -13    1    3    3    0    0  0.36347514273E+02 -0.48671635414E+02 -0.55589640040E+02  0.82342443293E+02  0.00000000000E+00 0.  1.
         14    1    3    3    0    0 -0.32749614366E+02 -0.68175460259E+02 -0.17388640920E+02  0.77606671464E+02  0.00000000000E+00 0. -1.
        -13    1    4    4    0    0  0.90627438449E+02  0.34986713650E+02  0.70402661203E+02  0.11997473666E+03  0.00000000000E+00 0.  1.
         13    1    4    4    0    0  0.36699424652E+02 -0.41822249088E+02  0.14151149633E+02  0.57412571136E+02  0.00000000000E+00 0. -1.
         21    1    1    2  503  501 -0.22411492528E+02  0.23685560032E+01  0.77035716475E+01  0.23816592347E+02  0.00000000000E+00 0. -1.
          3    1    1    2  501    0 -0.10851327048E+03  0.12131407511E+03 -0.87845392357E+03  0.89340558008E+03  0.00000000000E+00 0. -1.
<scales pt_clust_5="13000.00000" pt_clust_6="13000.00000" pt_clust_7="13000.00000" pt_clust_8="13000.00000" pt_clust_9="22.53631" pt_clust_10="111.62674"></scales>
<clustering>
<clus scale="   22.536">  1  9  2 -1</clus>
<clus scale="   81.189">  5  6 -1 -1</clus>
<clus scale="   89.767">  7  8 -1 -1</clus>
<clus scale="  141.831">  2  5  1 -1</clus>
<clus scale="  111.627">  1 10  2 -1</clus>
<clus scale="   22.536">  1  5  2 -1</clus>
</clustering>
</event>
<event>
10    4  0.3403565E-005  0.1268332E+03  0.7546771E-02  0.1253295E+00
         -3   -1    0    0    0  501 -0.00000000000E+00  0.00000000000E+00  0.14209728171E+03  0.14209728171E+03  0.00000000000E+00 0.  1.
         21   -1    0    0  503  502  0.00000000000E+00 -0.00000000000E+00 -0.32459735198E+03  0.32459735198E+03  0.00000000000E+00 0.  1.
         24    2    1    2    0    0  0.28078216730E+02 -0.18378617105E+01  0.34113907619E+02  0.88995274037E+02  0.77231056690E+02 0.  0.
         23    2    1    2    0    0  0.52972858867E+02 -0.58998767920E+02 -0.18302813151E+03  0.21965201454E+03  0.91982238357E+02 0.  0.
        -11    1    3    3    0    0  0.42731119556E+02 -0.25603432708E+02  0.35294395048E+02  0.61050623803E+02  0.00000000000E+00 0.  1.
         12    1    3    3    0    0 -0.14652902827E+02  0.23765570998E+02 -0.11804874283E+01  0.27944650234E+02  0.00000000000E+00 0. -1.
        -13    1    4    4    0    0  0.14542622006E+02 -0.69702084544E+02 -0.15595367995E+03  0.17143925669E+03  0.00000000000E+00 0.  1.
         13    1    4    4    0    0  0.38430236861E+02  0.10703316624E+02 -0.27074451564E+02  0.48212757849E+02  0.00000000000E+00 0. -1.
         21    1    1    2  503  501  0.19394678350E+02  0.20845579886E+02 -0.40732549569E+02  0.49697407814E+02  0.00000000000E+00 0.  1.
         -4    1    1    2    0  502 -0.10044575395E+03  0.39991049745E+02  0.71467031863E+01  0.10834993730E+03  0.00000000000E+00 0.  1.
<scales pt_clust_5="13000.00000" pt_clust_6="13000.00000" pt_clust_7="13000.00000" pt_clust_8="13000.00000" pt_clust_9="28.47265" pt_clust_10="87.32664"></scales>
<clustering>
<clus scale="   28.473">  2  9  1 -1</clus>
<clus scale="   77.231">  5  6 -1 -1</clus>
<clus scale="   82.847">  1  5  2 -1</clus>
<clus scale="   87.327">  2 10  1 -1</clus>
<clus scale="   91.982">  7  8 -1 -1</clus>
<clus scale="   28.473">  2  5  1 -1</clus>
</clustering>
</event>
<event>
10    4  0.3403565E-005  0.2058785E+03  0.7546771E-02  0.1153342E+00
          4   -1    0    0  503    0 -0.00000000000E+00  0.00000000000E+00  0.98528996466E+03  0.98528996466E+03  0.00000000000E+00 0. -1.
         21   -1    0    0  501  502  0.00000000000E+00 -0.00000000000E+00 -0.30561819052E+03  0.30561819052E+03  0.00000000000E+00 0. -1.
         23    2    1    2    0    0  0.10172560830E+03 -0.10746009681E+03  0.25778518801E+02  0.17302641212E+03  0.85894327351E+02 0.  0.
         24    2    1    2    0    0 -0.15278225736E+03 -0.13243540523E+03  0.71190426333E+03  0.74185996726E+03  0.51642774474E+02 0.  0.
        -11    1    4    4    0    0 -0.83636518507E+02 -0.62745450063E+02  0.27859967456E+03  0.29757324712E+03  0.00000000000E+00 0.  1.
         12    1    4    4    0    0 -0.69145738854E+02 -0.69689955166E+02  0.43330458877E+03  0.44428672015E+03  0.00000000000E+00 0. -1.
        -11    1    3    3    0    0  0.29545763538E+02 -0.14247486515E+02 -0.28300417322E+02  0.43322703466E+02  0.00000000000E+00 0.  1.
         11    1    3    3    0    0  0.72179844765E+02 -0.93212610290E+02  0.54078936123E+02  0.12970370866E+03  0.00000000000E+00 0. -1.
         21    1    1    2  503  502  0.35294609727E+02  0.50883557994E+02 -0.15215502955E+03  0.16427415794E+03  0.00000000000E+00 0. -1.
          3    1    1    2  501    0  0.15762039331E+02  0.18901194404E+03  0.94144021555E+02  0.21174761786E+03  0.00000000000E+00 0. -1.
<scales pt_clust_5="13000.00000" pt_clust_6="13000.00000" pt_clust_7="13000.00000" pt_clust_8="13000.00000" pt_clust_9="61.92613" pt_clust_10="199.29618"></scales>
<clustering>
<clus scale="   51.643">  5  6 -1 -1</clus>
<clus scale="   61.926">  2  9  1 -1</clus>
<clus scale="   85.894">  7  8 -1 -1</clus>
<clus scale="  168.389">  1  7  2 -1</clus>
<clus scale="  199.296">  2 10  1 -1</clus>
<clus scale="   61.926">  2  5  1 -1</clus>
</clustering>
</event>
<event>
10    4  0.3403565E-005  0.1062054E+03  0.7546771E-02  0.1272218E+00
         -1   -1    0    0    0  501 -0.00000000000E+00  0.00000000000E+00  0.10517293521E+03  0.10517293521E+03  0.00000000000E+00 0.  1.
         21   -1    0    0  503  502  0.00000000000E+00 -0.00000000000E+00 -0.61387651669E+03  0.61387651669E+03  0.00000000000E+00 0.  1.
         23    2    1    2    0    0  0.61821788314E+02  0.14586393631E+02  0.35935997770E+02  0.11635109903E+03  0.90617249578E+02 0.  0.
         24    2    1    2    0    0 -0.22681439115E+02 -0.15326932403E+02 -0.13422366856E+03  0.15871818037E+03  0.80162990472E+02 0.  0.
        -13    1    4    4    0    0 -0.21974566343E+02 -0.41895138354E+02 -0.43805665427E+02  0.64474960311E+02  0.00000000000E+00 0.  1.
         14    1    4    4    0    0 -0.70687277175E+00  0.26568205952E+02 -0.90418003135E+02  0.94243220061E+02  0.00000000000E+00 0. -1.
        -11    1    3    3    0    0 -0.82200795673E+01  0.29074863708E+02  0.33033573904E+02  0.44767559824E+02  0.00000000000E+00 0. -1.
         11    1    3    3    0    0  0.70041867881E+02 -0.14488470077E+02  0.29024238667E+01  0.71583539209E+02  0.00000000000E+00 0.  1.
         21    1    1    2  503  501 -0.26600099896E+02  0.44416971414E+02 -0.39125334256E+03  0.39466392124E+03  0.00000000000E+00 0.  1.
         -2    1    1    2    0  502 -0.12540249303E+02 -0.43676432643E+02 -0.19162568123E+02  0.49316251257E+02  0.00000000000E+00 0.  1.
<scales pt_clust_5="13000.00000" pt_clust_6="13000.00000" pt_clust_7="13000.00000" pt_clust_8="13000.00000" pt_clust_9="38.09687" pt_clust_10="45.44107"></scales>
<clustering>
<clus scale="   45.441">  2 10  1 -1</clus>
<clus scale="   38.097">  2  9  1 -1</clus>
<clus scale="   80.163">  5  6 -1 -1</clus>
<clus scale="   90.617">  7  8 -1 -1</clus>
<clus scale="   97.438">  2  5  1 -1</clus>
<clus scale="   45.441">  2  5  1 -1</clus>
</clustering>
</event>
<event>
10    4  0.3403565E-005  0.2055353E+03  0.7546771E-02  0.1146159E+00
          2   -1    0    0  503    0 -0.00000000000E+00  0.00000000000E+00  0.20858681762E+04  0.20858681762E+04  0.00000000000E+00 0. -1.
         21   -1    0    0  501  502  0.00000000000E+00 -0.00000000000E+00 -0.40319713360E+03  0.40319713360E+03  0.00000000000E+00 0.  1.
         24    2    1    2    0    0  0.13614614646E+03  0.12089773789E+03  0.65700860840E+03  0.68645725360E+03  0.80070052340E+02 0.  0.
         23    2    1    2    0    0 -0.21708911917E+03  0.11394209215E+02  0.83709211057E+03  0.86969958805E+03  0.91633281209E+02 0.  0.
        -11    1    3    3    0    0  0.14057929701E+03  0.12001146471E+03  0.56767607891E+03  0.59701040274E+03  0.00000000000E+00 0.  1.
         12    1    3    3    0    0 -0.44331505464E+01  0.88627318273E+00  0.89332529490E+02  0.89446850861E+02  0.00000000000E+00 0. -1.
        -13    1    4    4    0    0 -0.10660339533E+03 -0.31858311457E+02  0.30837750492E+03  0.32783520471E+03  0.00000000000E+00 0. -1.
         13    1    4    4    0    0 -0.11048572383E+03  0.43252520671E+02  0.52871460564E+03  0.54186438334E+03  0.00000000000E+00 0.  1.
         21    1    1    2  503  502  0.16359569398E+03  0.63932864848E+02 -0.32916726543E+03  0.37309791064E+03  0.00000000000E+00 0.  1.
          1    1    1    2  501    0 -0.82652721280E+02 -0.19622481195E+03  0.51773758908E+03  0.55981055752E+03  0.00000000000E+00 0. -1.
<scales pt_clust_5="13000.00000" pt_clust_6="13000.00000" pt_clust_7="13000.00000" pt_clust_8="13000.00000" pt_clust_9="175.64442" pt_clust_10="171.19507"></scales>
<clustering>
<clus scale="   80.070">  5  6 -1 -1</clus>
<clus scale="   91.633">  7  8 -1 -1</clus>
<clus scale="  175.644">  2  9  1 -1</clus>
<clus scale="  171.195">  2 10  1 -1</clus>
<clus scale="  200.647">  1  5  2 -1</clus>
<clus scale="  175.644">  2  5  1 -1</clus>
</clustering>
</event>
<event>
10    4  0.3671013E-005  0.1190013E+03  0.7546771E-02  0.1251150E+00
          2   -1    0    0  503    0 -0.00000000000E+00  0.00000000000E+00  0.88828497051E+03  0.88828497051E+03  0.00000000000E+00 0. -1.
         21   -1    0    0  501  502  0.00000000000E+00 -0.00000000000E+00 -0.28463995620E+03  0.28463995620E+03  0.00000000000E+00 0. -1.
         24    2    1    2    0    0 -0.68034819077E+02  0.47999339745E+02  0.36139242999E+03  0.37848475866E+03  0.75588033846E+02 0.  0.
         23    2    1    2    0    0  0.64646091951E+02  0.41180753580E+02  0.10638006689E+03  0.16158051866E+03  0.94427610954E+02 0.  0.
        -13    1    3    3    0    0 -0.24516227231E+02 -0.18476714422E+02  0.13829033620E+03  0.14165680873E+03  0.00000000000E+00 0.  1.
         14    1    3    3    0    0 -0.43518591846E+02  0.66476054167E+02  0.22310209378E+03  0.23682794992E+03  0.00000000000E+00 0. -1.
        -13    1    4    4    0    0 -0.15529561259E+02  0.25606358207E+02  0.61460805982E+02  0.68368732074E+02  0.00000000000E+00 0.  1.
         13    1    4    4    0    0  0.80175653210E+02  0.15574395373E+02  0.44919260906E+02  0.93211786589E+02  0.00000000000E+00 0. -1.
         21    1    1    2  503  502  0.45416743012E+02 -0.16443057196E+01 -0.24019585387E+03  0.24445742472E+03  0.00000000000E+00 0. -1.
          1    1    1    2  501    0 -0.42028015886E+02 -0.87535787606E+02  0.37606837130E+03  0.38840222466E+03  0.00000000000E+00 0. -1.
<scales pt_clust_5="13000.00000" pt_clust_6="13000.00000" pt_clust_7="13000.00000" pt_clust_8="13000.00000" pt_clust_9="45.44650" pt_clust_10="94.64839"></scales>
<clustering>
<clus scale="   45.446">  2  9  1 -1</clus>
<clus scale="   75.588">  5  6 -1 -1</clus>
<clus scale="   94.428">  7  8 -1 -1</clus>
<clus scale="   94.648">  2 10  1 -1</clus>
<clus scale="  104.682">  1  5  2 -1</clus>
<clus scale="   45.446">  2  5  1 -1</clus>
</clustering>
</event>
<event>
10    4  0.3403565E-005  0.1419959E+03  0.7546771E-02  0.1233790E+00
         21   -1    0    0  501  502  0.00000000000E+00  0.00000000000E+00  0.15765910573E+03  0.15765910573E+03  0.00000000000E+00 0.  1.
          2   -1    0    0  503    0 -0.00000000000E+00 -0.00000000000E+00 -0.43225047537E+03  0.43225047537E+03  0.00000000000E+00 0. -1.
         24    2    1    2    0    0  0.36766704321E+02 -0.48830795741E+00  0.87856436944E+02  0.12520424652E+03  0.81273124969E+02 0.  0.
         23    2    1    2    0    0  0.98894282258E+02  0.13738132600E+02 -0.14644525786E+03  0.19894929098E+03  0.90364769028E+02 0.  0.
        -11    1    3    3    0    0  0.13388743508E+02 -0.19210801321E+02  0.92031451873E+02  0.94963685028E+02  0.00000000000E+00 0.  1.
         12    1    3    3    0    0  0.23377960814E+02  0.18722493364E+02 -0.41750149296E+01  0.30240561490E+02  0.00000000000E+00 0. -1.
        -13    1    4    4    0    0  0.55940814499E+02 -0.24768653701E+02 -0.28163620117E+02  0.67350207357E+02  0.00000000000E+00 0.  1.
         13    1    4    4    0    0  0.42953467759E+02  0.38506786300E+02 -0.11828163774E+03  0.13159908362E+03  0.00000000000E+00 0. -1.
         21    1    1    2  503  502 -0.10849913890E+02 -0.19870228713E+02 -0.98837179615E+01  0.24702924954E+02  0.00000000000E+00 0.  1.
          1    1    1    2  501    0 -0.12481107269E+03  0.66204040707E+01 -0.20611883077E+03  0.24105311865E+03  0.00000000000E+00 0. -1.
<scales pt_clust_5="13000.00000" pt_clust_6="13000.00000" pt_clust_7="13000.00000" pt_clust_8="13000.00000" pt_clust_9="22.63949" pt_clust_10="109.53109"></scales>
<clustering>
<clus scale="   22.639">  1  9  2 -1</clus>
<clus scale="   81.273">  5  6 -1 -1</clus>
<clus scale="   87.539">  2  5  1 -1</clus>
<clus scale="   90.365">  7  8 -1 -1</clus>
<clus scale="  109.531">  1 10  2 -1</clus>
<clus scale="   22.639">  1  5  2 -1</clus>
</clustering>
</event>
<event>
10    4  0.3403565E-005  0.1108357E+03  0.7546771E-02  0.1261951E+00
         21   -1    0    0  501  502  0.00000000000E+00  0.00000000000E+00  0.47344719559E+02  0.47344719559E+02  0.00000000000E+00 0.  1.
          4   -1    0    0  503    0 -0.00000000000E+00 -0.00000000000E+00 -0.74643276782E+03  0.74643276782E+03  0.00000000000E+00 0. -1.
         23    2    1    2    0    0 -0.36812620755E+02 -0.62454403818E+02 -0.30316653762E+03  0.32478896461E+03  0.91226094930E+02 0.  0.
         24    2    1    2    0    0  0.13900700708E+02  0.30183550169E+02 -0.58135627945E+02  0.10712076501E+03  0.83611188712E+02 0.  0.
        -11    1    4    4    0    0  0.29825764874E+01  0.53551286917E+02 -0.13082170795E+02  0.55206696022E+02  0.00000000000E+00 0.  1.
         12    1    4    4    0    0  0.10918124220E+02 -0.23367736748E+02 -0.45053457150E+02  0.51914068983E+02  0.00000000000E+00 0. -1.
        -13    1    3    3    0    0  0.15265586249E+02 -0.55149177417E+02 -0.10298350238E+03  0.11781371591E+03  0.00000000000E+00 0.  1.
         13    1    3    3    0    0 -0.52078207004E+02 -0.73052264011E+01 -0.20018303524E+03  0.20697524870E+03  0.00000000000E+00 0. -1.
         21    1    1    2  503  502  0.38241079542E+02 -0.38260597740E+02 -0.10449990284E+03  0.11767108055E+03  0.00000000000E+00 0.  1.
          3    1    1    2  501    0 -0.15329159494E+02  0.70531451389E+02 -0.23328597985E+03  0.24419667721E+03  0.00000000000E+00 0. -1.
<scales pt_clust_5="13000.00000" pt_clust_6="13000.00000" pt_clust_7="13000.00000" pt_clust_8="13000.00000" pt_clust_9="54.09486" pt_clust_10="56.16268"></scales>
<clustering>
<clus scale="   54.095">  2  9  1 -1</clus>
<clus scale="   56.163">  1 10  2 -1</clus>
<clus scale="   83.611">  5  6 -1 -1</clus>
<clus scale="   91.226">  7  8 -1 -1</clus>
<clus scale="  104.658">  1  5  2 -1</clus>
<clus scale="   56.163">  1  5  2 -1</clus>
</clustering>
</event>
<event>
10    4  0.3403565E-005  0.1580473E+03  0.7546771E-02  0.1213740E+00
          4   -1    0    0  503    0 -0.00000000000E+00  0.00000000000E+00  0.89796651083E+03  0.89796651083E+03  0.00000000000E+00 0. -1.
         21   -1    0    0  501  502  0.00000000000E+00 -0.00000000000E+00 -0.75602537565E+02  0.75602537565E+02  0.00000000000E+00 0. -1.
         24    2    1    2    0    0 -0.30712960716E+02 -0.52738961257E+01  0.37466841296E+03  0.38466577470E+03  0.81364848770E+02 0.  0.
         23    2    1    2    0    0 -0.51840594970E+02  0.77201519426E+02  0.16967261104E+03  0.21252108548E+03  0.87914133939E+02 0.  0.
        -13    1    3    3    0    0  0.20465597564E+02  0.11806804774E+02  0.47209912777E+02  0.52792207636E+02  0.00000000000E+00 0.  1.
         14    1    3    3    0    0 -0.51178558280E+02 -0.17080700899E+02  0.32745850018E+03  0.33187356706E+03  0.00000000000E+00 0. -1.
        -11    1    4    4    0    0 -0.57467087275E+02  0.51069244455E+02  0.54375950848E+02  0.94166224729E+02  0.00000000000E+00 0. -1.
         11    1    4    4    0    0  0.56264923047E+01  0.26132274971E+02  0.11529666020E+03  0.11835486075E+03  0.00000000000E+00 0.  1.
         21    1    1    2  503  502 -0.35553021445E+02  0.37938253374E+02  0.18060784501E+03  0.18794286919E+03  0.00000000000E+00 0.  1.
          3    1    1    2  501    0  0.11810657713E+03 -0.10986587667E+03  0.97415104258E+02  0.18843931903E+03  0.00000000000E+00 0. -1.
<scales pt_clust_5="13000.00000" pt_clust_6="13000.00000" pt_clust_7="13000.00000" pt_clust_8="13000.00000" pt_clust_9="51.99354" pt_clust_10="131.33949"></scales>
<clustering>
<clus scale="   51.994">  1  9  2 -1</clus>
<clus scale="   81.365">  5  6 -1 -1</clus>
<clus scale="   87.914">  7  8 -1 -1</clus>
<clus scale="   96.464">  1  5  2 -1</clus>
<clus scale="  131.339">  2 10  1 -1</clus>
<clus scale="  131.339">  2  5  1 -1</clus>
</clustering>
</event>
<event>
10    4  0.3403565E-005  0.1081054E+03  0.7546771E-02  0.1268799E+00
         21   -1    0    0  503  502  0.00000000000E+00  0.00000000000E+00  0.27569786107E+03  0.27569786107E+03  0.00000000000E+00 0. -1.
          2   -1    0    0  502    0 -0.00000000000E+00 -0.00000000000E+00 -0.15702856264E+03  0.15702856264E+03  0.00000000000E+00 0. -1.
         23    2    1    2    0    0 -0.59074641041E+02 -0.73149427883E+02 -0.91624351462E+01  0.13127624671E+03  0.91152897485E+02 0.  0.
         24    2    1    2    0    0  0.21855580702E+02 -0.11425332101E+02  0.67021908201E+02  0.10706902259E+03  0.79772393711E+02 0.  0.
        -13    1    4    4    0    0  0.13471593274E+02  0.30702335265E+02  0.87032070096E+01  0.34639039079E+02  0.00000000000E+00 0.  1.
         14    1    4    4    0    0  0.83839874282E+01 -0.42127667366E+02  0.58318701191E+02  0.72429983512E+02  0.00000000000E+00 0. -1.
        -11    1    3    3    0    0 -0.57361233962E+01 -0.66353098787E+02  0.20734802750E+02  0.69753629836E+02  0.00000000000E+00 0.  1.
         11    1    3    3    0    0 -0.53338517645E+02 -0.67963290957E+01 -0.29897237897E+02  0.61522616878E+02  0.00000000000E+00 0. -1.
         21    1    1    2  503  501  0.18062158548E+02  0.39052967878E+02  0.11396852842E+03  0.12182036505E+03  0.00000000000E+00 0. -1.
          1    1    1    2  501    0  0.19156901791E+02  0.45521792105E+02 -0.53158703041E+02  0.72560789354E+02  0.00000000000E+00 0. -1.
<scales pt_clust_5="13000.00000" pt_clust_6="13000.00000" pt_clust_7="13000.00000" pt_clust_8="13000.00000" pt_clust_9="43.02762" pt_clust_10="52.03211"></scales>
<clustering>
<clus scale="   43.028">  1  9  2 -1</clus>
<clus scale="   52.032">  1 10  2 -1</clus>
<clus scale="   79.772">  5  6 -1 -1</clus>
<clus scale="   91.153">  7  8 -1 -1</clus>
<clus scale="   98.699">  1  5  2 -1</clus>
<clus scale="   43.028">  1  5  2 -1</clus>
</clustering>
</event>
<event>
10    4  0.3403565E-005  0.2097939E+03  0.7546771E-02  0.1175081E+00
         -1   -1    0    0    0  501 -0.00000000000E+00  0.00000000000E+00  0.22638420885E+03  0.22638420885E+03  0.00000000000E+00 0.  1.
         21   -1    0    0  501  502  0.00000000000E+00 -0.00000000000E+00 -0.37151947319E+03  0.37151947319E+03  0.00000000000E+00 0. -1.
         24    2    1    2    0    0  0.51894391866E+02  0.30100460458E+02  0.43139608188E+02  0.10713765777E+03  0.77578259132E+02 0.  0.
         23    2    1    2    0    0 -0.15514788079E+02  0.18504686056E+03 -0.83439132529E+02  0.22319446837E+03  0.91491161428E+02 0.  0.
        -11    1    3    3    0    0 -0.96975679115E+01  0.31617416788E+02  0.28861781813E+02  0.43894262919E+02  0.00000000000E+00 0.  1.
         12    1    3    3    0    0  0.61591959778E+02 -0.15169563303E+01  0.14277826375E+02  0.63243394847E+02  0.00000000000E+00 0. -1.
        -11    1    4    4    0    0  0.29031106522E+02  0.68894590594E+02 -0.61644378771E+02  0.96898396236E+02  0.00000000000E+00 0.  1.
         11    1    4    4    0    0 -0.44545894600E+02  0.11615226997E+03 -0.21794753759E+02  0.12629607213E+03  0.00000000000E+00 0. -1.
         21    1    1    2  503  502 -0.22806106425E+02 -0.17817674402E+02 -0.57223593109E+02  0.64125873247E+02  0.00000000000E+00 0. -1.
         -2    1    1    2    0  503 -0.13573497362E+02 -0.19732964662E+03 -0.47612146890E+02  0.20344568267E+03  0.00000000000E+00 0.  1.
<scales pt_clust_5="13000.00000" pt_clust_6="13000.00000" pt_clust_7="13000.00000" pt_clust_8="13000.00000" pt_clust_9="28.94111" pt_clust_10="188.79324"></scales>
<clustering>
<clus scale="   28.941">  2  9  1 -1</clus>
<clus scale="   77.578">  5  6 -1 -1</clus>
<clus scale="   91.491">  7  8 -1 -1</clus>
<clus scale="   96.292">  1  5  2 -1</clus>
<clus scale="  188.793">  2 10  1 -1</clus>
<clus scale="   28.941">  2  5  1 -1</clus>
</clustering>
</event>
<event>
10    4  0.3403565E-005  0.9250809E+02  0.7546771E-02  0.1301779E+00
          2   -1    0    0  503    0 -0.00000000000E+00  0.00000000000E+00  0.31170590296E+03  0.31170590296E+03  0.00000000000E+00 0. -1.
         21   -1    0    0  501  502  0.00000000000E+00 -0.00000000000E+00 -0.35111405476E+03  0.35111405476E+03  0.00000000000E+00 0. -1.
         24    2    1    2    0    0 -0.22311141603E+01 -0.16170571686E+01  0.91262602663E+02  0.12127092725E+03  0.79813422468E+02 0.  0.
         23    2    1    2    0    0  0.65957599298E+02  0.20408917325E+02  0.10336699724E+03  0.15243057571E+03  0.88223667345E+02 0.  0.
        -11    1    3    3    0    0 -0.37005671523E+02 -0.11677754932E+02  0.26218722356E+02  0.46831731626E+02  0.00000000000E+00 0.  1.
         12    1    3    3    0    0  0.34774557362E+02  0.10060697764E+02  0.65043880307E+02  0.74439195620E+02  0.00000000000E+00 0. -1.
        -11    1    4    4    0    0  0.18134755849E+02  0.18057828254E+02 -0.11444986133E+02  0.28034661377E+02  0.00000000000E+00 0.  1.
         11    1    4    4    0    0  0.47822843449E+02  0.23510890704E+01  0.11481198337E+03  0.12439591433E+03  0.00000000000E+00 0. -1.
         21    1    1    2  503  502 -0.13619037263E+03 -0.42942144390E+02 -0.26943119901E+03  0.30493444601E+03  0.00000000000E+00 0. -1.
          1    1    1    2  501    0  0.72463887489E+02  0.24150284234E+02  0.35393447312E+02  0.84184008761E+02  0.00000000000E+00 0. -1.
<scales pt_clust_5="13000.00000" pt_clust_6="13000.00000" pt_clust_7="13000.00000" pt_clust_8="13000.00000" pt_clust_9="75.67744" pt_clust_10="76.38231"></scales>
<clustering>
<clus scale="   76.382">  2 10  1 -1</clus>
<clus scale="   75.677">  2  9  1 -1</clus>
<clus scale="   79.813">  5  6 -1 -1</clus>
<clus scale="   84.525">  1  5  2 -1</clus>
<clus scale="   88.224">  7  8 -1 -1</clus>
<clus scale="   76.382">  2  5  1 -1</clus>
</clustering>
</event>
<event>
10    4  0.3403565E-005  0.1294164E+03  0.7546771E-02  0.1231248E+00
         -3   -1    0    0    0  501 -0.00000000000E+00  0.00000000000E+00  0.30438499775E+03  0.30438499775E+03  0.00000000000E+00 0.  1.
         21   -1    0    0  503  502  0.00000000000E+00 -0.00000000000E+00 -0.31936354101E+03  0.31936354101E+03  0.00000000000E+00 0.  1.
         23    2    1    2    0    0  0.38329819378E+02 -0.89744829073E+02  0.24968621373E+03  0.28303143803E+03  0.90775989058E+02 0.  0.
         24    2    1    2    0    0 -0.23516823553E+02  0.15189684724E+02 -0.20669030130E+03  0.22324724013E+03  0.79590715910E+02 0.  0.
        -13    1    4    4    0    0 -0.52516030023E+02  0.11356558569E+02 -0.15214207354E+03  0.16135090757E+03  0.00000000000E+00 0.  1.
         14    1    4    4    0    0  0.28999206470E+02  0.38331261551E+01 -0.54548227762E+02  0.61896332557E+02  0.00000000000E+00 0. -1.
        -11    1    3    3    0    0  0.61552432875E+01 -0.41901785829E+02  0.21158023785E+02  0.47342461344E+02  0.00000000000E+00 0. -1.
         11    1    3    3    0    0  0.32174576091E+02 -0.47843043244E+02  0.22852818994E+03  0.23568897669E+03  0.00000000000E+00 0.  1.
         21    1    1    2  503  501 -0.14482374085E+02  0.36100762828E+02 -0.67451597849E+02  0.77863484948E+02  0.00000000000E+00 0. -1.
         -4    1    1    2    0  502 -0.33062174081E+00  0.38454381521E+02  0.94771421742E+01  0.39606375657E+02  0.00000000000E+00 0.  1.
<scales pt_clust_5="13000.00000" pt_clust_6="13000.00000" pt_clust_7="13000.00000" pt_clust_8="13000.00000" pt_clust_9="47.56616" pt_clust_10="38.45582"></scales>
<clustering>
<clus scale="   38.456">  2 10  1 -1</clus>
<clus scale="   47.566">  2  9  1 -1</clus>
<clus scale="   79.591">  5  6 -1 -1</clus>
<clus scale="   90.776">  7  8 -1 -1</clus>
<clus scale="  121.832">  2  5  1 -1</clus>
<clus scale="   38.456">  2  5  1 -1</clus>
</clustering>
</event>
<event>
10    4  0.3403565E-005  0.1271585E+03  0.7546771E-02  0.1242392E+00
          2   -1    0    0  502    0 -0.00000000000E+00  0.00000000000E+00  0.10537790756E+04  0.10537790756E+04  0.00000000000E+00 0. -1.
         21   -1    0    0  503  502  0.00000000000E+00 -0.00000000000E+00 -0.40702866587E+02  0.40702866587E+02  0.00000000000E+00 0. -1.
         24    2    1    2    0    0 -0.55754848054E+02 -0.16797326375E+02  0.22526264809E+03  0.24485364526E+03  0.76284295379E+02 0.  0.
         23    2    1    2    0    0 -0.46270747881E+02  0.46658060803E+02  0.17695574772E+03  0.21014846969E+03  0.92363877775E+02 0.  0.
        -13    1    3    3    0    0  0.10903208067E+02 -0.19286620237E+02  0.10517877032E+03  0.10748687079E+03  0.00000000000E+00 0.  1.
         14    1    3    3    0    0 -0.66658056121E+02  0.24892938615E+01  0.12008387776E+03  0.13736677447E+03  0.00000000000E+00 0. -1.
        -13    1    4    4    0    0 -0.57455317598E+02  0.17447081247E+02  0.46362832797E+02  0.75861890493E+02  0.00000000000E+00 0. -1.
         13    1    4    4    0    0  0.11184569717E+02  0.29210979556E+02  0.13059291492E+03  0.13428657920E+03  0.00000000000E+00 0.  1.
         21    1    1    2  503  501 -0.30937930409E+02 -0.16824254145E+02  0.40437898089E+02  0.53623079615E+02  0.00000000000E+00 0. -1.
          1    1    1    2  501    0  0.13296352634E+03 -0.13036480283E+02  0.57041991508E+03  0.58585674757E+03  0.00000000000E+00 0. -1.
<scales pt_clust_5="13000.00000" pt_clust_6="13000.00000" pt_clust_7="13000.00000" pt_clust_8="13000.00000" pt_clust_9="35.21663" pt_clust_10="87.39685"></scales>
<clustering>
<clus scale="   35.217">  2  9  1 -1</clus>
<clus scale="   76.284">  5  6 -1 -1</clus>
<clus scale="   92.364">  7  8 -1 -1</clus>
<clus scale="  102.300">  1  5  2 -1</clus>
<clus scale="   87.397">  2 10  1 -1</clus>
<clus scale="   35.217">  2  5  1 -1</clus>
</clustering>
</event>
<event>
10    4  0.3403565E-005  0.1805016E+03  0.7546771E-02  0.1176480E+00
         21   -1    0    0  503  502  0.00000000000E+00  0.00000000000E+00  0.19461492876E+03  0.19461492876E+03  0.00000000000E+00 0. -1.
          2   -1    0    0  502    0 -0.00000000000E+00 -0.00000000000E+00 -0.12253392787E+04  0.12253392787E+04  0.00000000000E+00 0. -1.
         24    2    1    2    0    0 -0.60806658486E+02 -0.10552783084E+03 -0.41359211418E+03  0.43828405590E+03  0.78745818616E+02 0.  0.
         23    2    1    2    0    0 -0.90457822135E+02  0.16161145381E+03 -0.71976551122E+03  0.74837073327E+03  0.87723906042E+02 0.  0.
        -11    1    3    3    0    0 -0.68873925778E+02 -0.92269486005E+02 -0.40388938687E+03  0.41998084780E+03  0.00000000000E+00 0.  1.
         12    1    3    3    0    0  0.80672672925E+01 -0.13258344837E+02 -0.97027273134E+01  0.18303208099E+02  0.00000000000E+00 0. -1.
        -13    1    4    4    0    0 -0.74669580124E+01  0.95081475310E+02 -0.27521020788E+03  0.29126774784E+03  0.00000000000E+00 0. -1.
         13    1    4    4    0    0 -0.82990864122E+02  0.66529978499E+02 -0.44455530334E+03  0.45710298543E+03  0.00000000000E+00 0.  1.
         21    1    1    2  503  501  0.19856470949E+01 -0.20146671214E+02  0.74497652838E+02  0.77199296848E+02  0.00000000000E+00 0. -1.
          1    1    1    2  501    0  0.14927883353E+03 -0.35936951752E+02  0.28135622655E+02  0.15610012140E+03  0.00000000000E+00 0. -1.
<scales pt_clust_5="13000.00000" pt_clust_6="13000.00000" pt_clust_7="13000.00000" pt_clust_8="13000.00000" pt_clust_9="20.24429" pt_clust_10="157.75088"></scales>
<clustering>
<clus scale="   20.244">  1  9  2 -1</clus>
<clus scale="   78.746">  5  6 -1 -1</clus>
<clus scale="   87.724">  7  8 -1 -1</clus>
<clus scale="  146.478">  2  5  1 -1</clus>
<clus scale="  157.751">  1 10  2 -1</clus>
<clus scale="   20.244">  1  5  2 -1</clus>
</clustering>
</event>
<event>
10    4  0.3403565E-005  0.3177088E+03  0.7546771E-02  0.1127583E+00
         21   -1    0    0  501  502  0.00000000000E+00  0.00000000000E+00  0.35689647782E+03  0.35689647782E+03  0.00000000000E+00 0. -1.
          2   -1    0    0  503    0 -0.00000000000E+00 -0.00000000000E+00 -0.12072433330E+04  0.12072433330E+04  0.00000000000E+00 0. -1.
         24    2    1    2    0    0  0.24996190608E+02 -0.16794510842E+02 -0.86288632503E+03  0.86708344564E+03  0.79712148685E+02 0.  0.
         23    2    1    2    0    0  0.21261033667E+03 -0.17922571971E+03 -0.10570406116E+03  0.31104727465E+03  0.90840765410E+02 0.  0.
        -11    1    3    3    0    0  0.80365649885E+01 -0.32225011879E+02 -0.14198653062E+03  0.14581910932E+03  0.00000000000E+00 0.  1.
         12    1    3    3    0    0  0.16959625620E+02  0.15430501036E+02 -0.72089979441E+03  0.72126433632E+03  0.00000000000E+00 0. -1.
        -11    1    4    4    0    0  0.39571571564E+02 -0.58725832492E+02  0.83695300939E+01  0.71306954162E+02  0.00000000000E+00 0.  1.
         11    1    4    4    0    0  0.17303876510E+03 -0.12049988722E+03 -0.11407359125E+03  0.23974032049E+03  0.00000000000E+00 0. -1.
         21    1    1    2  503  502  0.34120606893E+01 -0.30200155464E+02 -0.91761359540E+01  0.31747330900E+02  0.00000000000E+00 0.  1.
          1    1    1    2  501    0 -0.24101858796E+03  0.22622038602E+03  0.12741966697E+03  0.35426175962E+03  0.00000000000E+00 0. -1.
<scales pt_clust_5="13000.00000" pt_clust_6="13000.00000" pt_clust_7="13000.00000" pt_clust_8="13000.00000" pt_clust_9="30.39229" pt_clust_10="304.44510"></scales>
<clustering>
<clus scale="   30.392">  1  9  2 -1</clus>
<clus scale="   79.712">  5  6 -1 -1</clus>
<clus scale="   85.253">  2  5  1 -1</clus>
<clus scale="   90.841">  7  8 -1 -1</clus>
<clus scale="  304.445">  1 10  2 -1</clus>
<clus scale="   30.392">  1  5  2 -1</clus>
</clustering>
</event>
<event>
10    4  0.3403565E-005  0.2659700E+03  0.7546771E-02  0.1139672E+00
         21   -1    0    0  503  502  0.00000000000E+00  0.00000000000E+00  0.12958234246E+03  0.12958234246E+03  0.00000000000E+00 0. -1.
          2   -1    0    0  502    0 -0.00000000000E+00 -0.00000000000E+00 -0.14200409742E+04  0.14200409742E+04  0.00000000000E+00 0. -1.
         23    2    1    2    0    0 -0.52100916922E+02 -0.22414545054E+02 -0.26506853094E+03  0.28621849909E+03  0.91884632823E+02 0.  0.
         24    2    1    2    0    0  0.21176130560E+03  0.13805707401E+03 -0.25954773607E+03  0.37112581255E+03  0.80416013384E+02 0.  0.
        -11    1    4    4    0    0  0.13910277712E+03  0.78921182247E+02 -0.10807616252E+03  0.19302484947E+03  0.00000000000E+00 0.  1.
         12    1    4    4    0    0  0.72658528483E+02  0.59135891762E+02 -0.15147157355E+03  0.17810096307E+03  0.00000000000E+00 0. -1.
        -13    1    3    3    0    0 -0.46416259222E+02 -0.54672497718E+02 -0.21254169208E+03  0.22431567488E+03  0.00000000000E+00 0. -1.
         13    1    3    3    0    0 -0.56846577006E+01  0.32257952664E+02 -0.52526838868E+02  0.61902824207E+02  0.00000000000E+00 0.  1.
         21    1    1    2  503  501 -0.28201372812E+02  0.76024075440E+02  0.10619614408E+02  0.81778687231E+02  0.00000000000E+00 0. -1.
          1    1    1    2  501    0 -0.13145901587E+03 -0.19166660440E+03 -0.77646197910E+03  0.81050031776E+03  0.00000000000E+00 0. -1.
<scales pt_clust_5="13000.00000" pt_clust_6="13000.00000" pt_clust_7="13000.00000" pt_clust_8="13000.00000" pt_clust_9="81.08623" pt_clust_10="253.52192"></scales>
<clustering>
<clus scale="   80.416">  5  6 -1 -1</clus>
<clus scale="   81.086">  1  9  2 -1</clus>
<clus scale="   91.885">  7  8 -1 -1</clus>
<clus scale="  108.194">  2  7  1 -1</clus>
<clus scale="  253.522">  1 10  2 -1</clus>
<clus scale="   81.086">  1  5  2 -1</clus>
</clustering>
</event>
<event>
10    4  0.3403565E-005  0.1003470E+03  0.7546771E-02  0.1287050E+00
          2   -1    0    0  503    0 -0.00000000000E+00  0.00000000000E+00  0.11239637921E+04  0.11239637921E+04  0.00000000000E+00 0. -1.
         21   -1    0    0  501  502  0.00000000000E+00 -0.00000000000E+00 -0.25639246977E+02  0.25639246977E+02  0.00000000000E+00 0. -1.
         24    2    1    2    0    0  0.30833604504E+02 -0.28396114201E+02  0.82019445884E+03  0.82508423539E+03  0.79296877073E+02 0.  0.
         23    2    1    2    0    0 -0.15352069434E+02  0.50323850917E+01  0.24826204370E+03  0.26583266666E+03  0.93658706948E+02 0.  0.
        -11    1    3    3    0    0  0.23404308884E+02  0.52897576666E+01  0.68179698061E+02  0.72278727425E+02  0.00000000000E+00 0.  1.
         12    1    3    3    0    0  0.74292956201E+01 -0.33685871868E+02  0.75201476078E+03  0.75280550796E+03  0.00000000000E+00 0. -1.
        -11    1    4    4    0    0  0.45499452072E+01  0.38083182910E+02  0.45850198323E+02  0.59776847593E+02  0.00000000000E+00 0. -1.
         11    1    4    4    0    0 -0.19902014641E+02 -0.33050797819E+02  0.20241184538E+03  0.20605581907E+03  0.00000000000E+00 0.  1.
         21    1    1    2  503  502  0.12987796243E+02  0.15533016524E+02  0.17159663950E+02  0.26540752070E+02  0.00000000000E+00 0. -1.
          1    1    1    2  501    0 -0.28469331314E+02  0.78307125858E+01  0.12708378605E+02  0.32145384923E+02  0.00000000000E+00 0. -1.
<scales pt_clust_5="13000.00000" pt_clust_6="13000.00000" pt_clust_7="13000.00000" pt_clust_8="13000.00000" pt_clust_9="20.24741" pt_clust_10="27.01555"></scales>
<clustering>
<clus scale="   20.247">  2  9  1 -1</clus>
<clus scale="   27.016">  2 10  1 -1</clus>
<clus scale="   79.297">  5  6 -1 -1</clus>
<clus scale="   87.095">  1  5  2 -1</clus>
<clus scale="   93.659">  7  8 -1 -1</clus>
<clus scale="   20.247">  2  5  1 -1</clus>
</clustering>
</event>
<event>
10    4  0.3403565E-005  0.1306235E+03  0.7546771E-02  0.1240816E+00
         21   -1    0    0  503  502  0.00000000000E+00  0.00000000000E+00  0.65675201122E+03  0.65675201122E+03  0.00000000000E+00 0. -1.
         -1   -1    0    0    0  501 -0.00000000000E+00 -0.00000000000E+00 -0.21756185205E+03  0.21756185205E+03  0.00000000000E+00 0.  1.
         23    2    1    2    0    0  0.14641544230E+02 -0.30094031285E+02 -0.90450165798E+02  0.13195873298E+03  0.90065804718E+02 0.  0.
         24    2    1    2    0    0  0.76165524628E+02  0.99598025018E+02  0.26350517285E+03  0.30266371285E+03  0.80308114348E+02 0.  0.
        -13    1    4    4    0    0  0.58486192840E+02  0.13387161393E+02  0.90862475265E+02  0.10888452716E+03  0.00000000000E+00 0.  1.
         14    1    4    4    0    0  0.17679331788E+02  0.86210863624E+02  0.17264269759E+03  0.19377918570E+03  0.00000000000E+00 0. -1.
        -11    1    3    3    0    0 -0.25763346455E+02 -0.45047047957E+02 -0.59262981425E+02  0.78772377885E+02  0.00000000000E+00 0.  1.
         11    1    3    3    0    0  0.40404890685E+02  0.14953016672E+02 -0.31187184372E+02  0.53186355091E+02  0.00000000000E+00 0. -1.
         21    1    1    2  503  501  0.16823788033E+02 -0.58993720251E+02  0.31507406396E+03  0.32099059901E+03  0.00000000000E+00 0. -1.
         -2    1    1    2    0  502 -0.10763085689E+03 -0.10510273481E+02 -0.48938911842E+02  0.11870081843E+03  0.00000000000E+00 0.  1.
<scales pt_clust_5="13000.00000" pt_clust_6="13000.00000" pt_clust_7="13000.00000" pt_clust_8="13000.00000" pt_clust_9="61.34573" pt_clust_10="103.01997"></scales>
<clustering>
<clus scale="   61.346">  1  9  2 -1</clus>
<clus scale="   80.308">  5  6 -1 -1</clus>
<clus scale="   90.066">  7  8 -1 -1</clus>
<clus scale="   97.436">  2  7  1 -1</clus>
<clus scale="  103.020">  1 10  2 -1</clus>
<clus scale="   61.346">  1  5  2 -1</clus>
</clustering>
</event>
<event>
10    4  0.3403565E-005  0.1223937E+03  0.7546771E-02  0.1242406E+00
         21   -1    0    0  501  502  0.00000000000E+00  0.00000000000E+00  0.22716953395E+03  0.22716953395E+03  0.00000000000E+00 0. -1.
          2   -1    0    0  503    0 -0.00000000000E+00 -0.00000000000E+00 -0.16597461864E+03  0.16597461864E+03  0.00000000000E+00 0. -1.
         24    2    1    2    0    0  0.45278408692E+02 -0.92883486702E+02 -0.49149717125E+02  0.14075485825E+03  0.81968036644E+02 0.  0.
         23    2    1    2    0    0  0.28141067714E+01  0.47171414969E+02  0.38826179584E+02  0.11084342492E+03  0.92443123268E+02 0.  0.
        -11    1    3    3    0    0 -0.24181307405E+02 -0.23953477337E+02 -0.12917013735E+02  0.36405410974E+02  0.00000000000E+00 0.  1.
         12    1    3    3    0    0  0.69459716097E+02 -0.68930009365E+02 -0.36232703390E+02  0.10434944727E+03  0.00000000000E+00 0. -1.
        -13    1    4    4    0    0  0.20905560137E+02  0.61553090386E+02 -0.75291330383E+00  0.65010708803E+02  0.00000000000E+00 0.  1.
         13    1    4    4    0    0 -0.18091453365E+02 -0.14381675417E+02  0.39579092888E+02  0.45832716115E+02  0.00000000000E+00 0. -1.
         21    1    1    2  503  502 -0.34594946150E+02 -0.19240338848E+02  0.63355432860E+02  0.74705500540E+02  0.00000000000E+00 0.  1.
          1    1    1    2  501    0 -0.13497569314E+02  0.64952410582E+02  0.81630199955E+01  0.66840368889E+02  0.00000000000E+00 0. -1.
<scales pt_clust_5="13000.00000" pt_clust_6="13000.00000" pt_clust_7="13000.00000" pt_clust_8="13000.00000" pt_clust_9="39.58536" pt_clust_10="64.17064"></scales>
<clustering>
<clus scale="   39.585">  1  9  2 -1</clus>
<clus scale="   64.171">  1 10  2 -1</clus>
<clus scale="   81.968">  5  6 -1 -1</clus>
<clus scale="   92.443">  7  8 -1 -1</clus>
<clus scale="  114.688">  2  5  1 -1</clus>
<clus scale="   39.585">  1  5  2 -1</clus>
</clustering>
</event>
<event>
10    4  0.3403565E-005  0.2146180E+03  0.7546771E-02  0.1168680E+00
          2   -1    0    0  502    0 -0.00000000000E+00  0.00000000000E+00  0.47811918712E+03  0.47811918712E+03  0.00000000000E+00 0. -1.
         21   -1    0    0  503  502  0.00000000000E+00 -0.00000000000E+00 -0.18106230758E+03  0.18106230758E+03  0.00000000000E+00 0. -1.
         24    2    1    2    0    0  0.41659474556E+02  0.47757267073E+02  0.50307360478E+02  0.11319340798E+03  0.79155850780E+02 0.  0.
         23    2    1    2    0    0  0.64189214385E+02 -0.22802533629E+03  0.14415838687E+03  0.29263115686E+03  0.93464133360E+02 0.  0.
        -13    1    3    3    0    0  0.48091427664E+02  0.11081115365E+02 -0.15219384092E+01  0.49375022319E+02  0.00000000000E+00 0.  1.
         14    1    3    3    0    0 -0.64319531081E+01  0.36676151708E+02  0.51829298887E+02  0.63818385658E+02  0.00000000000E+00 0. -1.
        -11    1    4    4    0    0  0.60375527448E+01 -0.11628866943E+03  0.24710585074E+02  0.11903831188E+03  0.00000000000E+00 0.  1.
         11    1    4    4    0    0  0.58151661641E+02 -0.11173666686E+03  0.11944780180E+03  0.17359284498E+03  0.00000000000E+00 0. -1.
         21    1    1    2  503  501 -0.21394342758E+02  0.40750597110E+02 -0.19140962820E+02  0.49846820606E+02  0.00000000000E+00 0.  1.
          1    1    1    2  501    0 -0.84454346184E+02  0.13951747211E+03  0.12173209501E+03  0.20351010925E+03  0.00000000000E+00 0. -1.
<scales pt_clust_5="13000.00000" pt_clust_6="13000.00000" pt_clust_7="13000.00000" pt_clust_8="13000.00000" pt_clust_9="46.02531" pt_clust_10="193.19780"></scales>
<clustering>
<clus scale="   46.025">  2  9  1 -1</clus>
<clus scale="   79.156">  5  6 -1 -1</clus>
<clus scale="   93.464">  7  8 -1 -1</clus>
<clus scale="  104.077">  1  5  2 -1</clus>
<clus scale="  193.198">  2 10  1 -1</clus>
<clus scale="   46.025">  2  5  1 -1</clus>
</clustering>
</event>
<event>
10    4  0.3403565E-005  0.1518954E+03  0.7546771E-02  0.1210861E+00
         21   -1    0    0  503  502  0.00000000000E+00  0.00000000000E+00  0.89236685136E+03  0.89236685136E+03  0.00000000000E+00 0. -1.
         -1   -1    0    0    0  501 -0.00000000000E+00 -0.00000000000E+00 -0.12940516454E+03  0.12940516454E+03  0.00000000000E+00 0.  1.
         23    2    1    2    0    0  0.45368642341E+02  0.56673086596E+02 -0.38038506206E+02  0.12076167482E+03  0.88692173836E+02 0.  0.
         24    2    1    2    0    0 -0.15023177779E+03  0.38959247539E+02  0.51894443598E+03  0.54845223520E+03  0.86076225675E+02 0.  0.
        -13    1    4    4    0    0 -0.68231725821E+02  0.23332480471E+02  0.11325282255E+03  0.13426159119E+03  0.00000000000E+00 0.  1.
         14    1    4    4    0    0 -0.82000051970E+02  0.15626767068E+02  0.40569161343E+03  0.41419064400E+03  0.00000000000E+00 0. -1.
        -13    1    3    3    0    0  0.93023632091E+01  0.67733547113E+02 -0.17122047500E+01  0.68390781622E+02  0.00000000000E+00 0.  1.
         13    1    3    3    0    0  0.36066279131E+02 -0.11060460517E+02 -0.36326301456E+02  0.52370893202E+02  0.00000000000E+00 0. -1.
         21    1    1    2  503  501  0.33475597938E+02  0.33275459250E+01  0.20609992359E+03  0.20882736105E+03  0.00000000000E+00 0. -1.
         -2    1    1    2    0  502  0.71387537512E+02 -0.98959880060E+02  0.75955833451E+02  0.14373074483E+03  0.00000000000E+00 0.  1.
<scales pt_clust_5="13000.00000" pt_clust_6="13000.00000" pt_clust_7="13000.00000" pt_clust_8="13000.00000" pt_clust_9="33.64057" pt_clust_10="125.15232"></scales>
<clustering>
<clus scale="   33.641">  1  9  2 -1</clus>
<clus scale="   86.076">  5  6 -1 -1</clus>
<clus scale="   88.692">  7  8 -1 -1</clus>
<clus scale="  115.528">  2  7  1 -1</clus>
<clus scale="  125.152">  1 10  2 -1</clus>
<clus scale="   33.641">  1  5  2 -1</clus>
</clustering>
</event>
<event>
10    4  0.3403565E-005  0.1366829E+03  0.7546771E-02  0.1220726E+00
         21   -1    0    0  501  502  0.00000000000E+00  0.00000000000E+00  0.48373527132E+03  0.48373527132E+03  0.00000000000E+00 0.  1.
         -1   -1    0    0    0  501 -0.00000000000E+00 -0.00000000000E+00 -0.15508763017E+03  0.15508763017E+03  0.00000000000E+00 0.  1.
         23    2    1    2    0    0  0.10815455687E+03  0.87732845911E+01 -0.13274525632E+02  0.14313802476E+03  0.92400770597E+02 0.  0.
         24    2    1    2    0    0 -0.71336594630E+02  0.10872939001E+03  0.55694257754E+02  0.16257949527E+03  0.80120234342E+02 0.  0.
        -11    1    4    4    0    0 -0.24329009684E+02  0.10056225371E+03  0.27093420119E+02  0.10695195649E+03  0.00000000000E+00 0.  1.
         12    1    4    4    0    0 -0.47007584946E+02  0.81671363034E+01  0.28600837635E+02  0.55627538785E+02  0.00000000000E+00 0. -1.
        -11    1    3    3    0    0  0.74030811387E+01  0.28345728005E+02  0.19737052536E+02  0.35324738489E+02  0.00000000000E+00 0. -1.
         11    1    3    3    0    0  0.10075147574E+03 -0.19572443413E+02 -0.33011578168E+02  0.10781328627E+03  0.00000000000E+00 0.  1.
         21    1    1    2  503  502 -0.17459119451E+02  0.11122298223E+02  0.12131589893E+03  0.12306938572E+03  0.00000000000E+00 0.  1.
         -2    1    1    2    0  503 -0.19358842793E+02 -0.12862497283E+03  0.16491201010E+03  0.21003599573E+03  0.00000000000E+00 0.  1.
<scales pt_clust_5="13000.00000" pt_clust_6="13000.00000" pt_clust_7="13000.00000" pt_clust_8="13000.00000" pt_clust_9="20.70088" pt_clust_10="126.10013"></scales>
<clustering>
<clus scale="   20.701">  1  9  2 -1</clus>
<clus scale="   80.120">  5  6 -1 -1</clus>
<clus scale="   92.401">  7  8 -1 -1</clus>
<clus scale="  126.100">  1 10  2 -1</clus>
<clus scale="  128.700">  1  5  2 -1</clus>
<clus scale="   20.701">  1  5  2 -1</clus>
</clustering>
</event>
<event>
10    4  0.3403565E-005  0.2147429E+03  0.7546771E-02  0.1138592E+00
          2   -1    0    0  502    0 -0.00000000000E+00  0.00000000000E+00  0.17190562243E+04  0.17190562243E+04  0.00000000000E+00 0. -1.
         21   -1    0    0  503  502  0.00000000000E+00 -0.00000000000E+00 -0.89872659370E+02  0.89872659370E+02  0.00000000000E+00 0.  1.
         24    2    1    2    0    0 -0.85976860759E+02 -0.17725246024E+03  0.11006636737E+04  0.11211143408E+04  0.81402625400E+02 0.  0.
         23    2    1    2    0    0  0.19040272540E+03  0.10246425721E+03  0.18294731447E+03  0.29739518731E+03  0.90675551913E+02 0.  0.
        -13    1    3    3    0    0 -0.73195141708E+02 -0.61733834922E+02  0.43907544715E+03  0.44939497487E+03  0.00000000000E+00 0.  1.
         14    1    3    3    0    0 -0.12781719050E+02 -0.11551862532E+03  0.66158822652E+03  0.67171936597E+03  0.00000000000E+00 0. -1.
        -11    1    4    4    0    0  0.12624922078E+03  0.16731312719E+02  0.10191038775E+03  0.16310895041E+03  0.00000000000E+00 0.  1.
         11    1    4    4    0    0  0.64153504617E+02  0.85732944496E+02  0.81036926719E+02  0.13428623689E+03  0.00000000000E+00 0. -1.
         21    1    1    2  503  501 -0.14931917426E+02 -0.17650105110E+02  0.16034733631E+01  0.23174544122E+02  0.00000000000E+00 0.  1.
          1    1    1    2  501    0 -0.89493947214E+02  0.92438308138E+02  0.34396910339E+03  0.36724481138E+03  0.00000000000E+00 0. -1.
<scales pt_clust_5="13000.00000" pt_clust_6="13000.00000" pt_clust_7="13000.00000" pt_clust_8="13000.00000" pt_clust_9="23.11900" pt_clust_10="128.36943"></scales>
<clustering>
<clus scale="   23.119">  2  9  1 -1</clus>
<clus scale="   81.403">  5  6 -1 -1</clus>
<clus scale="   90.676">  7  8 -1 -1</clus>
<clus scale="  128.369">  2 10  1 -1</clus>
<clus scale="  210.995">  1  5  2 -1</clus>
<clus scale="   23.119">  2  5  1 -1</clus>
</clustering>
</event>
<event>
10    4  0.3403565E-005  0.1508457E+03  0.7546771E-02  0.1226094E+00
          2   -1    0    0  503    0 -0.00000000000E+00  0.00000000000E+00  0.83815581449E+03  0.83815581449E+03  0.00000000000E+00 0. -1.
         21   -1    0    0  501  502  0.00000000000E+00 -0.00000000000E+00 -0.30255956642E+03  0.30255956642E+03  0.00000000000E+00 0. -1.
         24    2    1    2    0    0  0.30313446444E+02 -0.17916345474E+02  0.13504856520E+03  0.16005294887E+03  0.78351330622E+02 0.  0.
         23    2    1    2    0    0 -0.96491331012E+02  0.67787712330E+02  0.91756045665E+02  0.17505193491E+03  0.91204479578E+02 0.  0.
        -13    1    3    3    0    0  0.67826415012E+01  0.19106861112E+02  0.10485735534E+03  0.10679953809E+03  0.00000000000E+00 0.  1.
         14    1    3    3    0    0  0.23530804943E+02 -0.37023206586E+02  0.30191209857E+02  0.53253410781E+02  0.00000000000E+00 0. -1.
        -13    1    4    4    0    0 -0.52626240957E+02  0.61033179478E+02  0.10151028165E+03  0.12961059955E+03  0.00000000000E+00 0.  1.
         13    1    4    4    0    0 -0.43865090055E+02  0.67545328512E+01 -0.97542359842E+01  0.45441335359E+02  0.00000000000E+00 0. -1.
         21    1    1    2  503  502  0.10865525006E+02  0.32011527735E+02 -0.24284845503E+03  0.24519006842E+03  0.00000000000E+00 0. -1.
          1    1    1    2  501    0  0.55312359562E+02 -0.81882894590E+02  0.55164009224E+03  0.56042042871E+03  0.00000000000E+00 0. -1.
<scales pt_clust_5="13000.00000" pt_clust_6="13000.00000" pt_clust_7="13000.00000" pt_clust_8="13000.00000" pt_clust_9="33.80529" pt_clust_10="120.15060"></scales>
<clustering>
<clus scale="   33.805">  2  9  1 -1</clus>
<clus scale="   78.351">  5  6 -1 -1</clus>
<clus scale="   85.596">  1  5  2 -1</clus>
<clus scale="   91.204">  7  8 -1 -1</clus>
<clus scale="  120.151">  2 10  1 -1</clus>
<clus scale="   33.805">  2  5  1 -1</clus>
</clustering>
</event>
<event>
10    4  0.3403565E-005  0.2009580E+03  0.7546771E-02  0.1163737E+00
         -1   -1    0    0    0  501 -0.00000000000E+00  0.00000000000E+00  0.53668937313E+03  0.53668937313E+03  0.00000000000E+00 0.  1.
         21   -1    0    0  501  502  0.00000000000E+00 -0.00000000000E+00 -0.26749091746E+03  0.26749091746E+03  0.00000000000E+00 0.  1.
         23    2    1    2    0    0 -0.12738396056E+03 -0.15812613371E+02  0.44914452100E+02  0.16165287709E+03  0.87393549610E+02 0.  0.
         24    2    1    2    0    0 -0.20964576096E+02 -0.18058172714E+03  0.18165928700E+03  0.26886558949E+03  0.78989461530E+02 0.  0.
        -13    1    4    4    0    0 -0.34330795088E+00 -0.13151552843E+03  0.16902485087E+03  0.21416314410E+03  0.00000000000E+00 0.  1.
         14    1    4    4    0    0 -0.20621268145E+02 -0.49066198708E+02  0.12634436126E+02  0.54702445391E+02  0.00000000000E+00 0. -1.
        -13    1    3    3    0    0 -0.95275466821E+02 -0.51127358388E+01  0.70992927683E+02  0.11892665986E+03  0.00000000000E+00 0. -1.
         13    1    3    3    0    0 -0.32108493739E+02 -0.10699877532E+02 -0.26078475582E+02  0.42726217222E+02  0.00000000000E+00 0.  1.
         21    1    1    2  503  502  0.39976937448E+02  0.29461379225E+02 -0.11142001289E+03  0.12198585027E+03  0.00000000000E+00 0.  1.
         -2    1    1    2    0  503  0.10837159921E+03  0.16693296129E+03  0.15404472947E+03  0.25167597373E+03  0.00000000000E+00 0.  1.
<scales pt_clust_5="13000.00000" pt_clust_6="13000.00000" pt_clust_7="13000.00000" pt_clust_8="13000.00000" pt_clust_9="49.66013" pt_clust_10="184.78312"></scales>
<clustering>
<clus scale="   49.660">  2  9  1 -1</clus>
<clus scale="   78.989">  5  6 -1 -1</clus>
<clus scale="   87.394">  7  8 -1 -1</clus>
<clus scale="  142.059">  1  7  2 -1</clus>
<clus scale="  184.783">  2 10  1 -1</clus>
<clus scale="   49.660">  2  5  1 -1</clus>
</clustering>
</event>
<event>
10    4  0.3403565E-005  0.3446608E+03  0.7546771E-02  0.1093121E+00
          2   -1    0    0  502    0 -0.00000000000E+00  0.00000000000E+00  0.17419419534E+04  0.17419419534E+04  0.00000000000E+00 0. -1.
         21   -1    0    0  503  502  0.00000000000E+00 -0.00000000000E+00 -0.58869548712E+03  0.58869548712E+03  0.00000000000E+00 0. -1.
         23    2    1    2    0    0 -0.89376076070E+02  0.85588552413E+02  0.19385199830E+03  0.24721968513E+03  0.90694499228E+02 0.  0.
         24    2    1    2    0    0 -0.77344883525E+02  0.21120968473E+03  0.12280073712E+04  0.12509986913E+04  0.80024121624E+02 0.  0.
        -13    1    4    4    0    0 -0.33041790501E+02  0.12833289511E+02  0.17566043099E+03  0.17920111678E+03  0.00000000000E+00 0.  1.
         14    1    4    4    0    0 -0.44303093024E+02  0.19837639522E+03  0.10523469402E+04  0.10717975745E+04  0.00000000000E+00 0. -1.
        -13    1    3    3    0    0 -0.86762174638E+02  0.45068916516E+02  0.17904547213E+03  0.20400040018E+03  0.00000000000E+00 0. -1.
         13    1    3    3    0    0 -0.26139014325E+01  0.40519635897E+02  0.14806526173E+02  0.43219284946E+02  0.00000000000E+00 0.  1.
         21    1    1    2  503  501 -0.26986210686E+02  0.59442481870E+02 -0.40067363534E+03  0.40595692663E+03  0.00000000000E+00 0. -1.
          1    1    1    2  501    0  0.19370717028E+03 -0.35624071902E+03  0.13206073212E+03  0.42646213744E+03  0.00000000000E+00 0. -1.
<scales pt_clust_5="13000.00000" pt_clust_6="13000.00000" pt_clust_7="13000.00000" pt_clust_8="13000.00000" pt_clust_9="65.28142" pt_clust_10="335.24205"></scales>
<clustering>
<clus scale="   65.281">  2  9  1 -1</clus>
<clus scale="   80.024">  5  6 -1 -1</clus>
<clus scale="   90.694">  7  8 -1 -1</clus>
<clus scale="  160.581">  1  7  2 -1</clus>
<clus scale="  335.242">  2 10  1 -1</clus>
<clus scale="   65.281">  2  5  1 -1</clus>
</clustering>
</event>
<event>
10    4  0.3403565E-005  0.1474292E+03  0.7546771E-02  0.1213094E+00
         21   -1    0    0  503  502  0.00000000000E+00  0.00000000000E+00  0.10241444817E+03  0.10241444817E+03  0.00000000000E+00 0.  1.
          2   -1    0    0  502    0 -0.00000000000E+00 -0.00000000000E+00 -0.10510701865E+04  0.10510701865E+04  0.00000000000E+00 0. -1.
         24    2    1    2    0    0 -0.40206437007E+02 -0.58812098639E+02 -0.65113577000E+01  0.10778072619E+03  0.80615548356E+02 0.  0.
         23    2    1    2    0    0 -0.67369115228E+02 -0.63411562034E+02 -0.13787574578E+03  0.18950956856E+03  0.91348406743E+02 0.  0.
        -13    1    3    3    0    0 -0.31815005388E+02 -0.70093583239E+02  0.18427938038E+02  0.79151082617E+02  0.00000000000E+00 0.  1.
         14    1    3    3    0    0 -0.83914316190E+01  0.11281484601E+02 -0.24939295738E+02  0.28629643577E+02  0.00000000000E+00 0. -1.
        -11    1    4    4    0    0 -0.38580556248E+02 -0.18010775900E+02 -0.12794197729E+03  0.13484063528E+03  0.00000000000E+00 0.  1.
         11    1    4    4    0    0 -0.28788558980E+02 -0.45400786134E+02 -0.99337684906E+01  0.54668933281E+02  0.00000000000E+00 0. -1.
         21    1    1    2  503  501  0.16000509710E+02 -0.43677586247E+02 -0.22286606064E+02  0.51579459684E+02  0.00000000000E+00 0. -1.
          1    1    1    2  501    0  0.91575042524E+02  0.16590124692E+03 -0.78198202881E+03  0.80461488026E+03  0.00000000000E+00 0. -1.
<scales pt_clust_5="13000.00000" pt_clust_6="13000.00000" pt_clust_7="13000.00000" pt_clust_8="13000.00000" pt_clust_9="46.51610" pt_clust_10="115.71879"></scales>
<clustering>
<clus scale="   46.516">  1  9  2 -1</clus>
<clus scale="   80.616">  5  6 -1 -1</clus>
<clus scale="   91.348">  7  8 -1 -1</clus>
<clus scale="  120.483">  2  5  1 -1</clus>
<clus scale="  115.719">  1 10  2 -1</clus>
<clus scale="   46.516">  1  5  2 -1</clus>
</clustering>
</event>
<event>
10    4  0.3403565E-005  0.1223900E+03  0.7546771E-02  0.1252891E+00
         21   -1    0    0  501  502  0.00000000000E+00  0.00000000000E+00  0.20637897292E+03  0.20637897292E+03  0.00000000000E+00 0. -1.
          2   -1    0    0  503    0 -0.00000000000E+00 -0.00000000000E+00 -0.28424500931E+03  0.28424500931E+03  0.00000000000E+00 0. -1.
         24    2    1    2    0    0 -0.85867962273E+01  0.42603585768E+02 -0.13154569996E+03  0.16053813911E+03  0.81113650771E+02 0.  0.
         23    2    1    2    0    0  0.42163882984E+02 -0.81828031373E+01  0.81257121275E+02  0.12815761678E+03  0.89313513455E+02 0.  0.
        -13    1    3    3    0    0 -0.87651589168E+01  0.61798838046E+02 -0.12590974027E+03  0.14053180099E+03  0.00000000000E+00 0.  1.
         14    1    3    3    0    0  0.17836268951E+00 -0.19195252278E+02 -0.56359596853E+01  0.20006338116E+02  0.00000000000E+00 0. -1.
        -13    1    4    4    0    0  0.59222830006E+02 -0.26877438118E+02  0.79606787908E+02  0.10279582168E+03  0.00000000000E+00 0. -1.
         13    1    4    4    0    0 -0.17058947022E+02  0.18694634981E+02  0.16503333668E+01  0.25361795102E+02  0.00000000000E+00 0.  1.
         21    1    1    2  503  502  0.53510921688E+02  0.27072863082E+02  0.43246630100E+02  0.73936659854E+02  0.00000000000E+00 0. -1.
          1    1    1    2  501    0 -0.87088008444E+02 -0.61493645713E+02 -0.70824087802E+02  0.12799156648E+03  0.00000000000E+00 0. -1.
<scales pt_clust_5="13000.00000" pt_clust_6="13000.00000" pt_clust_7="13000.00000" pt_clust_8="13000.00000" pt_clust_9="59.96965" pt_clust_10="83.68037"></scales>
<clustering>
<clus scale="   59.970">  1  9  2 -1</clus>
<clus scale="   81.114">  5  6 -1 -1</clus>
<clus scale="   89.314">  7  8 -1 -1</clus>
<clus scale="   92.946">  2  5  1 -1</clus>
<clus scale="   83.680">  1 10  2 -1</clus>
<clus scale="   59.970">  1  5  2 -1</clus>
</clustering>
</event>
<event>
10    4  0.3403565E-005  0.2793456E+03  0.7546771E-02  0.1096458E+00
          2   -1    0    0  502    0 -0.00000000000E+00  0.00000000000E+00  0.17230864190E+04  0.17230864190E+04  0.00000000000E+00 0. -1.
         21   -1    0    0  503  502  0.00000000000E+00 -0.00000000000E+00 -0.40303233520E+03  0.40303233520E+03  0.00000000000E+00 0.  1.
         23    2    1    2    0    0  0.14011590758E+03  0.19816872287E+03  0.65977622410E+03  0.70890755646E+03  0.91334262136E+02 0.  0.
         24    2    1    2    0    0 -0.25110352249E+03 -0.17060941655E+03  0.69513817331E+03  0.76292907941E+03  0.81750524106E+02 0.  0.
        -13    1    4    4    0    0 -0.24645574112E+03 -0.14114131259E+03  0.61476939476E+03  0.67720211989E+03  0.00000000000E+00 0.  1.
         14    1    4    4    0    0 -0.46477813739E+01 -0.29468103964E+02  0.80368778552E+02  0.85726959521E+02  0.00000000000E+00 0. -1.
        -11    1    3    3    0    0  0.74250622656E+02  0.13246515877E+03  0.51409884527E+03  0.53605764238E+03  0.00000000000E+00 0. -1.
         11    1    3    3    0    0  0.65865284921E+02  0.65703564099E+02  0.14567737884E+03  0.17284991408E+03  0.00000000000E+00 0.  1.
         21    1    1    2  503  501 -0.24662796258E+02 -0.95978989549E+02 -0.31793096429E+03  0.33301699358E+03  0.00000000000E+00 0.  1.
          1    1    1    2  501    0  0.13565041117E+03  0.68419683235E+02  0.28307065067E+03  0.32126512474E+03  0.00000000000E+00 0. -1.
<scales pt_clust_5="13000.00000" pt_clust_6="13000.00000" pt_clust_7="13000.00000" pt_clust_8="13000.00000" pt_clust_9="99.09702" pt_clust_10="137.09933"></scales>
<clustering>
<clus scale="   81.751">  5  6 -1 -1</clus>
<clus scale="   91.334">  7  8 -1 -1</clus>
<clus scale="   99.097">  2  9  1 -1</clus>
<clus scale="  137.099">  2 10  1 -1</clus>
<clus scale="  276.361">  2  5  1 -1</clus>
<clus scale="   99.097">  2  5  1 -1</clus>
</clustering>
</event>
<event>
10    4  0.3403565E-005  0.1172041E+03  0.7546771E-02  0.1251577E+00
          2   -1    0    0  503    0 -0.00000000000E+00  0.00000000000E+00  0.11191344351E+04  0.11191344351E+04  0.00000000000E+00 0. -1.
         21   -1    0    0  501  502  0.00000000000E+00 -0.00000000000E+00 -0.42510228752E+03  0.42510228752E+03  0.00000000000E+00 0. -1.
         24    2    1    2    0    0  0.58875556268E+02 -0.62482882376E+02  0.48049071011E+03  0.49447694268E+03  0.79156065004E+02 0.  0.
         23    2    1    2    0    0  0.45125283483E+02  0.84070446743E+02  0.24129468317E+03  0.27482132149E+03  0.90551109298E+02 0.  0.
        -11    1    3    3    0    0  0.69404115405E+02 -0.29102396321E+02  0.24202157589E+03  0.25345280409E+03  0.00000000000E+00 0.  1.
         12    1    3    3    0    0 -0.10528559137E+02 -0.33380486055E+02  0.23846913422E+03  0.24102413859E+03  0.00000000000E+00 0. -1.
        -11    1    4    4    0    0  0.34837939968E+02 -0.10498980999E+02  0.64141386989E+02  0.73742987382E+02  0.00000000000E+00 0.  1.
         11    1    4    4    0    0  0.10287343515E+02  0.94569427742E+02  0.17715329618E+03  0.20107833411E+03  0.00000000000E+00 0. -1.
         21    1    1    2  503  502 -0.17474363365E+03  0.42633401019E+02 -0.37440002461E+03  0.41536528841E+03  0.00000000000E+00 0. -1.
          1    1    1    2  501    0  0.70742793903E+02 -0.64220965386E+02  0.34664677892E+03  0.35957317005E+03  0.00000000000E+00 0. -1.
<scales pt_clust_5="13000.00000" pt_clust_6="13000.00000" pt_clust_7="13000.00000" pt_clust_8="13000.00000" pt_clust_9="109.49547" pt_clust_10="95.54520"></scales>
<clustering>
<clus scale="   79.156">  5  6 -1 -1</clus>
<clus scale="   90.551">  7  8 -1 -1</clus>
<clus scale="   95.545">  2 10  1 -1</clus>
<clus scale="  109.495">  2  9  1 -1</clus>
<clus scale="  108.642">  1  5  2 -1</clus>
<clus scale="   95.545">  2  5  1 -1</clus>
</clustering>
</event>
<event>
10    4  0.3403565E-005  0.9448677E+02  0.7546771E-02  0.1296466E+00
         21   -1    0    0  503  502  0.00000000000E+00  0.00000000000E+00  0.52847235790E+03  0.52847235790E+03  0.00000000000E+00 0. -1.
          4   -1    0    0  502    0 -0.00000000000E+00 -0.00000000000E+00 -0.45892985423E+02  0.45892985423E+02  0.00000000000E+00 0. -1.
         24    2    1    2    0    0  0.13147926769E+02 -0.31463688352E+02  0.47453825453E+02  0.10031547354E+03  0.81538316259E+02 0.  0.
         23    2    1    2    0    0 -0.10479288397E+02  0.18343259512E+02  0.33201556617E+03  0.34438408101E+03  0.88993080733E+02 0.  0.
        -13    1    3    3    0    0  0.36679477146E+02  0.12291353565E+02  0.19821195062E+02  0.43466552542E+02  0.00000000000E+00 0.  1.
         14    1    3    3    0    0 -0.23531550378E+02 -0.43755041917E+02  0.27632630391E+02  0.56848920998E+02  0.00000000000E+00 0. -1.
        -11    1    4    4    0    0 -0.32485620193E+02 -0.22865091634E+02  0.97897457346E+02  0.10565055650E+03  0.00000000000E+00 0.  1.
         11    1    4    4    0    0  0.22006331796E+02  0.41208351145E+02  0.23411810882E+03  0.23873352450E+03  0.00000000000E+00 0. -1.
         21    1    1    2  503  501  0.16475671499E+02 -0.15141750706E+02  0.90579865683E+02  0.93302906883E+02  0.00000000000E+00 0. -1.
          3    1    1    2  501    0 -0.19144309870E+02  0.28262179547E+02  0.12530115171E+02  0.36362881890E+02  0.00000000000E+00 0. -1.
<scales pt_clust_5="13000.00000" pt_clust_6="13000.00000" pt_clust_7="13000.00000" pt_clust_8="13000.00000" pt_clust_9="22.37678" pt_clust_10="32.91760"></scales>
<clustering>
<clus scale="   22.377">  1  9  2 -1</clus>
<clus scale="   32.918">  1 10  2 -1</clus>
<clus scale="   81.538">  5  6 -1 -1</clus>
<clus scale="   87.501">  2  5  1 -1</clus>
<clus scale="   88.993">  7  8 -1 -1</clus>
<clus scale="   22.377">  1  5  2 -1</clus>
</clustering>
</event>
<event>
10    4  0.3403565E-005  0.1769966E+03  0.7546771E-02  0.1187122E+00
          2   -1    0    0  503    0 -0.00000000000E+00  0.00000000000E+00  0.29868488222E+03  0.29868488222E+03  0.00000000000E+00 0. -1.
         21   -1    0    0  501  502  0.00000000000E+00 -0.00000000000E+00 -0.34646370064E+03  0.34646370064E+03  0.00000000000E+00 0. -1.
         23    2    1    2    0    0  0.29522036611E+02 -0.98544850745E+02 -0.65347199587E+02  0.15261188336E+03  0.91855822869E+02 0.  0.
         24    2    1    2    0    0 -0.13660129339E+03  0.55128120881E+02 -0.12697507124E+03  0.21093545239E+03  0.81682760054E+02 0.  0.
        -13    1    4    4    0    0 -0.30196069637E+02  0.49181232381E+02 -0.23246223135E+02  0.62217225349E+02  0.00000000000E+00 0.  1.
         14    1    4    4    0    0 -0.10640522375E+03  0.59468885005E+01 -0.10372884810E+03  0.14871822704E+03  0.00000000000E+00 0. -1.
        -11    1    3    3    0    0 -0.88527245201E+01 -0.21775974790E+02  0.20522507805E+02  0.31204761432E+02  0.00000000000E+00 0.  1.
         11    1    3    3    0    0  0.38374761131E+02 -0.76768875955E+02 -0.85869707391E+02  0.12140712193E+03  0.00000000000E+00 0. -1.
         21    1    1    2  503  502 -0.18815305951E+02  0.57258425043E+02 -0.28896603068E+02  0.66839783403E+02  0.00000000000E+00 0. -1.
          1    1    1    2  501    0  0.12589456273E+03 -0.13841695180E+02  0.17344005547E+03  0.21476146370E+03  0.00000000000E+00 0. -1.
<scales pt_clust_5="13000.00000" pt_clust_6="13000.00000" pt_clust_7="13000.00000" pt_clust_8="13000.00000" pt_clust_9="60.27058" pt_clust_10="157.02148"></scales>
<clustering>
<clus scale="   60.271">  2  9  1 -1</clus>
<clus scale="   81.683">  5  6 -1 -1</clus>
<clus scale="   91.856">  7  8 -1 -1</clus>
<clus scale="  122.392">  1  7  2 -1</clus>
<clus scale="  157.021">  2 10  1 -1</clus>
<clus scale="   60.271">  2  5  1 -1</clus>
</clustering>
</event>
<event>
10    4  0.3403565E-005  0.1535192E+03  0.7546771E-02  0.1198251E+00
          2   -1    0    0  503    0 -0.00000000000E+00  0.00000000000E+00  0.11145919946E+04  0.11145919946E+04  0.00000000000E+00 0. -1.
         21   -1    0    0  501  502  0.00000000000E+00 -0.00000000000E+00 -0.80606449949E+02  0.80606449949E+02  0.00000000000E+00 0. -1.
         23    2    1    2    0    0 -0.33681361492E+02  0.77496085186E+02  0.50895338778E+03  0.52407765638E+03  0.92107337655E+02 0.  0.
         24    2    1    2    0    0  0.12012650534E+03 -0.91862776360E+02  0.99365472766E+02  0.19804441887E+03  0.80491910787E+02 0.  0.
        -13    1    4    4    0    0 -0.59956660901E-01 -0.40092136524E+02  0.28841290731E+02  0.49388288662E+02  0.00000000000E+00 0.  1.
         14    1    4    4    0    0  0.12018646200E+03 -0.51770639836E+02  0.70524182035E+02  0.14865613021E+03  0.00000000000E+00 0. -1.
        -11    1    3    3    0    0 -0.23557647480E+01 -0.21246464934E+02  0.83081510204E+02  0.85787523787E+02  0.00000000000E+00 0.  1.
         11    1    3    3    0    0 -0.31325596744E+02  0.98742550120E+02  0.42587187757E+03  0.43829013259E+03  0.00000000000E+00 0. -1.
         21    1    1    2  503  502  0.13514275150E+02  0.83442500557E+02  0.16056629091E+03  0.18145748898E+03  0.00000000000E+00 0.  1.
          1    1    1    2  501    0 -0.99959418995E+02 -0.69075809382E+02  0.26510039324E+03  0.29161888036E+03  0.00000000000E+00 0. -1.
<scales pt_clust_5="13000.00000" pt_clust_6="13000.00000" pt_clust_7="13000.00000" pt_clust_8="13000.00000" pt_clust_9="84.52980" pt_clust_10="105.77074"></scales>
<clustering>
<clus scale="   80.492">  5  6 -1 -1</clus>
<clus scale="   84.530">  1  9  2 -1</clus>
<clus scale="   92.107">  7  8 -1 -1</clus>
<clus scale="  105.771">  2 10  1 -1</clus>
<clus scale="  146.845">  2  5  1 -1</clus>
<clus scale="  105.771">  2  5  1 -1</clus>
</clustering>
</event>
<event>
10    4  0.3403565E-005  0.2098138E+03  0.7546771E-02  0.1164960E+00
         21   -1    0    0  503  502  0.00000000000E+00  0.00000000000E+00  0.40646615974E+03  0.40646615974E+03  0.00000000000E+00 0. -1.
          2   -1    0    0  502    0 -0.00000000000E+00 -0.00000000000E+00 -0.30749274040E+03  0.30749274040E+03  0.00000000000E+00 0. -1.
         24    2    1    2    0    0 -0.24648582798E+02  0.87743425972E+02 -0.25375576653E+02  0.12021192993E+03  0.74165536281E+02 0.  0.
         23    2    1    2    0    0  0.51562218451E+02  0.13228855366E+03  0.92779850749E+02  0.19219866752E+03  0.90406323302E+02 0.  0.
        -13    1    3    3    0    0 -0.53744475445E+01  0.94436928397E+02 -0.30110119496E+02  0.99266497005E+02  0.00000000000E+00 0.  1.
         14    1    3    3    0    0 -0.19274135254E+02 -0.66935024252E+01  0.47345428434E+01  0.20945432925E+02  0.00000000000E+00 0. -1.
        -11    1    4    4    0    0  0.74787072719E+02  0.95957795962E+02  0.50233604056E+02  0.13162226190E+03  0.00000000000E+00 0. -1.
         11    1    4    4    0    0 -0.23224854268E+02  0.36330757696E+02  0.42546246693E+02  0.60576405623E+02  0.00000000000E+00 0.  1.
         21    1    1    2  503  501  0.32315299353E+02  0.38419252966E+02  0.11343424570E+03  0.12404694945E+03  0.00000000000E+00 0. -1.
          1    1    1    2  501    0 -0.59228935006E+02 -0.25845123260E+03 -0.81865100455E+02  0.27750135323E+03  0.00000000000E+00 0. -1.
<scales pt_clust_5="13000.00000" pt_clust_6="13000.00000" pt_clust_7="13000.00000" pt_clust_8="13000.00000" pt_clust_9="50.20276" pt_clust_10="189.33720"></scales>
<clustering>
<clus scale="   50.203">  1  9  2 -1</clus>
<clus scale="   74.166">  5  6 -1 -1</clus>
<clus scale="   90.406">  7  8 -1 -1</clus>
<clus scale="  121.343">  2  5  1 -1</clus>
<clus scale="  189.337">  1 10  2 -1</clus>
<clus scale="   50.203">  1  5  2 -1</clus>
</clustering>
</event>
<event>
10    4  0.3403565E-005  0.1378816E+03  0.7546771E-02  0.1240130E+00
         21   -1    0    0  501  502  0.00000000000E+00  0.00000000000E+00  0.69143663945E+02  0.69143663945E+02  0.00000000000E+00 0. -1.
          2   -1    0    0  503    0 -0.00000000000E+00 -0.00000000000E+00 -0.17703502722E+04  0.17703502722E+04  0.00000000000E+00 0. -1.
         24    2    1    2    0    0  0.22241530071E+02  0.14996483709E+02 -0.86138895745E+03  0.86553293270E+03  0.80229305073E+02 0.  0.
         23    2    1    2    0    0 -0.44929093674E+02  0.96838385546E+02 -0.23506287813E+03  0.27358604771E+03  0.90545416518E+02 0.  0.
        -11    1    3    3    0    0  0.43148287667E+02  0.30014001464E+00 -0.25647383365E+03  0.26007824238E+03  0.00000000000E+00 0.  1.
         12    1    3    3    0    0 -0.20906757596E+02  0.14696343694E+02 -0.60491512380E+03  0.60545469032E+03  0.00000000000E+00 0. -1.
        -13    1    4    4    0    0 -0.49276685180E+02  0.36400798099E+02 -0.50702481770E+02  0.79523276229E+02  0.00000000000E+00 0.  1.
         13    1    4    4    0    0  0.43475915052E+01  0.60437587446E+02 -0.18436039636E+03  0.19406277148E+03  0.00000000000E+00 0. -1.
         21    1    1    2  503  502 -0.18552671092E+02 -0.14985544430E+02  0.40278244660E+02  0.46809242030E+02  0.00000000000E+00 0. -1.
          1    1    1    2  501    0  0.41240234695E+02 -0.96849324824E+02 -0.64503301733E+03  0.65356571370E+03  0.00000000000E+00 0. -1.
<scales pt_clust_5="13000.00000" pt_clust_6="13000.00000" pt_clust_7="13000.00000" pt_clust_8="13000.00000" pt_clust_9="23.84886" pt_clust_10="103.98497"></scales>
<clustering>
<clus scale="   23.849">  1  9  2 -1</clus>
<clus scale="   80.229">  5  6 -1 -1</clus>
<clus scale="   84.005">  2  5  1 -1</clus>
<clus scale="   90.545">  7  8 -1 -1</clus>
<clus scale="  103.985">  1 10  2 -1</clus>
<clus scale="   23.849">  1  5  2 -1</clus>
</clustering>
</event>
<event>
10    4  0.3403565E-005  0.1199084E+03  0.7546771E-02  0.1246776E+00
         21   -1    0    0  501  502  0.00000000000E+00  0.00000000000E+00  0.20975380816E+02  0.20975380816E+02  0.00000000000E+00 0.  1.
          2   -1    0    0  503    0 -0.00000000000E+00 -0.00000000000E+00 -0.15710486125E+04  0.15710486125E+04  0.00000000000E+00 0. -1.
         24    2    1    2    0    0  0.80592723462E+02  0.23263326466E+02 -0.11502125309E+04  0.11560010395E+04  0.79455444562E+02 0.  0.
         23    2    1    2    0    0 -0.59151137124E+02 -0.14089304445E+02 -0.30362180664E+03  0.32264747807E+03  0.90652237206E+02 0.  0.
        -11    1    3    3    0    0  0.17281642569E+02 -0.21019371202E+02 -0.12735150808E+03  0.13022624830E+03  0.00000000000E+00 0.  1.
         12    1    3    3    0    0  0.63311080892E+02  0.44282697668E+02 -0.10228610228E+04  0.10257747912E+04  0.00000000000E+00 0. -1.
        -11    1    4    4    0    0 -0.38281361205E+02 -0.52543625675E+02 -0.16783142145E+03  0.17998244703E+03  0.00000000000E+00 0.  1.
         11    1    4    4    0    0 -0.20869775919E+02  0.38454321231E+02 -0.13579038520E+03  0.14266503104E+03  0.00000000000E+00 0. -1.
         21    1    1    2  503  502  0.87989455725E+01 -0.24147119064E+02 -0.34550787313E+02  0.43061139166E+02  0.00000000000E+00 0. -1.
          1    1    1    2  501    0 -0.30240531910E+02  0.14973097043E+02 -0.61688106892E+02  0.70314336641E+02  0.00000000000E+00 0. -1.
<scales pt_clust_5="13000.00000" pt_clust_6="13000.00000" pt_clust_7="13000.00000" pt_clust_8="13000.00000" pt_clust_9="25.70029" pt_clust_10="29.30570"></scales>
<clustering>
<clus scale="   25.700">  1  9  2 -1</clus>
<clus scale="   29.306">  1 10  2 -1</clus>
<clus scale="   79.455">  5  6 -1 -1</clus>
<clus scale="   90.652">  7  8 -1 -1</clus>
<clus scale="  111.684">  2  5  1 -1</clus>
<clus scale="   25.700">  1  5  2 -1</clus>
</clustering>
</event>
<event>
10    4  0.3403565E-005  0.1310005E+03  0.7546771E-02  0.1230298E+00
          2   -1    0    0  503    0 -0.00000000000E+00  0.00000000000E+00  0.76690050987E+03  0.76690050987E+03  0.00000000000E+00 0. -1.
         21   -1    0    0  501  502  0.00000000000E+00 -0.00000000000E+00 -0.12453515323E+03  0.12453515323E+03  0.00000000000E+00 0. -1.
         23    2    1    2    0    0  0.73971059893E+02 -0.63154460788E+02  0.30577355396E+03  0.33502139416E+03  0.96341396203E+02 0.  0.
         24    2    1    2    0    0  0.20927837574E+00  0.98183011254E+02  0.20032115462E+03  0.23714673104E+03  0.80436680443E+02 0.  0.
        -13    1    4    4    0    0 -0.30527744084E+02  0.90116830206E+02  0.15036379763E+03  0.17793891616E+03  0.00000000000E+00 0.  1.
         14    1    4    4    0    0  0.30737022460E+02  0.80661810475E+01  0.49957356988E+02  0.59207814886E+02  0.00000000000E+00 0. -1.
        -11    1    3    3    0    0  0.19807976608E+02 -0.74863295673E+02  0.13685359562E+03  0.15724431821E+03  0.00000000000E+00 0.  1.
         11    1    3    3    0    0  0.54163083285E+02  0.11708834885E+02  0.16891995834E+03  0.17777707594E+03  0.00000000000E+00 0. -1.
         21    1    1    2  503  502 -0.67674602214E+02 -0.13446835524E+03  0.11208397324E+00  0.15053771258E+03  0.00000000000E+00 0. -1.
          1    1    1    2  501    0 -0.65057360554E+01  0.99439804777E+02  0.13615856409E+03  0.16872982531E+03  0.00000000000E+00 0. -1.
<scales pt_clust_5="13000.00000" pt_clust_6="13000.00000" pt_clust_7="13000.00000" pt_clust_8="13000.00000" pt_clust_9="97.39712" pt_clust_10="99.65244"></scales>
<clustering>
<clus scale="   80.437">  5  6 -1 -1</clus>
<clus scale="   96.341">  7  8 -1 -1</clus>
<clus scale="   99.652">  2 10  1 -1</clus>
<clus scale="   97.397">  2  9  1 -1</clus>
<clus scale="  119.790">  2  5  1 -1</clus>
<clus scale="   99.652">  2  5  1 -1</clus>
</clustering>
</event>
<event>
10    4  0.3403565E-005  0.2199116E+03  0.7546771E-02  0.1142416E+00
          2   -1    0    0  503    0 -0.00000000000E+00  0.00000000000E+00  0.69946103028E+03  0.69946103028E+03  0.00000000000E+00 0. -1.
         21   -1    0    0  501  502  0.00000000000E+00 -0.00000000000E+00 -0.42616283332E+03  0.42616283332E+03  0.00000000000E+00 0. -1.
         23    2    1    2    0    0  0.12381393175E+03  0.89896063481E+02  0.48432389612E+03  0.51610853562E+03  0.91581615293E+02 0.  0.
         24    2    1    2    0    0  0.60501760399E+02 -0.20384333052E+03  0.59917556778E+02  0.23525542536E+03  0.80885320943E+02 0.  0.
        -13    1    4    4    0    0  0.17848483349E+02 -0.82062707628E+02 -0.16076076353E+02  0.85506120085E+02  0.00000000000E+00 0.  1.
         14    1    4    4    0    0  0.42653277050E+02 -0.12178062289E+03  0.75993633131E+02  0.14974930528E+03  0.00000000000E+00 0. -1.
        -11    1    3    3    0    0  0.57893206540E+02  0.95849304933E+02  0.29387005255E+03  0.31448103346E+03  0.00000000000E+00 0. -1.
         11    1    3    3    0    0  0.65920725214E+02 -0.59532414522E+01  0.19045384357E+03  0.20162750216E+03  0.00000000000E+00 0.  1.
         21    1    1    2  503  502  0.13381348992E+02  0.17896987473E+02 -0.80150101574E+02  0.83206979538E+02  0.00000000000E+00 0. -1.
          1    1    1    2  501    0 -0.19769704115E+03  0.96050279565E+02 -0.19079315437E+03  0.29105292308E+03  0.00000000000E+00 0. -1.
<scales pt_clust_5="13000.00000" pt_clust_6="13000.00000" pt_clust_7="13000.00000" pt_clust_8="13000.00000" pt_clust_9="22.34642" pt_clust_10="204.49611"></scales>
<clustering>
<clus scale="   22.346">  2  9  1 -1</clus>
<clus scale="   80.885">  5  6 -1 -1</clus>
<clus scale="   91.582">  7  8 -1 -1</clus>
<clus scale="  179.167">  1  7  2 -1</clus>
<clus scale="  204.496">  2 10  1 -1</clus>
<clus scale="   22.346">  2  5  1 -1</clus>
</clustering>
</event>
<event>
10    4  0.3403565E-005  0.1613853E+03  0.7546771E-02  0.1207239E+00
         21   -1    0    0  501  502  0.00000000000E+00  0.00000000000E+00  0.92080069127E+02  0.92080069127E+02  0.00000000000E+00 0.  1.
          2   -1    0    0  503    0 -0.00000000000E+00 -0.00000000000E+00 -0.79396718735E+03  0.79396718735E+03  0.00000000000E+00 0. -1.
         23    2    1    2    0    0  0.11157089445E+03 -0.90971000588E+02 -0.52882374976E+03  0.55607270802E+03  0.94013354687E+02 0.  0.
         24    2    1    2    0    0  0.24067776025E+02  0.58366629659E+02 -0.71245371030E+02  0.12318174941E+03  0.78178764348E+02 0.  0.
        -11    1    4    4    0    0  0.47800198769E+02  0.44188383343E+02 -0.25869702960E+02  0.70047938986E+02  0.00000000000E+00 0.  1.
         12    1    4    4    0    0 -0.23732422744E+02  0.14178246315E+02 -0.45375668070E+02  0.53133810429E+02  0.00000000000E+00 0. -1.
        -13    1    3    3    0    0  0.43484287850E+02  0.11650409251E+02 -0.95337438909E+02  0.10543169629E+03  0.00000000000E+00 0.  1.
         13    1    3    3    0    0  0.68086606598E+02 -0.10262140984E+03 -0.43348631085E+03  0.45064101173E+03  0.00000000000E+00 0. -1.
         21    1    1    2  503  502 -0.10439331319E+03  0.32293854244E+01 -0.93463263331E+01  0.10486060549E+03  0.00000000000E+00 0.  1.
          1    1    1    2  501    0 -0.31245357284E+02  0.29374985505E+02 -0.92471671093E+02  0.10193219354E+03  0.00000000000E+00 0. -1.
<scales pt_clust_5="13000.00000" pt_clust_6="13000.00000" pt_clust_7="13000.00000" pt_clust_8="13000.00000" pt_clust_9="131.17438" pt_clust_10="42.88547"></scales>
<clustering>
<clus scale="   42.885">  1 10  2 -1</clus>
<clus scale="   78.179">  5  6 -1 -1</clus>
<clus scale="   94.013">  7  8 -1 -1</clus>
<clus scale="  104.080">  1  5  2 -1</clus>
<clus scale="  131.174">  1  9  2 -1</clus>
<clus scale="   42.885">  1  5  2 -1</clus>
</clustering>
</event>
<event>
10    4  0.3403565E-005  0.1476759E+03  0.7546771E-02  0.1231568E+00
          2   -1    0    0  502    0 -0.00000000000E+00  0.00000000000E+00  0.82911851457E+03  0.82911851457E+03  0.00000000000E+00 0. -1.
         21   -1    0    0  503  502  0.00000000000E+00 -0.00000000000E+00 -0.76297407114E+02  0.76297407114E+02  0.00000000000E+00 0. -1.
         24    2    1    2    0    0 -0.56211671295E+01  0.21970493866E+01  0.37564857523E+03  0.38436852412E+03  0.81184270129E+02 0.  0.
         23    2    1    2    0    0 -0.46412097732E+02 -0.12359156712E+03  0.33072066186E+03  0.36699321621E+03  0.88763203426E+02 0.  0.
        -11    1    3    3    0    0  0.22901872718E+02  0.31822630841E+02  0.15231200077E+03  0.15727721127E+03  0.00000000000E+00 0.  1.
         12    1    3    3    0    0 -0.28523039848E+02 -0.29625581454E+02  0.22333657446E+03  0.22709131285E+03  0.00000000000E+00 0. -1.
        -13    1    4    4    0    0  0.92084203644E+01 -0.89175996631E+02  0.23046981293E+03  0.24729231297E+03  0.00000000000E+00 0.  1.
         13    1    4    4    0    0 -0.55620518097E+02 -0.34415570484E+02  0.10025084893E+03  0.11970090324E+03  0.00000000000E+00 0. -1.
         21    1    1    2  503  501  0.12099431270E+02  0.30630938619E+02 -0.16258347534E+02  0.36728524368E+02  0.00000000000E+00 0. -1.
          1    1    1    2  501    0  0.39933833592E+02  0.90763579109E+02  0.62710217893E+02  0.11732565698E+03  0.00000000000E+00 0. -1.
<scales pt_clust_5="13000.00000" pt_clust_6="13000.00000" pt_clust_7="13000.00000" pt_clust_8="13000.00000" pt_clust_9="32.93403" pt_clust_10="118.02230"></scales>
<clustering>
<clus scale="   32.934">  2  9  1 -1</clus>
<clus scale="   81.184">  5  6 -1 -1</clus>
<clus scale="   81.459">  1  5  2 -1</clus>
<clus scale="   88.763">  7  8 -1 -1</clus>
<clus scale="  118.022">  2 10  1 -1</clus>
<clus scale="   32.934">  2  5  1 -1</clus>
</clustering>
</event>
<event>
10    4  0.3403565E-005  0.9878386E+02  0.7546771E-02  0.1288854E+00
          4   -1    0    0  502    0 -0.00000000000E+00  0.00000000000E+00  0.31374647377E+03  0.31374647377E+03  0.00000000000E+00 0. -1.
         21   -1    0    0  503  502  0.00000000000E+00 -0.00000000000E+00 -0.11150541733E+03  0.11150541733E+03  0.00000000000E+00 0.  1.
         23    2    1    2    0    0 -0.47938818544E+02 -0.42171471964E+01  0.19981634856E+03  0.22466444294E+03  0.90728298324E+02 0.  0.
         24    2    1    2    0    0  0.22075999214E+01  0.29841546019E+02 -0.25586233781E+01  0.84638795773E+02  0.79131459169E+02 0.  0.
        -11    1    4    4    0    0  0.31362275433E+01  0.47867923028E+02 -0.26384366253E+02  0.54747682698E+02  0.00000000000E+00 0.  1.
         12    1    4    4    0    0 -0.92862762197E+00 -0.18026377009E+02  0.23825742875E+02  0.29891113075E+02  0.00000000000E+00 0. -1.
        -13    1    3    3    0    0 -0.30405850705E+02 -0.38571177547E+02  0.16684161252E+03  0.17392060017E+03  0.00000000000E+00 0. -1.
         13    1    3    3    0    0 -0.17532967839E+02  0.34354030351E+02  0.32974736040E+02  0.50743842774E+02  0.00000000000E+00 0.  1.
         21    1    1    2  503  501  0.39507690964E+02  0.20508224912E+02 -0.33370536133E+02  0.55633062257E+02  0.00000000000E+00 0.  1.
          3    1    1    2  501    0  0.62235276591E+01 -0.46132623734E+02  0.38353867397E+02  0.60315590135E+02  0.00000000000E+00 0. -1.
<scales pt_clust_5="13000.00000" pt_clust_6="13000.00000" pt_clust_7="13000.00000" pt_clust_8="13000.00000" pt_clust_9="44.51342" pt_clust_10="44.61679"></scales>
<clustering>
<clus scale="   44.513">  2  9  1 -1</clus>
<clus scale="   44.617">  2 10  1 -1</clus>
<clus scale="   79.131">  5  6 -1 -1</clus>
<clus scale="   88.252">  2  5  1 -1</clus>
<clus scale="   90.728">  7  8 -1 -1</clus>
<clus scale="   44.513">  2  5  1 -1</clus>
</clustering>
</event>
<event>
10    4  0.3403565E-005  0.2422850E+03  0.7546771E-02  0.1145251E+00
          2   -1    0    0  503    0 -0.00000000000E+00  0.00000000000E+00  0.75306571975E+03  0.75306571975E+03  0.00000000000E+00 0. -1.
         21   -1    0    0  501  502  0.00000000000E+00 -0.00000000000E+00 -0.14562011175E+03  0.14562011175E+03  0.00000000000E+00 0. -1.
         24    2    1    2    0    0 -0.56007403073E+02  0.77780122577E+02  0.96082474009E+02  0.15727912248E+03  0.79487759364E+02 0.  0.
         23    2    1    2    0    0 -0.11230497225E+02 -0.26335417586E+03  0.34691043358E+03  0.44504100481E+03  0.90736437121E+02 0.  0.
        -11    1    3    3    0    0 -0.21896417091E+02  0.14130159285E+02  0.78839680149E+02  0.83034990509E+02  0.00000000000E+00 0.  1.
         12    1    3    3    0    0 -0.34110985982E+02  0.63649963292E+02  0.17242793860E+02  0.74244131969E+02  0.00000000000E+00 0. -1.
        -11    1    4    4    0    0  0.58185013474E+01 -0.53544592028E+02  0.22611045562E+02  0.58413505928E+02  0.00000000000E+00 0.  1.
         11    1    4    4    0    0 -0.17048998572E+02 -0.20980958384E+03  0.32429938802E+03  0.38662749888E+03  0.00000000000E+00 0. -1.
         21    1    1    2  503  502 -0.17897136470E+02 -0.89921327762E+01 -0.91909832724E+01  0.22037243911E+02  0.00000000000E+00 0.  1.
          1    1    1    2  501    0  0.85135036767E+02  0.19456618606E+03  0.17364368369E+03  0.27432846030E+03  0.00000000000E+00 0. -1.
<scales pt_clust_5="13000.00000" pt_clust_6="13000.00000" pt_clust_7="13000.00000" pt_clust_8="13000.00000" pt_clust_9="20.02913" pt_clust_10="224.65293"></scales>
<clustering>
<clus scale="   20.029">  2  9  1 -1</clus>
<clus scale="   79.488">  5  6 -1 -1</clus>
<clus scale="   90.736">  7  8 -1 -1</clus>
<clus scale="  125.179">  1  5  2 -1</clus>
<clus scale="  224.653">  2 10  1 -1</clus>
<clus scale="   20.029">  2  5  1 -1</clus>
</clustering>
</event>
<event>
10    4  0.3403565E-005  0.1586417E+03  0.7546771E-02  0.1191666E+00
          2   -1    0    0  503    0 -0.00000000000E+00  0.00000000000E+00  0.68240331961E+03  0.68240331961E+03  0.00000000000E+00 0. -1.
         21   -1    0    0  501  502  0.00000000000E+00 -0.00000000000E+00 -0.22021718931E+03  0.22021718931E+03  0.00000000000E+00 0. -1.
         23    2    1    2    0    0 -0.72229462292E+02 -0.91539873538E+02  0.25586799925E+03  0.29563433084E+03  0.91293925642E+02 0.  0.
         24    2    1    2    0    0 -0.40663710131E+02  0.20694231464E+03  0.18742760317E+03  0.29394988745E+03  0.82454660202E+02 0.  0.
        -11    1    4    4    0    0 -0.32032975238E+02  0.24770619346E+02  0.15646437202E+02  0.43410898199E+02  0.00000000000E+00 0.  1.
         12    1    4    4    0    0 -0.86307348933E+01  0.18217169529E+03  0.17178116597E+03  0.25053898925E+03  0.00000000000E+00 0. -1.
        -13    1    3    3    0    0 -0.32347288337E+02 -0.64892441196E+02  0.60405537756E+02  0.94372691912E+02  0.00000000000E+00 0.  1.
         13    1    3    3    0    0 -0.39882173955E+02 -0.26647432343E+02  0.19546246150E+03  0.20126163893E+03  0.00000000000E+00 0. -1.
         21    1    1    2  503  502 -0.10272644969E+02 -0.70515395398E+02 -0.10878413121E+03  0.13004589739E+03  0.00000000000E+00 0. -1.
          1    1    1    2  501    0  0.12316581739E+03 -0.44887045703E+02  0.12767465909E+03  0.18299039325E+03  0.00000000000E+00 0. -1.
<scales pt_clust_5="13000.00000" pt_clust_6="13000.00000" pt_clust_7="13000.00000" pt_clust_8="13000.00000" pt_clust_9="71.25972" pt_clust_10="136.41693"></scales>
<clustering>
<clus scale="   71.260">  2  9  1 -1</clus>
<clus scale="   82.455">  5  6 -1 -1</clus>
<clus scale="   91.294">  7  8 -1 -1</clus>
<clus scale="  136.417">  2 10  1 -1</clus>
<clus scale="  153.725">  2  5  1 -1</clus>
<clus scale="   71.260">  2  5  1 -1</clus>
</clustering>
</event>
<event>
10    4  0.3403565E-005  0.1983422E+03  0.7546771E-02  0.1175094E+00
         21   -1    0    0  501  502  0.00000000000E+00  0.00000000000E+00  0.40438291107E+03  0.40438291107E+03  0.00000000000E+00 0. -1.
          2   -1    0    0  503    0 -0.00000000000E+00 -0.00000000000E+00 -0.10006083644E+04  0.10006083644E+04  0.00000000000E+00 0. -1.
         24    2    1    2    0    0 -0.57230022357E+02  0.26806385584E+02 -0.22382388909E+03  0.25080273456E+03  0.93867036637E+02 0.  0.
         23    2    1    2    0    0  0.70598665435E+02  0.16378626766E+03 -0.63643566905E+03  0.66781874314E+03  0.95506019752E+02 0.  0.
        -11    1    3    3    0    0 -0.18152451608E+02 -0.30526430116E+02 -0.12573496731E+03  0.13065472222E+03  0.00000000000E+00 0.  1.
         12    1    3    3    0    0 -0.39077570748E+02  0.57332815701E+02 -0.98088921787E+02  0.12014801234E+03  0.00000000000E+00 0. -1.
        -13    1    4    4    0    0 -0.21649488529E+01  0.10733926526E+03 -0.28607984507E+03  0.30556191291E+03  0.00000000000E+00 0.  1.
         13    1    4    4    0    0  0.72763614288E+02  0.56447002407E+02 -0.35035582398E+03  0.36225683022E+03  0.00000000000E+00 0. -1.
         21    1    1    2  503  502 -0.24185479309E+02 -0.38098571939E+02  0.32030279468E+03  0.32346610159E+03  0.00000000000E+00 0. -1.
          1    1    1    2  501    0  0.10816836231E+02 -0.15249408131E+03 -0.56268689917E+02  0.16290369623E+03  0.00000000000E+00 0. -1.
<scales pt_clust_5="13000.00000" pt_clust_6="13000.00000" pt_clust_7="13000.00000" pt_clust_8="13000.00000" pt_clust_9="45.12692" pt_clust_10="173.83390"></scales>
<clustering>
<clus scale="   45.127">  1  9  2 -1</clus>
<clus scale="   93.867">  5  6 -1 -1</clus>
<clus scale="   95.506">  7  8 -1 -1</clus>
<clus scale="  113.921">  2  5  1 -1</clus>
<clus scale="  173.834">  1 10  2 -1</clus>
<clus scale="   45.127">  1  5  2 -1</clus>
</clustering>
</event>
<event>
10    4  0.3403565E-005  0.1784131E+03  0.7546771E-02  0.1170509E+00
         21   -1    0    0  501  502  0.00000000000E+00  0.00000000000E+00  0.50648072009E+03  0.50648072009E+03  0.00000000000E+00 0.  1.
          2   -1    0    0  503    0 -0.00000000000E+00 -0.00000000000E+00 -0.18146424721E+03  0.18146424721E+03  0.00000000000E+00 0. -1.
         24    2    1    2    0    0 -0.18156267763E+03 -0.39059065861E+02 -0.59934976218E+02  0.21104560780E+03  0.80358139987E+02 0.  0.
         23    2    1    2    0    0  0.87675820635E+02  0.28450522612E+02  0.12045224301E+03  0.17638137764E+03  0.90028694153E+02 0.  0.
        -13    1    3    3    0    0 -0.28649275301E+02  0.23100625380E+02 -0.53471588424E+01  0.37188868979E+02  0.00000000000E+00 0.  1.
         14    1    3    3    0    0 -0.15291340233E+03 -0.62159691240E+02 -0.54587817375E+02  0.17385673882E+03  0.00000000000E+00 0. -1.
        -13    1    4    4    0    0  0.38692813892E+02  0.26299532525E+02  0.49102454037E+00  0.46787181610E+02  0.00000000000E+00 0. -1.
         13    1    4    4    0    0  0.48983006743E+02  0.21509900876E+01  0.11996121847E+03  0.12959419603E+03  0.00000000000E+00 0.  1.
         21    1    1    2  503  502  0.30375717854E+02  0.34233296411E+02  0.20592109146E+03  0.21094572460E+03  0.00000000000E+00 0.  1.
          1    1    1    2  501    0  0.63511139144E+02 -0.23624753163E+02  0.58578114632E+02  0.89572257263E+02  0.00000000000E+00 0. -1.
<scales pt_clust_5="13000.00000" pt_clust_6="13000.00000" pt_clust_7="13000.00000" pt_clust_8="13000.00000" pt_clust_9="45.76683" pt_clust_10="72.65064"></scales>
<clustering>
<clus scale="   45.767">  1  9  2 -1</clus>
<clus scale="   72.651">  1 10  2 -1</clus>
<clus scale="   80.358">  5  6 -1 -1</clus>
<clus scale="   90.029">  7  8 -1 -1</clus>
<clus scale="  173.734">  2  5  1 -1</clus>
<clus scale="   45.767">  1  5  2 -1</clus>
</clustering>
</event>
<event>
10    4  0.3403565E-005  0.1396527E+03  0.7546771E-02  0.1217492E+00
         21   -1    0    0  503  502  0.00000000000E+00  0.00000000000E+00  0.55719264660E+02  0.55719264660E+02  0.00000000000E+00 0.  1.
         -1   -1    0    0    0  501 -0.00000000000E+00 -0.00000000000E+00 -0.75978007566E+03  0.75978007566E+03  0.00000000000E+00 0.  1.
         24    2    1    2    0    0 -0.76080724937E+02 -0.63183028525E+01 -0.19485836334E+03  0.22255783640E+03  0.75723253521E+02 0.  0.
         23    2    1    2    0    0  0.14855890931E+03 -0.27160489246E+02 -0.34166585181E+03  0.38483615421E+03  0.92497943659E+02 0.  0.
        -11    1    3    3    0    0 -0.48595944753E+02  0.22681870077E+02 -0.16256959226E+03  0.17118675592E+03  0.00000000000E+00 0.  1.
         12    1    3    3    0    0 -0.27484780184E+02 -0.29000172929E+02 -0.32288771077E+02  0.51371080477E+02  0.00000000000E+00 0. -1.
        -13    1    4    4    0    0  0.14092793453E+03  0.74079633556E+01 -0.28490032677E+03  0.31793671830E+03  0.00000000000E+00 0.  1.
         13    1    4    4    0    0  0.76309747807E+01 -0.34568452601E+02 -0.56765525045E+02  0.66899435909E+02  0.00000000000E+00 0. -1.
         21    1    1    2  503  501  0.23009109292E+02  0.91758713919E+01 -0.29733857185E+02  0.38700361617E+02  0.00000000000E+00 0.  1.
         -2    1    1    2    0  502 -0.95487293664E+02  0.24302920706E+02 -0.13780273866E+03  0.16940498809E+03  0.00000000000E+00 0.  1.
<scales pt_clust_5="13000.00000" pt_clust_6="13000.00000" pt_clust_7="13000.00000" pt_clust_8="13000.00000" pt_clust_9="24.77127" pt_clust_10="92.46194"></scales>
<clustering>
<clus scale="   24.771">  1  9  2 -1</clus>
<clus scale="   75.723">  5  6 -1 -1</clus>
<clus scale="   92.462">  1 10  2 -1</clus>
<clus scale="   92.498">  7  8 -1 -1</clus>
<clus scale="  129.155">  2  5  1 -1</clus>
<clus scale="   24.771">  1  5  2 -1</clus>
</clustering>
</event>
<event>
10    4  0.3403565E-005  0.1760735E+03  0.7546771E-02  0.1171835E+00
          2   -1    0    0  502    0 -0.00000000000E+00  0.00000000000E+00  0.81490794627E+03  0.81490794627E+03  0.00000000000E+00 0. -1.
         21   -1    0    0  503  502  0.00000000000E+00 -0.00000000000E+00 -0.10039148307E+03  0.10039148307E+03  0.00000000000E+00 0.  1.
         24    2    1    2    0    0 -0.16332982231E+03  0.11387551640E+03  0.55809352019E+03  0.59990272259E+03  0.93651669482E+02 0.  0.
         23    2    1    2    0    0  0.69536757593E+02 -0.54717180304E+02  0.13564590557E+03  0.18641684488E+03  0.92315209366E+02 0.  0.
        -11    1    3    3    0    0 -0.13018444242E+03  0.37758161116E+02  0.31168167072E+03  0.33988105514E+03  0.00000000000E+00 0.  1.
         12    1    3    3    0    0 -0.33145379894E+02  0.76117355287E+02  0.24641184947E+03  0.26002166745E+03  0.00000000000E+00 0. -1.
        -13    1    4    4    0    0 -0.99415132980E+01 -0.46968069854E+02  0.49869155263E+02  0.69222582436E+02  0.00000000000E+00 0.  1.
         13    1    4    4    0    0  0.79478270891E+02 -0.77491104493E+01  0.85776750311E+02  0.11719426245E+03  0.00000000000E+00 0. -1.
         21    1    1    2  503  501  0.53141093001E+02 -0.37915972918E+01 -0.91484344084E+01  0.54055950898E+02  0.00000000000E+00 0. -1.
          1    1    1    2  501    0  0.40651971716E+02 -0.55366738807E+02  0.29925471841E+02  0.74923910973E+02  0.00000000000E+00 0. -1.
<scales pt_clust_5="13000.00000" pt_clust_6="13000.00000" pt_clust_7="13000.00000" pt_clust_8="13000.00000" pt_clust_9="53.27619" pt_clust_10="81.06895"></scales>
<clustering>
<clus scale="   53.276">  2  9  1 -1</clus>
<clus scale="   81.069">  2 10  1 -1</clus>
<clus scale="   92.315">  7  8 -1 -1</clus>
<clus scale="   93.652">  5  6 -1 -1</clus>
<clus scale="  175.366">  2  7  1 -1</clus>
<clus scale="   53.276">  2  5  1 -1</clus>
</clustering>
</event>
<event>
10    4  0.3403565E-005  0.2253629E+03  0.7546771E-02  0.1130875E+00
         21   -1    0    0  501  502  0.00000000000E+00  0.00000000000E+00  0.65175673590E+03  0.65175673590E+03  0.00000000000E+00 0.  1.
          2   -1    0    0  503    0 -0.00000000000E+00 -0.00000000000E+00 -0.99569210909E+03  0.99569210909E+03  0.00000000000E+00 0. -1.
         24    2    1    2    0    0 -0.90727421229E+02 -0.18113259401E+03 -0.81833098380E+03  0.84681888967E+03  0.79975941927E+02 0.  0.
         23    2    1    2    0    0 -0.30686264062E+02  0.27782088542E+03  0.57678531616E+02  0.30018598473E+03  0.93052250083E+02 0.  0.
        -13    1    3    3    0    0  0.14133864418E+02 -0.22670204915E+02 -0.13159682859E+03  0.13428115880E+03  0.00000000000E+00 0.  1.
         14    1    3    3    0    0 -0.10486128565E+03 -0.15846238910E+03 -0.68673415521E+03  0.71253773088E+03  0.00000000000E+00 0. -1.
        -13    1    4    4    0    0 -0.41125547785E+02  0.22058117905E+03  0.79492833312E+02  0.23804721754E+03  0.00000000000E+00 0. -1.
         13    1    4    4    0    0  0.10439283723E+02  0.57239706371E+02 -0.21814301696E+02  0.62138767196E+02  0.00000000000E+00 0.  1.
         21    1    1    2  503  502  0.53865059434E+02 -0.45786878810E+02  0.40949892824E+03  0.41555656068E+03  0.00000000000E+00 0.  1.
          1    1    1    2  501    0  0.67548625858E+02 -0.50901412593E+02  0.72181507554E+01  0.84887409901E+02  0.00000000000E+00 0. -1.
<scales pt_clust_5="13000.00000" pt_clust_6="13000.00000" pt_clust_7="13000.00000" pt_clust_8="13000.00000" pt_clust_9="70.69571" pt_clust_10="98.16902"></scales>
<clustering>
<clus scale="   70.696">  1  9  2 -1</clus>
<clus scale="   79.976">  5  6 -1 -1</clus>
<clus scale="   93.052">  7  8 -1 -1</clus>
<clus scale="   98.169">  1 10  2 -1</clus>
<clus scale="  220.286">  2  5  1 -1</clus>
<clus scale="   70.696">  1  5  2 -1</clus>
</clustering>
</event>
<event>
10    4  0.3403565E-005  0.1078144E+03  0.7546771E-02  0.1268950E+00
          2   -1    0    0  502    0 -0.00000000000E+00  0.00000000000E+00  0.78533741638E+02  0.78533741638E+02  0.00000000000E+00 0. -1.
         21   -1    0    0  503  502  0.00000000000E+00 -0.00000000000E+00 -0.37068098518E+03  0.37068098518E+03  0.00000000000E+00 0.  1.
         23    2    1    2    0    0 -0.25952310465E+02 -0.45950903198E+02 -0.13343066938E+02  0.10626063489E+03  0.91259394966E+02 0.  0.
         24    2    1    2    0    0  0.12098997352E+02  0.72747481742E+02 -0.15445720843E+03  0.18932148986E+03  0.80913629556E+02 0.  0.
        -11    1    4    4    0    0 -0.93091270031E+01  0.79685455230E+02 -0.14323859728E+03  0.16417590375E+03  0.00000000000E+00 0.  1.
         12    1    4    4    0    0  0.21408124355E+02 -0.69379734873E+01 -0.11218611150E+02  0.25145586107E+02  0.00000000000E+00 0. -1.
        -11    1    3    3    0    0 -0.22176300683E+02  0.22682547454E+02  0.10641070467E+02  0.33459208772E+02  0.00000000000E+00 0.  1.
         11    1    3    3    0    0 -0.37760097828E+01 -0.68633450652E+02 -0.23984137405E+02  0.72801426122E+02  0.00000000000E+00 0. -1.
         21    1    1    2  503  501 -0.22151798012E+02  0.88085437126E+01 -0.88337225750E+02  0.91497311713E+02  0.00000000000E+00 0.  1.
          1    1    1    2  501    0  0.36005111126E+02 -0.35605122257E+02 -0.36009742421E+02  0.62135290354E+02  0.00000000000E+00 0. -1.
<scales pt_clust_5="13000.00000" pt_clust_6="13000.00000" pt_clust_7="13000.00000" pt_clust_8="13000.00000" pt_clust_9="23.83889" pt_clust_10="46.82964"></scales>
<clustering>
<clus scale="   23.839">  2  9  1 -1</clus>
<clus scale="   46.830">  2 10  1 -1</clus>
<clus scale="   80.914">  5  6 -1 -1</clus>
<clus scale="   91.259">  7  8 -1 -1</clus>
<clus scale="   99.210">  2  5  1 -1</clus>
<clus scale="   23.839">  2  5  1 -1</clus>
</clustering>
</event>
<event>
10    4  0.3403565E-005  0.1337508E+03  0.7546771E-02  0.1223023E+00
          2   -1    0    0  503    0 -0.00000000000E+00  0.00000000000E+00  0.11415353342E+04  0.11415353342E+04  0.00000000000E+00 0. -1.
         21   -1    0    0  501  502  0.00000000000E+00 -0.00000000000E+00 -0.60396935749E+02  0.60396935749E+02  0.00000000000E+00 0.  1.
         24    2    1    2    0    0  0.69474867200E+02  0.91995462728E+02  0.39037835243E+03  0.41568181037E+03  0.84298203357E+02 0.  0.
         23    2    1    2    0    0  0.43286196336E+02 -0.10144038315E+03  0.18003366332E+03  0.22898775464E+03  0.88653402174E+02 0.  0.
        -13    1    3    3    0    0  0.21572319988E+02  0.87080397245E+02  0.30190970179E+03  0.31495686785E+03  0.00000000000E+00 0.  1.
         14    1    3    3    0    0  0.47902547212E+02  0.49150654835E+01  0.88468650643E+02  0.10072494252E+03  0.00000000000E+00 0. -1.
        -13    1    4    4    0    0  0.61762390587E+02 -0.61877746814E+02  0.15680154066E+03  0.17952763462E+03  0.00000000000E+00 0. -1.
         13    1    4    4    0    0 -0.18476194251E+02 -0.39562636338E+02  0.23232122667E+02  0.49460120012E+02  0.00000000000E+00 0.  1.
         21    1    1    2  503  502 -0.11835499816E+01 -0.26793838356E+02 -0.59190023362E+01  0.27465344583E+02  0.00000000000E+00 0.  1.
          1    1    1    2  501    0 -0.11157751355E+03  0.36238758779E+02  0.51664538500E+03  0.52979736033E+03  0.00000000000E+00 0. -1.
<scales pt_clust_5="13000.00000" pt_clust_6="13000.00000" pt_clust_7="13000.00000" pt_clust_8="13000.00000" pt_clust_9="26.81997" pt_clust_10="116.30406"></scales>
<clustering>
<clus scale="   26.820">  2  9  1 -1</clus>
<clus scale="   84.298">  5  6 -1 -1</clus>
<clus scale="   88.653">  7  8 -1 -1</clus>
<clus scale="  116.304">  2 10  1 -1</clus>
<clus scale="  130.905">  1  5  2 -1</clus>
<clus scale="   26.820">  2  5  1 -1</clus>
</clustering>
</event>
<event>
10    4  0.3403565E-005  0.2214706E+03  0.7546771E-02  0.1145442E+00
         21   -1    0    0  503  502  0.00000000000E+00  0.00000000000E+00  0.66327833489E+03  0.66327833489E+03  0.00000000000E+00 0. -1.
          2   -1    0    0  502    0 -0.00000000000E+00 -0.00000000000E+00 -0.36785389077E+03  0.36785389077E+03  0.00000000000E+00 0. -1.
         24    2    1    2    0    0  0.11212880248E+03 -0.93548391056E+02 -0.17943386285E+03  0.24474240381E+03  0.79863403828E+02 0.  0.
         23    2    1    2    0    0 -0.25369251035E+02 -0.13630107512E+03 -0.53584288158E+02  0.17658365656E+03  0.95335879125E+02 0.  0.
        -11    1    3    3    0    0  0.11908272773E+03 -0.66768004521E+02 -0.13243716614E+03  0.19020585019E+03  0.00000000000E+00 0.  1.
         12    1    3    3    0    0 -0.69539252475E+01 -0.26780386535E+02 -0.46996696713E+02  0.54536553625E+02  0.00000000000E+00 0. -1.
        -11    1    4    4    0    0 -0.44144983819E+02 -0.16769652658E+02 -0.16718933968E+02  0.50095145470E+02  0.00000000000E+00 0.  1.
         11    1    4    4    0    0  0.18775732784E+02 -0.11953142246E+03 -0.36865354190E+02  0.12648851109E+03  0.00000000000E+00 0. -1.
         21    1    1    2  503  501 -0.35202510061E+02  0.25824082411E+02  0.28366476839E+03  0.28700487936E+03  0.00000000000E+00 0. -1.
          1    1    1    2  501    0 -0.51557041383E+02  0.20402538376E+03  0.24477782674E+03  0.32280128593E+03  0.00000000000E+00 0. -1.
<scales pt_clust_5="13000.00000" pt_clust_6="13000.00000" pt_clust_7="13000.00000" pt_clust_8="13000.00000" pt_clust_9="43.65890" pt_clust_10="199.90070"></scales>
<clustering>
<clus scale="   43.659">  1  9  2 -1</clus>
<clus scale="   79.863">  5  6 -1 -1</clus>
<clus scale="   95.336">  7  8 -1 -1</clus>
<clus scale="  163.147">  2  5  1 -1</clus>
<clus scale="  199.901">  1 10  2 -1</clus>
<clus scale="   43.659">  1  5  2 -1</clus>
</clustering>
</event>
<event>
10    4  0.3403565E-005  0.2011047E+03  0.7546771E-02  0.1149608E+00
         21   -1    0    0  501  502  0.00000000000E+00  0.00000000000E+00  0.12847155038E+03  0.12847155038E+03  0.00000000000E+00 0. -1.
          2   -1    0    0  503    0 -0.00000000000E+00 -0.00000000000E+00 -0.10567422436E+04  0.10567422436E+04  0.00000000000E+00 0. -1.
         23    2    1    2    0    0  0.19803830747E+03  0.11654586248E+03 -0.39683578207E+03  0.46697599647E+03  0.88237373334E+02 0.  0.
         24    2    1    2    0    0 -0.15481529811E+03  0.70988608546E+02 -0.17309425696E+03  0.25544399572E+03  0.79264456612E+02 0.  0.
        -13    1    4    4    0    0 -0.79828586898E+02  0.49962241106E+02 -0.42341219817E+02  0.10325506146E+03  0.00000000000E+00 0.  1.
         14    1    4    4    0    0 -0.74986711217E+02  0.21026367440E+02 -0.13075303714E+03  0.15218893425E+03  0.00000000000E+00 0. -1.
        -13    1    3    3    0    0  0.70349744191E+02 -0.27506421171E+01 -0.13366367207E+03  0.15107160478E+03  0.00000000000E+00 0.  1.
         13    1    3    3    0    0  0.12768856328E+03  0.11929650460E+03 -0.26317211001E+03  0.31590439169E+03  0.00000000000E+00 0. -1.
         21    1    1    2  503  502 -0.78005627428E+01 -0.14822975772E+03 -0.60501730913E+02  0.16029151349E+03  0.00000000000E+00 0. -1.
          1    1    1    2  501    0 -0.35422446616E+02 -0.39304713303E+02 -0.29783892326E+03  0.30250228829E+03  0.00000000000E+00 0. -1.
<scales pt_clust_5="13000.00000" pt_clust_6="13000.00000" pt_clust_7="13000.00000" pt_clust_8="13000.00000" pt_clust_9="165.22291" pt_clust_10="52.91137"></scales>
<clustering>
<clus scale="   52.911">  1 10  2 -1</clus>
<clus scale="   79.264">  5  6 -1 -1</clus>
<clus scale="   88.237">  7  8 -1 -1</clus>
<clus scale="  165.223">  1  9  2 -1</clus>
<clus scale="  197.332">  1  5  2 -1</clus>
<clus scale="   52.911">  1  5  2 -1</clus>
</clustering>
</event>
<event>
10    4  0.3403565E-005  0.3357646E+03  0.7546771E-02  0.1119351E+00
          2   -1    0    0  502    0 -0.00000000000E+00  0.00000000000E+00  0.81471303997E+03  0.81471303997E+03  0.00000000000E+00 0. -1.
         21   -1    0    0  503  502  0.00000000000E+00 -0.00000000000E+00 -0.25525646211E+03  0.25525646211E+03  0.00000000000E+00 0.  1.
         24    2    1    2    0    0  0.35222927825E+02 -0.21141930241E+02  0.24298960889E+03  0.25863102938E+03  0.78475623423E+02 0.  0.
         23    2    1    2    0    0  0.31220671104E+03  0.16697799088E+02  0.20415164174E+03  0.38438312952E+03  0.91217599846E+02 0.  0.
        -13    1    3    3    0    0  0.52050740714E+02 -0.18203616110E+02  0.23166160474E+03  0.23813389167E+03  0.00000000000E+00 0.  1.
         14    1    3    3    0    0 -0.16827812889E+02 -0.29383141317E+01  0.11328004149E+02  0.20497137717E+02  0.00000000000E+00 0. -1.
        -11    1    4    4    0    0  0.46818793307E+02 -0.24049504306E+02  0.59353181068E+02  0.79329554184E+02  0.00000000000E+00 0. -1.
         11    1    4    4    0    0  0.26538791773E+03  0.40747303394E+02  0.14479846067E+03  0.30505357534E+03  0.00000000000E+00 0.  1.
         21    1    1    2  503  501 -0.15117267810E+02 -0.29149115037E+02 -0.46651915221E+02  0.57049135727E+02  0.00000000000E+00 0.  1.
          1    1    1    2  501    0 -0.33231237105E+03  0.33593246191E+02  0.15896724244E+03  0.36990620746E+03  0.00000000000E+00 0. -1.
<scales pt_clust_5="13000.00000" pt_clust_6="13000.00000" pt_clust_7="13000.00000" pt_clust_8="13000.00000" pt_clust_9="32.83600" pt_clust_10="323.13670"></scales>
<clustering>
<clus scale="   32.836">  2  9  1 -1</clus>
<clus scale="   78.476">  5  6 -1 -1</clus>
<clus scale="   88.623">  1  5  2 -1</clus>
<clus scale="   91.218">  7  8 -1 -1</clus>
<clus scale="  323.137">  2 10  1 -1</clus>
<clus scale="   32.836">  2  5  1 -1</clus>
</clustering>
</event>
<event>
10    4  0.3403565E-005  0.1663167E+03  0.7546771E-02  0.1197417E+00
          2   -1    0    0  503    0 -0.00000000000E+00  0.00000000000E+00  0.59174661079E+03  0.59174661079E+03  0.00000000000E+00 0. -1.
         21   -1    0    0  501  502  0.00000000000E+00 -0.00000000000E+00 -0.12358481178E+03  0.12358481178E+03  0.00000000000E+00 0. -1.
         24    2    1    2    0    0  0.61468440689E+02 -0.58781137259E+02  0.10195804678E+03  0.15569393759E+03  0.81311546546E+02 0.  0.
         23    2    1    2    0    0 -0.19893772640E+03  0.10115715172E+02  0.21267594706E+03  0.30468802200E+03  0.89023511598E+02 0.  0.
        -11    1    3    3    0    0  0.45407460593E+02 -0.16954228452E+02  0.48047344199E+01  0.48706968832E+02  0.00000000000E+00 0.  1.
         12    1    3    3    0    0  0.16060980096E+02 -0.41826908807E+02  0.97153312362E+02  0.10698696876E+03  0.00000000000E+00 0. -1.
        -11    1    4    4    0    0 -0.12727933176E+03 -0.38664207342E+00  0.71422075377E+02  0.14594961677E+03  0.00000000000E+00 0. -1.
         11    1    4    4    0    0 -0.71658394639E+02  0.10502357245E+02  0.14125387168E+03  0.15873840523E+03  0.00000000000E+00 0.  1.
         21    1    1    2  503  502  0.10281131284E+03  0.60933306704E+01  0.12664616949E+02  0.10376746720E+03  0.00000000000E+00 0. -1.
          1    1    1    2  501    0  0.34657972867E+02  0.42572091417E+02  0.14086318821E+03  0.15118199577E+03  0.00000000000E+00 0. -1.
<scales pt_clust_5="13000.00000" pt_clust_6="13000.00000" pt_clust_7="13000.00000" pt_clust_8="13000.00000" pt_clust_9="140.48507" pt_clust_10="54.89591"></scales>
<clustering>
<clus scale="   54.896">  2 10  1 -1</clus>
<clus scale="   81.312">  5  6 -1 -1</clus>
<clus scale="   89.024">  7  8 -1 -1</clus>
<clus scale="  117.607">  1  5  2 -1</clus>
<clus scale="  140.485">  2  9  1 -1</clus>
<clus scale="   54.896">  2  5  1 -1</clus>
</clustering>
</event>
<event>
10    4  0.3403565E-005  0.1449244E+03  0.7546771E-02  0.1208137E+00
          2   -1    0    0  502    0 -0.00000000000E+00  0.00000000000E+00  0.34186745698E+03  0.34186745698E+03  0.00000000000E+00 0. -1.
         21   -1    0    0  503  502  0.00000000000E+00 -0.00000000000E+00 -0.29102166101E+03  0.29102166101E+03  0.00000000000E+00 0. -1.
         23    2    1    2    0    0 -0.52270110617E+02 -0.97753041991E+02  0.88289431035E+02  0.16532690147E+03  0.85147748270E+02 0.  0.
         24    2    1    2    0    0 -0.49543597878E+02  0.14431926961E+03  0.76251549241E+02  0.18767227797E+03  0.78255769657E+02 0.  0.
        -13    1    4    4    0    0  0.23441736887E+01  0.98180818295E+02  0.24911818870E+02  0.10131913418E+03  0.00000000000E+00 0.  1.
         14    1    4    4    0    0 -0.51887771567E+02  0.46138451320E+02  0.51339730371E+02  0.86353143793E+02  0.00000000000E+00 0. -1.
        -11    1    3    3    0    0 -0.22983199899E+02 -0.21241962838E+01  0.55447473529E+02  0.60059653747E+02  0.00000000000E+00 0.  1.
         11    1    3    3    0    0 -0.29286910718E+02 -0.95628845708E+02  0.32841957506E+02  0.10526724772E+03  0.00000000000E+00 0. -1.
         21    1    1    2  503  501  0.12813919058E+02  0.54938516528E+02 -0.13210262982E+03  0.14364380225E+03  0.00000000000E+00 0. -1.
          1    1    1    2  501    0  0.88999789437E+02 -0.10150474415E+03  0.18407445509E+02  0.13624613629E+03  0.00000000000E+00 0. -1.
<scales pt_clust_5="13000.00000" pt_clust_6="13000.00000" pt_clust_7="13000.00000" pt_clust_8="13000.00000" pt_clust_9="56.41309" pt_clust_10="123.61999"></scales>
<clustering>
<clus scale="   56.413">  2  9  1 -1</clus>
<clus scale="   78.256">  5  6 -1 -1</clus>
<clus scale="   85.148">  7  8 -1 -1</clus>
<clus scale="  123.620">  2 10  1 -1</clus>
<clus scale="  140.985">  2  5  1 -1</clus>
<clus scale="   56.413">  2  5  1 -1</clus>
</clustering>
</event>
<event>
10    4  0.3403565E-005  0.1661324E+03  0.7546771E-02  0.1193270E+00
          2   -1    0    0  503    0 -0.00000000000E+00  0.00000000000E+00  0.10921872962E+04  0.10921872962E+04  0.00000000000E+00 0. -1.
         21   -1    0    0  501  502  0.00000000000E+00 -0.00000000000E+00 -0.44710388675E+03  0.44710388675E+03  0.00000000000E+00 0. -1.
         23    2    1    2    0    0 -0.69476452930E+02  0.29517161574E+02  0.16804486272E+03  0.20515535869E+03  0.90285131529E+02 0.  0.
         24    2    1    2    0    0  0.22524939343E+02  0.12786989995E+03  0.14219027918E+03  0.20836405744E+03  0.79620479366E+02 0.  0.
        -11    1    4    4    0    0  0.17947374169E+02  0.89930545508E+01 -0.33892939750E+01  0.20358550621E+02  0.00000000000E+00 0.  1.
         12    1    4    4    0    0  0.45775651736E+01  0.11887684540E+03  0.14557957315E+03  0.18800550682E+03  0.00000000000E+00 0. -1.
        -13    1    3    3    0    0 -0.49411563437E+02 -0.19598983221E+02  0.39912946320E+02  0.66473047384E+02  0.00000000000E+00 0. -1.
         13    1    3    3    0    0 -0.20064889492E+02  0.49116144795E+02  0.12813191640E+03  0.13868231131E+03  0.00000000000E+00 0.  1.
         21    1    1    2  503  502 -0.58545348455E+02  0.15459993247E+02 -0.37897481737E+03  0.38378181486E+03  0.00000000000E+00 0. -1.
          1    1    1    2  501    0  0.10549686204E+03 -0.17284705477E+03  0.71382308491E+03  0.74198995195E+03  0.00000000000E+00 0. -1.
<scales pt_clust_5="13000.00000" pt_clust_6="13000.00000" pt_clust_7="13000.00000" pt_clust_8="13000.00000" pt_clust_9="60.55220" pt_clust_10="145.81004"></scales>
<clustering>
<clus scale="   60.552">  2  9  1 -1</clus>
<clus scale="   79.620">  5  6 -1 -1</clus>
<clus scale="   90.285">  7  8 -1 -1</clus>
<clus scale="  129.214">  1  7  2 -1</clus>
<clus scale="  145.810">  2 10  1 -1</clus>
<clus scale="   60.552">  2  5  1 -1</clus>
</clustering>
</event>
<event>
10    4  0.3403565E-005  0.2353024E+03  0.7546771E-02  0.1153431E+00
         21   -1    0    0  503  502  0.00000000000E+00  0.00000000000E+00  0.96763216012E+02  0.96763216012E+02  0.00000000000E+00 0.  1.
          2   -1    0    0  502    0 -0.00000000000E+00 -0.00000000000E+00 -0.14688279779E+04  0.14688279779E+04  0.00000000000E+00 0. -1.
         24    2    1    2    0    0  0.35653183950E+02  0.67521010701E+02 -0.19953240584E+03  0.22806387673E+03  0.79810491029E+02 0.  0.
         23    2    1    2    0    0  0.19798684462E+01 -0.20443174459E+03 -0.25349713872E+03  0.33792672839E+03  0.90207629103E+02 0.  0.
        -11    1    3    3    0    0  0.21379924632E+02 -0.15043321626E+02 -0.38493964658E+02  0.46531580867E+02  0.00000000000E+00 0.  1.
         12    1    3    3    0    0  0.14273259318E+02  0.82564332327E+02 -0.16103844118E+03  0.18153229586E+03  0.00000000000E+00 0. -1.
        -11    1    4    4    0    0 -0.41266684097E+02 -0.66975979559E+02 -0.77049679353E+02  0.11011527661E+03  0.00000000000E+00 0.  1.
         11    1    4    4    0    0  0.43246552543E+02 -0.13745576503E+03 -0.17644745937E+03  0.22781145178E+03  0.00000000000E+00 0. -1.
         21    1    1    2  503  501  0.78874961114E+02 -0.36567420708E+02 -0.39340296622E+02  0.95425859631E+02  0.00000000000E+00 0.  1.
          1    1    1    2  501    0 -0.11650801351E+03  0.17347815459E+03 -0.87969492075E+03  0.90417472920E+03  0.00000000000E+00 0. -1.
<scales pt_clust_5="13000.00000" pt_clust_6="13000.00000" pt_clust_7="13000.00000" pt_clust_8="13000.00000" pt_clust_9="86.93926" pt_clust_10="217.32433"></scales>
<clustering>
<clus scale="   79.810">  5  6 -1 -1</clus>
<clus scale="   86.939">  1  9  2 -1</clus>
<clus scale="   90.208">  7  8 -1 -1</clus>
<clus scale="  112.553">  2  5  1 -1</clus>
<clus scale="  217.324">  1 10  2 -1</clus>
<clus scale="   86.939">  1  5  2 -1</clus>
</clustering>
</event>
<event>
10    4  0.3403565E-005  0.2077179E+03  0.7546771E-02  0.1143759E+00
         -3   -1    0    0    0  501 -0.00000000000E+00  0.00000000000E+00  0.55966526785E+03  0.55966526785E+03  0.00000000000E+00 0.  1.
         21   -1    0    0  501  502  0.00000000000E+00 -0.00000000000E+00 -0.13495600747E+03  0.13495600747E+03  0.00000000000E+00 0.  1.
         23    2    1    2    0    0 -0.51199677314E+02  0.20719828657E+03  0.23255889123E+03  0.32863056767E+03  0.91443289537E+02 0.  0.
         24    2    1    2    0    0  0.19574869207E+02 -0.15919474909E+03  0.12666507262E+03  0.22218861941E+03  0.87164203277E+02 0.  0.
        -13    1    4    4    0    0  0.45476236904E+02 -0.11084226784E+03  0.54707496522E+02  0.13170803559E+03  0.00000000000E+00 0.  1.
         14    1    4    4    0    0 -0.25901367697E+02 -0.48352481248E+02  0.71957576095E+02  0.90480583822E+02  0.00000000000E+00 0. -1.
        -13    1    3    3    0    0 -0.64693433578E+02  0.15802393492E+03  0.13180083658E+03  0.21570411419E+03  0.00000000000E+00 0. -1.
         13    1    3    3    0    0  0.13493756264E+02  0.49174351652E+02  0.10075805465E+03  0.11292645348E+03  0.00000000000E+00 0.  1.
         21    1    1    2  503  502  0.25282089022E+01  0.20003263296E+02 -0.21595950227E+02  0.29545007175E+02  0.00000000000E+00 0.  1.
         -4    1    1    2    0  503  0.29096599204E+02 -0.68006800779E+02  0.87081246751E+02  0.11425708106E+03  0.00000000000E+00 0.  1.
<scales pt_clust_5="13000.00000" pt_clust_6="13000.00000" pt_clust_7="13000.00000" pt_clust_8="13000.00000" pt_clust_9="20.16240" pt_clust_10="71.82007"></scales>
<clustering>
<clus scale="   20.162">  2  9  1 -1</clus>
<clus scale="   71.820">  2 10  1 -1</clus>
<clus scale="   87.164">  5  6 -1 -1</clus>
<clus scale="   91.443">  7  8 -1 -1</clus>
<clus scale="  205.870">  2  5  1 -1</clus>
<clus scale="   20.162">  2  5  1 -1</clus>
</clustering>
</event>
<event>
10    4  0.3403565E-005  0.9948509E+02  0.7546771E-02  0.1288642E+00
          2   -1    0    0  503    0 -0.00000000000E+00  0.00000000000E+00  0.96275991397E+03  0.96275991397E+03  0.00000000000E+00 0. -1.
         21   -1    0    0  501  502  0.00000000000E+00 -0.00000000000E+00 -0.15363091952E+03  0.15363091952E+03  0.00000000000E+00 0. -1.
         24    2    1    2    0    0 -0.29631712100E+02 -0.24691496708E+02  0.78938856599E+03  0.79424488423E+03  0.78758616290E+02 0.  0.
         23    2    1    2    0    0  0.27128801019E+02  0.33664072785E+01  0.15085283757E+03  0.17910820387E+03  0.92605969288E+02 0.  0.
        -13    1    3    3    0    0  0.22145058817E+02 -0.27254225103E+01  0.95118330794E+02  0.97700196576E+02  0.00000000000E+00 0.  1.
         14    1    3    3    0    0 -0.51776770916E+02 -0.21966074198E+02  0.69427023520E+03  0.69654468766E+03  0.00000000000E+00 0. -1.
        -13    1    4    4    0    0  0.31686169840E+02 -0.21463089343E+02  0.14895471460E+03  0.15379266746E+03  0.00000000000E+00 0. -1.
         13    1    4    4    0    0 -0.45573688215E+01  0.24829496622E+02  0.18981229752E+01  0.25315536413E+02  0.00000000000E+00 0.  1.
         21    1    1    2  503  502 -0.18262740565E+02  0.22781038253E+02 -0.10824826484E+03  0.11211685974E+03  0.00000000000E+00 0. -1.
          1    1    1    2  501    0  0.20765651646E+02 -0.14559488231E+01 -0.22864144273E+02  0.30920885637E+02  0.00000000000E+00 0. -1.
<scales pt_clust_5="13000.00000" pt_clust_6="13000.00000" pt_clust_7="13000.00000" pt_clust_8="13000.00000" pt_clust_9="21.51630" pt_clust_10="20.81663"></scales>
<clustering>
<clus scale="   20.817">  2 10  1 -1</clus>
<clus scale="   21.516">  2  9  1 -1</clus>
<clus scale="   78.759">  5  6 -1 -1</clus>
<clus scale="   86.743">  1  5  2 -1</clus>
<clus scale="   92.606">  7  8 -1 -1</clus>
<clus scale="   20.817">  2  5  1 -1</clus>
</clustering>
</event>
<event>
10    4  0.3403565E-005  0.1782505E+03  0.7546771E-02  0.1188886E+00
          2   -1    0    0  503    0 -0.00000000000E+00  0.00000000000E+00  0.10601073812E+04  0.10601073812E+04  0.00000000000E+00 0. -1.
         21   -1    0    0  501  502  0.00000000000E+00 -0.00000000000E+00 -0.47111527539E+03  0.47111527539E+03  0.00000000000E+00 0. -1.
         24    2    1    2    0    0  0.67900901080E+02  0.47370388725E+02  0.55028258217E+02  0.13030374253E+03  0.84240548545E+02 0.  0.
         23    2    1    2    0    0  0.15011327420E+03 -0.26766814605E+02 -0.15841022775E+03  0.23765025947E+03  0.90185298775E+02 0.  0.
        -13    1    3    3    0    0  0.80967704398E+01 -0.23555434303E+02  0.72061847821E+01  0.25929621591E+02  0.00000000000E+00 0.  1.
         14    1    3    3    0    0  0.59804130640E+02  0.70925823028E+02  0.47822073435E+02  0.10437412094E+03  0.00000000000E+00 0. -1.
        -13    1    4    4    0    0  0.32026538583E+02  0.19063953455E+01 -0.95639678762E+02  0.10087755781E+03  0.00000000000E+00 0. -1.
         13    1    4    4    0    0  0.11808673562E+03 -0.28673209950E+02 -0.62770548984E+02  0.13677270165E+03  0.00000000000E+00 0.  1.
         21    1    1    2  503  502 -0.10338254815E+02 -0.33848093989E+02 -0.22236182667E+03  0.22516073134E+03  0.00000000000E+00 0. -1.
          1    1    1    2  501    0 -0.20767592047E+03  0.13244519868E+02  0.91473590198E+03  0.93810792323E+03  0.00000000000E+00 0. -1.
<scales pt_clust_5="13000.00000" pt_clust_6="13000.00000" pt_clust_7="13000.00000" pt_clust_8="13000.00000" pt_clust_9="35.39171" pt_clust_10="153.75265"></scales>
<clustering>
<clus scale="   35.392">  2  9  1 -1</clus>
<clus scale="   84.241">  5  6 -1 -1</clus>
<clus scale="   90.185">  7  8 -1 -1</clus>
<clus scale="  115.232">  1  5  2 -1</clus>
<clus scale="  153.753">  2 10  1 -1</clus>
<clus scale="   35.392">  2  5  1 -1</clus>
</clustering>
</event>
<event>
10    4  0.3403565E-005  0.9719774E+02  0.7546771E-02  0.1292601E+00
         -3   -1    0    0    0  501 -0.00000000000E+00  0.00000000000E+00  0.15204744451E+03  0.15204744451E+03  0.00000000000E+00 0.  1.
         21   -1    0    0  503  502  0.00000000000E+00 -0.00000000000E+00 -0.42085141301E+03  0.42085141301E+03  0.00000000000E+00 0.  1.
         24    2    1    2    0    0 -0.22673286488E+02  0.25294118032E+00  0.11771684265E+03  0.14468500667E+03  0.81008358903E+02 0.  0.
         23    2    1    2    0    0 -0.87984808877E+00 -0.96888028528E+01 -0.20665646405E+03  0.22660839534E+03  0.92465256544E+02 0.  0.
        -11    1    3    3    0    0 -0.25461689086E+02 -0.35003407210E+02  0.89587503383E+02  0.99496014442E+02  0.00000000000E+00 0.  1.
         12    1    3    3    0    0  0.27884025978E+01  0.35256348391E+02  0.28129339263E+02  0.45188992224E+02  0.00000000000E+00 0. -1.
        -11    1    4    4    0    0 -0.44272771991E+02 -0.15102208532E+02 -0.80704096437E+02  0.93280792364E+02  0.00000000000E+00 0.  1.
         11    1    4    4    0    0  0.43392923902E+02  0.54134056792E+01 -0.12595236762E+03  0.13332760297E+03  0.00000000000E+00 0. -1.
         21    1    1    2  503  501 -0.71823052886E+01 -0.21290320851E+02 -0.72586856920E+01  0.23612534578E+02  0.00000000000E+00 0. -1.
         -4    1    1    2    0  502  0.30735439865E+02  0.30726182524E+02 -0.17260566140E+03  0.17799292094E+03  0.00000000000E+00 0.  1.
<scales pt_clust_5="13000.00000" pt_clust_6="13000.00000" pt_clust_7="13000.00000" pt_clust_8="13000.00000" pt_clust_9="22.46916" pt_clust_10="43.08342"></scales>
<clustering>
<clus scale="   22.469">  1  9  2 -1</clus>
<clus scale="   43.083">  2 10  1 -1</clus>
<clus scale="   81.008">  5  6 -1 -1</clus>
<clus scale="   86.371">  1  5  2 -1</clus>
<clus scale="   92.465">  7  8 -1 -1</clus>
<clus scale="   43.083">  2  5  1 -1</clus>
</clustering>
</event>
<event>
10    4  0.3403565E-005  0.5463690E+03  0.7546771E-02  0.1032203E+00
          2   -1    0    0  502    0 -0.00000000000E+00  0.00000000000E+00  0.14073380177E+04  0.14073380177E+04  0.00000000000E+00 0. -1.
         21   -1    0    0  503  502  0.00000000000E+00 -0.00000000000E+00 -0.54676472333E+03  0.54676472333E+03  0.00000000000E+00 0. -1.
         24    2    1    2    0    0 -0.18891380553E+03 -0.72589858294E+02  0.47605612858E+03  0.52329710421E+03  0.79074068221E+02 0.  0.
         23    2    1    2    0    0 -0.35647704476E+03 -0.23994828925E+03  0.41479403697E+02  0.44143933409E+03  0.92179606177E+02 0.  0.
        -11    1    3    3    0    0 -0.10451583411E+03  0.21119471994E+01  0.22450894217E+03  0.24765355845E+03  0.00000000000E+00 0.  1.
         12    1    3    3    0    0 -0.84397971416E+02 -0.74701805493E+02  0.25154718641E+03  0.27564354575E+03  0.00000000000E+00 0. -1.
        -13    1    4    4    0    0 -0.16592055602E+03 -0.16675979180E+03  0.27281533887E+02  0.23681794941E+03  0.00000000000E+00 0. -1.
         13    1    4    4    0    0 -0.19055648875E+03 -0.73188497443E+02  0.14197869810E+02  0.20462138468E+03  0.00000000000E+00 0.  1.
         21    1    1    2  503  501 -0.57557622761E+01 -0.13052514371E+03 -0.91377649498E+02  0.15943593311E+03  0.00000000000E+00 0. -1.
          1    1    1    2  501    0  0.55114661257E+03  0.44306329125E+03  0.43441541158E+03  0.82993036962E+03  0.00000000000E+00 0. -1.
<scales pt_clust_5="13000.00000" pt_clust_6="13000.00000" pt_clust_7="13000.00000" pt_clust_8="13000.00000" pt_clust_9="130.65199" pt_clust_10="538.53718"></scales>
<clustering>
<clus scale="   79.074">  5  6 -1 -1</clus>
<clus scale="   92.180">  7  8 -1 -1</clus>
<clus scale="  130.652">  2  9  1 -1</clus>
<clus scale="  220.110">  1  5  2 -1</clus>
<clus scale="  538.537">  2 10  1 -1</clus>
<clus scale="  130.652">  2  5  1 -1</clus>
</clustering>
</event>
<event>
10    4  0.3403565E-005  0.1025214E+03  0.7546771E-02  0.1282312E+00
         21   -1    0    0  501  502  0.00000000000E+00  0.00000000000E+00  0.34611348677E+03  0.34611348677E+03  0.00000000000E+00 0. -1.
          2   -1    0    0  503    0 -0.00000000000E+00 -0.00000000000E+00 -0.20983045889E+03  0.20983045889E+03  0.00000000000E+00 0. -1.
         24    2    1    2    0    0  0.13712389801E+02  0.65758194991E+02 -0.12719660377E+03  0.16305445475E+03  0.76782871534E+02 0.  0.
         23    2    1    2    0    0 -0.15496531837E+02  0.12387050879E+02 -0.48504904082E+01  0.94053336598E+02  0.91809157166E+02 0.  0.
        -11    1    3    3    0    0 -0.17388076004E+02 -0.99407987860E+01 -0.21598950580E+02  0.29456397162E+02  0.00000000000E+00 0.  1.
         12    1    3    3    0    0  0.31100465805E+02  0.75698993777E+02 -0.10559765319E+03  0.13359805759E+03  0.00000000000E+00 0. -1.
        -11    1    4    4    0    0  0.32517796977E+02  0.11499795485E+01 -0.24746281690E+02  0.40879188234E+02  0.00000000000E+00 0.  1.
         11    1    4    4    0    0 -0.48014328814E+02  0.11237071331E+02  0.19895791282E+02  0.53174148364E+02  0.00000000000E+00 0. -1.
         21    1    1    2  503  502 -0.37277689177E+01  0.26459465211E+02  0.50794490381E+02  0.57394074724E+02  0.00000000000E+00 0.  1.
          1    1    1    2  501    0  0.55119109537E+01 -0.10460471108E+03  0.21753563168E+03  0.24144207958E+03  0.00000000000E+00 0. -1.
<scales pt_clust_5="13000.00000" pt_clust_6="13000.00000" pt_clust_7="13000.00000" pt_clust_8="13000.00000" pt_clust_9="26.72077" pt_clust_10="83.85081"></scales>
<clustering>
<clus scale="   26.721">  1  9  2 -1</clus>
<clus scale="   76.783">  5  6 -1 -1</clus>
<clus scale="   83.851">  1 10  2 -1</clus>
<clus scale="   89.316">  2  5  1 -1</clus>
<clus scale="   91.809">  7  8 -1 -1</clus>
<clus scale="   26.721">  1  5  2 -1</clus>
</clustering>
</event>
<event>
10    4  0.3403565E-005  0.2423385E+03  0.7546771E-02  0.1140702E+00
         21   -1    0    0  501  502  0.00000000000E+00  0.00000000000E+00  0.29633290023E+03  0.29633290023E+03  0.00000000000E+00 0. -1.
          2   -1    0    0  503    0 -0.00000000000E+00 -0.00000000000E+00 -0.54055675880E+03  0.54055675880E+03  0.00000000000E+00 0. -1.
         23    2    1    2    0    0 -0.96979459558E+02 -0.40735010115E+02 -0.72253803276E+02  0.15621483388E+03  0.90100530580E+02 0.  0.
         24    2    1    2    0    0 -0.16206263802E+03  0.69275167832E+02  0.43024626211E+02  0.19879819526E+03  0.81278880770E+02 0.  0.
        -13    1    4    4    0    0 -0.41273246129E+02  0.35845021638E+02 -0.20381691839E+02  0.58341749927E+02  0.00000000000E+00 0.  1.
         14    1    4    4    0    0 -0.12078939189E+03  0.33430146194E+02  0.63406318050E+02  0.14045644534E+03  0.00000000000E+00 0. -1.
        -11    1    3    3    0    0 -0.60671842263E+02  0.19318628591E+02 -0.54537834854E+02  0.83837087764E+02  0.00000000000E+00 0.  1.
         11    1    3    3    0    0 -0.36307617295E+02 -0.60053638706E+02 -0.17715968422E+02  0.72377746115E+02  0.00000000000E+00 0. -1.
         21    1    1    2  503  502 -0.31325006750E+02  0.67142408167E+02  0.39613521353E+02  0.84015415826E+02  0.00000000000E+00 0. -1.
          1    1    1    2  501    0  0.29036710433E+03 -0.95682565883E+02 -0.25460820285E+03  0.39786121406E+03  0.00000000000E+00 0. -1.
<scales pt_clust_5="13000.00000" pt_clust_6="13000.00000" pt_clust_7="13000.00000" pt_clust_8="13000.00000" pt_clust_9="74.09021" pt_clust_10="228.30182"></scales>
<clustering>
<clus scale="   74.090">  1  9  2 -1</clus>
<clus scale="   81.279">  5  6 -1 -1</clus>
<clus scale="   90.101">  7  8 -1 -1</clus>
<clus scale="  139.523">  2  7  1 -1</clus>
<clus scale="  228.302">  1 10  2 -1</clus>
<clus scale="   74.090">  1  5  2 -1</clus>
</clustering>
</event>
<event>
10    4  0.3403565E-005  0.2546426E+03  0.7546771E-02  0.1145524E+00
          2   -1    0    0  503    0 -0.00000000000E+00  0.00000000000E+00  0.81313126494E+03  0.81313126494E+03  0.00000000000E+00 0. -1.
         21   -1    0    0  501  502  0.00000000000E+00 -0.00000000000E+00 -0.12495487930E+03  0.12495487930E+03  0.00000000000E+00 0.  1.
         23    2    1    2    0    0 -0.56611892128E+02 -0.14048428186E+02  0.16381876225E+03  0.19637042852E+03  0.91227702302E+02 0.  0.
         24    2    1    2    0    0  0.22023880865E+03  0.14050808013E+03  0.21228304205E+03  0.34603682334E+03  0.80185658014E+02 0.  0.
        -11    1    4    4    0    0  0.15349282716E+03  0.67010782125E+02  0.95656503574E+02  0.19287472511E+03  0.00000000000E+00 0.  1.
         12    1    4    4    0    0  0.66745981494E+02  0.73497298003E+02  0.11662653847E+03  0.15316209823E+03  0.00000000000E+00 0. -1.
        -13    1    3    3    0    0  0.25363175200E+02 -0.41405696249E+01  0.40046839913E+02  0.47583446282E+02  0.00000000000E+00 0. -1.
         13    1    3    3    0    0 -0.81975067327E+02 -0.99078585608E+01  0.12377192234E+03  0.14878698224E+03  0.00000000000E+00 0.  1.
         21    1    1    2  503  502  0.19251629130E+02 -0.10849995549E+02  0.10355331721E+02  0.24404518488E+02  0.00000000000E+00 0. -1.
          1    1    1    2  501    0 -0.18287854565E+03 -0.11560965639E+03  0.30171924962E+03  0.37127437388E+03  0.00000000000E+00 0. -1.
<scales pt_clust_5="13000.00000" pt_clust_6="13000.00000" pt_clust_7="13000.00000" pt_clust_8="13000.00000" pt_clust_9="22.09859" pt_clust_10="241.68815"></scales>
<clustering>
<clus scale="   22.099">  2  9  1 -1</clus>
<clus scale="   80.186">  5  6 -1 -1</clus>
<clus scale="   91.228">  7  8 -1 -1</clus>
<clus scale="  107.123">  1  7  2 -1</clus>
<clus scale="  241.688">  2 10  1 -1</clus>
<clus scale="   22.099">  2  5  1 -1</clus>
</clustering>
</event>
<event>
10    4  0.3403565E-005  0.1094504E+03  0.7546771E-02  0.1262763E+00
         21   -1    0    0  501  502  0.00000000000E+00  0.00000000000E+00  0.86660573094E+02  0.86660573094E+02  0.00000000000E+00 0.  1.
          2   -1    0    0  503    0 -0.00000000000E+00 -0.00000000000E+00 -0.39453438232E+03  0.39453438232E+03  0.00000000000E+00 0. -1.
         23    2    1    2    0    0 -0.51092621086E+02 -0.47957183640E+02 -0.28421798837E+03  0.30422323184E+03  0.82834548874E+02 0.  0.
         24    2    1    2    0    0  0.57342567095E+02  0.55873459532E+02  0.33342390759E+01  0.11289531875E+03  0.79524979500E+02 0.  0.
        -13    1    4    4    0    0  0.48659497420E+02  0.59699928363E+02  0.31472178605E+02  0.83200517798E+02  0.00000000000E+00 0.  1.
         14    1    4    4    0    0  0.86830696751E+01 -0.38264688311E+01 -0.28137939529E+02  0.29694800953E+02  0.00000000000E+00 0. -1.
        -13    1    3    3    0    0 -0.19130829201E+02  0.15215016359E+02 -0.22935721586E+02  0.33519138912E+02  0.00000000000E+00 0.  1.
         13    1    3    3    0    0 -0.31961791885E+02 -0.63172199999E+02 -0.26128226679E+03  0.27070409293E+03  0.00000000000E+00 0. -1.
         21    1    1    2  503  502  0.11639127684E+02 -0.25769171366E+02 -0.17064852792E+01  0.28327223269E+02  0.00000000000E+00 0.  1.
          1    1    1    2  501    0 -0.17889073692E+02  0.17852895474E+02 -0.25283574648E+02  0.35749181548E+02  0.00000000000E+00 0. -1.
<scales pt_clust_5="13000.00000" pt_clust_6="13000.00000" pt_clust_7="13000.00000" pt_clust_8="13000.00000" pt_clust_9="24.45636" pt_clust_10="25.27341"></scales>
<clustering>
<clus scale="   25.273">  1 10  2 -1</clus>
<clus scale="   24.456">  1  9  2 -1</clus>
<clus scale="   79.525">  5  6 -1 -1</clus>
<clus scale="   82.835">  7  8 -1 -1</clus>
<clus scale="  106.967">  1  5  2 -1</clus>
<clus scale="   25.273">  1  5  2 -1</clus>
</clustering>
</event>
<event>
10    4  0.3403565E-005  0.1279230E+03  0.7546771E-02  0.1239302E+00
         21   -1    0    0  503  502  0.00000000000E+00  0.00000000000E+00  0.72397022695E+03  0.72397022695E+03  0.00000000000E+00 0. -1.
         -1   -1    0    0    0  501 -0.00000000000E+00 -0.00000000000E+00 -0.66498145817E+02  0.66498145817E+02  0.00000000000E+00 0.  1.
         23    2    1    2    0    0  0.35806700202E+02  0.49651560525E+02  0.12881104356E+03  0.17896624879E+03  0.10811677031E+03 0.  0.
         24    2    1    2    0    0 -0.80584248217E+02 -0.39097479474E+02  0.30694978010E+03  0.33016544918E+03  0.82271637678E+02 0.  0.
        -11    1    4    4    0    0 -0.32040521952E+02  0.19511631852E+02  0.52133303664E+02  0.64227565541E+02  0.00000000000E+00 0.  1.
         12    1    4    4    0    0 -0.48543726265E+02 -0.58609111326E+02  0.25481647643E+03  0.26593788363E+03  0.00000000000E+00 0. -1.
        -13    1    3    3    0    0  0.63872404576E+02 -0.47677044888E+00  0.86916842447E+02  0.10786310248E+03  0.00000000000E+00 0.  1.
         13    1    3    3    0    0 -0.28065704374E+02  0.50128330974E+02  0.41894201114E+02  0.71103146310E+02  0.00000000000E+00 0. -1.
         21    1    1    2  503  501 -0.25189178202E+02  0.22441268603E+02  0.19738229599E+03  0.20024454051E+03  0.00000000000E+00 0. -1.
         -2    1    1    2    0  502  0.69966726218E+02 -0.32995349654E+02  0.24328961490E+02  0.81092134290E+02  0.00000000000E+00 0.  1.
<scales pt_clust_5="13000.00000" pt_clust_6="13000.00000" pt_clust_7="13000.00000" pt_clust_8="13000.00000" pt_clust_9="33.73582" pt_clust_10="74.11530"></scales>
<clustering>
<clus scale="   33.736">  1  9  2 -1</clus>
<clus scale="   74.115">  1 10  2 -1</clus>
<clus scale="   82.272">  5  6 -1 -1</clus>
<clus scale="  106.975">  1  5  2 -1</clus>
<clus scale="  108.117">  7  8 -1 -1</clus>
<clus scale="   33.736">  1  5  2 -1</clus>
</clustering>
</event>
<event>
10    4  0.3403565E-005  0.1307296E+03  0.7546771E-02  0.1229570E+00
         21   -1    0    0  501  502  0.00000000000E+00  0.00000000000E+00  0.36441142621E+02  0.36441142621E+02  0.00000000000E+00 0.  1.
          2   -1    0    0  503    0 -0.00000000000E+00 -0.00000000000E+00 -0.13456839191E+04  0.13456839191E+04  0.00000000000E+00 0. -1.
         24    2    1    2    0    0 -0.19119670110E+02 -0.78699195125E+02 -0.35799066006E+03  0.37525111809E+03  0.78083057307E+02 0.  0.
         23    2    1    2    0    0 -0.33530109847E+02  0.11541465576E+03 -0.52111207716E+03  0.54241791247E+03  0.90634341034E+02 0.  0.
        -13    1    3    3    0    0 -0.20590561854E+02 -0.93288859881E+02 -0.27878709997E+03  0.29470159437E+03  0.00000000000E+00 0.  1.
         14    1    3    3    0    0  0.14708917445E+01  0.14589664756E+02 -0.79203560092E+02  0.80549523720E+02  0.00000000000E+00 0. -1.
        -11    1    4    4    0    0 -0.59413681458E+02  0.10604421358E+03 -0.45105642235E+03  0.46714800323E+03  0.00000000000E+00 0.  1.
         11    1    4    4    0    0  0.25883571611E+02  0.93704421758E+01 -0.70055654812E+02  0.75269909240E+02  0.00000000000E+00 0. -1.
         21    1    1    2  503  502 -0.47824018220E+02  0.21716631571E+02 -0.19794624951E+03  0.20479615842E+03  0.00000000000E+00 0. -1.
          1    1    1    2  501    0  0.10047379818E+03 -0.58432092203E+02 -0.23219378974E+03  0.25965987275E+03  0.00000000000E+00 0. -1.
<scales pt_clust_5="13000.00000" pt_clust_6="13000.00000" pt_clust_7="13000.00000" pt_clust_8="13000.00000" pt_clust_9="52.52379" pt_clust_10="105.00455"></scales>
<clustering>
<clus scale="   52.524">  2  9  1 -1</clus>
<clus scale="   78.083">  5  6 -1 -1</clus>
<clus scale="   90.634">  7  8 -1 -1</clus>
<clus scale="  105.005">  1 10  2 -1</clus>
<clus scale="  122.363">  2  5  1 -1</clus>
<clus scale="  105.005">  1  5  2 -1</clus>
</clustering>
</event>
<event>
10    4  0.3403565E-005  0.2044450E+03  0.7546771E-02  0.1147382E+00
          2   -1    0    0  502    0 -0.00000000000E+00  0.00000000000E+00  0.21899324892E+04  0.21899324892E+04  0.00000000000E+00 0. -1.
         21   -1    0    0  503  502  0.00000000000E+00 -0.00000000000E+00 -0.13329408197E+03  0.13329408197E+03  0.00000000000E+00 0. -1.
         24    2    1    2    0    0  0.14626051723E+03  0.96934705643E+02  0.10708974848E+04  0.10880605401E+04  0.79157059235E+02 0.  0.
         23    2    1    2    0    0 -0.10564601659E+03 -0.27915847595E+03  0.15875069511E+03  0.35092003051E+03  0.94087985929E+02 0.  0.
        -11    1    3    3    0    0  0.11095402101E+03  0.10826668392E+03  0.89022713811E+03  0.90362427316E+03  0.00000000000E+00 0.  1.
         12    1    3    3    0    0  0.35306496218E+02 -0.11331978279E+02  0.18067034669E+03  0.18443626699E+03  0.00000000000E+00 0. -1.
        -11    1    4    4    0    0 -0.85823091004E+02 -0.10062391684E+03  0.53042013633E+02  0.14249291491E+03  0.00000000000E+00 0. -1.
         11    1    4    4    0    0 -0.19822925586E+02 -0.17853455911E+03  0.10570868148E+03  0.20842711560E+03  0.00000000000E+00 0.  1.
         21    1    1    2  503  501  0.45925726017E+02  0.23818124120E+02  0.17104127316E+02  0.54488774238E+02  0.00000000000E+00 0. -1.
          1    1    1    2  501    0 -0.86540226655E+02  0.15840564619E+03  0.80988609996E+03  0.82975722623E+03  0.00000000000E+00 0. -1.
<scales pt_clust_5="13000.00000" pt_clust_6="13000.00000" pt_clust_7="13000.00000" pt_clust_8="13000.00000" pt_clust_9="51.73466" pt_clust_10="180.46266"></scales>
<clustering>
<clus scale="   51.735">  2  9  1 -1</clus>
<clus scale="   79.157">  5  6 -1 -1</clus>
<clus scale="   94.088">  7  8 -1 -1</clus>
<clus scale="  180.463">  2 10  1 -1</clus>
<clus scale="  198.018">  1  5  2 -1</clus>
<clus scale="   51.735">  2  5  1 -1</clus>
</clustering>
</event>
<event>
10    4  0.3403565E-005  0.1320614E+03  0.7546771E-02  0.1239114E+00
          4   -1    0    0  502    0 -0.00000000000E+00  0.00000000000E+00  0.61700202854E+03  0.61700202854E+03  0.00000000000E+00 0. -1.
         21   -1    0    0  503  502  0.00000000000E+00 -0.00000000000E+00 -0.79594764317E+02  0.79594764317E+02  0.00000000000E+00 0. -1.
         23    2    1    2    0    0  0.22314082830E+02 -0.90188059960E+01  0.21052882741E+03  0.23178174701E+03  0.93920891820E+02 0.  0.
         24    2    1    2    0    0  0.65339359172E+02  0.52809455373E+02  0.55611591562E+02  0.12861886581E+03  0.79950566549E+02 0.  0.
        -11    1    4    4    0    0  0.53462671127E+02 -0.39709482487E+01  0.44237075914E+02  0.69504996363E+02  0.00000000000E+00 0.  1.
         12    1    4    4    0    0  0.11876688046E+02  0.56780403622E+02  0.11374515648E+02  0.59113869444E+02  0.00000000000E+00 0. -1.
        -13    1    3    3    0    0  0.38514708875E+02  0.31879725676E+02  0.13998792086E+03  0.14864830203E+03  0.00000000000E+00 0.  1.
         13    1    3    3    0    0 -0.16200626045E+02 -0.40898531672E+02  0.70540906551E+02  0.83133444979E+02  0.00000000000E+00 0. -1.
         21    1    1    2  503  501  0.20058313219E+02  0.16872081013E+02 -0.10708041657E+02  0.28313692854E+02  0.00000000000E+00 0. -1.
          3    1    1    2  501    0 -0.10771175522E+03 -0.60662730390E+02  0.28197488691E+03  0.30788248719E+03  0.00000000000E+00 0. -1.
<scales pt_clust_5="13000.00000" pt_clust_6="13000.00000" pt_clust_7="13000.00000" pt_clust_8="13000.00000" pt_clust_9="26.21074" pt_clust_10="105.11008"></scales>
<clustering>
<clus scale="   26.211">  2  9  1 -1</clus>
<clus scale="   79.951">  5  6 -1 -1</clus>
<clus scale="   93.921">  7  8 -1 -1</clus>
<clus scale="   97.603">  1  7  2 -1</clus>
<clus scale="  105.110">  2 10  1 -1</clus>
<clus scale="   26.211">  2  5  1 -1</clus>
</clustering>
</event>
<event>
10    4  0.3403565E-005  0.4066045E+03  0.7546771E-02  0.1041516E+00
          2   -1    0    0  502    0 -0.00000000000E+00  0.00000000000E+00  0.28951609312E+04  0.28951609312E+04  0.00000000000E+00 0. -1.
         21   -1    0    0  503  502  0.00000000000E+00 -0.00000000000E+00 -0.56302959748E+02  0.56302959748E+02  0.00000000000E+00 0.  1.
         24    2    1    2    0    0  0.23057700027E+03 -0.14259720135E+03  0.12486707762E+04  0.12802485182E+04  0.79736102888E+02 0.  0.
         23    2    1    2    0    0  0.90445633391E+02  0.39719776894E+02  0.49426709280E+03  0.51237769887E+03  0.92048215629E+02 0.  0.
        -13    1    3    3    0    0  0.23304282304E+03 -0.13795577751E+03  0.11507617292E+04  0.11821985076E+04  0.00000000000E+00 0.  1.
         14    1    3    3    0    0 -0.24658227699E+01 -0.46414238341E+01  0.97909046990E+02  0.98050010605E+02  0.00000000000E+00 0. -1.
        -13    1    4    4    0    0  0.73662826795E+02  0.53485278450E+02  0.47406161775E+03  0.48272280295E+03  0.00000000000E+00 0.  1.
         13    1    4    4    0    0  0.16782806597E+02 -0.13765501556E+02  0.20205475054E+02  0.29654895928E+02  0.00000000000E+00 0. -1.
         21    1    1    2  503  501 -0.24842158003E+02  0.18804914651E+02  0.14355073723E+02  0.34304894269E+02  0.00000000000E+00 0. -1.
          1    1    1    2  501    0 -0.29618047566E+03  0.84072509800E+02  0.10815650287E+04  0.11245327796E+04  0.00000000000E+00 0. -1.
<scales pt_clust_5="13000.00000" pt_clust_6="13000.00000" pt_clust_7="13000.00000" pt_clust_8="13000.00000" pt_clust_9="31.15698" pt_clust_10="321.38794"></scales>
<clustering>
<clus scale="   31.157">  2  9  1 -1</clus>
<clus scale="   79.736">  5  6 -1 -1</clus>
<clus scale="   92.048">  7  8 -1 -1</clus>
<clus scale="  132.593">  5  7 -1 -1</clus>
<clus scale="  321.388">  2 10  1 -1</clus>
<clus scale="   31.157">  2  5  1 -1</clus>
</clustering>
</event>
<event>
10    4  0.3403565E-005  0.9849768E+02  0.7546771E-02  0.1289996E+00
         21   -1    0    0  501  502  0.00000000000E+00  0.00000000000E+00  0.10692937508E+03  0.10692937508E+03  0.00000000000E+00 0.  1.
          2   -1    0    0  503    0 -0.00000000000E+00 -0.00000000000E+00 -0.56512338640E+03  0.56512338640E+03  0.00000000000E+00 0. -1.
         23    2    1    2    0    0 -0.32164951517E+02  0.13822013533E+00 -0.29736492008E+03  0.31264882888E+03  0.91042799226E+02 0.  0.
         24    2    1    2    0    0  0.51412029908E+02  0.12901316238E+02 -0.90550264013E+02  0.13110659033E+03  0.78612638521E+02 0.  0.
        -13    1    4    4    0    0  0.54340570375E+02 -0.22770921110E+02 -0.53351246482E+02  0.79484388014E+02  0.00000000000E+00 0.  1.
         14    1    4    4    0    0 -0.29285404665E+01  0.35672237347E+02 -0.37199017532E+02  0.51622202316E+02  0.00000000000E+00 0. -1.
        -11    1    3    3    0    0  0.47297450624E+01 -0.38973718397E+02 -0.16856841290E+03  0.17307984008E+03  0.00000000000E+00 0.  1.
         11    1    3    3    0    0 -0.36894696580E+02  0.39111938532E+02 -0.12879650718E+03  0.13956898880E+03  0.00000000000E+00 0. -1.
         21    1    1    2  503  502  0.57977403045E+01 -0.39982830321E+02  0.71336382202E+02  0.81982436770E+02  0.00000000000E+00 0.  1.
          1    1    1    2  501    0 -0.25044818696E+02  0.26943293948E+02 -0.14161520942E+03  0.14631490550E+03  0.00000000000E+00 0. -1.
<scales pt_clust_5="13000.00000" pt_clust_6="13000.00000" pt_clust_7="13000.00000" pt_clust_8="13000.00000" pt_clust_9="23.81460" pt_clust_10="36.78567"></scales>
<clustering>
<clus scale="   36.786">  1 10  2 -1</clus>
<clus scale="   23.815">  1  9  2 -1</clus>
<clus scale="   78.613">  5  6 -1 -1</clus>
<clus scale="   87.138">  1  5  2 -1</clus>
<clus scale="   91.043">  7  8 -1 -1</clus>
<clus scale="   36.786">  1  5  2 -1</clus>
</clustering>
</event>
<event>
10    4  0.3403565E-005  0.1520778E+03  0.7546771E-02  0.1218227E+00
         21   -1    0    0  501  502  0.00000000000E+00  0.00000000000E+00  0.11243286136E+03  0.11243286136E+03  0.00000000000E+00 0.  1.
          2   -1    0    0  503    0 -0.00000000000E+00 -0.00000000000E+00 -0.74611452696E+03  0.74611452696E+03  0.00000000000E+00 0. -1.
         24    2    1    2    0    0  0.14899601648E+01  0.66066631359E+02 -0.18853513981E+03  0.21496863121E+03  0.79366199975E+02 0.  0.
         23    2    1    2    0    0  0.97070307186E+02 -0.89861712160E+02 -0.28324857265E+03  0.32905591226E+03  0.10271449574E+03 0.  0.
        -11    1    3    3    0    0  0.38532879510E+02  0.45548516239E+02 -0.93315446420E+02  0.11075749490E+03  0.00000000000E+00 0.  1.
         12    1    3    3    0    0 -0.37042919345E+02  0.20518115120E+02 -0.95219693392E+02  0.10421113631E+03  0.00000000000E+00 0. -1.
        -13    1    4    4    0    0  0.81479613833E+02 -0.27855359467E+02 -0.23086347568E+03  0.24639966096E+03  0.00000000000E+00 0.  1.
         13    1    4    4    0    0  0.15590693354E+02 -0.62006352694E+02 -0.52385096975E+02  0.82656251298E+02  0.00000000000E+00 0. -1.
         21    1    1    2  503  502 -0.78170579868E+02  0.86598555786E+02  0.22365029770E+02  0.11878612704E+03  0.00000000000E+00 0.  1.
          1    1    1    2  501    0 -0.20389687483E+02 -0.62803474985E+02 -0.18426298291E+03  0.19573671780E+03  0.00000000000E+00 0. -1.
<scales pt_clust_5="13000.00000" pt_clust_6="13000.00000" pt_clust_7="13000.00000" pt_clust_8="13000.00000" pt_clust_9="112.14895" pt_clust_10="66.03045"></scales>
<clustering>
<clus scale="   66.030">  1 10  2 -1</clus>
<clus scale="   79.366">  5  6 -1 -1</clus>
<clus scale="   98.476">  2  5  1 -1</clus>
<clus scale="  102.714">  7  8 -1 -1</clus>
<clus scale="  112.149">  1  9  2 -1</clus>
<clus scale="   66.030">  1  5  2 -1</clus>
</clustering>
</event>
<event>
10    4  0.3403565E-005  0.1135989E+03  0.7546771E-02  0.1260609E+00
         -1   -1    0    0    0  501 -0.00000000000E+00  0.00000000000E+00  0.48116789994E+03  0.48116789994E+03  0.00000000000E+00 0.  1.
         21   -1    0    0  501  502  0.00000000000E+00 -0.00000000000E+00 -0.72465737623E+02  0.72465737623E+02  0.00000000000E+00 0.  1.
         24    2    1    2    0    0  0.54065502650E+02 -0.25960948128E+02  0.27494512383E+03  0.29249640364E+03  0.79763874159E+02 0.  0.
         23    2    1    2    0    0  0.12090359865E+02 -0.50375770786E+02  0.29721974628E+02  0.10936271723E+03  0.91612843313E+02 0.  0.
        -11    1    3    3    0    0 -0.37497648267E+01 -0.29308579513E+02  0.17076081177E+03  0.17329832199E+03  0.00000000000E+00 0.  1.
         12    1    3    3    0    0  0.57815267476E+02  0.33476313846E+01  0.10418431206E+03  0.11919808165E+03  0.00000000000E+00 0. -1.
        -11    1    4    4    0    0  0.40423933370E+02 -0.16998950455E+02 -0.15412674460E+02  0.46482354068E+02  0.00000000000E+00 0.  1.
         11    1    4    4    0    0 -0.28333573504E+02 -0.33376820331E+02  0.45134649088E+02  0.62880363161E+02  0.00000000000E+00 0. -1.
         21    1    1    2  503  502 -0.40384156520E+02  0.15961285678E+02  0.29736155989E+02  0.52629665696E+02  0.00000000000E+00 0. -1.
         -2    1    1    2    0  503 -0.25771705995E+02  0.60375433236E+02  0.74298907870E+02  0.99144850996E+02  0.00000000000E+00 0.  1.
<scales pt_clust_5="13000.00000" pt_clust_6="13000.00000" pt_clust_7="13000.00000" pt_clust_8="13000.00000" pt_clust_9="36.44831" pt_clust_10="80.74728"></scales>
<clustering>
<clus scale="   36.448">  9 10 -1 -1</clus>
<clus scale="   79.764">  5  6 -1 -1</clus>
<clus scale="   91.613">  7  8 -1 -1</clus>
<clus scale="   99.796">  1  5  2 -1</clus>
<clus scale="   80.747">  2  9  1 -1</clus>
<clus scale="   80.747">  2  5  1 -1</clus>
</clustering>
</event>
<event>
10    4  0.3403565E-005  0.2173600E+03  0.7546771E-02  0.1171322E+00
         21   -1    0    0  501  502  0.00000000000E+00  0.00000000000E+00  0.11221617978E+03  0.11221617978E+03  0.00000000000E+00 0. -1.
          4   -1    0    0  503    0 -0.00000000000E+00 -0.00000000000E+00 -0.13128062566E+04  0.13128062566E+04  0.00000000000E+00 0. -1.
         24    2    1    2    0    0 -0.49483113489E+02 -0.75528162257E+01 -0.94331553440E+02  0.13339149719E+03  0.79932634101E+02 0.  0.
         23    2    1    2    0    0  0.19024634589E+03 -0.91603996424E+02 -0.56456205066E+03  0.60958217121E+03  0.90967852172E+02 0.  0.
        -11    1    3    3    0    0 -0.18948502517E+02  0.26080991375E+02 -0.79201880308E+02  0.85511412706E+02  0.00000000000E+00 0.  1.
         12    1    3    3    0    0 -0.30534610972E+02 -0.33633807601E+02 -0.15129673132E+02  0.47880084483E+02  0.00000000000E+00 0. -1.
        -11    1    4    4    0    0  0.14003730139E+03 -0.20441025145E+02 -0.31729057414E+03  0.34742134322E+03  0.00000000000E+00 0.  1.
         11    1    4    4    0    0  0.50209044502E+02 -0.71162971279E+02 -0.24727147652E+03  0.26216082799E+03  0.00000000000E+00 0. -1.
         21    1    1    2  503  502 -0.22975995483E+03 -0.45326475748E+02 -0.23639118391E+03  0.33275353955E+03  0.00000000000E+00 0. -1.
          3    1    1    2  501    0  0.88996722427E+02  0.14448328840E+03 -0.30530528883E+03  0.34929522845E+03  0.00000000000E+00 0. -1.
<scales pt_clust_5="13000.00000" pt_clust_6="13000.00000" pt_clust_7="13000.00000" pt_clust_8="13000.00000" pt_clust_9="197.40874" pt_clust_10="161.19050"></scales>
<clustering>
<clus scale="   79.933">  5  6 -1 -1</clus>
<clus scale="   90.968">  7  8 -1 -1</clus>
<clus scale="   94.313">  2  5  1 -1</clus>
<clus scale="  161.191">  1 10  2 -1</clus>
<clus scale="  197.409">  1  9  2 -1</clus>
<clus scale="  161.191">  1  5  2 -1</clus>
</clustering>
</event>
<event>
10    4  0.3403565E-005  0.2807337E+03  0.7546771E-02  0.1120000E+00
          4   -1    0    0  503    0 -0.00000000000E+00  0.00000000000E+00  0.24382379765E+03  0.24382379765E+03  0.00000000000E+00 0. -1.
         21   -1    0    0  501  502  0.00000000000E+00 -0.00000000000E+00 -0.21693790946E+04  0.21693790946E+04  0.00000000000E+00 0. -1.
         24    2    1    2    0    0 -0.10499200767E+03  0.56906478177E+02 -0.28079534637E+03  0.31629363531E+03  0.83270452497E+02 0.  0.
         23    2    1    2    0    0 -0.12244740250E+03  0.97915021450E+02  0.16428324697E+03  0.24375466971E+03  0.88581239375E+02 0.  0.
        -11    1    3    3    0    0 -0.22135589505E+02  0.36761660781E+02 -0.17617326977E+03  0.18132408833E+03  0.00000000000E+00 0.  1.
         12    1    3    3    0    0 -0.82856418169E+02  0.20144817396E+02 -0.10462207659E+03  0.13496954697E+03  0.00000000000E+00 0. -1.
        -13    1    4    4    0    0 -0.73319125935E+02  0.16735389797E+02  0.33884059012E+02  0.82485737887E+02  0.00000000000E+00 0. -1.
         13    1    4    4    0    0 -0.49128276563E+02  0.81179631654E+02  0.13039918796E+03  0.16126893183E+03  0.00000000000E+00 0.  1.
         21    1    1    2  503  502 -0.57051248357E+02 -0.73629189465E+02 -0.66433563818E+03  0.67083376676E+03  0.00000000000E+00 0. -1.
          3    1    1    2  501    0  0.28449065853E+03 -0.81192310162E+02 -0.11447075594E+04  0.11823208205E+04  0.00000000000E+00 0. -1.
<scales pt_clust_5="13000.00000" pt_clust_6="13000.00000" pt_clust_7="13000.00000" pt_clust_8="13000.00000" pt_clust_9="93.14560" pt_clust_10="266.39209"></scales>
<clustering>
<clus scale="   83.270">  5  6 -1 -1</clus>
<clus scale="   88.581">  7  8 -1 -1</clus>
<clus scale="   93.146">  2  9  1 -1</clus>
<clus scale="  149.178">  1  5  2 -1</clus>
<clus scale="  266.392">  2 10  1 -1</clus>
<clus scale="   93.146">  2  5  1 -1</clus>
</clustering>
</event>
<event>
10    4  0.3403565E-005  0.2180890E+03  0.7546771E-02  0.1135316E+00
          4   -1    0    0  502    0 -0.00000000000E+00  0.00000000000E+00  0.10847378506E+04  0.10847378506E+04  0.00000000000E+00 0. -1.
         21   -1    0    0  503  502  0.00000000000E+00 -0.00000000000E+00 -0.35643818326E+02  0.35643818326E+02  0.00000000000E+00 0. -1.
         24    2    1    2    0    0 -0.88402592335E+02 -0.25007455796E+01  0.29172971171E+03  0.31531482225E+03  0.80597396851E+02 0.  0.
         23    2    1    2    0    0 -0.60972069060E+02  0.15191372257E+02  0.31491625906E+03  0.33348790480E+03  0.89964223060E+02 0.  0.
        -11    1    3    3    0    0 -0.61373302147E+01  0.27705807068E+02  0.10935737015E+03  0.11297925904E+03  0.00000000000E+00 0.  1.
         12    1    3    3    0    0 -0.82265262120E+02 -0.30206552648E+02  0.18237234155E+03  0.20233556321E+03  0.00000000000E+00 0. -1.
        -11    1    4    4    0    0 -0.43995624457E+02 -0.32240035317E+02  0.21198374609E+03  0.21888842696E+03  0.00000000000E+00 0.  1.
         11    1    4    4    0    0 -0.16976444604E+02  0.47431407574E+02  0.10293251296E+03  0.11459947784E+03  0.00000000000E+00 0. -1.
         21    1    1    2  503  501  0.27151804407E+02 -0.11382418885E+01  0.26753774647E+02  0.38135030287E+02  0.00000000000E+00 0. -1.
          3    1    1    2  501    0  0.12222285699E+03 -0.11552384789E+02  0.41569428690E+03  0.43344391163E+03  0.00000000000E+00 0. -1.
<scales pt_clust_5="13000.00000" pt_clust_6="13000.00000" pt_clust_7="13000.00000" pt_clust_8="13000.00000" pt_clust_9="27.17565" pt_clust_10="130.80918"></scales>
<clustering>
<clus scale="   27.176">  2  9  1 -1</clus>
<clus scale="   80.597">  5  6 -1 -1</clus>
<clus scale="   89.964">  7  8 -1 -1</clus>
<clus scale="   92.435">  5  7 -1 -1</clus>
<clus scale="  130.809">  2 10  1 -1</clus>
<clus scale="   27.176">  2  5  1 -1</clus>
</clustering>
</event>
<event>
10    4  0.3403565E-005  0.1999915E+03  0.7546771E-02  0.1180925E+00
          2   -1    0    0  503    0 -0.00000000000E+00  0.00000000000E+00  0.43804457811E+03  0.43804457811E+03  0.00000000000E+00 0. -1.
         21   -1    0    0  501  502  0.00000000000E+00 -0.00000000000E+00 -0.86040295997E+03  0.86040295997E+03  0.00000000000E+00 0. -1.
         24    2    1    2    0    0  0.23042945267E+02 -0.49628645333E+02  0.34123137344E+03  0.35486825047E+03  0.80614174987E+02 0.  0.
         23    2    1    2    0    0 -0.20228624302E+02 -0.42164223511E+02 -0.36508921558E+02  0.10739351692E+03  0.89517859317E+02 0.  0.
        -11    1    3    3    0    0 -0.12795538911E+02 -0.27361278787E+02  0.37179512745E+02  0.47902834580E+02  0.00000000000E+00 0.  1.
         12    1    3    3    0    0  0.35838484179E+02 -0.22267366546E+02  0.30405186069E+03  0.30696541589E+03  0.00000000000E+00 0. -1.
        -11    1    4    4    0    0  0.15040272416E+02 -0.59720051629E+02 -0.21338351989E+02  0.65176833511E+02  0.00000000000E+00 0.  1.
         11    1    4    4    0    0 -0.35268896719E+02  0.17555828118E+02 -0.15170569569E+02  0.42216683405E+02  0.00000000000E+00 0. -1.
         21    1    1    2  503  502  0.13972713551E+03 -0.90365279340E+02 -0.19722607606E+03  0.25804588969E+03  0.00000000000E+00 0. -1.
          1    1    1    2  501    0 -0.14254145648E+03  0.18215814818E+03 -0.52985475768E+03  0.57813988100E+03  0.00000000000E+00 0. -1.
<scales pt_clust_5="13000.00000" pt_clust_6="13000.00000" pt_clust_7="13000.00000" pt_clust_8="13000.00000" pt_clust_9="13000.00000" pt_clust_10="199.99148"></scales>
<clustering>
<clus scale="   80.614">  5  6 -1 -1</clus>
<clus scale="   89.518">  7  8 -1 -1</clus>
<clus scale="   97.430">  1  5  2 -1</clus>
<clus scale="  109.297">  1  7  2 -1</clus>
<clus scale="  199.991">  2 10  1 -1</clus>
<clus scale="  199.991">  2  5  1 -1</clus>
</clustering>
</event>
<event>
10    4  0.3403565E-005  0.1716355E+03  0.7546771E-02  0.1209602E+00
         21   -1    0    0  503  502  0.00000000000E+00  0.00000000000E+00  0.29261724067E+03  0.29261724067E+03  0.00000000000E+00 0.  1.
         -1   -1    0    0    0  501 -0.00000000000E+00 -0.00000000000E+00 -0.18506826236E+03  0.18506826236E+03  0.00000000000E+00 0.  1.
         24    2    1    2    0    0  0.11711371194E+02  0.13026913827E+02  0.24973152842E+01  0.80897435797E+02  0.78938595350E+02 0.  0.
         23    2    1    2    0    0  0.77030832639E+02  0.90176499851E+02  0.49121875245E+02  0.15965212500E+03  0.94922558373E+02 0.  0.
        -11    1    3    3    0    0  0.35365247155E+02 -0.35680724094E+01  0.25681287878E+02  0.43851572311E+02  0.00000000000E+00 0.  1.
         12    1    3    3    0    0 -0.23653875962E+02  0.16594986236E+02 -0.23183972594E+02  0.37045863486E+02  0.00000000000E+00 0. -1.
        -13    1    4    4    0    0 -0.17575752348E+02  0.42418401888E+02  0.15858648512E+02  0.48576996839E+02  0.00000000000E+00 0.  1.
         13    1    4    4    0    0  0.94606584987E+02  0.47758097963E+02  0.33263226734E+02  0.11107512816E+03  0.00000000000E+00 0. -1.
         21    1    1    2  503  501 -0.39899545614E+00  0.37950208096E+02  0.59504906487E+02  0.70577697525E+02  0.00000000000E+00 0.  1.
         -2    1    1    2    0  502 -0.88343208376E+02 -0.14115362177E+03 -0.35751187010E+01  0.16655824471E+03  0.00000000000E+00 0.  1.
<scales pt_clust_5="13000.00000" pt_clust_6="13000.00000" pt_clust_7="13000.00000" pt_clust_8="13000.00000" pt_clust_9="37.95231" pt_clust_10="142.99813"></scales>
<clustering>
<clus scale="   37.952">  1  9  2 -1</clus>
<clus scale="   78.939">  5  6 -1 -1</clus>
<clus scale="   82.255">  2  5  1 -1</clus>
<clus scale="   94.923">  7  8 -1 -1</clus>
<clus scale="  142.998">  1 10  2 -1</clus>
<clus scale="   37.952">  1  5  2 -1</clus>
</clustering>
</event>
<event>
10    4  0.3403565E-005  0.1060142E+03  0.7546771E-02  0.1270205E+00
         21   -1    0    0  503  502  0.00000000000E+00  0.00000000000E+00  0.17965402826E+03  0.17965402826E+03  0.00000000000E+00 0.  1.
          2   -1    0    0  502    0 -0.00000000000E+00 -0.00000000000E+00 -0.35824905936E+03  0.35824905936E+03  0.00000000000E+00 0. -1.
         23    2    1    2    0    0 -0.46623847212E+02  0.32285497862E+02 -0.23572130137E+03  0.25897989927E+03  0.91048996744E+02 0.  0.
         24    2    1    2    0    0  0.29359902346E+02 -0.42397638379E+02 -0.78833285580E+02  0.12766311694E+03  0.86160437012E+02 0.  0.
        -13    1    4    4    0    0  0.43905389364E+02  0.10657489297E+02 -0.39785508396E+02  0.60200929990E+02  0.00000000000E+00 0.  1.
         14    1    4    4    0    0 -0.14545487018E+02 -0.53055127676E+02 -0.39047777185E+02  0.67462186952E+02  0.00000000000E+00 0. -1.
        -13    1    3    3    0    0 -0.23178182232E+02  0.63084896634E+02 -0.12903650034E+03  0.14549003655E+03  0.00000000000E+00 0.  1.
         13    1    3    3    0    0 -0.23445664979E+02 -0.30799398771E+02 -0.10668480103E+03  0.11348986273E+03  0.00000000000E+00 0. -1.
         21    1    1    2  503  501 -0.52638704529E+01  0.26588315916E+02  0.10948812463E+03  0.11279315719E+03  0.00000000000E+00 0.  1.
          1    1    1    2  501    0  0.22527815318E+02 -0.16476175399E+02  0.26471431217E+02  0.38466914218E+02  0.00000000000E+00 0. -1.
<scales pt_clust_5="13000.00000" pt_clust_6="13000.00000" pt_clust_7="13000.00000" pt_clust_8="13000.00000" pt_clust_9="27.10437" pt_clust_10="20.40468"></scales>
<clustering>
<clus scale="   27.104">  1  9  2 -1</clus>
<clus scale="   20.405">  1 10  2 -1</clus>
<clus scale="   86.160">  5  6 -1 -1</clus>
<clus scale="   91.049">  7  8 -1 -1</clus>
<clus scale="  101.846">  1  5  2 -1</clus>
<clus scale="   27.104">  1  5  2 -1</clus>
</clustering>
</event>
<event>
10    4  0.3403565E-005  0.9920015E+02  0.7546771E-02  0.1290480E+00
         21   -1    0    0  501  502  0.00000000000E+00  0.00000000000E+00  0.11966211828E+03  0.11966211828E+03  0.00000000000E+00 0. -1.
         -1   -1    0    0    0  501 -0.00000000000E+00 -0.00000000000E+00 -0.15507321095E+03  0.15507321095E+03  0.00000000000E+00 0.  1.
         23    2    1    2    0    0 -0.32584795400E+02  0.20344381073E+01 -0.65866918107E+02  0.11844853227E+03  0.92874625521E+02 0.  0.
         24    2    1    2    0    0  0.32646191850E+02  0.46277074581E+02  0.25370949609E+02  0.98901007379E+02  0.77008978063E+02 0.  0.
        -13    1    4    4    0    0  0.21958131919E+02  0.13456731441E+02 -0.26269114127E+02  0.36787355647E+02  0.00000000000E+00 0.  1.
         14    1    4    4    0    0  0.10688059931E+02  0.32820343140E+02  0.51640063736E+02  0.62113651732E+02  0.00000000000E+00 0. -1.
        -13    1    3    3    0    0  0.25659669390E+02 -0.23459137717E+02 -0.20759462466E+02  0.40493271756E+02  0.00000000000E+00 0. -1.
         13    1    3    3    0    0 -0.58244464790E+02  0.25493575824E+02 -0.45107455641E+02  0.77955260512E+02  0.00000000000E+00 0.  1.
         21    1    1    2  503  502 -0.10525679557E+02 -0.18047421554E+02  0.12727829464E+02  0.24464198285E+02  0.00000000000E+00 0. -1.
         -2    1    1    2    0  503  0.10464283107E+02 -0.30264091135E+02 -0.76429536322E+01  0.32921591295E+02  0.00000000000E+00 0.  1.
<scales pt_clust_5="13000.00000" pt_clust_6="13000.00000" pt_clust_7="13000.00000" pt_clust_8="13000.00000" pt_clust_9="20.89257" pt_clust_10="33.78325"></scales>
<clustering>
<clus scale="   20.893">  1  9  2 -1</clus>
<clus scale="   33.783">  1 10  2 -1</clus>
<clus scale="   77.009">  5  6 -1 -1</clus>
<clus scale="   84.530">  1  5  2 -1</clus>
<clus scale="   92.875">  7  8 -1 -1</clus>
<clus scale="   20.893">  1  5  2 -1</clus>
</clustering>
</event>
<event>
10    4  0.3403565E-005  0.1405553E+03  0.7546771E-02  0.1228308E+00
          2   -1    0    0  502    0 -0.00000000000E+00  0.00000000000E+00  0.12953703954E+04  0.12953703954E+04  0.00000000000E+00 0. -1.
         21   -1    0    0  503  502  0.00000000000E+00 -0.00000000000E+00 -0.87263156344E+02  0.87263156344E+02  0.00000000000E+00 0.  1.
         24    2    1    2    0    0  0.47122297836E+02  0.42674893659E+02  0.11670203857E+04  0.11715010102E+04  0.80227044997E+02 0.  0.
         23    2    1    2    0    0  0.13335476965E+02 -0.34184617623E+02  0.35053062243E+02  0.13621663480E+03  0.12641135786E+03 0.  0.
        -13    1    3    3    0    0 -0.19531419343E+02  0.48596652475E+01  0.11966768107E+03  0.12134845109E+03  0.00000000000E+00 0.  1.
         14    1    3    3    0    0  0.66653717179E+02  0.37815228411E+02  0.10473527046E+04  0.10501525591E+04  0.00000000000E+00 0. -1.
        -13    1    4    4    0    0  0.61443998432E+02 -0.18491849723E+02  0.52273289431E+02  0.82763580381E+02  0.00000000000E+00 0.  1.
         13    1    4    4    0    0 -0.48108521467E+02 -0.15692767900E+02 -0.17220227188E+02  0.53453054417E+02  0.00000000000E+00 0. -1.
         21    1    1    2  503  501 -0.15926844090E+02 -0.13926324500E+02 -0.14428226919E+02  0.25608213698E+02  0.00000000000E+00 0.  1.
          1    1    1    2  501    0 -0.44530930711E+02  0.54360484645E+01  0.20462018044E+02  0.49307693065E+02  0.00000000000E+00 0. -1.
<scales pt_clust_5="13000.00000" pt_clust_6="13000.00000" pt_clust_7="13000.00000" pt_clust_8="13000.00000" pt_clust_9="21.15672" pt_clust_10="48.00946"></scales>
<clustering>
<clus scale="   21.157">  2  9  1 -1</clus>
<clus scale="   48.009">  2 10  1 -1</clus>
<clus scale="   80.227">  5  6 -1 -1</clus>
<clus scale="  101.056">  1  5  2 -1</clus>
<clus scale="  126.411">  7  8 -1 -1</clus>
<clus scale="   21.157">  2  5  1 -1</clus>
</clustering>
</event>
<event>
10    4  0.3403565E-005  0.1769559E+03  0.7546771E-02  0.1188741E+00
          2   -1    0    0  503    0 -0.00000000000E+00  0.00000000000E+00  0.48393976679E+03  0.48393976679E+03  0.00000000000E+00 0. -1.
         21   -1    0    0  501  502  0.00000000000E+00 -0.00000000000E+00 -0.19087885286E+03  0.19087885286E+03  0.00000000000E+00 0. -1.
         24    2    1    2    0    0 -0.40343530267E+02  0.80359878919E+02  0.76686865498E+02  0.14273638439E+03  0.80046795774E+02 0.  0.
         23    2    1    2    0    0  0.76897037382E+02  0.32279874443E+02  0.14290528201E+03  0.19003704434E+03  0.93471995492E+02 0.  0.
        -11    1    3    3    0    0 -0.34288435146E+02  0.57190147789E+02  0.46729019719E+01  0.66844938490E+02  0.00000000000E+00 0.  1.
         12    1    3    3    0    0 -0.60550951206E+01  0.23169731129E+02  0.72013963526E+02  0.75891445896E+02  0.00000000000E+00 0. -1.
        -11    1    4    4    0    0  0.43831133419E+02 -0.28664657183E+02  0.39768090552E+02  0.65759652176E+02  0.00000000000E+00 0.  1.
         11    1    4    4    0    0  0.33065903963E+02  0.60944531627E+02  0.10313719146E+03  0.12427739216E+03  0.00000000000E+00 0. -1.
         21    1    1    2  503  502  0.87028316525E+02  0.17659144699E+02  0.12671555155E+03  0.15473397905E+03  0.00000000000E+00 0.  1.
          1    1    1    2  501    0 -0.12358182364E+03 -0.13029889806E+03 -0.53246785126E+02  0.18731121188E+03  0.00000000000E+00 0. -1.
<scales pt_clust_5="13000.00000" pt_clust_6="13000.00000" pt_clust_7="13000.00000" pt_clust_8="13000.00000" pt_clust_9="88.80188" pt_clust_10="150.25435"></scales>
<clustering>
<clus scale="   80.047">  5  6 -1 -1</clus>
<clus scale="   88.802">  1  9  2 -1</clus>
<clus scale="   93.472">  7  8 -1 -1</clus>
<clus scale="  118.157">  1  5  2 -1</clus>
<clus scale="  150.254">  2 10  1 -1</clus>
<clus scale="  150.254">  2  5  1 -1</clus>
</clustering>
</event>
<event>
10    4  0.3403565E-005  0.2647315E+03  0.7546771E-02  0.1127185E+00
         21   -1    0    0  501  502  0.00000000000E+00  0.00000000000E+00  0.12061124054E+03  0.12061124054E+03  0.00000000000E+00 0.  1.
         -1   -1    0    0    0  501 -0.00000000000E+00 -0.00000000000E+00 -0.13716430254E+04  0.13716430254E+04  0.00000000000E+00 0.  1.
         24    2    1    2    0    0 -0.13889765680E+03 -0.48510726383E+01 -0.48631515130E+03  0.50835778077E+03  0.51079496038E+02 0.  0.
         23    2    1    2    0    0  0.30341368300E+03  0.41576889708E+02 -0.23229070860E+03  0.39697536300E+03  0.99206676894E+02 0.  0.
        -13    1    3    3    0    0 -0.12957741969E+03  0.70174019223E+01 -0.39406921112E+03  0.41488564060E+03  0.00000000000E+00 0.  1.
         14    1    3    3    0    0 -0.93202371056E+01 -0.11868474561E+02 -0.92245940180E+02  0.93472140169E+02  0.00000000000E+00 0. -1.
        -11    1    4    4    0    0  0.12074592039E+03  0.39473111944E+02 -0.15014647119E+03  0.19667655342E+03  0.00000000000E+00 0.  1.
         11    1    4    4    0    0  0.18266776261E+03  0.21037777639E+01 -0.82144237412E+02  0.20029880958E+03  0.00000000000E+00 0. -1.
         21    1    1    2  503  502 -0.46325532918E+01 -0.54335586401E+02 -0.36648765420E+02  0.65703489302E+02  0.00000000000E+00 0.  1.
         -2    1    1    2    0  503 -0.15988347291E+03  0.17609769332E+02 -0.49577715958E+03  0.52121763290E+03  0.00000000000E+00 0.  1.
<scales pt_clust_5="13000.00000" pt_clust_6="13000.00000" pt_clust_7="13000.00000" pt_clust_8="13000.00000" pt_clust_9="54.53271" pt_clust_10="245.44011"></scales>
<clustering>
<clus scale="   51.079">  5  6 -1 -1</clus>
<clus scale="   54.533">  1  9  2 -1</clus>
<clus scale="   99.207">  7  8 -1 -1</clus>
<clus scale="  148.815">  2  5  1 -1</clus>
<clus scale="  245.440">  1 10  2 -1</clus>
<clus scale="   54.533">  1  5  2 -1</clus>
</clustering>
</event>
<event>
10    4  0.3403565E-005  0.9340989E+02  0.7546771E-02  0.1311788E+00
          2   -1    0    0  503    0 -0.00000000000E+00  0.00000000000E+00  0.31331774710E+03  0.31331774710E+03  0.00000000000E+00 0. -1.
         21   -1    0    0  501  502  0.00000000000E+00 -0.00000000000E+00 -0.52377052603E+02  0.52377052603E+02  0.00000000000E+00 0.  1.
         23    2    1    2    0    0  0.21668590297E+02 -0.25953559464E+02  0.10661088927E+03  0.14390613786E+03  0.90553739567E+02 0.  0.
         24    2    1    2    0    0 -0.16957145749E+02 -0.32800712226E+01  0.32631639931E+02  0.74272422578E+02  0.64445831299E+02 0.  0.
        -13    1    4    4    0    0 -0.34110401725E+02 -0.36330585606E+01 -0.32931078810E+01  0.34461038578E+02  0.00000000000E+00 0.  1.
         14    1    4    4    0    0  0.17153255976E+02  0.35298733803E+00  0.35924747812E+02  0.39811384000E+02  0.00000000000E+00 0. -1.
        -13    1    3    3    0    0  0.54229520530E+02 -0.64295875301E+01  0.41709628585E+02  0.68715890517E+02  0.00000000000E+00 0.  1.
         13    1    3    3    0    0 -0.32560930233E+02 -0.19523971934E+02  0.64901260684E+02  0.75190247347E+02  0.00000000000E+00 0. -1.
         21    1    1    2  503  502 -0.37070348105E+02  0.17309698169E+02  0.33710304866E+02  0.53011517744E+02  0.00000000000E+00 0.  1.
          1    1    1    2  501    0  0.32358903557E+02  0.11923932518E+02  0.87987860428E+02  0.94504721516E+02  0.00000000000E+00 0. -1.
<scales pt_clust_5="13000.00000" pt_clust_6="13000.00000" pt_clust_7="13000.00000" pt_clust_8="13000.00000" pt_clust_9="36.46209" pt_clust_10="34.48594"></scales>
<clustering>
<clus scale="   34.486">  2 10  1 -1</clus>
<clus scale="   36.462">  2  9  1 -1</clus>
<clus scale="   64.446">  5  6 -1 -1</clus>
<clus scale="   68.401">  2  5  1 -1</clus>
<clus scale="   90.554">  7  8 -1 -1</clus>
<clus scale="   34.486">  2  5  1 -1</clus>
</clustering>
</event>
<event>
10    4  0.3403565E-005  0.1261637E+03  0.7546771E-02  0.1238817E+00
         21   -1    0    0  503  502  0.00000000000E+00  0.00000000000E+00  0.10819376210E+03  0.10819376210E+03  0.00000000000E+00 0. -1.
          2   -1    0    0  502    0 -0.00000000000E+00 -0.00000000000E+00 -0.69861755101E+03  0.69861755101E+03  0.00000000000E+00 0. -1.
         23    2    1    2    0    0 -0.13580230899E+02  0.92338933886E+02 -0.57742373129E+03  0.59344516349E+03  0.10024018770E+03 0.  0.
         24    2    1    2    0    0  0.16424867613E+02 -0.21794461879E+02 -0.50197339842E+02  0.10039178220E+03  0.82546727137E+02 0.  0.
        -13    1    4    4    0    0 -0.93507670304E+00 -0.37080922263E+02 -0.63623506354E+02  0.73646586650E+02  0.00000000000E+00 0.  1.
         14    1    4    4    0    0  0.17359944316E+02  0.15286460384E+02  0.13426166512E+02  0.26745195549E+02  0.00000000000E+00 0. -1.
        -13    1    3    3    0    0 -0.43857018057E+02  0.21522823052E+02 -0.11967313292E+03  0.12926070048E+03  0.00000000000E+00 0.  1.
         13    1    3    3    0    0  0.30276787158E+02  0.70816110834E+02 -0.45775059836E+03  0.46418446301E+03  0.00000000000E+00 0. -1.
         21    1    1    2  503  501  0.36804682076E+02 -0.21207588278E+02  0.22193002180E+02  0.47925731805E+02  0.00000000000E+00 0. -1.
          1    1    1    2  501    0 -0.39649318789E+02 -0.49336883730E+02  0.15004280044E+02  0.65048635622E+02  0.00000000000E+00 0. -1.
<scales pt_clust_5="13000.00000" pt_clust_6="13000.00000" pt_clust_7="13000.00000" pt_clust_8="13000.00000" pt_clust_9="42.47760" pt_clust_10="63.98933"></scales>
<clustering>
<clus scale="   42.478">  1  9  2 -1</clus>
<clus scale="   63.989">  1 10  2 -1</clus>
<clus scale="   82.547">  5  6 -1 -1</clus>
<clus scale="  100.240">  7  8 -1 -1</clus>
<clus scale="  112.619">  1  5  2 -1</clus>
<clus scale="   42.478">  1  5  2 -1</clus>
</clustering>
</event>
<event>
10    4  0.3403565E-005  0.1981566E+03  0.7546771E-02  0.1154514E+00
          2   -1    0    0  503    0 -0.00000000000E+00  0.00000000000E+00  0.16384348317E+04  0.16384348317E+04  0.00000000000E+00 0. -1.
         21   -1    0    0  501  502  0.00000000000E+00 -0.00000000000E+00 -0.98389219714E+02  0.98389219714E+02  0.00000000000E+00 0. -1.
         24    2    1    2    0    0  0.37466193994E+02 -0.15804399928E+03  0.89649616156E+03  0.91476424153E+03  0.81894007704E+02 0.  0.
         23    2    1    2    0    0 -0.15984773482E+03  0.81013746227E+01  0.47293825724E+03  0.50753844756E+03  0.91146859488E+02 0.  0.
        -11    1    3    3    0    0  0.62624931971E+02 -0.12645594710E+03  0.72133749520E+03  0.73501072825E+03  0.00000000000E+00 0.  1.
         12    1    3    3    0    0 -0.25158737977E+02 -0.31588052184E+02  0.17515866636E+03  0.17975351329E+03  0.00000000000E+00 0. -1.
        -13    1    4    4    0    0 -0.15273800311E+03 -0.16961062088E+02  0.35634170385E+03  0.38806698536E+03  0.00000000000E+00 0.  1.
         13    1    4    4    0    0 -0.71097317085E+01  0.25062436711E+02  0.11659655339E+03  0.11947146220E+03  0.00000000000E+00 0. -1.
         21    1    1    2  503  502 -0.12506729891E+02 -0.20269146818E+02 -0.15575382797E+02  0.28457848734E+02  0.00000000000E+00 0.  1.
          1    1    1    2  501    0  0.13488827072E+03  0.17021177148E+03  0.18618657598E+03  0.28606351358E+03  0.00000000000E+00 0. -1.
<scales pt_clust_5="13000.00000" pt_clust_6="13000.00000" pt_clust_7="13000.00000" pt_clust_8="13000.00000" pt_clust_9="23.81715" pt_clust_10="175.94969"></scales>
<clustering>
<clus scale="   23.817">  2  9  1 -1</clus>
<clus scale="   81.894">  5  6 -1 -1</clus>
<clus scale="   91.147">  7  8 -1 -1</clus>
<clus scale="  183.713">  1  5  2 -1</clus>
<clus scale="  175.950">  2 10  1 -1</clus>
<clus scale="   23.817">  2  5  1 -1</clus>
</clustering>
</event>
<event>
10    4  0.3403565E-005  0.3142248E+03  0.7546771E-02  0.1129251E+00
          2   -1    0    0  503    0 -0.00000000000E+00  0.00000000000E+00  0.13338958382E+04  0.13338958382E+04  0.00000000000E+00 0. -1.
         21   -1    0    0  501  502  0.00000000000E+00 -0.00000000000E+00 -0.12717723597E+03  0.12717723597E+03  0.00000000000E+00 0. -1.
         24    2    1    2    0    0  0.25144960724E+02  0.75237906344E+01  0.44685242606E+03  0.45478359088E+03  0.80387482764E+02 0.  0.
         23    2    1    2    0    0 -0.93039443044E+02 -0.27616334747E+03  0.34234689365E+03  0.45851112788E+03  0.90047356150E+02 0.  0.
        -11    1    3    3    0    0 -0.18146358595E+02  0.30217335409E+02  0.16479670019E+03  0.16852397480E+03  0.00000000000E+00 0.  1.
         12    1    3    3    0    0  0.43291319318E+02 -0.22693544775E+02  0.28205572587E+03  0.28625961608E+03  0.00000000000E+00 0. -1.
        -13    1    4    4    0    0 -0.97946836428E+02 -0.16720225376E+03  0.24453729430E+03  0.31200747544E+03  0.00000000000E+00 0.  1.
         13    1    4    4    0    0  0.49073933841E+01 -0.10896109371E+03  0.97809599353E+02  0.14650365244E+03  0.00000000000E+00 0. -1.
         21    1    1    2  503  502  0.11254020246E+02 -0.37912183230E+02  0.26083429296E+02  0.47374380131E+02  0.00000000000E+00 0. -1.
          1    1    1    2  501    0  0.56640462074E+02  0.30655174007E+03  0.39143585320E+03  0.50040397526E+03  0.00000000000E+00 0. -1.
<scales pt_clust_5="13000.00000" pt_clust_6="13000.00000" pt_clust_7="13000.00000" pt_clust_8="13000.00000" pt_clust_9="39.54727" pt_clust_10="301.04601"></scales>
<clustering>
<clus scale="   39.547">  2  9  1 -1</clus>
<clus scale="   80.387">  5  6 -1 -1</clus>
<clus scale="   84.574">  1  5  2 -1</clus>
<clus scale="   90.047">  7  8 -1 -1</clus>
<clus scale="  301.046">  2 10  1 -1</clus>
<clus scale="   39.547">  2  5  1 -1</clus>
</clustering>
</event>
<event>
10    4  0.3403565E-005  0.1630427E+03  0.7546771E-02  0.1216173E+00
         -1   -1    0    0    0  501 -0.00000000000E+00  0.00000000000E+00  0.42152866217E+03  0.42152866217E+03  0.00000000000E+00 0.  1.
         21   -1    0    0  503  502  0.00000000000E+00 -0.00000000000E+00 -0.24014568842E+03  0.24014568842E+03  0.00000000000E+00 0.  1.
         24    2    1    2    0    0  0.23542229942E+02  0.22400600893E+01  0.23037314711E+03  0.24495095059E+03  0.79811821346E+02 0.  0.
         23    2    1    2    0    0  0.35113935748E+02  0.12444297155E+03  0.99295904726E+02  0.18773268331E+03  0.93085133259E+02 0.  0.
        -11    1    3    3    0    0 -0.90846875433E+01  0.27506694546E+02  0.16584496714E+03  0.16835588175E+03  0.00000000000E+00 0.  1.
         12    1    3    3    0    0  0.32626917485E+02 -0.25266634457E+02  0.64528179973E+02  0.76595068849E+02  0.00000000000E+00 0. -1.
        -11    1    4    4    0    0 -0.31700705425E+02  0.41773824247E+02  0.40517650027E+02  0.66269654295E+02  0.00000000000E+00 0. -1.
         11    1    4    4    0    0  0.66814641173E+02  0.82669147305E+02  0.58778254700E+02  0.12146302901E+03  0.00000000000E+00 0.  1.
         21    1    1    2  503  501  0.24128990741E+02 -0.26394746941E+02 -0.60538410167E+01  0.36270371535E+02  0.00000000000E+00 0. -1.
         -2    1    1    2    0  502 -0.82785156432E+02 -0.10028828470E+03 -0.14223223707E+03  0.19272034515E+03  0.00000000000E+00 0.  1.
<scales pt_clust_5="13000.00000" pt_clust_6="13000.00000" pt_clust_7="13000.00000" pt_clust_8="13000.00000" pt_clust_9="35.76158" pt_clust_10="133.85846"></scales>
<clustering>
<clus scale="   35.762">  2  9  1 -1</clus>
<clus scale="   79.812">  5  6 -1 -1</clus>
<clus scale="   83.453">  1  5  2 -1</clus>
<clus scale="   93.085">  7  8 -1 -1</clus>
<clus scale="  133.858">  2 10  1 -1</clus>
<clus scale="   35.762">  2  5  1 -1</clus>
</clustering>
</event>
<event>
10    4  0.3403565E-005  0.1568751E+03  0.7546771E-02  0.1218121E+00
         -1   -1    0    0    0  501 -0.00000000000E+00  0.00000000000E+00  0.17155485106E+03  0.17155485106E+03  0.00000000000E+00 0.  1.
         21   -1    0    0  503  502  0.00000000000E+00 -0.00000000000E+00 -0.44271617950E+03  0.44271617950E+03  0.00000000000E+00 0.  1.
         24    2    1    2    0    0 -0.25419278149E+02  0.30256663608E+02  0.54203997520E+02  0.10504705272E+03  0.80840611974E+02 0.  0.
         23    2    1    2    0    0 -0.76133071488E+02 -0.14123162982E+03 -0.11880059022E+03  0.21924301109E+03  0.90616222823E+02 0.  0.
        -11    1    3    3    0    0 -0.54868815353E+02  0.23919186052E+02  0.35667815872E+02  0.69677165906E+02  0.00000000000E+00 0.  1.
         12    1    3    3    0    0  0.29449537204E+02  0.63374775555E+01  0.18536181648E+02  0.35369886816E+02  0.00000000000E+00 0. -1.
        -13    1    4    4    0    0 -0.70852937275E+02 -0.46473730078E+02 -0.31831282458E+02  0.90516169002E+02  0.00000000000E+00 0. -1.
         13    1    4    4    0    0 -0.52801342128E+01 -0.94757899740E+02 -0.86969307767E+02  0.12872684209E+03  0.00000000000E+00 0.  1.
         21    1    1    2  503  501  0.35248687728E+02  0.24662106467E+02 -0.16969941193E+03  0.17506735816E+03  0.00000000000E+00 0.  1.
         -2    1    1    2    0  502  0.66303661908E+02  0.86312859743E+02 -0.36865323804E+02  0.11491360859E+03  0.00000000000E+00 0.  1.
<scales pt_clust_5="13000.00000" pt_clust_6="13000.00000" pt_clust_7="13000.00000" pt_clust_8="13000.00000" pt_clust_9="43.01964" pt_clust_10="128.05672"></scales>
<clustering>
<clus scale="   43.020">  2  9  1 -1</clus>
<clus scale="   80.841">  5  6 -1 -1</clus>
<clus scale="   89.917">  1  5  2 -1</clus>
<clus scale="   90.616">  7  8 -1 -1</clus>
<clus scale="  128.057">  2 10  1 -1</clus>
<clus scale="   43.020">  2  5  1 -1</clus>
</clustering>
</event>
<event>
10    4  0.3403565E-005  0.1119957E+03  0.7546771E-02  0.1259884E+00
         -1   -1    0    0    0  501 -0.00000000000E+00  0.00000000000E+00  0.18608461623E+03  0.18608461623E+03  0.00000000000E+00 0.  1.
         21   -1    0    0  503  502  0.00000000000E+00 -0.00000000000E+00 -0.43175867173E+03  0.43175867173E+03  0.00000000000E+00 0. -1.
         23    2    1    2    0    0  0.34651736364E+02 -0.48058734152E+02  0.76179027779E+02  0.13259431187E+03  0.90926467572E+02 0.  0.
         24    2    1    2    0    0 -0.55320553583E+02  0.60365676971E+02 -0.28265702336E+02  0.11994789359E+03  0.82970890340E+02 0.  0.
        -13    1    4    4    0    0 -0.58744184645E+02  0.52679131835E+02  0.11110005494E+02  0.79683137379E+02  0.00000000000E+00 0.  1.
         14    1    4    4    0    0  0.34236310625E+01  0.76865451367E+01 -0.39375707830E+02  0.40264756213E+02  0.00000000000E+00 0. -1.
        -13    1    3    3    0    0 -0.30926069665E+02 -0.13687092417E+02  0.17241567297E+02  0.37960899971E+02  0.00000000000E+00 0. -1.
         13    1    3    3    0    0  0.65577806029E+02 -0.34371641735E+02  0.58937460482E+02  0.94633411897E+02  0.00000000000E+00 0.  1.
         21    1    1    2  503  501  0.81092341115E+02  0.11704107522E+02 -0.28869675079E+03  0.30009793041E+03  0.00000000000E+00 0. -1.
         -2    1    1    2    0  502 -0.60423523896E+02 -0.24011050342E+02 -0.48906301584E+01  0.65203152085E+02  0.00000000000E+00 0.  1.
<scales pt_clust_5="13000.00000" pt_clust_6="13000.00000" pt_clust_7="13000.00000" pt_clust_8="13000.00000" pt_clust_9="36.76443" pt_clust_10="65.01951"></scales>
<clustering>
<clus scale="   65.020">  2 10  1 -1</clus>
<clus scale="   36.764">  2  9  1 -1</clus>
<clus scale="   82.971">  5  6 -1 -1</clus>
<clus scale="   90.926">  7  8 -1 -1</clus>
<clus scale="  105.639">  2  5  1 -1</clus>
<clus scale="   65.020">  2  5  1 -1</clus>
</clustering>
</event>
<event>
10    4  0.3403565E-005  0.1434164E+03  0.7546771E-02  0.1232440E+00
         21   -1    0    0  503  502  0.00000000000E+00  0.00000000000E+00  0.89836323366E+02  0.89836323366E+02  0.00000000000E+00 0. -1.
          2   -1    0    0  502    0 -0.00000000000E+00 -0.00000000000E+00 -0.79041235959E+03  0.79041235959E+03  0.00000000000E+00 0. -1.
         24    2    1    2    0    0  0.27917339278E+02  0.28068741629E+02  0.11605218154E+02  0.90376263678E+02  0.80411167502E+02 0.  0.
         23    2    1    2    0    0  0.51340231665E+02  0.97510439519E+02 -0.20053541836E+03  0.24687038399E+03  0.92662976811E+02 0.  0.
        -13    1    3    3    0    0  0.18963034719E+02 -0.21057285450E+02 -0.16784127882E+02  0.32934979961E+02  0.00000000000E+00 0.  1.
         14    1    3    3    0    0  0.89543045586E+01  0.49126027079E+02  0.28389346036E+02  0.57441283717E+02  0.00000000000E+00 0. -1.
        -11    1    4    4    0    0  0.18481620436E+01  0.78032381890E+02 -0.16605396786E+03  0.18348402810E+03  0.00000000000E+00 0. -1.
         11    1    4    4    0    0  0.49492069622E+02  0.19478057629E+02 -0.34481450508E+02  0.63386355894E+02  0.00000000000E+00 0.  1.
         21    1    1    2  503  501  0.94605518885E+01 -0.37438902791E+02 -0.42276036996E+02  0.57257635197E+02  0.00000000000E+00 0. -1.
          1    1    1    2  501    0 -0.88718122831E+02 -0.88140278357E+02 -0.46936979902E+03  0.48574440009E+03  0.00000000000E+00 0. -1.
<scales pt_clust_5="13000.00000" pt_clust_6="13000.00000" pt_clust_7="13000.00000" pt_clust_8="13000.00000" pt_clust_9="38.61572" pt_clust_10="109.46157"></scales>
<clustering>
<clus scale="   38.616">  1  9  2 -1</clus>
<clus scale="   80.411">  5  6 -1 -1</clus>
<clus scale="   87.353">  2  5  1 -1</clus>
<clus scale="   92.663">  7  8 -1 -1</clus>
<clus scale="  109.462">  1 10  2 -1</clus>
<clus scale="   38.616">  1  5  2 -1</clus>
</clustering>
</event>
<event>
10    4  0.3403565E-005  0.1472637E+03  0.7546771E-02  0.1223192E+00
         -3   -1    0    0    0  501 -0.00000000000E+00  0.00000000000E+00  0.52681701805E+03  0.52681701805E+03  0.00000000000E+00 0.  1.
         21   -1    0    0  503  502  0.00000000000E+00 -0.00000000000E+00 -0.22890942822E+03  0.22890942822E+03  0.00000000000E+00 0.  1.
         24    2    1    2    0    0  0.24019718007E+02 -0.20659045583E+02  0.90139877909E+01  0.87297212782E+02  0.80844346532E+02 0.  0.
         23    2    1    2    0    0 -0.24853936940E+02 -0.71109306770E+02  0.31783250298E+03  0.33958544100E+03  0.92879061701E+02 0.  0.
        -11    1    3    3    0    0 -0.18840599857E+02 -0.36185426428E+02 -0.16272399194E+00  0.40796810756E+02  0.00000000000E+00 0.  1.
         12    1    3    3    0    0  0.42860317863E+02  0.15526380845E+02  0.91767117828E+01  0.46500402026E+02  0.00000000000E+00 0. -1.
        -11    1    4    4    0    0 -0.59017750452E+02 -0.41520216202E+02  0.16228230260E+03  0.17760227746E+03  0.00000000000E+00 0. -1.
         11    1    4    4    0    0  0.34163813512E+02 -0.29589090568E+02  0.15555020038E+03  0.16198316355E+03  0.00000000000E+00 0.  1.
         21    1    1    2  503  501  0.11948392464E+02 -0.59514315945E+02 -0.13211306822E+03  0.14539112999E+03  0.00000000000E+00 0.  1.
         -4    1    1    2    0  502 -0.11114173531E+02  0.15128266830E+03  0.10317416729E+03  0.18345266250E+03  0.00000000000E+00 0.  1.
<scales pt_clust_5="13000.00000" pt_clust_6="13000.00000" pt_clust_7="13000.00000" pt_clust_8="13000.00000" pt_clust_9="60.70188" pt_clust_10="114.28072"></scales>
<clustering>
<clus scale="   60.702">  2  9  1 -1</clus>
<clus scale="   80.844">  5  6 -1 -1</clus>
<clus scale="   92.879">  7  8 -1 -1</clus>
<clus scale="   97.728">  1  5  2 -1</clus>
<clus scale="  114.281">  2 10  1 -1</clus>
<clus scale="   60.702">  2  5  1 -1</clus>
</clustering>
</event>
<event>
10    4  0.3403565E-005  0.1520213E+03  0.7546771E-02  0.1215518E+00
         21   -1    0    0  501  502  0.00000000000E+00  0.00000000000E+00  0.11393277483E+03  0.11393277483E+03  0.00000000000E+00 0. -1.
          2   -1    0    0  503    0 -0.00000000000E+00 -0.00000000000E+00 -0.51701721450E+03  0.51701721450E+03  0.00000000000E+00 0. -1.
         24    2    1    2    0    0  0.58913001151E+02  0.20133475845E+02 -0.22557386321E+03  0.24780557809E+03  0.81534889561E+02 0.  0.
         23    2    1    2    0    0  0.89812953008E+02  0.26820529842E+02 -0.60589914814E+02  0.14242993065E+03  0.88484122981E+02 0.  0.
        -13    1    3    3    0    0 -0.89344361835E+01  0.31931513154E+02 -0.85899577778E+02  0.92077050043E+02  0.00000000000E+00 0.  1.
         14    1    3    3    0    0  0.67847437335E+02 -0.11798037309E+02 -0.13967428543E+03  0.15572852805E+03  0.00000000000E+00 0. -1.
        -13    1    4    4    0    0  0.92150947826E+02  0.49326715547E+02 -0.40249656821E+02  0.11200427191E+03  0.00000000000E+00 0. -1.
         13    1    4    4    0    0 -0.23379948179E+01 -0.22506185705E+02 -0.20340257993E+02  0.30425658743E+02  0.00000000000E+00 0.  1.
         21    1    1    2  503  502  0.12110273678E+02 -0.41126610454E+02 -0.51435465157E+02  0.66960166457E+02  0.00000000000E+00 0. -1.
          1    1    1    2  501    0 -0.16083622784E+03 -0.58273952328E+01 -0.65485196490E+02  0.17375431413E+03  0.00000000000E+00 0. -1.
<scales pt_clust_5="13000.00000" pt_clust_6="13000.00000" pt_clust_7="13000.00000" pt_clust_8="13000.00000" pt_clust_9="42.87256" pt_clust_10="123.61651"></scales>
<clustering>
<clus scale="   42.873">  2  9  1 -1</clus>
<clus scale="   81.535">  5  6 -1 -1</clus>
<clus scale="   88.484">  7  8 -1 -1</clus>
<clus scale="  104.388">  2  5  1 -1</clus>
<clus scale="  123.617">  1 10  2 -1</clus>
<clus scale="  123.617">  1  5  2 -1</clus>
</clustering>
</event>
<event>
10    4  0.3403565E-005  0.2516462E+03  0.7546771E-02  0.1138303E+00
         21   -1    0    0  501  502  0.00000000000E+00  0.00000000000E+00  0.11973415283E+03  0.11973415283E+03  0.00000000000E+00 0. -1.
          2   -1    0    0  503    0 -0.00000000000E+00 -0.00000000000E+00 -0.20580062435E+04  0.20580062435E+04  0.00000000000E+00 0. -1.
         24    2    1    2    0    0 -0.37458727027E+02 -0.97674947599E+02 -0.81990571522E+03  0.83046926892E+03  0.80562231512E+02 0.  0.
         23    2    1    2    0    0  0.55798175412E+02  0.14973119802E+03 -0.46321365572E+03  0.49723177249E+03  0.84496607542E+02 0.  0.
        -13    1    3    3    0    0 -0.62855819535E+02 -0.73200258044E+02 -0.57554118945E+03  0.58357243987E+03  0.00000000000E+00 0.  1.
         14    1    3    3    0    0  0.25397092507E+02 -0.24474689555E+02 -0.24436452577E+03  0.24689682905E+03  0.00000000000E+00 0. -1.
        -11    1    4    4    0    0 -0.17305126947E+02  0.11205117909E+02 -0.28607836974E+02  0.35262308806E+02  0.00000000000E+00 0.  1.
         11    1    4    4    0    0  0.73103302358E+02  0.13852608011E+03 -0.43460581875E+03  0.46196946368E+03  0.00000000000E+00 0. -1.
         21    1    1    2  503  502  0.24504835333E+03  0.20398512061E+01 -0.17992383001E+03  0.30401552768E+03  0.00000000000E+00 0. -1.
          1    1    1    2  501    0 -0.26338780172E+03 -0.54096101631E+02 -0.47522888972E+03  0.54602382725E+03  0.00000000000E+00 0. -1.
<scales pt_clust_5="13000.00000" pt_clust_6="13000.00000" pt_clust_7="13000.00000" pt_clust_8="13000.00000" pt_clust_9="251.64622" pt_clust_10="13000.00000"></scales>
<clustering>
<clus scale="   80.562">  5  6 -1 -1</clus>
<clus scale="   84.497">  7  8 -1 -1</clus>
<clus scale="  132.037">  2  5  1 -1</clus>
<clus scale="  145.983">  2  7  1 -1</clus>
<clus scale="  251.646">  1  9  2 -1</clus>
<clus scale="  251.646">  1  5  2 -1</clus>
</clustering>
</event>
<event>
10    4  0.3403565E-005  0.2951050E+03  0.7546771E-02  0.1087990E+00
          2   -1    0    0  503    0 -0.00000000000E+00  0.00000000000E+00  0.26170000253E+03  0.26170000253E+03  0.00000000000E+00 0. -1.
         21   -1    0    0  501  502  0.00000000000E+00 -0.00000000000E+00 -0.82391102710E+03  0.82391102710E+03  0.00000000000E+00 0. -1.
         23    2    1    2    0    0  0.28767753431E+03 -0.16578256814E+03 -0.55089151001E+02  0.34835540989E+03  0.89857962329E+02 0.  0.
         24    2    1    2    0    0 -0.14721559523E+03  0.10375264608E+03 -0.37788836491E+03  0.42666196281E+03  0.82484975136E+02 0.  0.
        -13    1    4    4    0    0 -0.61571604768E+02  0.64849138272E+02 -0.10447165702E+03  0.13751654580E+03  0.00000000000E+00 0.  1.
         14    1    4    4    0    0 -0.85643990462E+02  0.38903507811E+02 -0.27341670789E+03  0.28914541701E+03  0.00000000000E+00 0. -1.
        -13    1    3    3    0    0  0.29397881933E+02 -0.54183954563E+02  0.47750452392E-01  0.61645264817E+02  0.00000000000E+00 0. -1.
         13    1    3    3    0    0  0.25827965238E+03 -0.11159861358E+03 -0.55136901453E+02  0.28671014507E+03  0.00000000000E+00 0.  1.
         21    1    1    2  503  502  0.47595422813E+01  0.85534041231E+02 -0.13886968639E+03  0.16316713900E+03  0.00000000000E+00 0. -1.
          1    1    1    2  501    0 -0.14522148137E+03 -0.23504119175E+02  0.96361777285E+01  0.14742651793E+03  0.00000000000E+00 0. -1.
<scales pt_clust_5="13000.00000" pt_clust_6="13000.00000" pt_clust_7="13000.00000" pt_clust_8="13000.00000" pt_clust_9="85.66636" pt_clust_10="145.48355"></scales>
<clustering>
<clus scale="   82.485">  5  6 -1 -1</clus>
<clus scale="   85.666">  2  9  1 -1</clus>
<clus scale="   89.858">  7  8 -1 -1</clus>
<clus scale="  145.484">  2 10  1 -1</clus>
<clus scale="  292.944">  2  5  1 -1</clus>
<clus scale="   85.666">  2  5  1 -1</clus>
</clustering>
</event>
<event>
10    4  0.3403565E-005  0.2991804E+03  0.7546771E-02  0.1086088E+00
         21   -1    0    0  501  502  0.00000000000E+00  0.00000000000E+00  0.57067819602E+02  0.57067819602E+02  0.00000000000E+00 0. -1.
          2   -1    0    0  503    0 -0.00000000000E+00 -0.00000000000E+00 -0.25359888410E+04  0.25359888410E+04  0.00000000000E+00 0. -1.
         23    2    1    2    0    0 -0.66400029966E+02 -0.33821412900E+03 -0.12789033163E+04  0.13277096758E+04  0.91768893064E+02 0.  0.
         24    2    1    2    0    0  0.63015163326E+02  0.23061347758E+03 -0.60392432615E+03  0.65440191799E+03  0.79773377195E+02 0.  0.
        -13    1    4    4    0    0 -0.14411144923E+02  0.74939829205E+02 -0.14946793337E+03  0.16782229353E+03  0.00000000000E+00 0.  1.
         14    1    4    4    0    0  0.77426308248E+02  0.15567364837E+03 -0.45445639277E+03  0.48657962446E+03  0.00000000000E+00 0. -1.
        -11    1    3    3    0    0 -0.36760476983E+02 -0.30141279444E+03 -0.10089269300E+04  0.10536292306E+04  0.00000000000E+00 0. -1.
         11    1    3    3    0    0 -0.29639552984E+02 -0.36801334553E+02 -0.26997638630E+03  0.27408044528E+03  0.00000000000E+00 0.  1.
         21    1    1    2  503  502  0.39684349199E+02  0.63941585459E+02 -0.28839961440E+03  0.29805655756E+03  0.00000000000E+00 0. -1.
          1    1    1    2  501    0 -0.36299482558E+02  0.43659065959E+02 -0.30769376448E+03  0.31288850918E+03  0.00000000000E+00 0. -1.
<scales pt_clust_5="13000.00000" pt_clust_6="13000.00000" pt_clust_7="13000.00000" pt_clust_8="13000.00000" pt_clust_9="76.99507" pt_clust_10="56.77825"></scales>
<clustering>
<clus scale="   56.778">  1 10  2 -1</clus>
<clus scale="   76.995">  2  9  1 -1</clus>
<clus scale="   79.773">  5  6 -1 -1</clus>
<clus scale="   91.769">  7  8 -1 -1</clus>
<clus scale="  295.721">  1  5  2 -1</clus>
<clus scale="   56.778">  1  5  2 -1</clus>
</clustering>
</event>
<event>
10    4  0.3403565E-005  0.2721269E+03  0.7546771E-02  0.1146775E+00
          2   -1    0    0  503    0 -0.00000000000E+00  0.00000000000E+00  0.19794561514E+04  0.19794561514E+04  0.00000000000E+00 0. -1.
         21   -1    0    0  501  502  0.00000000000E+00 -0.00000000000E+00 -0.16815763481E+03  0.16815763481E+03  0.00000000000E+00 0. -1.
         24    2    1    2    0    0  0.11446579551E+02  0.25995908908E+02  0.68287470815E+03  0.68816830819E+03  0.80317755895E+02 0.  0.
         23    2    1    2    0    0 -0.11725051674E+03 -0.23056504051E+03  0.67485444078E+03  0.72794517978E+03  0.86992798197E+02 0.  0.
        -11    1    3    3    0    0  0.27068949458E+02 -0.17767288156E+02  0.16066474480E+03  0.16389498094E+03  0.00000000000E+00 0.  1.
         12    1    3    3    0    0 -0.15622369908E+02  0.43763197064E+02  0.52220996334E+03  0.52427332726E+03  0.00000000000E+00 0. -1.
        -13    1    4    4    0    0 -0.80799692180E+01 -0.73099936715E+02  0.27324105923E+03  0.28296565710E+03  0.00000000000E+00 0.  1.
         13    1    4    4    0    0 -0.10917054752E+03 -0.15746510380E+03  0.40161338155E+03  0.44497952268E+03  0.00000000000E+00 0. -1.
         21    1    1    2  503  502  0.23009092166E+02  0.27892416927E+03  0.52802275301E+03  0.59760868319E+03  0.00000000000E+00 0. -1.
          1    1    1    2  501    0  0.82794845022E+02 -0.74355037659E+02 -0.74453385361E+02  0.13389161504E+03  0.00000000000E+00 0. -1.
<scales pt_clust_5="13000.00000" pt_clust_6="13000.00000" pt_clust_7="13000.00000" pt_clust_8="13000.00000" pt_clust_9="257.84746" pt_clust_10="111.08027"></scales>
<clustering>
<clus scale="   80.318">  5  6 -1 -1</clus>
<clus scale="   85.192">  1  5  2 -1</clus>
<clus scale="   86.993">  7  8 -1 -1</clus>
<clus scale="  111.080">  2 10  1 -1</clus>
<clus scale="  257.847">  2  9  1 -1</clus>
<clus scale="  111.080">  2  5  1 -1</clus>
</clustering>
</event>
<event>
10    4  0.3403565E-005  0.1407974E+03  0.7546771E-02  0.1230300E+00
          2   -1    0    0  503    0 -0.00000000000E+00  0.00000000000E+00  0.49155640967E+03  0.49155640967E+03  0.00000000000E+00 0. -1.
         21   -1    0    0  501  502  0.00000000000E+00 -0.00000000000E+00 -0.17769694199E+03  0.17769694199E+03  0.00000000000E+00 0. -1.
         24    2    1    2    0    0  0.19332118080E+02  0.52043142832E+02  0.15940729098E+03  0.18646769312E+03  0.79229392630E+02 0.  0.
         23    2    1    2    0    0  0.98612115743E+02 -0.52083388364E+02  0.24827424209E+03  0.28629076281E+03  0.88799058947E+02 0.  0.
        -13    1    3    3    0    0  0.24359998613E+02  0.61099122453E+02  0.68481520854E+02  0.94953836128E+02  0.00000000000E+00 0.  1.
         14    1    3    3    0    0 -0.50278805330E+01 -0.90559796212E+01  0.90925770122E+02  0.91513856994E+02  0.00000000000E+00 0. -1.
        -13    1    4    4    0    0  0.48552540879E+02 -0.82335142777E+01  0.29022079890E+02  0.57161360239E+02  0.00000000000E+00 0. -1.
         13    1    4    4    0    0  0.50059574863E+02 -0.43849874086E+02  0.21925216220E+03  0.22912940257E+03  0.00000000000E+00 0.  1.
         21    1    1    2  503  502 -0.85883443127E+02 -0.48538813959E+01 -0.12484737606E+03  0.15161264221E+03  0.00000000000E+00 0. -1.
          1    1    1    2  501    0 -0.32060790696E+02  0.48941269285E+01  0.31025310678E+02  0.44882253521E+02  0.00000000000E+00 0. -1.
<scales pt_clust_5="13000.00000" pt_clust_6="13000.00000" pt_clust_7="13000.00000" pt_clust_8="13000.00000" pt_clust_9="109.26404" pt_clust_10="32.43220"></scales>
<clustering>
<clus scale="   32.432">  2 10  1 -1</clus>
<clus scale="   79.229">  5  6 -1 -1</clus>
<clus scale="   88.799">  7  8 -1 -1</clus>
<clus scale="   96.479">  1  5  2 -1</clus>
<clus scale="  109.264">  2  9  1 -1</clus>
<clus scale="   32.432">  2  5  1 -1</clus>
</clustering>
</event>
<event>
10    4  0.3403565E-005  0.2733860E+03  0.7546771E-02  0.1126036E+00
          2   -1    0    0  503    0 -0.00000000000E+00  0.00000000000E+00  0.28052489003E+03  0.28052489003E+03  0.00000000000E+00 0. -1.
         21   -1    0    0  501  502  0.00000000000E+00 -0.00000000000E+00 -0.16219782096E+04  0.16219782096E+04  0.00000000000E+00 0.  1.
         24    2    1    2    0    0  0.10216499819E+03  0.47941817642E+02  0.65838045591E+01  0.13917256230E+03  0.81176048688E+02 0.  0.
         23    2    1    2    0    0 -0.27609746225E+03 -0.10529833863E+03 -0.13650085351E+03  0.33782976215E+03  0.90437361794E+02 0.  0.
        -11    1    3    3    0    0  0.10782519200E+03  0.40970726924E+02 -0.14501548652E+02  0.11625475220E+03  0.00000000000E+00 0.  1.
         12    1    3    3    0    0 -0.56601938143E+01  0.69710907177E+01  0.21085353211E+02  0.22917810102E+02  0.00000000000E+00 0. -1.
        -11    1    4    4    0    0 -0.16162587148E+03 -0.10583517416E+03 -0.10085634963E+03  0.21793579257E+03  0.00000000000E+00 0. -1.
         11    1    4    4    0    0 -0.11447159077E+03  0.53683553279E+00 -0.35644503873E+02  0.11989396958E+03  0.00000000000E+00 0.  1.
         21    1    1    2  503  502  0.29584327638E+03  0.20520193497E+03 -0.11769362250E+04  0.12307761600E+04  0.00000000000E+00 0.  1.
          1    1    1    2  501    0 -0.12191081232E+03 -0.14784541399E+03 -0.34600045613E+02  0.19472461517E+03  0.00000000000E+00 0. -1.
<scales pt_clust_5="13000.00000" pt_clust_6="13000.00000" pt_clust_7="13000.00000" pt_clust_8="13000.00000" pt_clust_9="257.99412" pt_clust_10="153.43911"></scales>
<clustering>
<clus scale="   81.176">  5  6 -1 -1</clus>
<clus scale="   90.437">  7  8 -1 -1</clus>
<clus scale="  139.017">  1  5  2 -1</clus>
<clus scale="  153.439">  2 10  1 -1</clus>
<clus scale="  257.994">  2  9  1 -1</clus>
<clus scale="  153.439">  2  5  1 -1</clus>
</clustering>
</event>
<event>
10    4  0.3403565E-005  0.2939341E+03  0.7546771E-02  0.1129759E+00
          2   -1    0    0  502    0 -0.00000000000E+00  0.00000000000E+00  0.69852011152E+03  0.69852011152E+03  0.00000000000E+00 0. -1.
         21   -1    0    0  503  502  0.00000000000E+00 -0.00000000000E+00 -0.21418145566E+03  0.21418145566E+03  0.00000000000E+00 0. -1.
         23    2    1    2    0    0  0.36467265026E+02 -0.21964222160E+02  0.23324636304E+03  0.25441464711E+03  0.92253229334E+02 0.  0.
         24    2    1    2    0    0  0.17912570303E+03  0.20466044945E+03  0.16789293259E+03  0.32976266590E+03  0.81138535547E+02 0.  0.
        -13    1    4    4    0    0  0.19636587109E+02  0.75531458398E+02  0.37066680142E+02  0.86397543587E+02  0.00000000000E+00 0.  1.
         14    1    4    4    0    0  0.15948911592E+03  0.12912899105E+03  0.13082625245E+03  0.24336512231E+03  0.00000000000E+00 0. -1.
        -13    1    3    3    0    0  0.47181941606E+02 -0.51429968761E+02  0.17167710526E+03  0.18532189771E+03  0.00000000000E+00 0.  1.
         13    1    3    3    0    0 -0.10714676580E+02  0.29465746601E+02  0.61569257779E+02  0.69092749405E+02  0.00000000000E+00 0. -1.
         21    1    1    2  503  501  0.20748133508E+02 -0.45073719612E+01  0.65285535271E+00  0.21242120096E+02  0.00000000000E+00 0. -1.
          1    1    1    2  501    0 -0.23634110156E+03 -0.17818885532E+03  0.82546504878E+02  0.30728213407E+03  0.00000000000E+00 0. -1.
<scales pt_clust_5="13000.00000" pt_clust_6="13000.00000" pt_clust_7="13000.00000" pt_clust_8="13000.00000" pt_clust_9="21.23209" pt_clust_10="282.51339"></scales>
<clustering>
<clus scale="   21.232">  2  9  1 -1</clus>
<clus scale="   81.139">  5  6 -1 -1</clus>
<clus scale="   92.253">  7  8 -1 -1</clus>
<clus scale="  102.044">  1  7  2 -1</clus>
<clus scale="  282.513">  2 10  1 -1</clus>
<clus scale="   21.232">  2  5  1 -1</clus>
</clustering>
</event>
<event>
10    4  0.3403565E-005  0.1186193E+03  0.7546771E-02  0.1248426E+00
         -3   -1    0    0    0  501 -0.00000000000E+00  0.00000000000E+00  0.16139020406E+03  0.16139020406E+03  0.00000000000E+00 0.  1.
         21   -1    0    0  501  502  0.00000000000E+00 -0.00000000000E+00 -0.30499917164E+03  0.30499917164E+03  0.00000000000E+00 0.  1.
         24    2    1    2    0    0 -0.87129621432E+01 -0.75494971261E+02 -0.26009051165E+02  0.11401414051E+03  0.80915678936E+02 0.  0.
         23    2    1    2    0    0 -0.21554937174E+01  0.78789261626E+02 -0.85228670887E+02  0.14709647503E+03  0.90338545064E+02 0.  0.
        -11    1    3    3    0    0 -0.31823458494E+02 -0.77379128672E+02 -0.32778058430E+02  0.89859129636E+02  0.00000000000E+00 0.  1.
         12    1    3    3    0    0  0.23110496351E+02  0.18841574108E+01  0.67690072648E+01  0.24155010869E+02  0.00000000000E+00 0. -1.
        -11    1    4    4    0    0 -0.30785312983E+02 -0.35811758783E+01 -0.12039659557E+02  0.33249266433E+02  0.00000000000E+00 0. -1.
         11    1    4    4    0    0  0.28629819265E+02  0.82370437504E+02 -0.73189011330E+02  0.11384720860E+03  0.00000000000E+00 0.  1.
         21    1    1    2  503  502 -0.32635103667E+02 -0.21753376520E+02 -0.10866953424E+03  0.11553063253E+03  0.00000000000E+00 0.  1.
         -4    1    1    2    0  503  0.43503559528E+02  0.18459086155E+02  0.76298288714E+02  0.89748127634E+02  0.00000000000E+00 0.  1.
<scales pt_clust_5="13000.00000" pt_clust_6="13000.00000" pt_clust_7="13000.00000" pt_clust_8="13000.00000" pt_clust_9="39.22065" pt_clust_10="45.91492"></scales>
<clustering>
<clus scale="   39.221">  2  9  1 -1</clus>
<clus scale="   45.915">  2 10  1 -1</clus>
<clus scale="   80.916">  5  6 -1 -1</clus>
<clus scale="   90.339">  7  8 -1 -1</clus>
<clus scale="  111.610">  1  5  2 -1</clus>
<clus scale="   39.221">  2  5  1 -1</clus>
</clustering>
</event>
<event>
10    4  0.3403565E-005  0.1177905E+03  0.7546771E-02  0.1249889E+00
          2   -1    0    0  502    0 -0.00000000000E+00  0.00000000000E+00  0.53724428265E+03  0.53724428265E+03  0.00000000000E+00 0. -1.
         21   -1    0    0  503  502  0.00000000000E+00 -0.00000000000E+00 -0.16411647246E+03  0.16411647246E+03  0.00000000000E+00 0.  1.
         23    2    1    2    0    0 -0.62791891792E+02 -0.23858635646E+02  0.24728461178E+03  0.27239573234E+03  0.92399673174E+02 0.  0.
         24    2    1    2    0    0  0.15335453110E+03 -0.10494202583E+03 -0.96458165440E+01  0.20381346015E+03  0.83165159587E+02 0.  0.
        -11    1    4    4    0    0  0.12791059181E+03 -0.98396166598E+02 -0.37338164118E+02  0.16564137043E+03  0.00000000000E+00 0.  1.
         12    1    4    4    0    0  0.25443939284E+02 -0.65458592303E+01  0.27692347574E+02  0.38172089719E+02  0.00000000000E+00 0. -1.
        -13    1    3    3    0    0 -0.69776697853E+02 -0.47472344309E+02  0.22005193364E+03  0.23568042883E+03  0.00000000000E+00 0. -1.
         13    1    3    3    0    0  0.69848060608E+01  0.23613708663E+02  0.27232678141E+02  0.36715303502E+02  0.00000000000E+00 0.  1.
         21    1    1    2  503  501 -0.33948082388E+02  0.37947426882E+02 -0.19357219510E+01  0.50953179726E+02  0.00000000000E+00 0.  1.
          1    1    1    2  501    0 -0.56614556917E+02  0.90853234592E+02  0.13742473690E+03  0.17419838289E+03  0.00000000000E+00 0. -1.
<scales pt_clust_5="13000.00000" pt_clust_6="13000.00000" pt_clust_7="13000.00000" pt_clust_8="13000.00000" pt_clust_9="50.91640" pt_clust_10="113.75434"></scales>
<clustering>
<clus scale="   50.916">  2  9  1 -1</clus>
<clus scale="   83.165">  5  6 -1 -1</clus>
<clus scale="   92.400">  7  8 -1 -1</clus>
<clus scale="  113.754">  2 10  1 -1</clus>
<clus scale="  110.695">  2  5  1 -1</clus>
<clus scale="   50.916">  2  5  1 -1</clus>
</clustering>
</event>
<event>
10    4  0.3403565E-005  0.1538515E+03  0.7546771E-02  0.1196906E+00
         21   -1    0    0  501  502  0.00000000000E+00  0.00000000000E+00  0.10693518779E+03  0.10693518779E+03  0.00000000000E+00 0.  1.
          2   -1    0    0  503    0 -0.00000000000E+00 -0.00000000000E+00 -0.10457066081E+04  0.10457066081E+04  0.00000000000E+00 0. -1.
         24    2    1    2    0    0  0.46572504208E+02  0.10115285023E+03 -0.55999027522E+03  0.57723255959E+03  0.84896538574E+02 0.  0.
         23    2    1    2    0    0 -0.14750043996E+02 -0.19593585086E+03 -0.22714410952E+03  0.31386074381E+03  0.91135605383E+02 0.  0.
        -11    1    3    3    0    0  0.18946490559E+02  0.76596377328E+02 -0.19475999623E+03  0.21013669517E+03  0.00000000000E+00 0.  1.
         12    1    3    3    0    0  0.27626013649E+02  0.24556472902E+02 -0.36523027899E+03  0.36709586443E+03  0.00000000000E+00 0. -1.
        -13    1    4    4    0    0  0.71301615629E+01 -0.14992836645E+03 -0.10991263088E+03  0.18603800875E+03  0.00000000000E+00 0.  1.
         13    1    4    4    0    0 -0.21880205559E+02 -0.46007484405E+02 -0.11723147863E+03  0.12782273506E+03  0.00000000000E+00 0. -1.
         21    1    1    2  503  502  0.85061687711E+01  0.33512890530E+02  0.42048581064E+02  0.54438514935E+02  0.00000000000E+00 0.  1.
          1    1    1    2  501    0 -0.40328628983E+02  0.61270110098E+02 -0.19368561661E+03  0.20710997752E+03  0.00000000000E+00 0. -1.
<scales pt_clust_5="13000.00000" pt_clust_6="13000.00000" pt_clust_7="13000.00000" pt_clust_8="13000.00000" pt_clust_9="34.57555" pt_clust_10="76.07402"></scales>
<clustering>
<clus scale="   34.576">  1  9  2 -1</clus>
<clus scale="   76.074">  1 10  2 -1</clus>
<clus scale="   84.897">  5  6 -1 -1</clus>
<clus scale="   91.136">  7  8 -1 -1</clus>
<clus scale="  150.240">  2  5  1 -1</clus>
<clus scale="   34.576">  1  5  2 -1</clus>
</clustering>
</event>
<event>
10    4  0.3403565E-005  0.9269506E+02  0.7546771E-02  0.1303335E+00
         21   -1    0    0  501  502  0.00000000000E+00  0.00000000000E+00  0.87406398675E+02  0.87406398675E+02  0.00000000000E+00 0. -1.
          2   -1    0    0  503    0 -0.00000000000E+00 -0.00000000000E+00 -0.72543928880E+03  0.72543928880E+03  0.00000000000E+00 0. -1.
         23    2    1    2    0    0  0.49937941966E+02 -0.81516813276E+01 -0.44243603555E+03  0.45466779252E+03  0.91721906046E+02 0.  0.
         24    2    1    2    0    0  0.43338802630E+02 -0.13337909960E+01 -0.21842185915E+03  0.23680181639E+03  0.80541671683E+02 0.  0.
        -11    1    4    4    0    0  0.42137002631E+01 -0.36553789878E+02 -0.66263054998E+02  0.75793979194E+02  0.00000000000E+00 0.  1.
         12    1    4    4    0    0  0.39125102367E+02  0.35219998882E+02 -0.15215880415E+03  0.16100783719E+03  0.00000000000E+00 0. -1.
        -11    1    3    3    0    0  0.72253889115E+02 -0.23775447928E+02 -0.35620622361E+03  0.36423724433E+03  0.00000000000E+00 0.  1.
         11    1    3    3    0    0 -0.22315947148E+02  0.15623766600E+02 -0.86229811934E+02  0.90430548191E+02  0.00000000000E+00 0. -1.
         21    1    1    2  503  502 -0.33950918192E+02  0.27204270190E+02 -0.18139692388E+02  0.47135820801E+02  0.00000000000E+00 0.  1.
          1    1    1    2  501    0 -0.59325826404E+02 -0.17718797867E+02  0.40964696960E+02  0.74240257768E+02  0.00000000000E+00 0. -1.
<scales pt_clust_5="13000.00000" pt_clust_6="13000.00000" pt_clust_7="13000.00000" pt_clust_8="13000.00000" pt_clust_9="43.50560" pt_clust_10="86.23197"></scales>
<clustering>
<clus scale="   43.506">  1  9  2 -1</clus>
<clus scale="   80.542">  5  6 -1 -1</clus>
<clus scale="   86.232">  1 10  2 -1</clus>
<clus scale="   81.648">  1  5  2 -1</clus>
<clus scale="   91.722">  7  8 -1 -1</clus>
<clus scale="   43.506">  1  5  2 -1</clus>
</clustering>
</event>
<event>
10    4  0.3403565E-005  0.1996368E+03  0.7546771E-02  0.1188916E+00
          2   -1    0    0  502    0 -0.00000000000E+00  0.00000000000E+00  0.39590134000E+03  0.39590134000E+03  0.00000000000E+00 0. -1.
         21   -1    0    0  503  502  0.00000000000E+00 -0.00000000000E+00 -0.22187675710E+03  0.22187675710E+03  0.00000000000E+00 0. -1.
         24    2    1    2    0    0  0.13012265257E+02  0.14963808607E+02 -0.41829701867E+01  0.83302245418E+02  0.80799333147E+02 0.  0.
         23    2    1    2    0    0 -0.18642874092E+03  0.11397623804E+02  0.13610986114E+03  0.24817022366E+03  0.90426679385E+02 0.  0.
        -11    1    3    3    0    0  0.28007730463E+02 -0.17965732099E+02  0.20883090534E+02  0.39284907608E+02  0.00000000000E+00 0.  1.
         12    1    3    3    0    0 -0.14995465206E+02  0.32929540706E+02 -0.25066060720E+02  0.44017337810E+02  0.00000000000E+00 0. -1.
        -13    1    4    4    0    0 -0.29345028959E+02  0.29168920569E+02  0.29590945083E+01  0.41481476494E+02  0.00000000000E+00 0.  1.
         13    1    4    4    0    0 -0.15708371196E+03 -0.17771296765E+02  0.13315076663E+03  0.20668874717E+03  0.00000000000E+00 0. -1.
         21    1    1    2  503  501  0.26360952701E+01 -0.48926595054E+02 -0.66549117217E+02  0.82641065484E+02  0.00000000000E+00 0. -1.
          1    1    1    2  501    0  0.17078038039E+03  0.22565162643E+02  0.10864680916E+03  0.20366456253E+03  0.00000000000E+00 0. -1.
<scales pt_clust_5="13000.00000" pt_clust_6="13000.00000" pt_clust_7="13000.00000" pt_clust_8="13000.00000" pt_clust_9="48.99756" pt_clust_10="177.98281"></scales>
<clustering>
<clus scale="   48.998">  2  9  1 -1</clus>
<clus scale="   80.799">  5  6 -1 -1</clus>
<clus scale="   81.970">  1  5  2 -1</clus>
<clus scale="   90.427">  7  8 -1 -1</clus>
<clus scale="  177.983">  2 10  1 -1</clus>
<clus scale="   48.998">  2  5  1 -1</clus>
</clustering>
</event>
<event>
10    4  0.3403565E-005  0.1106596E+03  0.7546771E-02  0.1264303E+00
         21   -1    0    0  501  502  0.00000000000E+00  0.00000000000E+00  0.15973956935E+03  0.15973956935E+03  0.00000000000E+00 0. -1.
          2   -1    0    0  503    0 -0.00000000000E+00 -0.00000000000E+00 -0.16752033599E+03  0.16752033599E+03  0.00000000000E+00 0. -1.
         24    2    1    2    0    0 -0.68859559854E+02  0.58073962168E+01 -0.30690372126E+02  0.10933809847E+03  0.78978199534E+02 0.  0.
         23    2    1    2    0    0  0.44464511712E+02  0.35745759988E+02  0.64107168758E+02  0.12554505192E+03  0.91635030514E+02 0.  0.
        -11    1    3    3    0    0 -0.56618708631E+02 -0.95062614351E+01  0.15239272038E+02  0.59399348362E+02  0.00000000000E+00 0.  1.
         12    1    3    3    0    0 -0.12240851223E+02  0.15313657652E+02 -0.45929644164E+02  0.49938750108E+02  0.00000000000E+00 0. -1.
        -11    1    4    4    0    0 -0.94631411486E+01  0.42956610225E+02  0.54926006359E+02  0.70368228463E+02  0.00000000000E+00 0. -1.
         11    1    4    4    0    0  0.53927652860E+02 -0.72108502373E+01  0.91811623992E+01  0.55176823460E+02  0.00000000000E+00 0.  1.
         21    1    1    2  503  502  0.20997010885E+02  0.94008867703E+00  0.12003066489E+02  0.24203963270E+02  0.00000000000E+00 0.  1.
          1    1    1    2  501    0  0.33980372573E+01 -0.42493244882E+02 -0.53200629765E+02  0.68172791678E+02  0.00000000000E+00 0. -1.
<scales pt_clust_5="13000.00000" pt_clust_6="13000.00000" pt_clust_7="13000.00000" pt_clust_8="13000.00000" pt_clust_9="21.01805" pt_clust_10="42.68229"></scales>
<clustering>
<clus scale="   21.018">  1  9  2 -1</clus>
<clus scale="   42.682">  1 10  2 -1</clus>
<clus scale="   78.978">  5  6 -1 -1</clus>
<clus scale="   91.635">  7  8 -1 -1</clus>
<clus scale="  100.430">  2  5  1 -1</clus>
<clus scale="   21.018">  1  5  2 -1</clus>
</clustering>
</event>
<event>
10    4  0.3403565E-005  0.1346449E+03  0.7546771E-02  0.1222262E+00
          2   -1    0    0  503    0 -0.00000000000E+00  0.00000000000E+00  0.86279514883E+03  0.86279514883E+03  0.00000000000E+00 0. -1.
         21   -1    0    0  501  502  0.00000000000E+00 -0.00000000000E+00 -0.11718694694E+03  0.11718694694E+03  0.00000000000E+00 0. -1.
         24    2    1    2    0    0  0.74201173100E+02 -0.69742851567E+02  0.39274432495E+03  0.41340906653E+03  0.79303669999E+02 0.  0.
         23    2    1    2    0    0 -0.86251223510E+02 -0.93135231970E+02 -0.34504782203E+01  0.15611404105E+03  0.90808826793E+02 0.  0.
        -13    1    3    3    0    0  0.47594337910E+02 -0.29939864619E+02  0.84689064233E+02  0.10165556598E+03  0.00000000000E+00 0.  1.
         14    1    3    3    0    0  0.26606835190E+02 -0.39802986948E+02  0.30805526071E+03  0.31175350055E+03  0.00000000000E+00 0. -1.
        -13    1    4    4    0    0 -0.55091720131E+02 -0.48314020566E+02 -0.46334150476E+02  0.86695995932E+02  0.00000000000E+00 0. -1.
         13    1    4    4    0    0 -0.31159503378E+02 -0.44821211404E+02  0.42883672256E+02  0.69418045123E+02  0.00000000000E+00 0.  1.
         21    1    1    2  503  502  0.41539558360E+02  0.20957241280E+02  0.35848925063E+02  0.58735732727E+02  0.00000000000E+00 0. -1.
          1    1    1    2  501    0 -0.29489507951E+02  0.14192084226E+03  0.32046543009E+03  0.35172325546E+03  0.00000000000E+00 0. -1.
<scales pt_clust_5="13000.00000" pt_clust_6="13000.00000" pt_clust_7="13000.00000" pt_clust_8="13000.00000" pt_clust_9="46.52678" pt_clust_10="99.41334"></scales>
<clustering>
<clus scale="   46.527">  2  9  1 -1</clus>
<clus scale="   79.304">  5  6 -1 -1</clus>
<clus scale="   90.809">  7  8 -1 -1</clus>
<clus scale="  130.370">  1  5  2 -1</clus>
<clus scale="   99.413">  2 10  1 -1</clus>
<clus scale="   46.527">  2  5  1 -1</clus>
</clustering>
</event>
<event>
10    4  0.3403565E-005  0.1929473E+03  0.7546771E-02  0.1157529E+00
         21   -1    0    0  501  502  0.00000000000E+00  0.00000000000E+00  0.44955228052E+03  0.44955228052E+03  0.00000000000E+00 0. -1.
          2   -1    0    0  503    0 -0.00000000000E+00 -0.00000000000E+00 -0.87525796833E+03  0.87525796833E+03  0.00000000000E+00 0. -1.
         24    2    1    2    0    0  0.14566134004E+03 -0.32167682246E+02 -0.99255155942E+02  0.19265964792E+03  0.70810791510E+02 0.  0.
         23    2    1    2    0    0 -0.28738121787E+03  0.10388601414E+03  0.18747100201E+03  0.36930701705E+03  0.88668077295E+02 0.  0.
        -11    1    3    3    0    0  0.63028396673E+02  0.13734457569E+02 -0.66428484814E+02  0.92595667861E+02  0.00000000000E+00 0.  1.
         12    1    3    3    0    0  0.82632943363E+02 -0.45902139815E+02 -0.32826671128E+02  0.10006398006E+03  0.00000000000E+00 0. -1.
        -13    1    4    4    0    0 -0.11896467299E+03 -0.37689021776E+00  0.85657452732E+02  0.14659445649E+03  0.00000000000E+00 0.  1.
         13    1    4    4    0    0 -0.16841654488E+03  0.10426290436E+03  0.10181354927E+03  0.22271256056E+03  0.00000000000E+00 0. -1.
         21    1    1    2  503  502  0.38700029774E+02 -0.22677767118E+02  0.11511389444E+03  0.12354425166E+03  0.00000000000E+00 0. -1.
          1    1    1    2  501    0  0.10301984806E+03 -0.49040564775E+02 -0.62903542832E+03  0.63929933221E+03  0.00000000000E+00 0. -1.
<scales pt_clust_5="13000.00000" pt_clust_6="13000.00000" pt_clust_7="13000.00000" pt_clust_8="13000.00000" pt_clust_9="44.85503" pt_clust_10="114.79134"></scales>
<clustering>
<clus scale="   44.855">  1  9  2 -1</clus>
<clus scale="   70.811">  5  6 -1 -1</clus>
<clus scale="   88.668">  7  8 -1 -1</clus>
<clus scale="  114.791">  1 10  2 -1</clus>
<clus scale="  185.421">  2  5  1 -1</clus>
<clus scale="   44.855">  1  5  2 -1</clus>
</clustering>
</event>
<event>
10    4  0.3403565E-005  0.1160073E+03  0.7546771E-02  0.1253527E+00
          2   -1    0    0  503    0 -0.00000000000E+00  0.00000000000E+00  0.11665340956E+04  0.11665340956E+04  0.00000000000E+00 0. -1.
         21   -1    0    0  501  502  0.00000000000E+00 -0.00000000000E+00 -0.14377159800E+03  0.14377159800E+03  0.00000000000E+00 0.  1.
         24    2    1    2    0    0  0.56584421167E+02  0.41289143063E+02  0.10080576214E+04  0.10137143067E+04  0.80808028940E+02 0.  0.
         23    2    1    2    0    0 -0.24097438172E+02 -0.12343426194E+03  0.62501936485E+02  0.16761652713E+03  0.91499205228E+02 0.  0.
        -11    1    3    3    0    0  0.80641774257E+01  0.30965835427E+02  0.11758946119E+03  0.12186548036E+03  0.00000000000E+00 0.  1.
         12    1    3    3    0    0  0.48520243741E+02  0.10323307635E+02  0.89046816021E+03  0.89184882636E+03  0.00000000000E+00 0. -1.
        -13    1    4    4    0    0 -0.18747834416E+00 -0.10959950142E+03  0.12262660033E+02  0.11028353771E+03  0.00000000000E+00 0.  1.
         13    1    4    4    0    0 -0.23909959828E+02 -0.13834760520E+02  0.50239276451E+02  0.57332989421E+02  0.00000000000E+00 0. -1.
         21    1    1    2  503  502 -0.26333499178E+02  0.84989506222E+01 -0.47615355814E+02  0.55071838992E+02  0.00000000000E+00 0.  1.
          1    1    1    2  501    0 -0.61534838175E+01  0.73646168254E+02 -0.18170444932E+00  0.73903020765E+02  0.00000000000E+00 0. -1.
<scales pt_clust_5="13000.00000" pt_clust_6="13000.00000" pt_clust_7="13000.00000" pt_clust_8="13000.00000" pt_clust_9="27.67102" pt_clust_10="78.84279"></scales>
<clustering>
<clus scale="   27.671">  2  9  1 -1</clus>
<clus scale="   78.843">  2 10  1 -1</clus>
<clus scale="   80.808">  5  6 -1 -1</clus>
<clus scale="   91.499">  7  8 -1 -1</clus>
<clus scale="  107.775">  1  5  2 -1</clus>
<clus scale="   27.671">  2  5  1 -1</clus>
</clustering>
</event>
<event>
10    4  0.3403565E-005  0.1554752E+03  0.7546771E-02  0.1195998E+00
         21   -1    0    0  501  502  0.00000000000E+00  0.00000000000E+00  0.32657048417E+03  0.32657048417E+03  0.00000000000E+00 0.  1.
          2   -1    0    0  503    0 -0.00000000000E+00 -0.00000000000E+00 -0.61928305787E+03  0.61928305787E+03  0.00000000000E+00 0. -1.
         23    2    1    2    0    0 -0.77333627211E+02  0.86933952843E+02 -0.44529850651E+03  0.47017371552E+03  0.96096622280E+02 0.  0.
         24    2    1    2    0    0  0.82834907877E+02 -0.11922915436E+03 -0.10294305176E+03  0.19694691410E+03  0.84342171267E+02 0.  0.
        -11    1    4    4    0    0  0.36063800028E+02 -0.39442643690E+02  0.62975982466E+01  0.53814306252E+02  0.00000000000E+00 0.  1.
         12    1    4    4    0    0  0.46771107848E+02 -0.79786510668E+02 -0.10924065001E+03  0.14313260784E+03  0.00000000000E+00 0. -1.
        -11    1    3    3    0    0 -0.12374471330E+02  0.27500167551E+02 -0.20783435417E+02  0.36624280795E+02  0.00000000000E+00 0.  1.
         11    1    3    3    0    0 -0.64959155881E+02  0.59433785291E+02 -0.42451507109E+03  0.43354943473E+03  0.00000000000E+00 0. -1.
         21    1    1    2  503  502  0.76880867673E+01  0.65709000369E+02  0.21313170654E+03  0.22316340143E+03  0.00000000000E+00 0.  1.
          1    1    1    2  501    0 -0.13189367433E+02 -0.33413798853E+02  0.42397278038E+02  0.55569510994E+02  0.00000000000E+00 0. -1.
<scales pt_clust_5="13000.00000" pt_clust_6="13000.00000" pt_clust_7="13000.00000" pt_clust_8="13000.00000" pt_clust_9="39.54080" pt_clust_10="35.92271"></scales>
<clustering>
<clus scale="   35.923">  1 10  2 -1</clus>
<clus scale="   39.541">  1  9  2 -1</clus>
<clus scale="   84.342">  5  6 -1 -1</clus>
<clus scale="   96.097">  7  8 -1 -1</clus>
<clus scale="  148.498">  1  5  2 -1</clus>
<clus scale="   35.923">  1  5  2 -1</clus>
</clustering>
</event>
<event>
10    4  0.3403565E-005  0.1505456E+03  0.7546771E-02  0.1226530E+00
         -1   -1    0    0    0  501 -0.00000000000E+00  0.00000000000E+00  0.98765882546E+02  0.98765882546E+02  0.00000000000E+00 0.  1.
         21   -1    0    0  501  502  0.00000000000E+00 -0.00000000000E+00 -0.59808951641E+03  0.59808951641E+03  0.00000000000E+00 0.  1.
         24    2    1    2    0    0  0.91304746028E+00  0.30046693477E+02  0.55294126659E+01  0.84981296419E+02  0.79294444269E+02 0.  0.
         23    2    1    2    0    0  0.53437500759E+02 -0.12719350337E+03 -0.27383417480E+03  0.32344876562E+03  0.10295724795E+03 0.  0.
        -11    1    3    3    0    0  0.20675800870E+02  0.51337045452E+02 -0.33998323583E+00  0.55345248811E+02  0.00000000000E+00 0.  1.
         12    1    3    3    0    0 -0.19762753410E+02 -0.21290351975E+02  0.58693959018E+01  0.29636047608E+02  0.00000000000E+00 0. -1.
        -11    1    4    4    0    0 -0.20443140905E+02 -0.82694021225E+02 -0.15079516585E+03  0.17319181620E+03  0.00000000000E+00 0.  1.
         11    1    4    4    0    0  0.73880641663E+02 -0.44499482140E+02 -0.12303900896E+03  0.15025694942E+03  0.00000000000E+00 0. -1.
         21    1    1    2  503  502 -0.20146402664E+02  0.15062466271E+02 -0.18793769990E+03  0.18961364527E+03  0.00000000000E+00 0.  1.
         -2    1    1    2    0  503 -0.34204145555E+02  0.82084343617E+02 -0.43081171834E+02  0.98811691650E+02  0.00000000000E+00 0.  1.
<scales pt_clust_5="13000.00000" pt_clust_6="13000.00000" pt_clust_7="13000.00000" pt_clust_8="13000.00000" pt_clust_9="25.15463" pt_clust_10="109.83531"></scales>
<clustering>
<clus scale="   25.155">  2  9  1 -1</clus>
<clus scale="   79.294">  5  6 -1 -1</clus>
<clus scale="   85.332">  1  5  2 -1</clus>
<clus scale="  102.957">  7  8 -1 -1</clus>
<clus scale="  109.835">  2 10  1 -1</clus>
<clus scale="   25.155">  2  5  1 -1</clus>
</clustering>
</event>
<event>
10    4  0.3403565E-005  0.1793474E+03  0.7546771E-02  0.1197951E+00
         21   -1    0    0  503  502  0.00000000000E+00  0.00000000000E+00  0.10038700339E+03  0.10038700339E+03  0.00000000000E+00 0. -1.
         -1   -1    0    0    0  501 -0.00000000000E+00 -0.00000000000E+00 -0.10065745710E+04  0.10065745710E+04  0.00000000000E+00 0.  1.
         24    2    1    2    0    0  0.10413105441E+02 -0.71639067949E+02 -0.58304586184E+02  0.12251318387E+03  0.79808938280E+02 0.  0.
         23    2    1    2    0    0  0.88686824765E+02 -0.11246457096E+03 -0.48160120218E+03  0.51062604800E+03  0.91025328070E+02 0.  0.
        -11    1    3    3    0    0 -0.27513307890E+02 -0.20841928920E+01 -0.22371288881E+02  0.35521831840E+02  0.00000000000E+00 0.  1.
         12    1    3    3    0    0  0.37926413331E+02 -0.69554875057E+02 -0.35933297303E+02  0.86991352026E+02  0.00000000000E+00 0. -1.
        -11    1    4    4    0    0  0.77216685956E+02 -0.68015462850E+02 -0.42732739309E+03  0.43954205790E+03  0.00000000000E+00 0.  1.
         11    1    4    4    0    0  0.11470138809E+02 -0.44449108107E+02 -0.54273809084E+02  0.71083990098E+02  0.00000000000E+00 0. -1.
         21    1    1    2  503  501 -0.35168853166E+01  0.49939494521E+02  0.19978196107E+02  0.53902225511E+02  0.00000000000E+00 0. -1.
         -2    1    1    2    0  502 -0.95583044889E+02  0.13416414438E+03 -0.38625997534E+03  0.41992011699E+03  0.00000000000E+00 0.  1.
<scales pt_clust_5="13000.00000" pt_clust_6="13000.00000" pt_clust_7="13000.00000" pt_clust_8="13000.00000" pt_clust_9="50.06318" pt_clust_10="154.53123"></scales>
<clustering>
<clus scale="   50.063">  1  9  2 -1</clus>
<clus scale="   79.809">  5  6 -1 -1</clus>
<clus scale="   91.025">  7  8 -1 -1</clus>
<clus scale="   92.705">  2  5  1 -1</clus>
<clus scale="  154.531">  1 10  2 -1</clus>
<clus scale="   50.063">  1  5  2 -1</clus>
</clustering>
</event>
<event>
10    4  0.3403565E-005  0.2653166E+03  0.7546771E-02  0.1132741E+00
         21   -1    0    0  501  502  0.00000000000E+00  0.00000000000E+00  0.78539876407E+02  0.78539876407E+02  0.00000000000E+00 0. -1.
          2   -1    0    0  503    0 -0.00000000000E+00 -0.00000000000E+00 -0.18129088935E+04  0.18129088935E+04  0.00000000000E+00 0. -1.
         23    2    1    2    0    0  0.54225128007E+02 -0.71370899853E+02 -0.13043813960E+03  0.18260906681E+03  0.91092223405E+02 0.  0.
         24    2    1    2    0    0 -0.33817589068E+02 -0.20538012208E+03 -0.60786905001E+03  0.64750671500E+03  0.80221818303E+02 0.  0.
        -13    1    4    4    0    0 -0.33738239977E+02 -0.86446177564E+02 -0.16892572242E+03  0.19273585589E+03  0.00000000000E+00 0.  1.
         14    1    4    4    0    0 -0.79349090890E-01 -0.11893394451E+03 -0.43894332759E+03  0.45477085910E+03  0.00000000000E+00 0. -1.
        -13    1    3    3    0    0  0.59611710861E+02 -0.12661355640E+02 -0.97767891653E+02  0.11520601823E+03  0.00000000000E+00 0.  1.
         13    1    3    3    0    0 -0.53865828538E+01 -0.58709544212E+02 -0.32670247947E+02  0.67403048576E+02  0.00000000000E+00 0. -1.
         21    1    1    2  503  502 -0.26186804087E+02 -0.40984247336E+02 -0.13689454855E+03  0.14527757797E+03  0.00000000000E+00 0. -1.
          1    1    1    2  501    0  0.57792651483E+01  0.31773526927E+03 -0.85916727890E+03  0.91605541010E+03  0.00000000000E+00 0. -1.
<scales pt_clust_5="13000.00000" pt_clust_6="13000.00000" pt_clust_7="13000.00000" pt_clust_8="13000.00000" pt_clust_9="48.63597" pt_clust_10="252.89808"></scales>
<clustering>
<clus scale="   48.636">  2  9  1 -1</clus>
<clus scale="   80.222">  5  6 -1 -1</clus>
<clus scale="   91.092">  7  8 -1 -1</clus>
<clus scale="  128.975">  2  7  1 -1</clus>
<clus scale="  252.898">  1 10  2 -1</clus>
<clus scale="  252.898">  1  5  2 -1</clus>
</clustering>
</event>
<event>
10    4  0.3403565E-005  0.3064179E+03  0.7546771E-02  0.1131017E+00
         21   -1    0    0  501  502  0.00000000000E+00  0.00000000000E+00  0.19008809568E+03  0.19008809568E+03  0.00000000000E+00 0. -1.
          2   -1    0    0  503    0 -0.00000000000E+00 -0.00000000000E+00 -0.13239492165E+04  0.13239492165E+04  0.00000000000E+00 0. -1.
         24    2    1    2    0    0 -0.34343010100E+02 -0.26778173073E+00 -0.63760090939E+03  0.64356875504E+03  0.80413361827E+02 0.  0.
         23    2    1    2    0    0 -0.42600340534E+02  0.30478840271E+03 -0.29990745590E+03  0.43949626333E+03  0.92204793461E+02 0.  0.
        -11    1    3    3    0    0  0.15614342938E+02  0.23412903264E+02 -0.13277779798E+03  0.13572735679E+03  0.00000000000E+00 0.  1.
         12    1    3    3    0    0 -0.49957353038E+02 -0.23680684995E+02 -0.50482311141E+03  0.50784139825E+03  0.00000000000E+00 0. -1.
        -13    1    4    4    0    0 -0.56319729605E+02  0.19994345891E+03 -0.24205087017E+03  0.31896382625E+03  0.00000000000E+00 0.  1.
         13    1    4    4    0    0  0.13719389071E+02  0.10484494380E+03 -0.57856585724E+02  0.12053243708E+03  0.00000000000E+00 0. -1.
         21    1    1    2  503  502  0.13143582469E+02 -0.32848825363E+02  0.48285551314E+02  0.59860617718E+02  0.00000000000E+00 0. -1.
          1    1    1    2  501    0  0.63799768165E+02 -0.27167179562E+03 -0.24463830681E+03  0.37111167606E+03  0.00000000000E+00 0. -1.
<scales pt_clust_5="13000.00000" pt_clust_6="13000.00000" pt_clust_7="13000.00000" pt_clust_8="13000.00000" pt_clust_9="35.38077" pt_clust_10="292.21622"></scales>
<clustering>
<clus scale="   35.381">  1  9  2 -1</clus>
<clus scale="   80.413">  5  6 -1 -1</clus>
<clus scale="   87.333">  2  5  1 -1</clus>
<clus scale="   92.205">  7  8 -1 -1</clus>
<clus scale="  292.216">  1 10  2 -1</clus>
<clus scale="   35.381">  1  5  2 -1</clus>
</clustering>
</event>
<event>
10    4  0.3403565E-005  0.2512390E+03  0.7546771E-02  0.1135772E+00
         21   -1    0    0  503  502  0.00000000000E+00  0.00000000000E+00  0.53533123772E+03  0.53533123772E+03  0.00000000000E+00 0. -1.
          2   -1    0    0  502    0 -0.00000000000E+00 -0.00000000000E+00 -0.57300101212E+03  0.57300101212E+03  0.00000000000E+00 0. -1.
         24    2    1    2    0    0 -0.10052619534E+03  0.57224164056E+02 -0.83450126335E+02  0.16238699531E+03  0.77624041106E+02 0.  0.
         23    2    1    2    0    0  0.61977199150E+02 -0.29446844219E+03 -0.34200637241E+03  0.46488932939E+03  0.92741000410E+02 0.  0.
        -13    1    3    3    0    0 -0.75974392486E+02  0.48658298963E+02 -0.18051853439E+02  0.92008737543E+02  0.00000000000E+00 0.  1.
         14    1    3    3    0    0 -0.24551802856E+02  0.85658650937E+01 -0.65398272896E+02  0.70378257765E+02  0.00000000000E+00 0. -1.
        -13    1    4    4    0    0  0.27626271417E+02 -0.25193148543E+02 -0.76637251316E+02  0.85271178572E+02  0.00000000000E+00 0.  1.
         13    1    4    4    0    0  0.34350927734E+02 -0.26927529364E+03 -0.26536912110E+03  0.37961815082E+03  0.00000000000E+00 0. -1.
         21    1    1    2  503  501  0.54178514307E+01  0.42730537372E+02  0.21346270397E+03  0.21776496027E+03  0.00000000000E+00 0. -1.
          1    1    1    2  501    0  0.33131144761E+02  0.19451374076E+03  0.17432402038E+03  0.26329096486E+03  0.00000000000E+00 0. -1.
<scales pt_clust_5="13000.00000" pt_clust_6="13000.00000" pt_clust_7="13000.00000" pt_clust_8="13000.00000" pt_clust_9="43.07264" pt_clust_10="233.49549"></scales>
<clustering>
<clus scale="   43.073">  1  9  2 -1</clus>
<clus scale="   77.624">  5  6 -1 -1</clus>
<clus scale="   92.741">  7  8 -1 -1</clus>
<clus scale="  141.078">  2  5  1 -1</clus>
<clus scale="  233.495">  1 10  2 -1</clus>
<clus scale="   43.073">  1  5  2 -1</clus>
</clustering>
</event>
<event>
10    4  0.3403565E-005  0.5039499E+03  0.7546771E-02  0.1065731E+00
          2   -1    0    0  503    0 -0.00000000000E+00  0.00000000000E+00  0.16088284361E+04  0.16088284361E+04  0.00000000000E+00 0. -1.
         21   -1    0    0  501  502  0.00000000000E+00 -0.00000000000E+00 -0.31089337381E+03  0.31089337381E+03  0.00000000000E+00 0.  1.
         23    2    1    2    0    0 -0.53035841623E+01  0.61999936990E+02 -0.11013818227E+03  0.15676687388E+03  0.92592188450E+02 0.  0.
         24    2    1    2    0    0  0.27255270554E+03 -0.45111922714E+03  0.85969372612E+03  0.10116915119E+04  0.81565177686E+02 0.  0.
        -11    1    4    4    0    0  0.21323191780E+03 -0.39001831144E+03  0.76125945446E+03  0.88153167330E+03  0.00000000000E+00 0.  1.
         12    1    4    4    0    0  0.59320787740E+02 -0.61100915699E+02  0.98434271652E+02  0.13015983863E+03  0.00000000000E+00 0. -1.
        -13    1    3    3    0    0  0.19592841208E+02  0.75341162673E+02 -0.10006212655E+03  0.12677775590E+03  0.00000000000E+00 0.  1.
         13    1    3    3    0    0 -0.24896425370E+02 -0.13341225683E+02 -0.10076055717E+02  0.29989117989E+02  0.00000000000E+00 0. -1.
         21    1    1    2  503  502 -0.20617932775E+02 -0.20859064789E+02  0.99408029683E+01  0.30968036739E+02  0.00000000000E+00 0. -1.
          1    1    1    2  501    0 -0.24663118860E+03  0.40997835494E+03  0.53843871549E+03  0.72029538736E+03  0.00000000000E+00 0. -1.
<scales pt_clust_5="13000.00000" pt_clust_6="13000.00000" pt_clust_7="13000.00000" pt_clust_8="13000.00000" pt_clust_9="29.32916" pt_clust_10="497.30541"></scales>
<clustering>
<clus scale="   29.329">  2  9  1 -1</clus>
<clus scale="   81.565">  5  6 -1 -1</clus>
<clus scale="   92.592">  7  8 -1 -1</clus>
<clus scale="  107.533">  1  7  2 -1</clus>
<clus scale="  497.305">  2 10  1 -1</clus>
<clus scale="   29.329">  2  5  1 -1</clus>
</clustering>
</event>
<event>
10    4  0.3403565E-005  0.1108023E+03  0.7546771E-02  0.1263231E+00
         21   -1    0    0  501  502  0.00000000000E+00  0.00000000000E+00  0.26532541597E+03  0.26532541597E+03  0.00000000000E+00 0.  1.
          2   -1    0    0  503    0 -0.00000000000E+00 -0.00000000000E+00 -0.39096711521E+03  0.39096711521E+03  0.00000000000E+00 0. -1.
         23    2    1    2    0    0 -0.68844218943E+02  0.21035115222E+02 -0.31862177812E+03  0.33924669640E+03  0.91577731857E+02 0.  0.
         24    2    1    2    0    0  0.38009402723E+01 -0.21680692034E+02  0.24165673868E+02  0.87260225623E+02  0.80906536376E+02 0.  0.
        -13    1    4    4    0    0 -0.89391227282E+01 -0.23508136783E+02  0.51352613588E+02  0.57180690206E+02  0.00000000000E+00 0.  1.
         14    1    4    4    0    0  0.12740063000E+02  0.18274447499E+01 -0.27186939720E+02  0.30079535417E+02  0.00000000000E+00 0. -1.
        -13    1    3    3    0    0 -0.10465120582E+02 -0.33784954203E+02 -0.77897375714E+02  0.85550821284E+02  0.00000000000E+00 0.  1.
         13    1    3    3    0    0 -0.58379098361E+02  0.54820069425E+02 -0.24072440240E+03  0.25369587511E+03  0.00000000000E+00 0. -1.
         21    1    1    2  503  502  0.37502104995E+02 -0.28196213549E+02  0.18186908026E+03  0.18782384484E+03  0.00000000000E+00 0.  1.
          1    1    1    2  501    0  0.27541173676E+02  0.28841790361E+02 -0.13054675259E+02  0.41961764319E+02  0.00000000000E+00 0. -1.
<scales pt_clust_5="13000.00000" pt_clust_6="13000.00000" pt_clust_7="13000.00000" pt_clust_8="13000.00000" pt_clust_9="58.21068" pt_clust_10="39.87940"></scales>
<clustering>
<clus scale="   39.879">  1 10  2 -1</clus>
<clus scale="   58.211">  1  9  2 -1</clus>
<clus scale="   80.907">  5  6 -1 -1</clus>
<clus scale="   91.578">  7  8 -1 -1</clus>
<clus scale="  102.159">  1  5  2 -1</clus>
<clus scale="   39.879">  1  5  2 -1</clus>
</clustering>
</event>
<event>
10    4  0.3403565E-005  0.1047523E+04  0.7546771E-02  0.9257905E-01
         21   -1    0    0  501  502  0.00000000000E+00  0.00000000000E+00  0.44207899256E+03  0.44207899256E+03  0.00000000000E+00 0.  1.
          2   -1    0    0  503    0 -0.00000000000E+00 -0.00000000000E+00 -0.38800478431E+04  0.38800478431E+04  0.00000000000E+00 0. -1.
         24    2    1    2    0    0  0.34029685845E+03  0.45583923250E+03 -0.44209615579E+03  0.72507688319E+03  0.81829810054E+02 0.  0.
         23    2    1    2    0    0  0.36819110038E+02  0.41048670536E+03 -0.21385865957E+03  0.47365523333E+03  0.93588309328E+02 0.  0.
        -11    1    3    3    0    0  0.13870613143E+03  0.19423521085E+03 -0.13561262132E+03  0.27451318928E+03  0.00000000000E+00 0.  1.
         12    1    3    3    0    0  0.20159072703E+03  0.26160402166E+03 -0.30648353447E+03  0.45056369391E+03  0.00000000000E+00 0. -1.
        -11    1    4    4    0    0  0.11688895653E+02  0.31626642269E+03 -0.12047156919E+03  0.33863620507E+03  0.00000000000E+00 0.  1.
         11    1    4    4    0    0  0.25130214385E+02  0.94220282675E+02 -0.93387090379E+02  0.13501902826E+03  0.00000000000E+00 0. -1.
         21    1    1    2  503  502  0.88860322198E+02  0.26554769563E+02  0.58472492588E+02  0.10963733414E+03  0.00000000000E+00 0.  1.
          1    1    1    2  501    0 -0.46597629069E+03 -0.89288070743E+03 -0.28404865278E+04  0.30137573850E+04  0.00000000000E+00 0. -1.
<scales pt_clust_5="13000.00000" pt_clust_6="13000.00000" pt_clust_7="13000.00000" pt_clust_8="13000.00000" pt_clust_9="92.74326" pt_clust_10="991.64519"></scales>
<clustering>
<clus scale="   81.830">  5  6 -1 -1</clus>
<clus scale="   92.743">  1  9  2 -1</clus>
<clus scale="   93.588">  7  8 -1 -1</clus>
<clus scale="  259.340">  5  7 -1 -1</clus>
<clus scale="  991.645">  1 10  2 -1</clus>
<clus scale="   92.743">  1  5  2 -1</clus>
</clustering>
</event>
<event>
10    4  0.3403565E-005  0.1527485E+03  0.7546771E-02  0.1218704E+00
          2   -1    0    0  502    0 -0.00000000000E+00  0.00000000000E+00  0.97057282911E+03  0.97057282911E+03  0.00000000000E+00 0. -1.
         21   -1    0    0  503  502  0.00000000000E+00 -0.00000000000E+00 -0.23348493673E+03  0.23348493673E+03  0.00000000000E+00 0. -1.
         23    2    1    2    0    0 -0.93396725200E+01 -0.27487657731E+02  0.20658112864E+02  0.97739576026E+02  0.91013550004E+02 0.  0.
         24    2    1    2    0    0 -0.14964450807E+03 -0.24699983157E+02  0.78461352442E+03  0.80330478312E+03  0.81710610837E+02 0.  0.
        -11    1    4    4    0    0 -0.15826417343E+02 -0.18418846307E+02  0.40455573235E+02  0.47184560939E+02  0.00000000000E+00 0.  1.
         12    1    4    4    0    0 -0.13381809073E+03 -0.62811368502E+01  0.74415795118E+03  0.75612022219E+03  0.00000000000E+00 0. -1.
        -13    1    3    3    0    0  0.10733648537E+02  0.19521927537E+02 -0.21889817927E+02  0.31232691119E+02  0.00000000000E+00 0.  1.
         13    1    3    3    0    0 -0.20073321057E+02 -0.47009585268E+02  0.42547930791E+02  0.66506884906E+02  0.00000000000E+00 0. -1.
         21    1    1    2  503  501  0.61623859454E+02  0.12773013610E+02 -0.15465057024E+03  0.16696541200E+03  0.00000000000E+00 0. -1.
          1    1    1    2  501    0  0.97360321140E+02  0.39414627277E+02  0.86466825332E+02  0.13604799469E+03  0.00000000000E+00 0. -1.
<scales pt_clust_5="13000.00000" pt_clust_6="13000.00000" pt_clust_7="13000.00000" pt_clust_8="13000.00000" pt_clust_9="62.93369" pt_clust_10="129.05610"></scales>
<clustering>
<clus scale="   62.934">  2  9  1 -1</clus>
<clus scale="   81.711">  5  6 -1 -1</clus>
<clus scale="   91.014">  7  8 -1 -1</clus>
<clus scale="   96.215">  1  7  2 -1</clus>
<clus scale="  129.056">  2 10  1 -1</clus>
<clus scale="   62.934">  2  5  1 -1</clus>
</clustering>
</event>
<event>
10    4  0.3403565E-005  0.9289341E+02  0.7546771E-02  0.1303834E+00
          4   -1    0    0  503    0 -0.00000000000E+00  0.00000000000E+00  0.66422093888E+02  0.66422093888E+02  0.00000000000E+00 0. -1.
         21   -1    0    0  501  502  0.00000000000E+00 -0.00000000000E+00 -0.52780226922E+03  0.52780226922E+03  0.00000000000E+00 0.  1.
         23    2    1    2    0    0 -0.13566049660E+02  0.14765562755E+02 -0.28411329358E+02  0.98455391194E+02  0.92109721921E+02 0.  0.
         24    2    1    2    0    0 -0.22063468973E+02  0.14787443808E+02 -0.41540370722E+03  0.42377222161E+03  0.79480756621E+02 0.  0.
        -13    1    4    4    0    0 -0.45871963465E+02  0.30518536733E+02 -0.28614411299E+03  0.29140019134E+03  0.00000000000E+00 0.  1.
         14    1    4    4    0    0  0.23808494491E+02 -0.15731092925E+02 -0.12925959424E+03  0.13237203027E+03  0.00000000000E+00 0. -1.
        -13    1    3    3    0    0 -0.41980865402E+02 -0.21774280725E+02 -0.20289502990E+02  0.51460434244E+02  0.00000000000E+00 0. -1.
         13    1    3    3    0    0  0.28414815742E+02  0.36539843480E+02 -0.81218263674E+01  0.46994956950E+02  0.00000000000E+00 0.  1.
         21    1    1    2  503  502  0.21813141581E+02  0.40164872249E+01 -0.26554291262E+02  0.34598781766E+02  0.00000000000E+00 0. -1.
          3    1    1    2  501    0  0.13816377052E+02 -0.33569493787E+02  0.89891525132E+01  0.37397968540E+02  0.00000000000E+00 0. -1.
<scales pt_clust_5="13000.00000" pt_clust_6="13000.00000" pt_clust_7="13000.00000" pt_clust_8="13000.00000" pt_clust_9="22.17984" pt_clust_10="38.85329"></scales>
<clustering>
<clus scale="   22.180">  1  9  2 -1</clus>
<clus scale="   38.853">  2 10  1 -1</clus>
<clus scale="   79.481">  5  6 -1 -1</clus>
<clus scale="   80.388">  2  5  1 -1</clus>
<clus scale="   92.110">  7  8 -1 -1</clus>
<clus scale="   38.853">  2  5  1 -1</clus>
</clustering>
</event>
<event>
10    4  0.3403565E-005  0.1346336E+03  0.7546771E-02  0.1233665E+00
          2   -1    0    0  503    0 -0.00000000000E+00  0.00000000000E+00  0.56108858653E+03  0.56108858653E+03  0.00000000000E+00 0. -1.
         21   -1    0    0  501  502  0.00000000000E+00 -0.00000000000E+00 -0.88226720645E+03  0.88226720645E+03  0.00000000000E+00 0. -1.
         23    2    1    2    0    0 -0.89708056984E+02 -0.55917764314E+01  0.27371630577E+02  0.13025323225E+03  0.90210281564E+02 0.  0.
         24    2    1    2    0    0 -0.74248550236E+02  0.60475145392E+02  0.12489104318E+03  0.17710530429E+03  0.81230694434E+02 0.  0.
        -11    1    4    4    0    0 -0.67630791394E+02  0.21599975552E+02  0.11705067223E+03  0.13689902395E+03  0.00000000000E+00 0.  1.
         12    1    4    4    0    0 -0.66177588421E+01  0.38875169840E+02  0.78403709497E+01  0.40206280341E+02  0.00000000000E+00 0. -1.
        -13    1    3    3    0    0  0.28751979911E+01 -0.27767753855E+02 -0.74325645910E+01  0.28888716380E+02  0.00000000000E+00 0.  1.
         13    1    3    3    0    0 -0.92583254975E+02  0.22175977424E+02  0.34804195168E+02  0.10136451587E+03  0.00000000000E+00 0. -1.
         21    1    1    2  503  502  0.89584670277E+02  0.63219485104E+02 -0.78604301709E+03  0.79365341375E+03  0.00000000000E+00 0. -1.
          1    1    1    2  501    0  0.74371936944E+02 -0.11810285406E+03  0.31260172341E+03  0.34234384268E+03  0.00000000000E+00 0. -1.
<scales pt_clust_5="13000.00000" pt_clust_6="13000.00000" pt_clust_7="13000.00000" pt_clust_8="13000.00000" pt_clust_9="109.64541" pt_clust_10="107.36751"></scales>
<clustering>
<clus scale="   81.231">  5  6 -1 -1</clus>
<clus scale="   90.210">  7  8 -1 -1</clus>
<clus scale="  109.645">  2  9  1 -1</clus>
<clus scale="  102.963">  1  7  2 -1</clus>
<clus scale="  107.368">  2 10  1 -1</clus>
<clus scale="  109.645">  2  5  1 -1</clus>
</clustering>
</event>
<event>
10    4  0.3403565E-005  0.1110384E+03  0.7546771E-02  0.1260021E+00
          2   -1    0    0  503    0 -0.00000000000E+00  0.00000000000E+00  0.32871036276E+03  0.32871036276E+03  0.00000000000E+00 0. -1.
         21   -1    0    0  501  502  0.00000000000E+00 -0.00000000000E+00 -0.31831646478E+03  0.31831646478E+03  0.00000000000E+00 0.  1.
         23    2    1    2    0    0  0.25413456228E+01 -0.44668252946E+02  0.63261164774E+02  0.12616068228E+03  0.99563203668E+02 0.  0.
         24    2    1    2    0    0 -0.90108872295E+00  0.76186449722E+02 -0.17572702051E+03  0.20815020642E+03  0.81494390086E+02 0.  0.
        -13    1    4    4    0    0  0.10486295805E+02  0.59734333837E+02 -0.17796658603E+03  0.18801664496E+03  0.00000000000E+00 0.  1.
         14    1    4    4    0    0 -0.11387384528E+02  0.16452115885E+02  0.22395655223E+01  0.20133561464E+02  0.00000000000E+00 0. -1.
        -11    1    3    3    0    0 -0.10920665039E+02  0.17482737021E+02  0.58918530830E+02  0.62420351600E+02  0.00000000000E+00 0. -1.
         11    1    3    3    0    0  0.13462010662E+02 -0.62150989968E+02  0.43426339440E+01  0.63740330675E+02  0.00000000000E+00 0.  1.
         21    1    1    2  503  502 -0.10760437289E+03  0.10356577134E+02 -0.38873607412E+02  0.11487870607E+03  0.00000000000E+00 0. -1.
          1    1    1    2  501    0  0.10596411599E+03 -0.41874773910E+02  0.16173336113E+03  0.19783723277E+03  0.00000000000E+00 0. -1.
<scales pt_clust_5="13000.00000" pt_clust_6="13000.00000" pt_clust_7="13000.00000" pt_clust_8="13000.00000" pt_clust_9="108.10162" pt_clust_10="106.19485"></scales>
<clustering>
<clus scale="   81.494">  5  6 -1 -1</clus>
<clus scale="   99.563">  7  8 -1 -1</clus>
<clus scale="  108.102">  2  9  1 -1</clus>
<clus scale="  106.195">  2 10  1 -1</clus>
<clus scale="  108.102">  2  5  1 -1</clus>
<clus scale="  108.102">  2  5  1 -1</clus>
</clustering>
</event>
<event>
10    4  0.3403565E-005  0.1853458E+03  0.7546771E-02  0.1163370E+00
          2   -1    0    0  503    0 -0.00000000000E+00  0.00000000000E+00  0.11724259627E+03  0.11724259627E+03  0.00000000000E+00 0. -1.
         21   -1    0    0  501  502  0.00000000000E+00 -0.00000000000E+00 -0.55116248709E+03  0.55116248709E+03  0.00000000000E+00 0. -1.
         23    2    1    2    0    0 -0.15471622773E+03  0.57477198714E+02 -0.40138774474E+02  0.19095047548E+03  0.87236594235E+02 0.  0.
         24    2    1    2    0    0  0.14179615670E+03 -0.77888470363E+02 -0.18421191378E+03  0.25828181118E+03  0.81257005478E+02 0.  0.
        -11    1    4    4    0    0  0.66922833352E+02  0.58531188046E+01 -0.85545269699E+02  0.10877002248E+03  0.00000000000E+00 0.  1.
         12    1    4    4    0    0  0.74873323350E+02 -0.83741589167E+02 -0.98666644079E+02  0.14951178870E+03  0.00000000000E+00 0. -1.
        -13    1    3    3    0    0 -0.55009665585E+02  0.26157669402E+02  0.27111166196E+02  0.66673100339E+02  0.00000000000E+00 0.  1.
         13    1    3    3    0    0 -0.99706562149E+02  0.31319529312E+02 -0.67249940670E+02  0.12427737514E+03  0.00000000000E+00 0. -1.
         21    1    1    2  503  502  0.19161638132E+02 -0.13483586975E+02 -0.13507841704E+03  0.13709542022E+03  0.00000000000E+00 0. -1.
          1    1    1    2  501    0 -0.62415670996E+01  0.33894858623E+02 -0.74490785531E+02  0.82077376481E+02  0.00000000000E+00 0. -1.
<scales pt_clust_5="13000.00000" pt_clust_6="13000.00000" pt_clust_7="13000.00000" pt_clust_8="13000.00000" pt_clust_9="23.43023" pt_clust_10="31.46175"></scales>
<clustering>
<clus scale="   23.430">  2  9  1 -1</clus>
<clus scale="   31.462">  2 10  1 -1</clus>
<clus scale="   81.257">  5  6 -1 -1</clus>
<clus scale="   87.237">  7  8 -1 -1</clus>
<clus scale="  182.608">  2  5  1 -1</clus>
<clus scale="   23.430">  2  5  1 -1</clus>
</clustering>
</event>
<event>
10    4  0.3403565E-005  0.1216976E+03  0.7546771E-02  0.1247498E+00
         21   -1    0    0  503  502  0.00000000000E+00  0.00000000000E+00  0.17804569335E+03  0.17804569335E+03  0.00000000000E+00 0. -1.
          2   -1    0    0  502    0 -0.00000000000E+00 -0.00000000000E+00 -0.43405257650E+03  0.43405257650E+03  0.00000000000E+00 0. -1.
         24    2    1    2    0    0 -0.48472524059E+02  0.29434904978E+02 -0.18880403152E+03  0.21310766174E+03  0.80943893859E+02 0.  0.
         23    2    1    2    0    0  0.10566096613E+03  0.10723205662E+02 -0.14897486349E+03  0.20916082907E+03  0.10136821771E+03 0.  0.
        -13    1    3    3    0    0 -0.54365506066E+02  0.25924147906E+01 -0.58363904500E+02  0.79803973665E+02  0.00000000000E+00 0.  1.
         14    1    3    3    0    0  0.58929820079E+01  0.26842490187E+02 -0.13044012702E+03  0.13330368807E+03  0.00000000000E+00 0. -1.
        -11    1    4    4    0    0  0.85778104325E+02  0.81123535464E+01 -0.34286050261E+02  0.92732015530E+02  0.00000000000E+00 0.  1.
         11    1    4    4    0    0  0.19882861803E+02  0.26108521151E+01 -0.11468881323E+03  0.11642881354E+03  0.00000000000E+00 0. -1.
         21    1    1    2  503  501 -0.37115710469E+02  0.72534135877E+00  0.12294838403E+03  0.12843055407E+03  0.00000000000E+00 0. -1.
          1    1    1    2  501    0 -0.20072731601E+02 -0.40883451998E+02 -0.41176372163E+02  0.61399224960E+02  0.00000000000E+00 0. -1.
<scales pt_clust_5="13000.00000" pt_clust_6="13000.00000" pt_clust_7="13000.00000" pt_clust_8="13000.00000" pt_clust_9="37.12280" pt_clust_10="49.01105"></scales>
<clustering>
<clus scale="   37.123">  1  9  2 -1</clus>
<clus scale="   49.011">  1 10  2 -1</clus>
<clus scale="   80.944">  5  6 -1 -1</clus>
<clus scale="  101.368">  7  8 -1 -1</clus>
<clus scale="  105.293">  2  5  1 -1</clus>
<clus scale="   37.123">  1  5  2 -1</clus>
</clustering>
</event>
<event>
10    4  0.3403565E-005  0.1078677E+03  0.7546771E-02  0.1269863E+00
         21   -1    0    0  501  502  0.00000000000E+00  0.00000000000E+00  0.78157217619E+02  0.78157217619E+02  0.00000000000E+00 0. -1.
          2   -1    0    0  503    0 -0.00000000000E+00 -0.00000000000E+00 -0.67564722661E+03  0.67564722661E+03  0.00000000000E+00 0. -1.
         24    2    1    2    0    0 -0.69425697067E+02  0.39257617268E+02 -0.30918538006E+03  0.32944553153E+03  0.81102842596E+02 0.  0.
         23    2    1    2    0    0  0.27266436352E+02  0.30504440421E+02  0.11251804757E+02  0.10266960374E+03  0.93490453979E+02 0.  0.
        -11    1    3    3    0    0 -0.45628895374E+02  0.97480846283E+01 -0.53596440909E+02  0.71060535637E+02  0.00000000000E+00 0.  1.
         12    1    3    3    0    0 -0.23796801693E+02  0.29509532640E+02 -0.25558893915E+03  0.25838499590E+03  0.00000000000E+00 0. -1.
        -11    1    4    4    0    0  0.54417652726E+02  0.34700228762E+02 -0.13217225386E+02  0.65879297592E+02  0.00000000000E+00 0.  1.
         11    1    4    4    0    0 -0.27151216373E+02 -0.41957883407E+01  0.24469030143E+02  0.36790306148E+02  0.00000000000E+00 0. -1.
         21    1    1    2  503  502  0.18811184524E+02 -0.49791419879E+02 -0.60146195941E+02  0.80315696118E+02  0.00000000000E+00 0.  1.
          1    1    1    2  501    0  0.23348076191E+02 -0.19970637810E+02 -0.23941023775E+03  0.24137361284E+03  0.00000000000E+00 0. -1.
<scales pt_clust_5="13000.00000" pt_clust_6="13000.00000" pt_clust_7="13000.00000" pt_clust_8="13000.00000" pt_clust_9="56.77872" pt_clust_10="30.72393"></scales>
<clustering>
<clus scale="   30.724">  1 10  2 -1</clus>
<clus scale="   56.779">  2  9  1 -1</clus>
<clus scale="   81.103">  5  6 -1 -1</clus>
<clus scale="   93.490">  7  8 -1 -1</clus>
<clus scale="   97.327">  2  5  1 -1</clus>
<clus scale="   30.724">  1  5  2 -1</clus>
</clustering>
</event>
<event>
10    4  0.3403565E-005  0.2222856E+03  0.7546771E-02  0.1141722E+00
          2   -1    0    0  502    0 -0.00000000000E+00  0.00000000000E+00  0.27261218136E+04  0.27261218136E+04  0.00000000000E+00 0. -1.
         21   -1    0    0  503  502  0.00000000000E+00 -0.00000000000E+00 -0.37997847047E+02  0.37997847047E+02  0.00000000000E+00 0. -1.
         24    2    1    2    0    0 -0.43428906819E+02 -0.15105273287E+03  0.65749708384E+03  0.68075094742E+03  0.80102678524E+02 0.  0.
         23    2    1    2    0    0  0.22738772398E+03  0.11523817951E+03  0.11616359593E+04  0.11924525596E+04  0.86948202573E+02 0.  0.
        -11    1    3    3    0    0  0.37092966874E+01 -0.77032244869E+02  0.43104203472E+03  0.43788692756E+03  0.00000000000E+00 0.  1.
         12    1    3    3    0    0 -0.47138203507E+02 -0.74020487996E+02  0.22645504912E+03  0.24286401987E+03  0.00000000000E+00 0. -1.
        -11    1    4    4    0    0  0.21451451076E+03  0.99488324039E+02  0.11324710545E+04  0.11568945895E+04  0.00000000000E+00 0. -1.
         11    1    4    4    0    0  0.12873213214E+02  0.15749855470E+02  0.29164904839E+02  0.35557970134E+02  0.00000000000E+00 0.  1.
         21    1    1    2  503  501 -0.33202742308E+02  0.20365134173E+02  0.10390502981E+03  0.11096583261E+03  0.00000000000E+00 0. -1.
          1    1    1    2  501    0 -0.15075607485E+03  0.15449419183E+02  0.76508589357E+03  0.77995032098E+03  0.00000000000E+00 0. -1.
<scales pt_clust_5="13000.00000" pt_clust_6="13000.00000" pt_clust_7="13000.00000" pt_clust_8="13000.00000" pt_clust_9="29.83337" pt_clust_10="212.87027"></scales>
<clustering>
<clus scale="   29.833">  9 10 -1 -1</clus>
<clus scale="   80.103">  5  6 -1 -1</clus>
<clus scale="   86.948">  7  8 -1 -1</clus>
<clus scale="  176.407">  1  5  2 -1</clus>
<clus scale="  212.870">  2  9  1 -1</clus>
<clus scale="  212.870">  2  5  1 -1</clus>
</clustering>
</event>
<event>
10    4  0.3403565E-005  0.1027166E+03  0.7546771E-02  0.1274991E+00
         21   -1    0    0  501  502  0.00000000000E+00  0.00000000000E+00  0.80755374718E+03  0.80755374718E+03  0.00000000000E+00 0. -1.
          4   -1    0    0  503    0 -0.00000000000E+00 -0.00000000000E+00 -0.51902173875E+02  0.51902173875E+02  0.00000000000E+00 0. -1.
         24    2    1    2    0    0 -0.54902755599E+01 -0.81269699357E+02  0.11180242316E+03  0.15978644782E+03  0.79981372352E+02 0.  0.
         23    2    1    2    0    0 -0.80473955434E+02  0.89790171706E+00  0.45029598794E+03  0.46423817319E+03  0.79206950180E+02 0.  0.
        -13    1    3    3    0    0  0.17405580402E+02 -0.25867733726E+02  0.91225856521E+02  0.96406694660E+02  0.00000000000E+00 0.  1.
         14    1    3    3    0    0 -0.22895855962E+02 -0.55401965631E+02  0.20576566639E+02  0.63379753160E+02  0.00000000000E+00 0. -1.
        -13    1    4    4    0    0 -0.84502528861E+02 -0.22614425706E+02  0.38226108693E+03  0.39214235708E+03  0.00000000000E+00 0. -1.
         13    1    4    4    0    0  0.40285734266E+01  0.23512327423E+02  0.68034901013E+02  0.72095816110E+02  0.00000000000E+00 0.  1.
         21    1    1    2  503  502  0.86509552178E+01  0.26684283985E+02  0.95404009536E+02  0.99442521456E+02  0.00000000000E+00 0. -1.
          3    1    1    2  501    0  0.77313275776E+02  0.53687513655E+02  0.98149152670E+02  0.13598877859E+03  0.00000000000E+00 0. -1.
<scales pt_clust_5="13000.00000" pt_clust_6="13000.00000" pt_clust_7="13000.00000" pt_clust_8="13000.00000" pt_clust_9="28.05156" pt_clust_10="97.84660"></scales>
<clustering>
<clus scale="   28.052">  1  9  2 -1</clus>
<clus scale="   79.207">  7  8 -1 -1</clus>
<clus scale="   79.981">  5  6 -1 -1</clus>
<clus scale="   97.847">  1 10  2 -1</clus>
<clus scale="  102.115">  1  7  2 -1</clus>
<clus scale="   28.052">  1  5  2 -1</clus>
</clustering>
</event>
<event>
10    4  0.3403565E-005  0.2495279E+03  0.7546771E-02  0.1133657E+00
         21   -1    0    0  503  502  0.00000000000E+00  0.00000000000E+00  0.68906043969E+02  0.68906043969E+02  0.00000000000E+00 0. -1.
          2   -1    0    0  502    0 -0.00000000000E+00 -0.00000000000E+00 -0.19453772676E+04  0.19453772676E+04  0.00000000000E+00 0. -1.
         24    2    1    2    0    0  0.12359088670E+03 -0.35888243108E+02 -0.49708488448E+03  0.51969104617E+03  0.80141922979E+02 0.  0.
         23    2    1    2    0    0  0.37344808965E+02  0.21877690150E+03 -0.10821325684E+04  0.11084159911E+04  0.91198389723E+02 0.  0.
        -11    1    3    3    0    0  0.63499460680E+02 -0.18991874595E+02 -0.11661021769E+03  0.13412984634E+03  0.00000000000E+00 0.  1.
         12    1    3    3    0    0  0.60091426025E+02 -0.16896368513E+02 -0.38047466679E+03  0.38556119983E+03  0.00000000000E+00 0. -1.
        -13    1    4    4    0    0 -0.86114437878E+01  0.17215199759E+03 -0.71427203135E+03  0.73477547728E+03  0.00000000000E+00 0. -1.
         13    1    4    4    0    0  0.45956252753E+02  0.46624903916E+02 -0.36786053706E+03  0.37364051380E+03  0.00000000000E+00 0.  1.
         21    1    1    2  503  501 -0.71622022177E+02 -0.78673623551E+02 -0.10105301196E+03  0.14673433249E+03  0.00000000000E+00 0. -1.
          1    1    1    2  501    0 -0.89313673492E+02 -0.10421503484E+03 -0.19620075874E+03  0.23944194180E+03  0.00000000000E+00 0. -1.
<scales pt_clust_5="13000.00000" pt_clust_6="13000.00000" pt_clust_7="13000.00000" pt_clust_8="13000.00000" pt_clust_9="33.22114" pt_clust_10="235.30996"></scales>
<clustering>
<clus scale="   33.221">  9 10 -1 -1</clus>
<clus scale="   80.142">  5  6 -1 -1</clus>
<clus scale="   91.198">  7  8 -1 -1</clus>
<clus scale="  151.609">  2  5  1 -1</clus>
<clus scale="  235.310">  1  9  2 -1</clus>
<clus scale="  235.310">  1  5  2 -1</clus>
</clustering>
</event>
<event>
10    4  0.3403565E-005  0.2242993E+03  0.7546771E-02  0.1165785E+00
         21   -1    0    0  503  502  0.00000000000E+00  0.00000000000E+00  0.76598486091E+03  0.76598486091E+03  0.00000000000E+00 0.  1.
         -3   -1    0    0    0  501 -0.00000000000E+00 -0.00000000000E+00 -0.18273510149E+03  0.18273510149E+03  0.00000000000E+00 0.  1.
         23    2    1    2    0    0 -0.19512737878E+02  0.32514926914E+01  0.42934688480E+02  0.10516566280E+03  0.93942056675E+02 0.  0.
         24    2    1    2    0    0 -0.14182556853E+03  0.16327580871E+03  0.61852263015E+02  0.23896171632E+03  0.80644391192E+02 0.  0.
        -11    1    4    4    0    0 -0.13102804756E+03  0.15762395743E+03  0.32961616186E+02  0.20760570644E+03  0.00000000000E+00 0.  1.
         12    1    4    4    0    0 -0.10797520970E+02  0.56518512778E+01  0.28890646828E+02  0.31356009889E+02  0.00000000000E+00 0. -1.
        -11    1    3    3    0    0 -0.55960009987E+02 -0.86388161254E+00  0.39131498432E+02  0.68290139689E+02  0.00000000000E+00 0.  1.
         11    1    3    3    0    0  0.36447272109E+02  0.41153743039E+01  0.38031900483E+01  0.36875523107E+02  0.00000000000E+00 0. -1.
         21    1    1    2  503  501 -0.23620248618E+02 -0.73624358725E+02  0.35556729465E+03  0.36387712675E+03  0.00000000000E+00 0.  1.
         -4    1    1    2    0  502  0.18495855503E+03 -0.92902942674E+02  0.12289551327E+03  0.24071545654E+03  0.00000000000E+00 0.  1.
<scales pt_clust_5="13000.00000" pt_clust_6="13000.00000" pt_clust_7="13000.00000" pt_clust_8="13000.00000" pt_clust_9="77.32052" pt_clust_10="209.30035"></scales>
<clustering>
<clus scale="   77.321">  1  9  2 -1</clus>
<clus scale="   80.644">  5  6 -1 -1</clus>
<clus scale="   93.942">  7  8 -1 -1</clus>
<clus scale="   97.446">  2  7  1 -1</clus>
<clus scale="  209.300">  1 10  2 -1</clus>
<clus scale="   77.321">  1  5  2 -1</clus>
</clustering>
</event>
<event>
10    4  0.3403565E-005  0.1693772E+03  0.7546771E-02  0.1194759E+00
         21   -1    0    0  503  502  0.00000000000E+00  0.00000000000E+00  0.69009069613E+03  0.69009069613E+03  0.00000000000E+00 0.  1.
          2   -1    0    0  502    0 -0.00000000000E+00 -0.00000000000E+00 -0.36223921530E+03  0.36223921530E+03  0.00000000000E+00 0. -1.
         24    2    1    2    0    0  0.40024437161E+02 -0.81772432999E+02 -0.10695188381E+03  0.16176247332E+03  0.80247778501E+02 0.  0.
         23    2    1    2    0    0  0.17694274893E+03 -0.43074989774E+02  0.14965057593E+03  0.25281357927E+03  0.91406891681E+02 0.  0.
        -13    1    3    3    0    0 -0.14909480578E+02 -0.19354361330E+02 -0.63301195660E+02  0.67852231249E+02  0.00000000000E+00 0.  1.
         14    1    3    3    0    0  0.54933917739E+02 -0.62418071669E+02 -0.43650688150E+02  0.93910242067E+02  0.00000000000E+00 0. -1.
        -13    1    4    4    0    0  0.46387197837E+02  0.27207884135E+02  0.54912610415E+02  0.76859845595E+02  0.00000000000E+00 0. -1.
         13    1    4    4    0    0  0.13055555109E+03 -0.70282873909E+02  0.94737965513E+02  0.17595373368E+03  0.00000000000E+00 0.  1.
         21    1    1    2  503  501 -0.63088372795E+02  0.21580077527E+02  0.40929953697E+03  0.41469501262E+03  0.00000000000E+00 0. -1.
          1    1    1    2  501    0 -0.15387881329E+03  0.10326734525E+03 -0.12414674826E+03  0.22305884623E+03  0.00000000000E+00 0. -1.
<scales pt_clust_5="13000.00000" pt_clust_6="13000.00000" pt_clust_7="13000.00000" pt_clust_8="13000.00000" pt_clust_9="66.67715" pt_clust_10="142.59531"></scales>
<clustering>
<clus scale="   66.677">  1  9  2 -1</clus>
<clus scale="   80.248">  5  6 -1 -1</clus>
<clus scale="   91.407">  7  8 -1 -1</clus>
<clus scale="  118.009">  2  5  1 -1</clus>
<clus scale="  142.595">  1 10  2 -1</clus>
<clus scale="   66.677">  1  5  2 -1</clus>
</clustering>
</event>
<event>
10    4  0.3403565E-005  0.1081334E+03  0.7546771E-02  0.1268336E+00
          2   -1    0    0  503    0 -0.00000000000E+00  0.00000000000E+00  0.21403442540E+03  0.21403442540E+03  0.00000000000E+00 0. -1.
         21   -1    0    0  501  502  0.00000000000E+00 -0.00000000000E+00 -0.26336839659E+03  0.26336839659E+03  0.00000000000E+00 0. -1.
         23    2    1    2    0    0  0.30257557773E+02 -0.51022194235E+02  0.13092693571E+03  0.17034667789E+03  0.91418510522E+02 0.  0.
         24    2    1    2    0    0  0.52509829500E+02  0.74531831434E+02 -0.16359163127E+03  0.20406317499E+03  0.81038765235E+02 0.  0.
        -11    1    4    4    0    0  0.37230397385E+02 -0.43809011444E+01 -0.29401916375E+02  0.47642076685E+02  0.00000000000E+00 0.  1.
         12    1    4    4    0    0  0.15279432115E+02  0.78912732579E+02 -0.13418971490E+03  0.15642109830E+03  0.00000000000E+00 0. -1.
        -13    1    3    3    0    0  0.32096801887E+02  0.16636248451E+02  0.72164918792E+02  0.80713970031E+02  0.00000000000E+00 0. -1.
         13    1    3    3    0    0 -0.18392441141E+01 -0.67658442686E+02  0.58762016921E+02  0.89632707859E+02  0.00000000000E+00 0.  1.
         21    1    1    2  503  502 -0.18599532711E+02  0.17450231157E+02 -0.46135300628E+01  0.25917905859E+02  0.00000000000E+00 0. -1.
          1    1    1    2  501    0 -0.64167854562E+02 -0.40959868356E+02 -0.12055745562E+02  0.77075063256E+02  0.00000000000E+00 0. -1.
<scales pt_clust_5="13000.00000" pt_clust_6="13000.00000" pt_clust_7="13000.00000" pt_clust_8="13000.00000" pt_clust_9="25.50398" pt_clust_10="77.38343"></scales>
<clustering>
<clus scale="   25.504">  2  9  1 -1</clus>
<clus scale="   77.383">  2 10  1 -1</clus>
<clus scale="   81.039">  5  6 -1 -1</clus>
<clus scale="   91.419">  7  8 -1 -1</clus>
<clus scale="   99.513">  2  5  1 -1</clus>
<clus scale="   25.504">  2  5  1 -1</clus>
</clustering>
</event>
<event>
10    4  0.3403565E-005  0.2604341E+03  0.7546771E-02  0.1118660E+00
          2   -1    0    0  502    0 -0.00000000000E+00  0.00000000000E+00  0.29105659091E+04  0.29105659091E+04  0.00000000000E+00 0. -1.
         21   -1    0    0  503  502  0.00000000000E+00 -0.00000000000E+00 -0.67908454590E+02  0.67908454590E+02  0.00000000000E+00 0. -1.
         24    2    1    2    0    0 -0.25786222326E+02  0.17495325552E+03  0.26277407157E+03  0.32671844834E+03  0.80132146572E+02 0.  0.
         23    2    1    2    0    0 -0.54694312868E+02 -0.34974829559E+03  0.18220288918E+04  0.18583974968E+04  0.92393913191E+02 0.  0.
        -11    1    3    3    0    0 -0.29753719098E+02  0.13846401939E+02  0.49862408732E+02  0.59693102209E+02  0.00000000000E+00 0.  1.
         12    1    3    3    0    0  0.39674967720E+01  0.16110685358E+03  0.21291166284E+03  0.26702534613E+03  0.00000000000E+00 0. -1.
        -11    1    4    4    0    0 -0.19426273910E+02 -0.32714426948E+02  0.98399806926E+02  0.10549945901E+03  0.00000000000E+00 0.  1.
         11    1    4    4    0    0 -0.35268038958E+02 -0.31703386864E+03  0.17236290849E+04  0.17528980378E+04  0.00000000000E+00 0. -1.
         21    1    1    2  503  501 -0.22395718227E+02 -0.61296664803E+01  0.43588910414E+02  0.49387590720E+02  0.00000000000E+00 0.  1.
          1    1    1    2  501    0  0.10287625342E+03  0.18092470655E+03  0.71426558074E+03  0.74397082791E+03  0.00000000000E+00 0. -1.
<scales pt_clust_5="13000.00000" pt_clust_6="13000.00000" pt_clust_7="13000.00000" pt_clust_8="13000.00000" pt_clust_9="23.21941" pt_clust_10="243.49388"></scales>
<clustering>
<clus scale="   23.219">  2  9  1 -1</clus>
<clus scale="   80.132">  5  6 -1 -1</clus>
<clus scale="   92.394">  7  8 -1 -1</clus>
<clus scale="  193.231">  1  5  2 -1</clus>
<clus scale="  243.494">  2 10  1 -1</clus>
<clus scale="   23.219">  2  5  1 -1</clus>
</clustering>
</event>
<event>
10    4  0.3403565E-005  0.1630918E+03  0.7546771E-02  0.1209881E+00
         -1   -1    0    0    0  501 -0.00000000000E+00  0.00000000000E+00  0.59256312217E+03  0.59256312217E+03  0.00000000000E+00 0.  1.
         21   -1    0    0  501  502  0.00000000000E+00 -0.00000000000E+00 -0.13233946314E+03  0.13233946314E+03  0.00000000000E+00 0.  1.
         24    2    1    2    0    0  0.50036592132E+01 -0.54396455972E+02  0.15549648516E+03  0.18395194357E+03  0.81701588837E+02 0.  0.
         23    2    1    2    0    0  0.11837654915E+03 -0.94927529886E+02  0.61595000250E+02  0.18728882111E+03  0.90878573585E+02 0.  0.
        -11    1    3    3    0    0  0.10436833988E+02 -0.69805739196E+02  0.15149472327E+03  0.16712994916E+03  0.00000000000E+00 0.  1.
         12    1    3    3    0    0 -0.54331747751E+01  0.15409283224E+02  0.40017618878E+01  0.16821994406E+02  0.00000000000E+00 0. -1.
        -11    1    4    4    0    0  0.93983203696E+01  0.17765944708E+02  0.74098768419E+01  0.21421099223E+02  0.00000000000E+00 0. -1.
         11    1    4    4    0    0  0.10897822878E+03 -0.11269347459E+03  0.54185123408E+02  0.16586772188E+03  0.00000000000E+00 0.  1.
         21    1    1    2  503  502 -0.19274218832E+02  0.36905540247E+02 -0.22262688885E+02  0.47213787487E+02  0.00000000000E+00 0.  1.
         -2    1    1    2    0  503 -0.10410598953E+03  0.11241844561E+03  0.26539486250E+03  0.30644803314E+03  0.00000000000E+00 0.  1.
<scales pt_clust_5="13000.00000" pt_clust_6="13000.00000" pt_clust_7="13000.00000" pt_clust_8="13000.00000" pt_clust_9="41.63549" pt_clust_10="135.42542"></scales>
<clustering>
<clus scale="   41.635">  2  9  1 -1</clus>
<clus scale="   81.702">  5  6 -1 -1</clus>
<clus scale="   90.879">  7  8 -1 -1</clus>
<clus scale="   95.303">  1  5  2 -1</clus>
<clus scale="  135.425">  2 10  1 -1</clus>
<clus scale="   41.635">  2  5  1 -1</clus>
</clustering>
</event>
<event>
10    4  0.3403565E-005  0.1199481E+03  0.7546771E-02  0.1246520E+00
          2   -1    0    0  503    0 -0.00000000000E+00  0.00000000000E+00  0.14422835452E+04  0.14422835452E+04  0.00000000000E+00 0. -1.
         21   -1    0    0  501  502  0.00000000000E+00 -0.00000000000E+00 -0.27207826302E+02  0.27207826302E+02  0.00000000000E+00 0.  1.
         24    2    1    2    0    0 -0.84817570742E+02  0.68915505613E+02  0.69437356134E+03  0.70746516875E+03  0.80055949704E+02 0.  0.
         23    2    1    2    0    0  0.42476876998E+02 -0.12640057210E+02  0.31742258256E+03  0.33307688425E+03  0.90659024788E+02 0.  0.
        -13    1    3    3    0    0 -0.37734924694E+02  0.77483124859E+02  0.39518056698E+03  0.40446908374E+03  0.00000000000E+00 0.  1.
         14    1    3    3    0    0 -0.47082646048E+02 -0.85676192464E+01  0.29919299436E+03  0.30299608501E+03  0.00000000000E+00 0. -1.
        -11    1    4    4    0    0 -0.19294757298E+02 -0.30337184803E+02  0.95689375026E+02  0.10222078523E+03  0.00000000000E+00 0. -1.
         11    1    4    4    0    0  0.61771634296E+02  0.17697127593E+02  0.22173320753E+03  0.23085609901E+03  0.00000000000E+00 0.  1.
         21    1    1    2  503  502 -0.40414124656E+01  0.22612815769E+02  0.98105722826E+01  0.24978386262E+02  0.00000000000E+00 0.  1.
          1    1    1    2  501    0  0.46382106210E+02 -0.78888264172E+02  0.39346900270E+03  0.40397093223E+03  0.00000000000E+00 0. -1.
<scales pt_clust_5="13000.00000" pt_clust_6="13000.00000" pt_clust_7="13000.00000" pt_clust_8="13000.00000" pt_clust_9="22.97112" pt_clust_10="85.77564"></scales>
<clustering>
<clus scale="   22.971">  2  9  1 -1</clus>
<clus scale="   80.056">  5  6 -1 -1</clus>
<clus scale="   85.776">  2 10  1 -1</clus>
<clus scale="   90.659">  7  8 -1 -1</clus>
<clus scale="  112.149">  1  5  2 -1</clus>
<clus scale="   22.971">  2  5  1 -1</clus>
</clustering>
</event>
<event>
10    4  0.3403565E-005  0.5796335E+03  0.7546771E-02  0.1020610E+00
          2   -1    0    0  503    0 -0.00000000000E+00  0.00000000000E+00  0.17957764426E+04  0.17957764426E+04  0.00000000000E+00 0. -1.
         21   -1    0    0  501  502  0.00000000000E+00 -0.00000000000E+00 -0.69584296424E+03  0.69584296424E+03  0.00000000000E+00 0. -1.
         23    2    1    2    0    0  0.12864233862E+03  0.20748136434E+03  0.96805787854E+03  0.10026667864E+04  0.92775322254E+02 0.  0.
         24    2    1    2    0    0  0.13531787764E+03  0.39192246797E+03  0.46427079281E+03  0.62734254540E+03  0.78084257778E+02 0.  0.
        -13    1    4    4    0    0  0.46661234376E+02  0.62937118313E+02  0.60275923255E+02  0.98851092960E+02  0.00000000000E+00 0.  1.
         14    1    4    4    0    0  0.88656643265E+02  0.32898534966E+03  0.40399486955E+03  0.52849145244E+03  0.00000000000E+00 0. -1.
        -13    1    3    3    0    0  0.12379345413E+03  0.15613900480E+03  0.86206352548E+03  0.88479247853E+03  0.00000000000E+00 0. -1.
         13    1    3    3    0    0  0.48488844936E+01  0.51342359536E+02  0.10599435306E+03  0.11787430782E+03  0.00000000000E+00 0.  1.
         21    1    1    2  503  502 -0.50677575456E+02  0.13664954093E+02 -0.18993212888E+03  0.19705116393E+03  0.00000000000E+00 0. -1.
          1    1    1    2  501    0 -0.21328264081E+03 -0.61306878640E+03 -0.14246306412E+03  0.66455891113E+03  0.00000000000E+00 0. -1.
<scales pt_clust_5="13000.00000" pt_clust_6="13000.00000" pt_clust_7="13000.00000" pt_clust_8="13000.00000" pt_clust_9="52.48759" pt_clust_10="574.34989"></scales>
<clustering>
<clus scale="   52.488">  2  9  1 -1</clus>
<clus scale="   78.084">  5  6 -1 -1</clus>
<clus scale="   92.775">  7  8 -1 -1</clus>
<clus scale="  260.680">  1  7  2 -1</clus>
<clus scale="  574.350">  2 10  1 -1</clus>
<clus scale="   52.488">  2  5  1 -1</clus>
</clustering>
</event>
<event>
10    4  0.3403565E-005  0.1232046E+03  0.7546771E-02  0.1240974E+00
         -1   -1    0    0    0  501 -0.00000000000E+00  0.00000000000E+00  0.35605463199E+03  0.35605463199E+03  0.00000000000E+00 0.  1.
         21   -1    0    0  503  502  0.00000000000E+00 -0.00000000000E+00 -0.17808643429E+03  0.17808643429E+03  0.00000000000E+00 0. -1.
         24    2    1    2    0    0 -0.51476822236E+02 -0.56191700070E+02  0.12255252185E+03  0.16656736632E+03  0.83175696732E+02 0.  0.
         23    2    1    2    0    0  0.45008853819E+02  0.74333212922E+02  0.11536478392E+03  0.17193152147E+03  0.93274815674E+02 0.  0.
        -11    1    3    3    0    0 -0.81161461459E+01 -0.43516948457E+02  0.11163524366E+03  0.12009173268E+03  0.00000000000E+00 0.  1.
         12    1    3    3    0    0 -0.43360676090E+02 -0.12674751613E+02  0.10917278196E+02  0.46475633644E+02  0.00000000000E+00 0. -1.
        -11    1    4    4    0    0  0.22845135028E+02  0.70166123843E+02  0.12675236743E+03  0.14666747349E+03  0.00000000000E+00 0. -1.
         11    1    4    4    0    0  0.22163718791E+02  0.41670890796E+01 -0.11387583511E+02  0.25264047979E+02  0.00000000000E+00 0.  1.
         21    1    1    2  503  501  0.18563582486E+02  0.57483328034E+02 -0.94073376078E+02  0.11179776243E+03  0.00000000000E+00 0. -1.
         -2    1    1    2    0  502 -0.12095614070E+02 -0.75624840887E+02  0.34124268004E+02  0.83844416068E+02  0.00000000000E+00 0.  1.
<scales pt_clust_5="13000.00000" pt_clust_6="13000.00000" pt_clust_7="13000.00000" pt_clust_8="13000.00000" pt_clust_9="60.40645" pt_clust_10="56.92156"></scales>
<clustering>
<clus scale="   60.406">  2  9  1 -1</clus>
<clus scale="   56.922">  2 10  1 -1</clus>
<clus scale="   83.176">  5  6 -1 -1</clus>
<clus scale="   93.275">  7  8 -1 -1</clus>
<clus scale="  115.747">  1  5  2 -1</clus>
<clus scale="   60.406">  2  5  1 -1</clus>
</clustering>
</event>
<event>
10    4  0.3403565E-005  0.4274970E+03  0.7546771E-02  0.1053235E+00
          4   -1    0    0  503    0 -0.00000000000E+00  0.00000000000E+00  0.11345885853E+04  0.11345885853E+04  0.00000000000E+00 0. -1.
         21   -1    0    0  501  502  0.00000000000E+00 -0.00000000000E+00 -0.46343625437E+03  0.46343625437E+03  0.00000000000E+00 0. -1.
         24    2    1    2    0    0  0.22948982708E+03 -0.65800084500E+02  0.63681763947E+03  0.68490825114E+03  0.81039340311E+02 0.  0.
         23    2    1    2    0    0 -0.10969349490E+03  0.44658040250E+03 -0.44004293070E+02  0.47099217354E+03  0.91817923092E+02 0.  0.
        -11    1    3    3    0    0  0.13315361142E+03 -0.31652136461E+02  0.46760066781E+03  0.48721876659E+03  0.00000000000E+00 0.  1.
         12    1    3    3    0    0  0.96336215664E+02 -0.34147948039E+02  0.16921697166E+03  0.19768948455E+03  0.00000000000E+00 0. -1.
        -13    1    4    4    0    0 -0.36583789267E+02  0.32223422280E+03 -0.21675068423E+02  0.32502780892E+03  0.00000000000E+00 0.  1.
         13    1    4    4    0    0 -0.73109705633E+02  0.12434617971E+03 -0.22329224647E+02  0.14596436462E+03  0.00000000000E+00 0. -1.
         21    1    1    2  503  502 -0.41904080523E+02  0.24243291086E+01 -0.50931974935E+01  0.42282029242E+02  0.00000000000E+00 0. -1.
          3    1    1    2  501    0 -0.77892251658E+02 -0.38320464711E+03  0.83432182007E+02  0.39984238574E+03  0.00000000000E+00 0. -1.
<scales pt_clust_5="13000.00000" pt_clust_6="13000.00000" pt_clust_7="13000.00000" pt_clust_8="13000.00000" pt_clust_9="41.97415" pt_clust_10="417.52045"></scales>
<clustering>
<clus scale="   41.974">  2  9  1 -1</clus>
<clus scale="   81.039">  5  6 -1 -1</clus>
<clus scale="   91.818">  7  8 -1 -1</clus>
<clus scale="  249.998">  1  5  2 -1</clus>
<clus scale="  417.520">  2 10  1 -1</clus>
<clus scale="   41.974">  2  5  1 -1</clus>
</clustering>
</event>
<event>
10    4  0.3403565E-005  0.1154814E+03  0.7546771E-02  0.1254673E+00
         -3   -1    0    0    0  501 -0.00000000000E+00  0.00000000000E+00  0.49730209490E+02  0.49730209490E+02  0.00000000000E+00 0.  1.
         21   -1    0    0  503  502  0.00000000000E+00 -0.00000000000E+00 -0.57841034093E+03  0.57841034093E+03  0.00000000000E+00 0. -1.
         24    2    1    2    0    0 -0.71809959763E+02 -0.20285045680E+02 -0.53537843248E+02  0.12133379721E+03  0.79293355874E+02 0.  0.
         23    2    1    2    0    0  0.56594951546E+02  0.16504043118E+02 -0.34976041425E+03  0.36609446747E+03  0.90650095201E+02 0.  0.
        -13    1    3    3    0    0 -0.57324928100E+02 -0.37250163628E+02 -0.66633797331E+02  0.95466145930E+02  0.00000000000E+00 0.  1.
         14    1    3    3    0    0 -0.14485031663E+02  0.16965117948E+02  0.13095954083E+02  0.25867651277E+02  0.00000000000E+00 0. -1.
        -13    1    4    4    0    0  0.10697032966E+02 -0.36472449600E+02 -0.12717941301E+03  0.13273759523E+03  0.00000000000E+00 0.  1.
         13    1    4    4    0    0  0.45897918580E+02  0.52976492718E+02 -0.22258100124E+03  0.23335687224E+03  0.00000000000E+00 0. -1.
         21    1    1    2  503  501 -0.72544140363E+01  0.24702320601E+02 -0.91212007458E+02  0.94775848562E+02  0.00000000000E+00 0. -1.
         -4    1    1    2    0  502  0.22469422253E+02 -0.20921318039E+02 -0.34169866485E+02  0.45936437177E+02  0.00000000000E+00 0.  1.
<scales pt_clust_5="13000.00000" pt_clust_6="13000.00000" pt_clust_7="13000.00000" pt_clust_8="13000.00000" pt_clust_9="25.74551" pt_clust_10="28.89471"></scales>
<clustering>
<clus scale="   25.746">  2  9  1 -1</clus>
<clus scale="   28.895">  2 10  1 -1</clus>
<clus scale="   79.293">  5  6 -1 -1</clus>
<clus scale="   90.650">  7  8 -1 -1</clus>
<clus scale="  106.799">  1  5  2 -1</clus>
<clus scale="   25.746">  2  5  1 -1</clus>
</clustering>
</event>
<event>
10    4  0.3403565E-005  0.8376788E+03  0.7546771E-02  0.9507025E-01
          2   -1    0    0  503    0 -0.00000000000E+00  0.00000000000E+00  0.13604302746E+04  0.13604302746E+04  0.00000000000E+00 0. -1.
         21   -1    0    0  501  502  0.00000000000E+00 -0.00000000000E+00 -0.88348996980E+03  0.88348996980E+03  0.00000000000E+00 0. -1.
         24    2    1    2    0    0  0.50863143897E+03  0.20638253986E+03  0.57036266747E+03  0.79573590294E+03  0.81131752788E+02 0.  0.
         23    2    1    2    0    0  0.26920373726E+03 -0.38967206520E+02  0.27760192009E+03  0.39910949296E+03  0.90754977807E+02 0.  0.
        -11    1    3    3    0    0  0.14013275633E+03  0.86324469332E+02  0.13511043777E+03  0.21294115102E+03  0.00000000000E+00 0.  1.
         12    1    3    3    0    0  0.36849868264E+03  0.12005807053E+03  0.43525222970E+03  0.58279475192E+03  0.00000000000E+00 0. -1.
        -13    1    4    4    0    0  0.24409396080E+03 -0.52943627458E+02  0.27297779212E+03  0.37000238429E+03  0.00000000000E+00 0. -1.
         13    1    4    4    0    0  0.25109776455E+02  0.13976420938E+02  0.46241279722E+01  0.29107108674E+02  0.00000000000E+00 0.  1.
         21    1    1    2  503  502 -0.76129277072E+03 -0.13882472751E+03 -0.49642990191E+03  0.91939199215E+03  0.00000000000E+00 0. -1.
          1    1    1    2  501    0 -0.16542405508E+02 -0.28590605828E+02  0.12540561910E+03  0.12968285632E+03  0.00000000000E+00 0. -1.
<scales pt_clust_5="13000.00000" pt_clust_6="13000.00000" pt_clust_7="13000.00000" pt_clust_8="13000.00000" pt_clust_9="791.29613" pt_clust_10="33.03142"></scales>
<clustering>
<clus scale="   33.031">  2 10  1 -1</clus>
<clus scale="   81.132">  5  6 -1 -1</clus>
<clus scale="   90.755">  7  8 -1 -1</clus>
<clus scale="  169.101">  5  7 -1 -1</clus>
<clus scale="  791.296">  2  9  1 -1</clus>
<clus scale="   33.031">  2  5  1 -1</clus>
</clustering>
</event>
<event>
10    4  0.3403565E-005  0.2106848E+03  0.7546771E-02  0.1141555E+00
          2   -1    0    0  503    0 -0.00000000000E+00  0.00000000000E+00  0.46763510646E+03  0.46763510646E+03  0.00000000000E+00 0. -1.
         21   -1    0    0  501  502  0.00000000000E+00 -0.00000000000E+00 -0.94391651357E+03  0.94391651357E+03  0.00000000000E+00 0. -1.
         24    2    1    2    0    0 -0.44870977460E+02  0.17427613818E+03  0.30601212082E+03  0.36485836699E+03  0.84217770810E+02 0.  0.
         23    2    1    2    0    0  0.15723023922E+03 -0.33067290659E+03 -0.41522274627E+03  0.56096875881E+03  0.90609602511E+02 0.  0.
        -11    1    3    3    0    0  0.32175333503E+01  0.56650862690E+02  0.38129226689E+02  0.68363079892E+02  0.00000000000E+00 0.  1.
         12    1    3    3    0    0 -0.48088510810E+02  0.11762527549E+03  0.26788289413E+03  0.29649528710E+03  0.00000000000E+00 0. -1.
        -11    1    4    4    0    0  0.13637988421E+03 -0.19386407180E+03 -0.23539780960E+03  0.33405819840E+03  0.00000000000E+00 0. -1.
         11    1    4    4    0    0  0.20850355010E+02 -0.13680883479E+03 -0.17982493666E+03  0.22691056041E+03  0.00000000000E+00 0.  1.
         21    1    1    2  503  502 -0.67877038411E+00  0.45364588210E+02 -0.31735420266E+03  0.32058087363E+03  0.00000000000E+00 0. -1.
          1    1    1    2  501    0 -0.11168049137E+03  0.11103218020E+03 -0.49716579009E+02  0.16514362059E+03  0.00000000000E+00 0. -1.
<scales pt_clust_5="13000.00000" pt_clust_6="13000.00000" pt_clust_7="13000.00000" pt_clust_8="13000.00000" pt_clust_9="45.36967" pt_clust_10="163.15417"></scales>
<clustering>
<clus scale="   45.370">  2  9  1 -1</clus>
<clus scale="   84.218">  5  6 -1 -1</clus>
<clus scale="   90.610">  7  8 -1 -1</clus>
<clus scale="  163.154">  2 10  1 -1</clus>
<clus scale="  208.016">  1  5  2 -1</clus>
<clus scale="   45.370">  2  5  1 -1</clus>
</clustering>
</event>
<event>
10    4  0.3403565E-005  0.3971181E+03  0.7546771E-02  0.1044956E+00
          2   -1    0    0  503    0 -0.00000000000E+00  0.00000000000E+00  0.10298793407E+04  0.10298793407E+04  0.00000000000E+00 0. -1.
         21   -1    0    0  501  502  0.00000000000E+00 -0.00000000000E+00 -0.55778867016E+03  0.55778867016E+03  0.00000000000E+00 0. -1.
         24    2    1    2    0    0  0.27844328082E+02  0.37964662540E+03  0.79962676049E+03  0.88896707657E+03  0.77153356088E+02 0.  0.
         23    2    1    2    0    0  0.21820721820E+02 -0.43662600276E+03 -0.14155248467E+03  0.46763054484E+03  0.86734136068E+02 0.  0.
        -11    1    3    3    0    0 -0.96028128946E+01  0.30086141339E+02  0.33559713125E+02  0.46083014888E+02  0.00000000000E+00 0.  1.
         12    1    3    3    0    0  0.37447140977E+02  0.34956048406E+03  0.76606704736E+03  0.84288406168E+03  0.00000000000E+00 0. -1.
        -13    1    4    4    0    0  0.36618437000E+02 -0.39410711749E+03 -0.10461547232E+03  0.40939678435E+03  0.00000000000E+00 0. -1.
         13    1    4    4    0    0 -0.14797715180E+02 -0.42518885270E+02 -0.36937012353E+02  0.58233760489E+02  0.00000000000E+00 0.  1.
         21    1    1    2  503  502  0.25812184221E+02 -0.16040354413E+02 -0.58315047859E+02  0.65758700038E+02  0.00000000000E+00 0. -1.
          1    1    1    2  501    0 -0.75477234123E+02  0.73019731770E+02 -0.12766855743E+03  0.16531168940E+03  0.00000000000E+00 0. -1.
<scales pt_clust_5="13000.00000" pt_clust_6="13000.00000" pt_clust_7="13000.00000" pt_clust_8="13000.00000" pt_clust_9="30.39016" pt_clust_10="96.25887"></scales>
<clustering>
<clus scale="   30.390">  2  9  1 -1</clus>
<clus scale="   77.153">  5  6 -1 -1</clus>
<clus scale="   86.734">  7  8 -1 -1</clus>
<clus scale="   96.259">  2 10  1 -1</clus>
<clus scale="  395.136">  1  5  2 -1</clus>
<clus scale="   30.390">  2  5  1 -1</clus>
</clustering>
</event>
<event>
10    4  0.3403565E-005  0.1304446E+03  0.7546771E-02  0.1229721E+00
         21   -1    0    0  501  502  0.00000000000E+00  0.00000000000E+00  0.22545461434E+03  0.22545461434E+03  0.00000000000E+00 0.  1.
          2   -1    0    0  503    0 -0.00000000000E+00 -0.00000000000E+00 -0.44740327422E+03  0.44740327422E+03  0.00000000000E+00 0. -1.
         24    2    1    2    0    0 -0.20298138283E+02  0.92225324349E+02 -0.18779467047E+03  0.22494513024E+03  0.80099616060E+02 0.  0.
         23    2    1    2    0    0 -0.37242284994E+02 -0.94698533508E+02 -0.15658715130E+02  0.13768189881E+03  0.91412853907E+02 0.  0.
        -13    1    3    3    0    0  0.24624422405E+02  0.57556875577E+02 -0.68230621649E+02  0.92598994787E+02  0.00000000000E+00 0.  1.
         14    1    3    3    0    0 -0.44922560688E+02  0.34668448772E+02 -0.11956404882E+03  0.13234613546E+03  0.00000000000E+00 0. -1.
        -11    1    4    4    0    0 -0.60259789522E+02 -0.36313744261E+02 -0.24077288352E+02  0.74361590017E+02  0.00000000000E+00 0.  1.
         11    1    4    4    0    0  0.23017504529E+02 -0.58384789247E+02  0.84185732214E+01  0.63320308790E+02  0.00000000000E+00 0. -1.
         21    1    1    2  503  502  0.24190397713E+02  0.10924947365E+03  0.97985709907E+02  0.14873406530E+03  0.00000000000E+00 0.  1.
          1    1    1    2  501    0  0.33350025563E+02 -0.10677626449E+03 -0.11648098419E+03  0.16149679421E+03  0.00000000000E+00 0. -1.
<scales pt_clust_5="13000.00000" pt_clust_6="13000.00000" pt_clust_7="13000.00000" pt_clust_8="13000.00000" pt_clust_9="62.79693" pt_clust_10="111.86334"></scales>
<clustering>
<clus scale="   80.100">  5  6 -1 -1</clus>
<clus scale="   91.413">  7  8 -1 -1</clus>
<clus scale="  111.863">  1 10  2 -1</clus>
<clus scale="   62.797">  1  9  2 -1</clus>
<clus scale="  122.782">  2  5  1 -1</clus>
<clus scale="  111.863">  1  5  2 -1</clus>
</clustering>
</event>
<event>
10    4  0.3403565E-005  0.1702453E+03  0.7546771E-02  0.1204080E+00
         21   -1    0    0  501  502  0.00000000000E+00  0.00000000000E+00  0.42990489703E+02  0.42990489703E+02  0.00000000000E+00 0. -1.
          2   -1    0    0  503    0 -0.00000000000E+00 -0.00000000000E+00 -0.16706943084E+04  0.16706943084E+04  0.00000000000E+00 0. -1.
         23    2    1    2    0    0  0.21501160140E+02 -0.19071318834E+02 -0.10278526554E+03  0.14052962612E+03  0.91420730230E+02 0.  0.
         24    2    1    2    0    0 -0.60028811686E+02 -0.12625236646E+03 -0.49641194528E+03  0.52181647230E+03  0.79526681578E+02 0.  0.
        -11    1    4    4    0    0  0.19027521351E+02 -0.15945211216E+02 -0.88886674368E+02  0.92288337343E+02  0.00000000000E+00 0.  1.
         12    1    4    4    0    0 -0.79056333037E+02 -0.11030715524E+03 -0.40752527091E+03  0.42952813496E+03  0.00000000000E+00 0. -1.
        -13    1    3    3    0    0  0.46960029677E+01 -0.55508057639E+02 -0.59889312627E+02  0.81791971939E+02  0.00000000000E+00 0. -1.
         13    1    3    3    0    0  0.16805157173E+02  0.36436738805E+02 -0.42895952914E+02  0.58737654181E+02  0.00000000000E+00 0.  1.
         21    1    1    2  503  502 -0.20387836406E+02 -0.74254522614E+01 -0.19614758564E+02  0.29249614837E+02  0.00000000000E+00 0. -1.
          1    1    1    2  501    0  0.58915487951E+02  0.15274913755E+03 -0.10088918493E+04  0.10220890849E+04  0.00000000000E+00 0. -1.
<scales pt_clust_5="13000.00000" pt_clust_6="13000.00000" pt_clust_7="13000.00000" pt_clust_8="13000.00000" pt_clust_9="21.69795" pt_clust_10="150.52900"></scales>
<clustering>
<clus scale="   21.698">  1  9  2 -1</clus>
<clus scale="   79.527">  5  6 -1 -1</clus>
<clus scale="   91.421">  7  8 -1 -1</clus>
<clus scale="   94.897">  2  7  1 -1</clus>
<clus scale="  150.529">  1 10  2 -1</clus>
<clus scale="   21.698">  1  5  2 -1</clus>
</clustering>
</event>
<event>
10    4  0.3403565E-005  0.3334749E+03  0.7546771E-02  0.1105464E+00
         21   -1    0    0  501  502  0.00000000000E+00  0.00000000000E+00  0.46853137250E+03  0.46853137250E+03  0.00000000000E+00 0.  1.
         -1   -1    0    0    0  501 -0.00000000000E+00 -0.00000000000E+00 -0.64402782104E+03  0.64402782104E+03  0.00000000000E+00 0.  1.
         23    2    1    2    0    0  0.38678011638E+02  0.86138373173E+02 -0.19239925982E+03  0.23141665780E+03  0.87294824634E+02 0.  0.
         24    2    1    2    0    0  0.29881160538E+03 -0.19178821253E+02  0.16892673790E+02  0.31001336591E+03  0.78528478416E+02 0.  0.
        -13    1    4    4    0    0  0.29827125088E+03 -0.13321631455E+02  0.25425900299E+02  0.29964926392E+03  0.00000000000E+00 0.  1.
         14    1    4    4    0    0  0.54035449975E+00 -0.58571897974E+01 -0.85332265091E+01  0.10364101985E+02  0.00000000000E+00 0. -1.
        -11    1    3    3    0    0  0.60771003881E+02  0.77839409741E+02 -0.12079899636E+03  0.15602719680E+03  0.00000000000E+00 0.  1.
         11    1    3    3    0    0 -0.22092992243E+02  0.82989634321E+01 -0.71600263468E+02  0.75389460994E+02  0.00000000000E+00 0. -1.
         21    1    1    2  503  502  0.19381042719E+02 -0.76222078522E+01  0.17009921836E+03  0.17136938746E+03  0.00000000000E+00 0.  1.
         -2    1    1    2    0  503 -0.35687065973E+03 -0.59337344068E+02 -0.17008908087E+03  0.39975978238E+03  0.00000000000E+00 0.  1.
<scales pt_clust_5="13000.00000" pt_clust_6="13000.00000" pt_clust_7="13000.00000" pt_clust_8="13000.00000" pt_clust_9="20.82601" pt_clust_10="324.09706"></scales>
<clustering>
<clus scale="   20.826">  1  9  2 -1</clus>
<clus scale="   78.528">  5  6 -1 -1</clus>
<clus scale="   87.295">  7  8 -1 -1</clus>
<clus scale="  128.648">  2  7  1 -1</clus>
<clus scale="  324.097">  1 10  2 -1</clus>
<clus scale="   20.826">  1  5  2 -1</clus>
</clustering>
</event>
<event>
10    4  0.3403565E-005  0.1585782E+03  0.7546771E-02  0.1214945E+00
         21   -1    0    0  501  502  0.00000000000E+00  0.00000000000E+00  0.10825829762E+03  0.10825829762E+03  0.00000000000E+00 0. -1.
          4   -1    0    0  503    0 -0.00000000000E+00 -0.00000000000E+00 -0.60171275551E+03  0.60171275551E+03  0.00000000000E+00 0. -1.
         24    2    1    2    0    0  0.21720950570E+02 -0.23460377071E+02 -0.99597424136E+02  0.13195708666E+03  0.80441511915E+02 0.  0.
         23    2    1    2    0    0 -0.33076083491E+02  0.16684014067E+03 -0.31722144560E+03  0.37060566813E+03  0.88257894037E+02 0.  0.
        -13    1    3    3    0    0  0.35549712945E+02 -0.11847068746E+02 -0.10628741059E+03  0.11269937346E+03  0.00000000000E+00 0.  1.
         14    1    3    3    0    0 -0.13828762375E+02 -0.11613308325E+02  0.66899864510E+01  0.19257713203E+02  0.00000000000E+00 0. -1.
        -13    1    4    4    0    0  0.10040847971E+02  0.13427468829E+03 -0.19498286783E+03  0.23695744194E+03  0.00000000000E+00 0. -1.
         13    1    4    4    0    0 -0.43116931462E+02  0.32565452384E+02 -0.12223857777E+03  0.13364822619E+03  0.00000000000E+00 0.  1.
         21    1    1    2  503  502  0.56587403768E+02 -0.38202874141E+02  0.23483612874E+01  0.68316240079E+02  0.00000000000E+00 0. -1.
          3    1    1    2  501    0 -0.45232270847E+02 -0.10517688946E+03 -0.78983949443E+02  0.13909205826E+03  0.00000000000E+00 0. -1.
<scales pt_clust_5="13000.00000" pt_clust_6="13000.00000" pt_clust_7="13000.00000" pt_clust_8="13000.00000" pt_clust_9="68.27587" pt_clust_10="131.74820"></scales>
<clustering>
<clus scale="   68.276">  1  9  2 -1</clus>
<clus scale="   80.442">  5  6 -1 -1</clus>
<clus scale="   88.258">  7  8 -1 -1</clus>
<clus scale="   93.089">  2  5  1 -1</clus>
<clus scale="  131.748">  1 10  2 -1</clus>
<clus scale="   68.276">  1  5  2 -1</clus>
</clustering>
</event>
<event>
10    4  0.3403565E-005  0.1506737E+03  0.7546771E-02  0.1218023E+00
         -1   -1    0    0    0  501 -0.00000000000E+00  0.00000000000E+00  0.38725580618E+03  0.38725580618E+03  0.00000000000E+00 0.  1.
         21   -1    0    0  501  502  0.00000000000E+00 -0.00000000000E+00 -0.25141258227E+03  0.25141258227E+03  0.00000000000E+00 0.  1.
         23    2    1    2    0    0 -0.43702108004E+02  0.28964710037E+02  0.27413311304E+03  0.29256681684E+03  0.87735682472E+02 0.  0.
         24    2    1    2    0    0 -0.10587988399E+03  0.41703129958E+02 -0.44175762636E+02  0.14687313659E+03  0.81673247538E+02 0.  0.
        -13    1    4    4    0    0 -0.93221472507E+02  0.64548688269E+02 -0.40954077860E+02  0.12055709264E+03  0.00000000000E+00 0.  1.
         14    1    4    4    0    0 -0.12658411486E+02 -0.22845558311E+02 -0.32216847759E+01  0.26316043941E+02  0.00000000000E+00 0. -1.
        -11    1    3    3    0    0 -0.37512050722E+02  0.53875933388E+02  0.12450076587E+03  0.14074875079E+03  0.00000000000E+00 0.  1.
         11    1    3    3    0    0 -0.61900572817E+01 -0.24911223351E+02  0.14963234717E+03  0.15181806605E+03  0.00000000000E+00 0. -1.
         21    1    1    2  503  502  0.16863033148E+02 -0.16213614629E+02 -0.39143600974E+02  0.45601147831E+02  0.00000000000E+00 0.  1.
         -2    1    1    2    0  503  0.13271895885E+03 -0.54454225366E+02 -0.54970525518E+02  0.15362728720E+03  0.00000000000E+00 0.  1.
<scales pt_clust_5="13000.00000" pt_clust_6="13000.00000" pt_clust_7="13000.00000" pt_clust_8="13000.00000" pt_clust_9="23.39323" pt_clust_10="126.61772"></scales>
<clustering>
<clus scale="   23.393">  2  9  1 -1</clus>
<clus scale="   81.673">  5  6 -1 -1</clus>
<clus scale="   87.736">  7  8 -1 -1</clus>
<clus scale="  101.691">  1  7  2 -1</clus>
<clus scale="  126.618">  2 10  1 -1</clus>
<clus scale="   23.393">  2  5  1 -1</clus>
</clustering>
</event>
<event>
10    4  0.3403565E-005  0.1244535E+03  0.7546771E-02  0.1238454E+00
         -1   -1    0    0    0  501 -0.00000000000E+00  0.00000000000E+00  0.97021271402E+03  0.97021271402E+03  0.00000000000E+00 0.  1.
         21   -1    0    0  501  502  0.00000000000E+00 -0.00000000000E+00 -0.20026375434E+03  0.20026375434E+03  0.00000000000E+00 0.  1.
         24    2    1    2    0    0 -0.25987996523E+02  0.73378428774E+02  0.44248136522E+03  0.45678716266E+03  0.82492324662E+02 0.  0.
         23    2    1    2    0    0 -0.11075717683E+02 -0.21231568710E+03 -0.81308203708E+01  0.23149476950E+03  0.91231001073E+02 0.  0.
        -13    1    3    3    0    0 -0.55431950184E+02  0.57658494581E+02  0.30516902541E+03  0.31547636547E+03  0.00000000000E+00 0.  1.
         14    1    3    3    0    0  0.29443953661E+02  0.15719934193E+02  0.13731233981E+03  0.14131079719E+03  0.00000000000E+00 0. -1.
        -11    1    4    4    0    0  0.26089586901E+02 -0.17973587156E+03 -0.11290728314E+02  0.18197013661E+03  0.00000000000E+00 0.  1.
         11    1    4    4    0    0 -0.37165304584E+02 -0.32579815536E+02  0.31599079436E+01  0.49524632895E+02  0.00000000000E+00 0. -1.
         21    1    1    2  503  502  0.18668086321E+02  0.32835606295E+02 -0.60718686994E+02  0.71508275311E+02  0.00000000000E+00 0.  1.
         -2    1    1    2    0  503  0.18395627885E+02  0.10610165203E+03  0.39631710183E+03  0.41068626089E+03  0.00000000000E+00 0.  1.
<scales pt_clust_5="13000.00000" pt_clust_6="13000.00000" pt_clust_7="13000.00000" pt_clust_8="13000.00000" pt_clust_9="37.77134" pt_clust_10="109.59023"></scales>
<clustering>
<clus scale="   37.771">  2  9  1 -1</clus>
<clus scale="   82.492">  5  6 -1 -1</clus>
<clus scale="   91.231">  7  8 -1 -1</clus>
<clus scale="  109.590">  2 10  1 -1</clus>
<clus scale="  118.197">  1  5  2 -1</clus>
<clus scale="   37.771">  2  5  1 -1</clus>
</clustering>
</event>
<event>
10    4  0.3403565E-005  0.1822510E+03  0.7546771E-02  0.1195093E+00
         21   -1    0    0  501  502  0.00000000000E+00  0.00000000000E+00  0.13292489732E+03  0.13292489732E+03  0.00000000000E+00 0. -1.
          2   -1    0    0  503    0 -0.00000000000E+00 -0.00000000000E+00 -0.86769252868E+03  0.86769252868E+03  0.00000000000E+00 0. -1.
         23    2    1    2    0    0  0.42098882123E+01  0.16569490462E+02 -0.39865824905E+03  0.40966688997E+03  0.92770092326E+02 0.  0.
         24    2    1    2    0    0 -0.12757280248E+03 -0.84711717816E+02 -0.23032601136E+03  0.28816666902E+03  0.80864470321E+02 0.  0.
        -13    1    4    4    0    0 -0.92917744573E+02 -0.15645898606E+02 -0.14623860010E+03  0.17396617360E+03  0.00000000000E+00 0.  1.
         14    1    4    4    0    0 -0.34655057905E+02 -0.69065819210E+02 -0.84087411259E+02  0.11420049542E+03  0.00000000000E+00 0. -1.
        -11    1    3    3    0    0 -0.43802033666E+02  0.16594486925E+01 -0.17164873222E+03  0.17715715960E+03  0.00000000000E+00 0.  1.
         11    1    3    3    0    0  0.48011921878E+02  0.14910041770E+02 -0.22700951683E+03  0.23250973037E+03  0.00000000000E+00 0. -1.
         21    1    1    2  503  502  0.18590646921E+03  0.94548532571E+02 -0.48924928821E+02  0.21422952403E+03  0.00000000000E+00 0. -1.
          1    1    1    2  501    0 -0.62543554941E+02 -0.26406305218E+02 -0.56858442135E+02  0.88554342987E+02  0.00000000000E+00 0. -1.
<scales pt_clust_5="13000.00000" pt_clust_6="13000.00000" pt_clust_7="13000.00000" pt_clust_8="13000.00000" pt_clust_9="163.32898" pt_clust_10="67.88954"></scales>
<clustering>
<clus scale="   67.890">  1 10  2 -1</clus>
<clus scale="   80.864">  5  6 -1 -1</clus>
<clus scale="   92.770">  7  8 -1 -1</clus>
<clus scale="   94.036">  2  7  1 -1</clus>
<clus scale="  163.329">  1  9  2 -1</clus>
<clus scale="   67.890">  1  5  2 -1</clus>
</clustering>
</event>
<event>
10    4  0.3403565E-005  0.1240197E+03  0.7546771E-02  0.1239808E+00
         21   -1    0    0  501  502  0.00000000000E+00  0.00000000000E+00  0.23905265811E+03  0.23905265811E+03  0.00000000000E+00 0. -1.
          2   -1    0    0  503    0 -0.00000000000E+00 -0.00000000000E+00 -0.66676364344E+03  0.66676364344E+03  0.00000000000E+00 0. -1.
         24    2    1    2    0    0 -0.78992380386E+02  0.36559419048E+02 -0.50406605515E+03  0.51775418206E+03  0.80065084788E+02 0.  0.
         23    2    1    2    0    0 -0.61889361691E+00 -0.11376775401E+03  0.75687699703E+01  0.14591237473E+03  0.91047514729E+02 0.  0.
        -11    1    3    3    0    0 -0.84305304880E+02  0.37061033508E+01 -0.33692710472E+03  0.34733412376E+03  0.00000000000E+00 0.  1.
         12    1    3    3    0    0  0.53129244935E+01  0.32853315697E+02 -0.16713895043E+03  0.17042005830E+03  0.00000000000E+00 0. -1.
        -11    1    4    4    0    0 -0.16769603722E+02 -0.99481320557E+02 -0.27660429238E+02  0.10460808809E+03  0.00000000000E+00 0.  1.
         11    1    4    4    0    0  0.16150710105E+02 -0.14286433454E+02  0.35229199208E+02  0.41304286637E+02  0.00000000000E+00 0. -1.
         21    1    1    2  503  502  0.14058621231E+03  0.18331147586E+02  0.16928742966E+02  0.14278338979E+03  0.00000000000E+00 0. -1.
          1    1    1    2  501    0 -0.60974938302E+02  0.58877187376E+02  0.51857556888E+02  0.99366354973E+02  0.00000000000E+00 0. -1.
<scales pt_clust_5="13000.00000" pt_clust_6="13000.00000" pt_clust_7="13000.00000" pt_clust_8="13000.00000" pt_clust_9="120.38938" pt_clust_10="84.76123"></scales>
<clustering>
<clus scale="   80.065">  5  6 -1 -1</clus>
<clus scale="   84.761">  1 10  2 -1</clus>
<clus scale="   91.048">  7  8 -1 -1</clus>
<clus scale="  120.389">  1  9  2 -1</clus>
<clus scale="  116.197">  2  5  1 -1</clus>
<clus scale="   84.761">  1  5  2 -1</clus>
</clustering>
</event>
<event>
10    4  0.3403565E-005  0.1210851E+03  0.7546771E-02  0.1263876E+00
         21   -1    0    0  503  502  0.00000000000E+00  0.00000000000E+00  0.76258334713E+02  0.76258334713E+02  0.00000000000E+00 0. -1.
          2   -1    0    0  502    0 -0.00000000000E+00 -0.00000000000E+00 -0.74590206602E+03  0.74590206602E+03  0.00000000000E+00 0. -1.
         24    2    1    2    0    0  0.38243383059E+01 -0.95440851123E+01 -0.51222796143E+03  0.51804249151E+03  0.76712602715E+02 0.  0.
         23    2    1    2    0    0  0.38154128594E+02 -0.78165937866E+02 -0.72806684844E+02  0.14475858583E+03  0.89936552320E+02 0.  0.
        -13    1    3    3    0    0 -0.20839110045E+02  0.24850678487E+02 -0.15793745975E+03  0.16123295544E+03  0.00000000000E+00 0.  1.
         14    1    3    3    0    0  0.24663448351E+02 -0.34394763599E+02 -0.35429050168E+03  0.35680953606E+03  0.00000000000E+00 0. -1.
        -13    1    4    4    0    0 -0.13584622805E+02 -0.43506204462E+02 -0.68574865658E+02  0.82339808133E+02  0.00000000000E+00 0. -1.
         13    1    4    4    0    0  0.51738751399E+02 -0.34659733404E+02 -0.42318191859E+01  0.62418777700E+02  0.00000000000E+00 0.  1.
         21    1    1    2  503  501 -0.27884060367E+02  0.60209483569E+01  0.12957835685E+02  0.31331743445E+02  0.00000000000E+00 0. -1.
          1    1    1    2  501    0 -0.14094406533E+02  0.81689074622E+02 -0.97566920721E+02  0.12802757995E+03  0.00000000000E+00 0. -1.
<scales pt_clust_5="13000.00000" pt_clust_6="13000.00000" pt_clust_7="13000.00000" pt_clust_8="13000.00000" pt_clust_9="28.52670" pt_clust_10="81.07412"></scales>
<clustering>
<clus scale="   28.527">  1  9  2 -1</clus>
<clus scale="   76.713">  5  6 -1 -1</clus>
<clus scale="   77.300">  2  5  1 -1</clus>
<clus scale="   81.074">  1 10  2 -1</clus>
<clus scale="   89.937">  7  8 -1 -1</clus>
<clus scale="   28.527">  1  5  2 -1</clus>
</clustering>
</event>
<event>
10    4  0.3403565E-005  0.2606808E+03  0.7546771E-02  0.1107367E+00
         21   -1    0    0  503  502  0.00000000000E+00  0.00000000000E+00  0.31967127874E+03  0.31967127874E+03  0.00000000000E+00 0. -1.
          2   -1    0    0  502    0 -0.00000000000E+00 -0.00000000000E+00 -0.73877007537E+03  0.73877007537E+03  0.00000000000E+00 0. -1.
         23    2    1    2    0    0 -0.78764754795E+02  0.23741858332E+03 -0.37827166884E+03  0.46278083107E+03  0.92223488664E+02 0.  0.
         24    2    1    2    0    0  0.23527728007E+03 -0.14239241673E+03 -0.10744507245E+03  0.30580231194E+03  0.79621677539E+02 0.  0.
        -13    1    4    4    0    0  0.12093487400E+03 -0.11318798114E+03 -0.83048640171E+02  0.18529392720E+03  0.00000000000E+00 0.  1.
         14    1    4    4    0    0  0.11434240607E+03 -0.29204435589E+02 -0.24396432280E+02  0.12050838474E+03  0.00000000000E+00 0. -1.
        -11    1    3    3    0    0 -0.37294489027E+02  0.18338771133E+02 -0.40337497470E+02  0.57916346057E+02  0.00000000000E+00 0.  1.
         11    1    3    3    0    0 -0.41470265768E+02  0.21907981218E+03 -0.33793417137E+03  0.40486448502E+03  0.00000000000E+00 0. -1.
         21    1    1    2  503  501  0.27069665118E+00  0.26368045067E+02  0.86639453436E+02  0.90563469286E+02  0.00000000000E+00 0. -1.
          1    1    1    2  501    0 -0.15678322193E+03 -0.12139421166E+03 -0.20021508778E+02  0.19929474182E+03  0.00000000000E+00 0. -1.
<scales pt_clust_5="13000.00000" pt_clust_6="13000.00000" pt_clust_7="13000.00000" pt_clust_8="13000.00000" pt_clust_9="26.36943" pt_clust_10="192.10891"></scales>
<clustering>
<clus scale="   26.369">  1  9  2 -1</clus>
<clus scale="   79.622">  5  6 -1 -1</clus>
<clus scale="   92.223">  7  8 -1 -1</clus>
<clus scale="  192.109">  1 10  2 -1</clus>
<clus scale="  256.494">  1  5  2 -1</clus>
<clus scale="   26.369">  1  5  2 -1</clus>
</clustering>
</event>
<event>
10    4  0.3403565E-005  0.2469913E+03  0.7546771E-02  0.1117365E+00
         21   -1    0    0  503  502  0.00000000000E+00  0.00000000000E+00  0.14491522230E+03  0.14491522230E+03  0.00000000000E+00 0. -1.
         -1   -1    0    0    0  501 -0.00000000000E+00 -0.00000000000E+00 -0.60343876898E+03  0.60343876898E+03  0.00000000000E+00 0.  1.
         23    2    1    2    0    0 -0.17207901762E+03  0.14529329875E+03 -0.36748561225E+03  0.44542487091E+03  0.11241134036E+03 0.  0.
         24    2    1    2    0    0  0.14612129028E+03 -0.15019226316E+03 -0.72287202669E+02  0.23564248260E+03  0.79954940760E+02 0.  0.
        -13    1    4    4    0    0  0.11570948158E+03 -0.13656492121E+03 -0.29499454275E+02  0.18140804733E+03  0.00000000000E+00 0.  1.
         14    1    4    4    0    0  0.30411808704E+02 -0.13627341946E+02 -0.42787748393E+02  0.54234435276E+02  0.00000000000E+00 0. -1.
        -13    1    3    3    0    0 -0.10173067030E+03  0.13913885462E+02 -0.15103620112E+03  0.18263258071E+03  0.00000000000E+00 0.  1.
         13    1    3    3    0    0 -0.70348347327E+02  0.13137941329E+03 -0.21644941113E+03  0.26279229020E+03  0.00000000000E+00 0. -1.
         21    1    1    2  503  501  0.30120364015E+02  0.27447052730E+02 -0.64218133061E+01  0.41253081317E+02  0.00000000000E+00 0.  1.
         -2    1    1    2    0  502 -0.41626366711E+01 -0.22548088322E+02 -0.12328918463E+02  0.26033556452E+02  0.00000000000E+00 0.  1.
<scales pt_clust_5="13000.00000" pt_clust_6="13000.00000" pt_clust_7="13000.00000" pt_clust_8="13000.00000" pt_clust_9="38.48606" pt_clust_10="22.92910"></scales>
<clustering>
<clus scale="   22.929">  1 10  2 -1</clus>
<clus scale="   38.486">  1  9  2 -1</clus>
<clus scale="   79.955">  5  6 -1 -1</clus>
<clus scale="  112.411">  7  8 -1 -1</clus>
<clus scale="  234.011">  1  5  2 -1</clus>
<clus scale="   22.929">  1  5  2 -1</clus>
</clustering>
</event>
<event>
10    4  0.3403565E-005  0.1096815E+03  0.7546771E-02  0.1268420E+00
          2   -1    0    0  503    0 -0.00000000000E+00  0.00000000000E+00  0.24072048966E+03  0.24072048966E+03  0.00000000000E+00 0. -1.
         21   -1    0    0  501  502  0.00000000000E+00 -0.00000000000E+00 -0.25257368810E+03  0.25257368810E+03  0.00000000000E+00 0.  1.
         23    2    1    2    0    0  0.79998817380E+01  0.41942407131E+02  0.18111686323E+02  0.11016404277E+03  0.99924569122E+02 0.  0.
         24    2    1    2    0    0 -0.98823527269E+01 -0.53584787304E+02 -0.15414363895E+03  0.18370528766E+03  0.83775777880E+02 0.  0.
        -11    1    4    4    0    0 -0.37906464809E+02 -0.44279323186E+02 -0.13855051462E+03  0.15031235358E+03  0.00000000000E+00 0.  1.
         12    1    4    4    0    0  0.28024112082E+02 -0.93054641179E+01 -0.15593124335E+02  0.33392934088E+02  0.00000000000E+00 0. -1.
        -13    1    3    3    0    0  0.31373503074E+02  0.61584323977E+02 -0.85349442620E+01  0.69640296728E+02  0.00000000000E+00 0. -1.
         13    1    3    3    0    0 -0.23373621336E+02 -0.19641916846E+02  0.26646630585E+02  0.40523746042E+02  0.00000000000E+00 0.  1.
         21    1    1    2  503  502 -0.18531506151E+02  0.29087427877E+02 -0.28291324137E+02  0.44608230207E+02  0.00000000000E+00 0.  1.
          1    1    1    2  501    0  0.20413977140E+02 -0.17445047704E+02  0.15247007832E+03  0.15481661712E+03  0.00000000000E+00 0. -1.
<scales pt_clust_5="13000.00000" pt_clust_6="13000.00000" pt_clust_7="13000.00000" pt_clust_8="13000.00000" pt_clust_9="30.78658" pt_clust_10="26.85258"></scales>
<clustering>
<clus scale="   26.853">  2 10  1 -1</clus>
<clus scale="   30.787">  2  9  1 -1</clus>
<clus scale="   83.776">  5  6 -1 -1</clus>
<clus scale="   95.202">  2  5  1 -1</clus>
<clus scale="   99.925">  7  8 -1 -1</clus>
<clus scale="   26.853">  2  5  1 -1</clus>
</clustering>
</event>
<event>
10    4  0.3403565E-005  0.3424274E+03  0.7546771E-02  0.1104418E+00
         -3   -1    0    0    0  501 -0.00000000000E+00  0.00000000000E+00  0.18063171779E+04  0.18063171779E+04  0.00000000000E+00 0.  1.
         21   -1    0    0  501  502  0.00000000000E+00 -0.00000000000E+00 -0.12340067876E+03  0.12340067876E+03  0.00000000000E+00 0.  1.
         24    2    1    2    0    0 -0.81929962794E+02  0.54608149399E+02  0.96743132642E+02  0.15998030744E+03  0.80869625137E+02 0.  0.
         23    2    1    2    0    0 -0.27060836414E+03  0.66788339090E+02  0.71110795159E+03  0.77166637682E+03  0.11002231283E+03 0.  0.
        -11    1    3    3    0    0 -0.75993747841E+02  0.38528406520E+02  0.28846249464E+02  0.89953287478E+02  0.00000000000E+00 0.  1.
         12    1    3    3    0    0 -0.59362149535E+01  0.16079742879E+02  0.67896883178E+02  0.70027019959E+02  0.00000000000E+00 0. -1.
        -11    1    4    4    0    0 -0.88003314360E+02  0.36167982989E+01  0.11392564694E+03  0.14400249164E+03  0.00000000000E+00 0. -1.
         11    1    4    4    0    0 -0.18260504978E+03  0.63171540791E+02  0.59718230465E+03  0.62766388518E+03  0.00000000000E+00 0.  1.
         21    1    1    2  503  502 -0.20726088805E+02 -0.10163933827E+03  0.15069066417E+03  0.18294207310E+03  0.00000000000E+00 0. -1.
         -4    1    1    2    0  503  0.37326441574E+03 -0.19757150216E+02  0.72437475073E+03  0.81512909931E+03  0.00000000000E+00 0.  1.
<scales pt_clust_5="13000.00000" pt_clust_6="13000.00000" pt_clust_7="13000.00000" pt_clust_8="13000.00000" pt_clust_9="103.73103" pt_clust_10="324.27111"></scales>
<clustering>
<clus scale="   80.870">  5  6 -1 -1</clus>
<clus scale="  103.731">  2  9  1 -1</clus>
<clus scale="  110.022">  7  8 -1 -1</clus>
<clus scale="  122.059">  1  5  2 -1</clus>
<clus scale="  324.271">  2 10  1 -1</clus>
<clus scale="  103.731">  2  5  1 -1</clus>
</clustering>
</event>
<event>
10    4  0.3403565E-005  0.1182245E+03  0.7546771E-02  0.1260381E+00
         21   -1    0    0  501  502  0.00000000000E+00  0.00000000000E+00  0.36834264845E+03  0.36834264845E+03  0.00000000000E+00 0. -1.
          2   -1    0    0  503    0 -0.00000000000E+00 -0.00000000000E+00 -0.18050444954E+03  0.18050444954E+03  0.00000000000E+00 0. -1.
         23    2    1    2    0    0 -0.62948178310E+01  0.94926626532E+01 -0.73070592657E+02  0.11537851882E+03  0.88561592790E+02 0.  0.
         24    2    1    2    0    0 -0.11089142568E+02  0.88393017833E+02  0.47724011613E+02  0.12963155665E+03  0.81181675950E+02 0.  0.
        -11    1    4    4    0    0 -0.23704349759E+02  0.29890804585E+02 -0.16748382863E+02  0.41663709926E+02  0.00000000000E+00 0.  1.
         12    1    4    4    0    0  0.12615207191E+02  0.58502213247E+02  0.64472394477E+02  0.87967846722E+02  0.00000000000E+00 0. -1.
        -13    1    3    3    0    0 -0.38989670556E+02  0.29015478564E+01 -0.72092189314E+02  0.82011567173E+02  0.00000000000E+00 0. -1.
         13    1    3    3    0    0  0.32694852725E+02  0.65911147968E+01 -0.97840334220E+00  0.33366951644E+02  0.00000000000E+00 0.  1.
         21    1    1    2  503  502  0.34360051594E+02 -0.11271788655E+02  0.21251800714E+03  0.21557265533E+03  0.00000000000E+00 0. -1.
          1    1    1    2  501    0 -0.16976091195E+02 -0.86613891831E+02  0.66677281711E+00  0.88264367195E+02  0.00000000000E+00 0. -1.
<scales pt_clust_5="13000.00000" pt_clust_6="13000.00000" pt_clust_7="13000.00000" pt_clust_8="13000.00000" pt_clust_9="36.16167" pt_clust_10="85.94519"></scales>
<clustering>
<clus scale="   36.162">  1  9  2 -1</clus>
<clus scale="   81.182">  5  6 -1 -1</clus>
<clus scale="   88.562">  7  8 -1 -1</clus>
<clus scale="   88.932">  2  7  1 -1</clus>
<clus scale="   85.945">  1 10  2 -1</clus>
<clus scale="   36.162">  1  5  2 -1</clus>
</clustering>
</event>
<event>
10    4  0.3403565E-005  0.9962986E+02  0.7546771E-02  0.1285978E+00
          2   -1    0    0  503    0 -0.00000000000E+00  0.00000000000E+00  0.52562151225E+02  0.52562151225E+02  0.00000000000E+00 0. -1.
         21   -1    0    0  501  502  0.00000000000E+00 -0.00000000000E+00 -0.55456181915E+03  0.55456181915E+03  0.00000000000E+00 0.  1.
         24    2    1    2    0    0  0.49664020396E+02  0.35660965358E+02 -0.21189742391E+03  0.23509568836E+03  0.81432457004E+02 0.  0.
         23    2    1    2    0    0  0.80953042715E+01 -0.31770636769E+02 -0.22969109899E+03  0.24928867613E+03  0.91169818370E+02 0.  0.
        -13    1    3    3    0    0  0.67263956782E+02  0.37912932562E+02 -0.19811058830E+03  0.21262557592E+03  0.00000000000E+00 0.  1.
         14    1    3    3    0    0 -0.17599936386E+02 -0.22519672046E+01 -0.13786835609E+02  0.22470112442E+02  0.00000000000E+00 0. -1.
        -11    1    4    4    0    0  0.44509189945E+02 -0.23351009247E+02 -0.18133825723E+03  0.18817518741E+03  0.00000000000E+00 0.  1.
         11    1    4    4    0    0 -0.36413885673E+02 -0.84196275217E+01 -0.48352841755E+02  0.61113488718E+02  0.00000000000E+00 0. -1.
         21    1    1    2  503  502 -0.39010246857E+02  0.12886732494E+02 -0.80609722170E+02  0.90475380865E+02  0.00000000000E+00 0.  1.
          1    1    1    2  501    0 -0.18749077810E+02 -0.16777061083E+02  0.20198577143E+02  0.32264225017E+02  0.00000000000E+00 0. -1.
<scales pt_clust_5="13000.00000" pt_clust_6="13000.00000" pt_clust_7="13000.00000" pt_clust_8="13000.00000" pt_clust_9="43.17352" pt_clust_10="25.15946"></scales>
<clustering>
<clus scale="   25.159">  2 10  1 -1</clus>
<clus scale="   43.174">  1  9  2 -1</clus>
<clus scale="   81.432">  5  6 -1 -1</clus>
<clus scale="   90.804">  1  5  2 -1</clus>
<clus scale="   91.170">  7  8 -1 -1</clus>
<clus scale="   25.159">  2  5  1 -1</clus>
</clustering>
</event>
<event>
10    4  0.3403565E-005  0.1047383E+03  0.7546771E-02  0.1284385E+00
         -1   -1    0    0    0  501 -0.00000000000E+00  0.00000000000E+00  0.26775987771E+03  0.26775987771E+03  0.00000000000E+00 0.  1.
         21   -1    0    0  501  502  0.00000000000E+00 -0.00000000000E+00 -0.11372355455E+03  0.11372355455E+03  0.00000000000E+00 0.  1.
         23    2    1    2    0    0 -0.68580429131E+00 -0.16442008657E+02  0.61352075620E+02  0.11569223208E+03  0.96694391795E+02 0.  0.
         24    2    1    2    0    0 -0.81613908426E+02 -0.12277594926E+02  0.78523077551E+02  0.13358085755E+03  0.69759604435E+02 0.  0.
        -13    1    4    4    0    0 -0.20967754441E+02 -0.36394131351E+02  0.38779974027E+02  0.57167000171E+02  0.00000000000E+00 0.  1.
         14    1    4    4    0    0 -0.60646153986E+02  0.24116536424E+02  0.39743103524E+02  0.76413857382E+02  0.00000000000E+00 0. -1.
        -13    1    3    3    0    0 -0.46741758947E+02  0.43820396439E+01  0.35904821484E+02  0.59102880697E+02  0.00000000000E+00 0.  1.
         13    1    3    3    0    0  0.46055954656E+02 -0.20824048301E+02  0.25447254136E+02  0.56589351383E+02  0.00000000000E+00 0. -1.
         21    1    1    2  503  502  0.22899891710E+02 -0.26003928809E+02 -0.24729515614E+02  0.42569452620E+02  0.00000000000E+00 0.  1.
         -2    1    1    2    0  503  0.59399821007E+02  0.54723532392E+02  0.38890685603E+02  0.89640889999E+02  0.00000000000E+00 0.  1.
<scales pt_clust_5="13000.00000" pt_clust_6="13000.00000" pt_clust_7="13000.00000" pt_clust_8="13000.00000" pt_clust_9="34.64981" pt_clust_10="81.26367"></scales>
<clustering>
<clus scale="   34.650">  2  9  1 -1</clus>
<clus scale="   69.760">  5  6 -1 -1</clus>
<clus scale="   81.264">  2 10  1 -1</clus>
<clus scale="   80.540">  2  5  1 -1</clus>
<clus scale="   96.694">  7  8 -1 -1</clus>
<clus scale="   34.650">  2  5  1 -1</clus>
</clustering>
</event>
<event>
10    4  0.3403565E-005  0.1556577E+03  0.7546771E-02  0.1210289E+00
         -1   -1    0    0    0  501 -0.00000000000E+00  0.00000000000E+00  0.41223620408E+03  0.41223620408E+03  0.00000000000E+00 0.  1.
         21   -1    0    0  501  502  0.00000000000E+00 -0.00000000000E+00 -0.16319614693E+03  0.16319614693E+03  0.00000000000E+00 0.  1.
         23    2    1    2    0    0  0.44110867027E+02 -0.35371957135E+02  0.14008860550E+03  0.17657926382E+03  0.91424696218E+02 0.  0.
         24    2    1    2    0    0 -0.81772526342E+02 -0.11553612489E+03  0.25485190529E+02  0.16476373431E+03  0.80388127149E+02 0.  0.
        -13    1    4    4    0    0 -0.89784100578E+02 -0.10457380090E+03  0.22444530258E+01  0.13784738707E+03  0.00000000000E+00 0.  1.
         14    1    4    4    0    0  0.80115742353E+01 -0.10962323989E+02  0.23240737503E+02  0.26916347238E+02  0.00000000000E+00 0. -1.
        -11    1    3    3    0    0  0.35226045658E+02  0.70872697634E+01  0.70102903102E+01  0.36609395729E+02  0.00000000000E+00 0.  1.
         11    1    3    3    0    0  0.88848213686E+01 -0.42459226898E+02  0.13307831519E+03  0.13996986809E+03  0.00000000000E+00 0. -1.
         21    1    1    2  503  502  0.24178935072E+02  0.77004033860E+01 -0.38087406125E+02  0.45766446430E+02  0.00000000000E+00 0.  1.
         -2    1    1    2    0  503  0.13482724243E+02  0.14320767864E+03  0.12155366725E+03  0.18832290646E+03  0.00000000000E+00 0.  1.
<scales pt_clust_5="13000.00000" pt_clust_6="13000.00000" pt_clust_7="13000.00000" pt_clust_8="13000.00000" pt_clust_9="25.37552" pt_clust_10="133.29325"></scales>
<clustering>
<clus scale="   25.376">  2  9  1 -1</clus>
<clus scale="   80.388">  5  6 -1 -1</clus>
<clus scale="   91.425">  7  8 -1 -1</clus>
<clus scale="  108.669">  1  7  2 -1</clus>
<clus scale="  133.293">  2 10  1 -1</clus>
<clus scale="   25.376">  2  5  1 -1</clus>
</clustering>
</event>
<event>
10    4  0.3403565E-005  0.1104937E+03  0.7546771E-02  0.1281999E+00
         21   -1    0    0  501  502  0.00000000000E+00  0.00000000000E+00  0.82013088629E+02  0.82013088629E+02  0.00000000000E+00 0. -1.
          2   -1    0    0  503    0 -0.00000000000E+00 -0.00000000000E+00 -0.34094579039E+03  0.34094579039E+03  0.00000000000E+00 0. -1.
         24    2    1    2    0    0 -0.39447937758E+02  0.22680372247E+02 -0.11412584657E+03  0.13749172776E+03  0.61714886931E+02 0.  0.
         23    2    1    2    0    0 -0.50848145520E+02  0.48966691288E+02 -0.63000434454E+02  0.12997268623E+03  0.89109896561E+02 0.  0.
        -13    1    3    3    0    0 -0.17168688197E+02  0.37076633967E+02 -0.98661390807E+02  0.10678722150E+03  0.00000000000E+00 0.  1.
         14    1    3    3    0    0 -0.22279249561E+02 -0.14396261720E+02 -0.15464455766E+02  0.30704506259E+02  0.00000000000E+00 0. -1.
        -13    1    4    4    0    0 -0.24015847435E+02 -0.21329158267E+02 -0.44593664234E+00  0.32123087957E+02  0.00000000000E+00 0.  1.
         13    1    4    4    0    0 -0.26832298084E+02  0.70295849555E+02 -0.62554497811E+02  0.97849598270E+02  0.00000000000E+00 0. -1.
         21    1    1    2  503  502  0.48239486596E+02 -0.33322620910E+02 -0.35472456532E+01  0.58736939681E+02  0.00000000000E+00 0. -1.
          1    1    1    2  501    0  0.42056596681E+02 -0.38324442626E+02 -0.78259175079E+02  0.96757525345E+02  0.00000000000E+00 0. -1.
<scales pt_clust_5="13000.00000" pt_clust_6="13000.00000" pt_clust_7="13000.00000" pt_clust_8="13000.00000" pt_clust_9="65.33204" pt_clust_10="56.89924"></scales>
<clustering>
<clus scale="   56.899">  1 10  2 -1</clus>
<clus scale="   61.715">  5  6 -1 -1</clus>
<clus scale="   71.769">  2  5  1 -1</clus>
<clus scale="   65.332">  2  9  1 -1</clus>
<clus scale="   89.110">  7  8 -1 -1</clus>
<clus scale="   56.899">  1  5  2 -1</clus>
</clustering>
</event>
<event>
10    4  0.3403565E-005  0.3149272E+03  0.7546771E-02  0.1078178E+00
          2   -1    0    0  502    0 -0.00000000000E+00  0.00000000000E+00  0.58527556138E+03  0.58527556138E+03  0.00000000000E+00 0. -1.
         21   -1    0    0  503  502  0.00000000000E+00 -0.00000000000E+00 -0.36287140712E+03  0.36287140712E+03  0.00000000000E+00 0.  1.
         23    2    1    2    0    0 -0.13082700993E+03 -0.21058348449E+03 -0.58192351532E+02  0.26909938920E+03  0.86988625828E+02 0.  0.
         24    2    1    2    0    0  0.15250952081E+03  0.32751998536E+03  0.27632985841E+02  0.37141786209E+03  0.81603625065E+02 0.  0.
        -11    1    4    4    0    0  0.14291553923E+03  0.22377217605E+03  0.29962192473E+02  0.26720136808E+03  0.00000000000E+00 0.  1.
         12    1    4    4    0    0  0.95939815806E+01  0.10374780931E+03 -0.23292066320E+01  0.10421649401E+03  0.00000000000E+00 0. -1.
        -13    1    3    3    0    0  0.72769752158E+01 -0.50851914281E+02 -0.15643633473E+02  0.53699113797E+02  0.00000000000E+00 0. -1.
         13    1    3    3    0    0 -0.13810398515E+03 -0.15973157021E+03 -0.42548718059E+02  0.21540027541E+03  0.00000000000E+00 0.  1.
         21    1    1    2  503  501  0.52797547646E+01 -0.22414212216E+02 -0.11319923772E+02  0.25659567296E+02  0.00000000000E+00 0.  1.
          1    1    1    2  501    0 -0.26962265641E+02 -0.94522288651E+02  0.26428344372E+03  0.28197014991E+03  0.00000000000E+00 0. -1.
<scales pt_clust_5="13000.00000" pt_clust_6="13000.00000" pt_clust_7="13000.00000" pt_clust_8="13000.00000" pt_clust_9="23.02765" pt_clust_10="98.80933"></scales>
<clustering>
<clus scale="   23.028">  2  9  1 -1</clus>
<clus scale="   81.604">  5  6 -1 -1</clus>
<clus scale="   86.989">  7  8 -1 -1</clus>
<clus scale="   98.809">  2 10  1 -1</clus>
<clus scale="  313.483">  2  5  1 -1</clus>
<clus scale="   23.028">  2  5  1 -1</clus>
</clustering>
</event>
<event>
10    4  0.3403565E-005  0.1572458E+03  0.7546771E-02  0.1202821E+00
          2   -1    0    0  503    0 -0.00000000000E+00  0.00000000000E+00  0.26978935664E+03  0.26978935664E+03  0.00000000000E+00 0. -1.
         21   -1    0    0  501  502  0.00000000000E+00 -0.00000000000E+00 -0.78498103803E+03  0.78498103803E+03  0.00000000000E+00 0. -1.
         24    2    1    2    0    0  0.35023076353E+02 -0.84421586101E+02  0.12180199979E+02  0.12297658434E+03  0.81371143206E+02 0.  0.
         23    2    1    2    0    0  0.83525798789E+02 -0.30099808838E+02  0.75161897925E+02  0.14787234438E+03  0.91292725771E+02 0.  0.
        -13    1    3    3    0    0 -0.34884410675E+01 -0.83114457257E+02  0.24052407113E+01  0.83222397281E+02  0.00000000000E+00 0.  1.
         14    1    3    3    0    0  0.38511517420E+02 -0.13071288437E+01  0.97749592673E+01  0.39754187056E+02  0.00000000000E+00 0. -1.
        -11    1    4    4    0    0  0.77158075302E+02  0.17510529151E+02  0.50669515236E+02  0.93954174946E+02  0.00000000000E+00 0.  1.
         11    1    4    4    0    0  0.63677234865E+01 -0.47610337989E+02  0.24492382689E+02  0.53918169438E+02  0.00000000000E+00 0. -1.
         21    1    1    2  503  502 -0.22914396747E+02  0.17550747492E+03 -0.64034767446E+03  0.66435915551E+03  0.00000000000E+00 0. -1.
          1    1    1    2  501    0 -0.95634478395E+02 -0.60986079979E+02  0.37813895165E+02  0.11956231044E+03  0.00000000000E+00 0. -1.
<scales pt_clust_5="13000.00000" pt_clust_6="13000.00000" pt_clust_7="13000.00000" pt_clust_8="13000.00000" pt_clust_9="128.03080" pt_clust_10="113.42517"></scales>
<clustering>
<clus scale="   81.371">  5  6 -1 -1</clus>
<clus scale="   91.293">  7  8 -1 -1</clus>
<clus scale="  113.425">  2 10  1 -1</clus>
<clus scale="  123.750">  1  5  2 -1</clus>
<clus scale="  128.031">  2  9  1 -1</clus>
<clus scale="  113.425">  2  5  1 -1</clus>
</clustering>
</event>
<event>
10    4  0.3403565E-005  0.2053552E+03  0.7546771E-02  0.1158094E+00
          2   -1    0    0  503    0 -0.00000000000E+00  0.00000000000E+00  0.75722050616E+03  0.75722050616E+03  0.00000000000E+00 0. -1.
         21   -1    0    0  501  502  0.00000000000E+00 -0.00000000000E+00 -0.15015870731E+03  0.15015870731E+03  0.00000000000E+00 0. -1.
         23    2    1    2    0    0  0.12538351806E+03  0.19074052302E+02  0.27383499689E+03  0.31507852749E+03  0.90576083433E+02 0.  0.
         24    2    1    2    0    0  0.13732785717E+03  0.69198293577E+02  0.10512220589E+03  0.20298363496E+03  0.80649449478E+02 0.  0.
        -13    1    4    4    0    0  0.11658190729E+03  0.17807300434E+02  0.76902300978E+02  0.14079206281E+03  0.00000000000E+00 0.  1.
         14    1    4    4    0    0  0.20745949885E+02  0.51390993143E+02  0.28219904910E+02  0.62191572146E+02  0.00000000000E+00 0. -1.
        -11    1    3    3    0    0  0.12489465662E+03  0.42867564457E+02  0.23280027835E+03  0.26764206122E+03  0.00000000000E+00 0.  1.
         11    1    3    3    0    0  0.48886143811E+00 -0.23793512155E+02  0.41034718540E+02  0.47436466267E+02  0.00000000000E+00 0. -1.
         21    1    1    2  503  502 -0.38656442325E+02  0.36468394944E+02  0.13257786891E+02  0.54772559520E+02  0.00000000000E+00 0. -1.
          1    1    1    2  501    0 -0.22405493291E+03 -0.12474074082E+03  0.21484680918E+03  0.33454449151E+03  0.00000000000E+00 0. -1.
<scales pt_clust_5="13000.00000" pt_clust_6="13000.00000" pt_clust_7="13000.00000" pt_clust_8="13000.00000" pt_clust_9="53.14381" pt_clust_10="188.85571"></scales>
<clustering>
<clus scale="   53.144">  2  9  1 -1</clus>
<clus scale="   80.649">  5  6 -1 -1</clus>
<clus scale="   90.576">  7  8 -1 -1</clus>
<clus scale="  151.781">  1  7  2 -1</clus>
<clus scale="  188.856">  2 10  1 -1</clus>
<clus scale="   53.144">  2  5  1 -1</clus>
</clustering>
</event>
<event>
10    4  0.3403565E-005  0.2002951E+03  0.7546771E-02  0.1178384E+00
          2   -1    0    0  503    0 -0.00000000000E+00  0.00000000000E+00  0.14308502993E+04  0.14308502993E+04  0.00000000000E+00 0. -1.
         21   -1    0    0  501  502  0.00000000000E+00 -0.00000000000E+00 -0.22573949089E+03  0.22573949089E+03  0.00000000000E+00 0. -1.
         24    2    1    2    0    0  0.15432456624E+03 -0.10058578374E+03  0.70381426912E+03  0.73190411063E+03  0.79972058219E+02 0.  0.
         23    2    1    2    0    0  0.29746137019E+02 -0.38639933419E+02  0.72550710875E+02  0.12686145292E+03  0.91936638331E+02 0.  0.
        -13    1    3    3    0    0  0.53049789977E+02  0.30749212263E+01  0.24707471568E+03  0.25272445565E+03  0.00000000000E+00 0.  1.
         14    1    3    3    0    0  0.10127477626E+03 -0.10366070496E+03  0.45673955345E+03  0.47917965498E+03  0.00000000000E+00 0. -1.
        -11    1    4    4    0    0  0.43631523696E+02  0.15380631704E+02  0.45435090712E+02  0.64843050203E+02  0.00000000000E+00 0.  1.
         11    1    4    4    0    0 -0.13885386676E+02 -0.54020565123E+02  0.27115620162E+02  0.62018402721E+02  0.00000000000E+00 0. -1.
         21    1    1    2  503  502 -0.10519309229E+03  0.15926834014E+03 -0.13144425629E+03  0.23175328121E+03  0.00000000000E+00 0. -1.
          1    1    1    2  501    0 -0.78877610962E+02 -0.20042622990E+02  0.56019008472E+03  0.56607094544E+03  0.00000000000E+00 0. -1.
<scales pt_clust_5="13000.00000" pt_clust_6="13000.00000" pt_clust_7="13000.00000" pt_clust_8="13000.00000" pt_clust_9="183.63718" pt_clust_10="81.38422"></scales>
<clustering>
<clus scale="   79.972">  5  6 -1 -1</clus>
<clus scale="   81.384">  2 10  1 -1</clus>
<clus scale="   91.937">  7  8 -1 -1</clus>
<clus scale="  102.691">  2  7  1 -1</clus>
<clus scale="  183.637">  2  9  1 -1</clus>
<clus scale="   81.384">  2  5  1 -1</clus>
</clustering>
</event>
<event>
10    4  0.3403565E-005  0.1019311E+03  0.7546771E-02  0.1281285E+00
         21   -1    0    0  503  502  0.00000000000E+00  0.00000000000E+00  0.26921689024E+03  0.26921689024E+03  0.00000000000E+00 0. -1.
          2   -1    0    0  502    0 -0.00000000000E+00 -0.00000000000E+00 -0.41470118422E+03  0.41470118422E+03  0.00000000000E+00 0. -1.
         24    2    1    2    0    0 -0.27176942926E+02  0.42784010187E+02 -0.34968840202E+03  0.36245500831E+03  0.80762595222E+02 0.  0.
         23    2    1    2    0    0  0.39303559688E+02  0.43969198053E+02  0.29716870628E+02  0.11263555967E+03  0.91244817495E+02 0.  0.
        -13    1    3    3    0    0  0.26502874332E+02  0.19296692197E+01 -0.73772119579E+02  0.78412062837E+02  0.00000000000E+00 0.  1.
         14    1    3    3    0    0 -0.53679817259E+02  0.40854340967E+02 -0.27591628244E+03  0.28404294547E+03  0.00000000000E+00 0. -1.
        -11    1    4    4    0    0  0.44536446904E+02 -0.26809389731E+01  0.44900055229E+02  0.63298479414E+02  0.00000000000E+00 0.  1.
         11    1    4    4    0    0 -0.52328872155E+01  0.46650137026E+02 -0.15183184601E+02  0.49337080252E+02  0.00000000000E+00 0. -1.
         21    1    1    2  503  501 -0.25872267554E+02 -0.81381518846E+01  0.83522163430E+02  0.87815462923E+02  0.00000000000E+00 0. -1.
          1    1    1    2  501    0  0.13745650792E+02 -0.78615056355E+02  0.90965073987E+02  0.12101204356E+03  0.00000000000E+00 0. -1.
<scales pt_clust_5="13000.00000" pt_clust_6="13000.00000" pt_clust_7="13000.00000" pt_clust_8="13000.00000" pt_clust_9="27.12202" pt_clust_10="83.32293"></scales>
<clustering>
<clus scale="   27.122">  1  9  2 -1</clus>
<clus scale="   80.763">  5  6 -1 -1</clus>
<clus scale="   83.323">  1 10  2 -1</clus>
<clus scale="   91.245">  7  8 -1 -1</clus>
<clus scale="   92.666">  2  5  1 -1</clus>
<clus scale="   27.122">  1  5  2 -1</clus>
</clustering>
</event>
<event>
10    4  0.3403565E-005  0.1282366E+03  0.7546771E-02  0.1232671E+00
         -3   -1    0    0    0  501 -0.00000000000E+00  0.00000000000E+00  0.10689358337E+03  0.10689358337E+03  0.00000000000E+00 0.  1.
         21   -1    0    0  501  502  0.00000000000E+00 -0.00000000000E+00 -0.29825238506E+03  0.29825238506E+03  0.00000000000E+00 0.  1.
         23    2    1    2    0    0 -0.62123223728E+02  0.64195918333E+02 -0.38138736186E+02  0.13243196214E+03  0.90018056757E+02 0.  0.
         24    2    1    2    0    0  0.80561848934E+02 -0.51107258348E+02 -0.76429639555E+02  0.14625827903E+03  0.80298387417E+02 0.  0.
        -13    1    4    4    0    0  0.64299500136E+02 -0.16960276505E+02 -0.84557154802E+02  0.10757318032E+03  0.00000000000E+00 0.  1.
         14    1    4    4    0    0  0.16262348798E+02 -0.34146981844E+02  0.81275152477E+01  0.38685098702E+02  0.00000000000E+00 0. -1.
        -11    1    3    3    0    0 -0.42822420205E+02  0.75459812231E+02 -0.56475197939E+02  0.10352483237E+03  0.00000000000E+00 0.  1.
         11    1    3    3    0    0 -0.19300803523E+02 -0.11263893897E+02  0.18336461753E+02  0.28907129778E+02  0.00000000000E+00 0. -1.
         21    1    1    2  503  502  0.85304298689E+00  0.27884491563E+02 -0.76219462599E+02  0.81164518301E+02  0.00000000000E+00 0.  1.
         -4    1    1    2    0  503 -0.19291668192E+02 -0.40973151548E+02 -0.57096334648E+00  0.45291208955E+02  0.00000000000E+00 0.  1.
<scales pt_clust_5="13000.00000" pt_clust_6="13000.00000" pt_clust_7="13000.00000" pt_clust_8="13000.00000" pt_clust_9="27.89754" pt_clust_10="42.63063"></scales>
<clustering>
<clus scale="   27.898">  2  9  1 -1</clus>
<clus scale="   42.631">  2 10  1 -1</clus>
<clus scale="   80.298">  5  6 -1 -1</clus>
<clus scale="   90.018">  7  8 -1 -1</clus>
<clus scale="  121.611">  2  5  1 -1</clus>
<clus scale="   27.898">  2  5  1 -1</clus>
</clustering>
</event>
<event>
10    4  0.3403565E-005  0.1838519E+03  0.7546771E-02  0.1164777E+00
         21   -1    0    0  503  502  0.00000000000E+00  0.00000000000E+00  0.39577226399E+03  0.39577226399E+03  0.00000000000E+00 0. -1.
          2   -1    0    0  502    0 -0.00000000000E+00 -0.00000000000E+00 -0.86133478428E+03  0.86133478428E+03  0.00000000000E+00 0. -1.
         24    2    1    2    0    0  0.75424914770E+02  0.14813491322E+03 -0.64018826746E+03  0.66636632134E+03  0.81056684735E+02 0.  0.
         23    2    1    2    0    0 -0.12006824905E+03 -0.31583166924E+02  0.21473064347E+03  0.26285764258E+03  0.87011551833E+02 0.  0.
        -11    1    3    3    0    0  0.66795370000E+02  0.48697108892E+02 -0.23680261696E+03  0.25081568784E+03  0.00000000000E+00 0.  1.
         12    1    3    3    0    0  0.86295447699E+01  0.99437804328E+02 -0.40338565050E+03  0.41555063350E+03  0.00000000000E+00 0. -1.
        -13    1    4    4    0    0 -0.10805435511E+02 -0.37899714571E+02  0.36557525360E+02  0.53754985459E+02  0.00000000000E+00 0.  1.
         13    1    4    4    0    0 -0.10926281354E+03  0.63165476470E+01  0.17817311811E+03  0.20910265712E+03  0.00000000000E+00 0. -1.
         21    1    1    2  503  501 -0.23237243698E+02  0.17402581594E+02  0.11106778204E+03  0.11479926633E+03  0.00000000000E+00 0. -1.
          1    1    1    2  501    0  0.67880577976E+02 -0.13395432789E+03 -0.15117267834E+03  0.21308381802E+03  0.00000000000E+00 0. -1.
<scales pt_clust_5="13000.00000" pt_clust_6="13000.00000" pt_clust_7="13000.00000" pt_clust_8="13000.00000" pt_clust_9="29.03135" pt_clust_10="147.32994"></scales>
<clustering>
<clus scale="   29.031">  1  9  2 -1</clus>
<clus scale="   81.057">  5  6 -1 -1</clus>
<clus scale="   87.012">  7  8 -1 -1</clus>
<clus scale="  147.330">  1 10  2 -1</clus>
<clus scale="  181.110">  2  5  1 -1</clus>
<clus scale="   29.031">  1  5  2 -1</clus>
</clustering>
</event>
<event>
10    4  0.3403565E-005  0.2740326E+03  0.7546771E-02  0.1147045E+00
          2   -1    0    0  502    0 -0.00000000000E+00  0.00000000000E+00  0.60700538694E+03  0.60700538694E+03  0.00000000000E+00 0. -1.
         21   -1    0    0  503  502  0.00000000000E+00 -0.00000000000E+00 -0.19012707101E+03  0.19012707101E+03  0.00000000000E+00 0. -1.
         24    2    1    2    0    0  0.29529333374E+02 -0.39916801236E+01  0.30726913844E+02  0.86406893379E+02  0.75060595184E+02 0.  0.
         23    2    1    2    0    0  0.20538202874E+03  0.11676843777E+03  0.23577986675E+03  0.34630921120E+03  0.92310770848E+02 0.  0.
        -11    1    3    3    0    0  0.24014670738E+02  0.75365421741E+01 -0.21213910158E+02  0.32917075551E+02  0.00000000000E+00 0.  1.
         12    1    3    3    0    0  0.55146626358E+01 -0.11528222298E+02  0.51940824002E+02  0.53489817828E+02  0.00000000000E+00 0. -1.
        -13    1    4    4    0    0  0.76040018607E+02  0.85889076598E+02  0.14681743554E+03  0.18631794676E+03  0.00000000000E+00 0.  1.
         13    1    4    4    0    0  0.12934201013E+03  0.30879361170E+02  0.88962431214E+02  0.15999126444E+03  0.00000000000E+00 0. -1.
         21    1    1    2  503  501  0.28968418361E+02 -0.17207774653E+02 -0.16902126964E+02  0.37695605404E+02  0.00000000000E+00 0. -1.
          1    1    1    2  501    0 -0.26387978047E+03 -0.95568982991E+02  0.16727366230E+03  0.32672074796E+03  0.00000000000E+00 0. -1.
<scales pt_clust_5="13000.00000" pt_clust_6="13000.00000" pt_clust_7="13000.00000" pt_clust_8="13000.00000" pt_clust_9="33.69387" pt_clust_10="258.01667"></scales>
<clustering>
<clus scale="   33.694">  2  9  1 -1</clus>
<clus scale="   75.061">  5  6 -1 -1</clus>
<clus scale="   82.893">  1  5  2 -1</clus>
<clus scale="   92.311">  7  8 -1 -1</clus>
<clus scale="  258.017">  2 10  1 -1</clus>
<clus scale="   33.694">  2  5  1 -1</clus>
</clustering>
</event>
<event>
10    4  0.3403565E-005  0.1967407E+03  0.7546771E-02  0.1153507E+00
          2   -1    0    0  503    0 -0.00000000000E+00  0.00000000000E+00  0.83449253638E+03  0.83449253638E+03  0.00000000000E+00 0. -1.
         21   -1    0    0  501  502  0.00000000000E+00 -0.00000000000E+00 -0.13448839194E+03  0.13448839194E+03  0.00000000000E+00 0.  1.
         23    2    1    2    0    0  0.16847525981E+03  0.51265321069E+02  0.50457319157E+03  0.54224825509E+03  0.91798791847E+02 0.  0.
         24    2    1    2    0    0 -0.16343974610E+03 -0.49067793884E+02  0.26478316801E+03  0.32541591644E+03  0.81640637001E+02 0.  0.
        -13    1    4    4    0    0 -0.16403196702E+03 -0.32844520612E+02  0.21119467865E+03  0.26942242117E+03  0.00000000000E+00 0.  1.
         14    1    4    4    0    0  0.59222091407E+00 -0.16223273272E+02  0.53588489358E+02  0.55993495273E+02  0.00000000000E+00 0. -1.
        -11    1    3    3    0    0  0.77201045503E+02  0.11346265388E+02  0.10728725466E+03  0.13266233142E+03  0.00000000000E+00 0.  1.
         11    1    3    3    0    0  0.91274214310E+02  0.39919055681E+02  0.39728593690E+03  0.40958592367E+03  0.00000000000E+00 0. -1.
         21    1    1    2  503  502  0.23609815780E+02  0.84459885359E+01 -0.65965871748E+02  0.70570917232E+02  0.00000000000E+00 0.  1.
          1    1    1    2  501    0 -0.28645329490E+02 -0.10643515721E+02 -0.33863433922E+01  0.30745839557E+02  0.00000000000E+00 0. -1.
<scales pt_clust_5="13000.00000" pt_clust_6="13000.00000" pt_clust_7="13000.00000" pt_clust_8="13000.00000" pt_clust_9="25.07505" pt_clust_10="24.09710"></scales>
<clustering>
<clus scale="   25.075">  2  9  1 -1</clus>
<clus scale="   24.097">  2 10  1 -1</clus>
<clus scale="   81.641">  5  6 -1 -1</clus>
<clus scale="   91.799">  7  8 -1 -1</clus>
<clus scale="  192.211">  2  5  1 -1</clus>
<clus scale="   25.075">  2  5  1 -1</clus>
</clustering>
</event>
<event>
10    4  0.3403565E-005  0.1133528E+03  0.7546771E-02  0.1258932E+00
         21   -1    0    0  501  502  0.00000000000E+00  0.00000000000E+00  0.11103831854E+03  0.11103831854E+03  0.00000000000E+00 0. -1.
         -1   -1    0    0    0  501 -0.00000000000E+00 -0.00000000000E+00 -0.29485215953E+03  0.29485215953E+03  0.00000000000E+00 0.  1.
         23    2    1    2    0    0  0.65690918306E+02  0.19718680340E+01 -0.17461703545E+03  0.20828672320E+03  0.92590847176E+02 0.  0.
         24    2    1    2    0    0 -0.55958825185E+02 -0.61477859542E+02 -0.74854325551E+01  0.11605565116E+03  0.80634763820E+02 0.  0.
        -11    1    4    4    0    0 -0.47789316325E+02 -0.33413199820E+02 -0.41227322550E+02  0.71413953830E+02  0.00000000000E+00 0.  1.
         12    1    4    4    0    0 -0.81695088593E+01 -0.28064659722E+02  0.33741889995E+02  0.44641697333E+02  0.00000000000E+00 0. -1.
        -11    1    3    3    0    0  0.39771223350E+02  0.38716157058E+02 -0.14278530301E+03  0.15319377853E+03  0.00000000000E+00 0. -1.
         11    1    3    3    0    0  0.25919694956E+02 -0.36744289024E+02 -0.31831732440E+02  0.55092944672E+02  0.00000000000E+00 0.  1.
         21    1    1    2  503  502  0.21652055983E+02  0.12904869773E+02  0.16794802841E+01  0.25261984209E+02  0.00000000000E+00 0.  1.
         -2    1    1    2    0  503 -0.31384149104E+02  0.46601121736E+02 -0.33908532701E+01  0.56286119496E+02  0.00000000000E+00 0.  1.
<scales pt_clust_5="13000.00000" pt_clust_6="13000.00000" pt_clust_7="13000.00000" pt_clust_8="13000.00000" pt_clust_9="25.20609" pt_clust_10="56.22229"></scales>
<clustering>
<clus scale="   25.206">  1  9  2 -1</clus>
<clus scale="   56.222">  1 10  2 -1</clus>
<clus scale="   80.635">  5  6 -1 -1</clus>
<clus scale="   92.591">  7  8 -1 -1</clus>
<clus scale="  103.816">  1  5  2 -1</clus>
<clus scale="   25.206">  1  5  2 -1</clus>
</clustering>
</event>
<event>
10    4  0.3403565E-005  0.9657815E+02  0.7546771E-02  0.1295035E+00
         21   -1    0    0  501  502  0.00000000000E+00  0.00000000000E+00  0.50749934816E+02  0.50749934816E+02  0.00000000000E+00 0.  1.
          2   -1    0    0  503    0 -0.00000000000E+00 -0.00000000000E+00 -0.93437470335E+03  0.93437470335E+03  0.00000000000E+00 0. -1.
         23    2    1    2    0    0 -0.31169632223E+02 -0.78315586246E+00 -0.48261344724E+03  0.49259155838E+03  0.93587096488E+02 0.  0.
         24    2    1    2    0    0 -0.21241080750E+02  0.59790756403E+02 -0.15198595925E+03  0.18340460902E+03  0.80693250893E+02 0.  0.
        -11    1    4    4    0    0 -0.48006762460E+00  0.28417252968E+02 -0.16897388467E+01  0.28471493613E+02  0.00000000000E+00 0.  1.
         12    1    4    4    0    0 -0.20761013125E+02  0.31373503434E+02 -0.15029622040E+03  0.15493311541E+03  0.00000000000E+00 0. -1.
        -11    1    3    3    0    0  0.32237640285E+02  0.10374458200E+02 -0.14596656992E+03  0.14984369980E+03  0.00000000000E+00 0.  1.
         11    1    3    3    0    0 -0.63407272508E+02 -0.11157614062E+02 -0.33664687731E+03  0.34274785858E+03  0.00000000000E+00 0. -1.
         21    1    1    2  503  502 -0.39102687920E+02  0.58458794667E+01 -0.41091105338E+01  0.39750211304E+02  0.00000000000E+00 0.  1.
          1    1    1    2  501    0  0.91513400893E+02 -0.64853480007E+02 -0.24491625152E+03  0.26937825946E+03  0.00000000000E+00 0. -1.
<scales pt_clust_5="13000.00000" pt_clust_6="13000.00000" pt_clust_7="13000.00000" pt_clust_8="13000.00000" pt_clust_9="39.53725" pt_clust_10="99.27952"></scales>
<clustering>
<clus scale="   39.537">  1  9  2 -1</clus>
<clus scale="   80.693">  5  6 -1 -1</clus>
<clus scale="   93.587">  7  8 -1 -1</clus>
<clus scale="   99.280">  1 10  2 -1</clus>
<clus scale="   84.144">  1  5  2 -1</clus>
<clus scale="   39.537">  1  5  2 -1</clus>
</clustering>
</event>
<event>
10    4  0.3403565E-005  0.1498890E+03  0.7546771E-02  0.1225998E+00
          2   -1    0    0  502    0 -0.00000000000E+00  0.00000000000E+00  0.42043853483E+03  0.42043853483E+03  0.00000000000E+00 0. -1.
         21   -1    0    0  503  502  0.00000000000E+00 -0.00000000000E+00 -0.45569623097E+03  0.45569623097E+03  0.00000000000E+00 0. -1.
         23    2    1    2    0    0 -0.10684978194E+02  0.41913431702E+02  0.78750210047E+02  0.11684295859E+03  0.74697904077E+02 0.  0.
         24    2    1    2    0    0 -0.17953086210E+02  0.82657585182E+02 -0.32629106284E+03  0.34615073313E+03  0.78739333654E+02 0.  0.
        -11    1    4    4    0    0 -0.29234746833E+01  0.54257479867E+02 -0.73917728445E+02  0.91740129737E+02  0.00000000000E+00 0.  1.
         12    1    4    4    0    0 -0.15029611526E+02  0.28400105314E+02 -0.25237333440E+03  0.25441060339E+03  0.00000000000E+00 0. -1.
        -11    1    3    3    0    0  0.45930546014E+01  0.61168002883E+02  0.61133985226E+02  0.86602453065E+02  0.00000000000E+00 0. -1.
         11    1    3    3    0    0 -0.15278032795E+02 -0.19254571181E+02  0.17616224821E+02  0.30240505525E+02  0.00000000000E+00 0.  1.
         21    1    1    2  503  501  0.83687123937E+01  0.46343919071E+02 -0.68904628489E+02  0.83460421813E+02  0.00000000000E+00 0. -1.
          1    1    1    2  501    0  0.20269352010E+02 -0.17091493595E+03  0.28118778515E+03  0.32968065227E+03  0.00000000000E+00 0. -1.
<scales pt_clust_5="13000.00000" pt_clust_6="13000.00000" pt_clust_7="13000.00000" pt_clust_8="13000.00000" pt_clust_9="47.09346" pt_clust_10="127.54156"></scales>
<clustering>
<clus scale="   47.093">  2  9  1 -1</clus>
<clus scale="   74.698">  7  8 -1 -1</clus>
<clus scale="   78.739">  5  6 -1 -1</clus>
<clus scale="   87.420">  1  7  2 -1</clus>
<clus scale="  127.542">  2 10  1 -1</clus>
<clus scale="   47.093">  2  5  1 -1</clus>
</clustering>
</event>
<event>
10    4  0.3403565E-005  0.1409901E+03  0.7546771E-02  0.1232153E+00
          2   -1    0    0  503    0 -0.00000000000E+00  0.00000000000E+00  0.99320378543E+03  0.99320378543E+03  0.00000000000E+00 0. -1.
         21   -1    0    0  501  502  0.00000000000E+00 -0.00000000000E+00 -0.91779959147E+02  0.91779959147E+02  0.00000000000E+00 0. -1.
         24    2    1    2    0    0  0.86103005615E+01  0.53448308673E+02  0.62527325517E+02  0.11513754290E+03  0.80100738900E+02 0.  0.
         23    2    1    2    0    0 -0.74516627126E+02  0.75947630770E+02  0.17424278155E+03  0.23605717184E+03  0.11849755743E+03 0.  0.
        -13    1    3    3    0    0 -0.17353156007E+02 -0.14959556108E+02  0.96443473146E+01  0.24858273823E+02  0.00000000000E+00 0.  1.
         14    1    3    3    0    0  0.25963456568E+02  0.68407864782E+02  0.52882978202E+02  0.90279269074E+02  0.00000000000E+00 0. -1.
        -11    1    4    4    0    0 -0.83267053803E+02  0.10111902572E+02  0.57336635282E+02  0.10160286693E+03  0.00000000000E+00 0. -1.
         11    1    4    4    0    0  0.87504266774E+01  0.65835728198E+02  0.11690614626E+03  0.13445430491E+03  0.00000000000E+00 0.  1.
         21    1    1    2  503  502  0.47623629186E+02 -0.40702102111E+02 -0.34943801719E+00  0.62648170604E+02  0.00000000000E+00 0. -1.
          1    1    1    2  501    0  0.18282697379E+02 -0.88693837332E+02  0.66500315724E+03  0.67114085924E+03  0.00000000000E+00 0. -1.
<scales pt_clust_5="13000.00000" pt_clust_6="13000.00000" pt_clust_7="13000.00000" pt_clust_8="13000.00000" pt_clust_9="62.64720" pt_clust_10="76.39734"></scales>
<clustering>
<clus scale="   62.647">  2  9  1 -1</clus>
<clus scale="   80.101">  5  6 -1 -1</clus>
<clus scale="   92.486">  1  5  2 -1</clus>
<clus scale="   76.397">  2 10  1 -1</clus>
<clus scale="  118.498">  7  8 -1 -1</clus>
<clus scale="   62.647">  2  5  1 -1</clus>
</clustering>
</event>
<event>
10    4  0.3403565E-005  0.1566231E+03  0.7546771E-02  0.1210366E+00
          2   -1    0    0  503    0 -0.00000000000E+00  0.00000000000E+00  0.14844549331E+04  0.14844549331E+04  0.00000000000E+00 0. -1.
         21   -1    0    0  501  502  0.00000000000E+00 -0.00000000000E+00 -0.54054451533E+02  0.54054451533E+02  0.00000000000E+00 0. -1.
         24    2    1    2    0    0  0.32083476714E+02 -0.53173059701E+02  0.57604658720E+03  0.58481940344E+03  0.79544580375E+02 0.  0.
         23    2    1    2    0    0 -0.66299944947E+02  0.18675431430E+03  0.55428656002E+03  0.59519136147E+03  0.88013121391E+02 0.  0.
        -13    1    3    3    0    0  0.49761146252E+02 -0.55293159656E+01  0.27861946402E+03  0.28308223318E+03  0.00000000000E+00 0.  1.
         14    1    3    3    0    0 -0.17677669539E+02 -0.47643743735E+02  0.29742712318E+03  0.30173717026E+03  0.00000000000E+00 0. -1.
        -11    1    4    4    0    0 -0.42452567513E+02  0.34321872871E+02  0.83447504274E+02  0.99718089710E+02  0.00000000000E+00 0.  1.
         11    1    4    4    0    0 -0.23847377434E+02  0.15243244143E+03  0.47083905575E+03  0.49547327176E+03  0.00000000000E+00 0. -1.
         21    1    1    2  503  502  0.66798267254E+02 -0.38945341171E+02  0.58316632213E+02  0.96848219910E+02  0.00000000000E+00 0. -1.
          1    1    1    2  501    0 -0.32581799021E+02 -0.94635913427E+02  0.24175070213E+03  0.26165039981E+03  0.00000000000E+00 0. -1.
<scales pt_clust_5="13000.00000" pt_clust_6="13000.00000" pt_clust_7="13000.00000" pt_clust_8="13000.00000" pt_clust_9="77.32236" pt_clust_10="129.55499"></scales>
<clustering>
<clus scale="   77.322">  2  9  1 -1</clus>
<clus scale="   79.545">  5  6 -1 -1</clus>
<clus scale="   88.013">  7  8 -1 -1</clus>
<clus scale="  106.498">  1  5  2 -1</clus>
<clus scale="  129.555">  2 10  1 -1</clus>
<clus scale="   77.322">  2  5  1 -1</clus>
</clustering>
</event>
<event>
10    4  0.3403565E-005  0.9612355E+02  0.7546771E-02  0.1290570E+00
          2   -1    0    0  503    0 -0.00000000000E+00  0.00000000000E+00  0.45319531074E+03  0.45319531074E+03  0.00000000000E+00 0. -1.
         21   -1    0    0  501  502  0.00000000000E+00 -0.00000000000E+00 -0.53409109971E+02  0.53409109971E+02  0.00000000000E+00 0.  1.
         23    2    1    2    0    0  0.33719836475E+02  0.27618685554E+02  0.25806391581E+03  0.27476086478E+03  0.83646452471E+02 0.  0.
         24    2    1    2    0    0 -0.31607924286E+02 -0.49108494639E+02  0.99604874981E+02  0.14032761521E+03  0.79749629137E+02 0.  0.
        -11    1    4    4    0    0 -0.22197322421E+02  0.17357331046E+02  0.13776722828E+02  0.31365524953E+02  0.00000000000E+00 0.  1.
         12    1    4    4    0    0 -0.94106018650E+01 -0.66465825685E+02  0.85828152153E+02  0.10896209026E+03  0.00000000000E+00 0. -1.
        -13    1    3    3    0    0  0.59155258732E+02  0.74286060285E+01  0.13686851442E+03  0.14929005011E+03  0.00000000000E+00 0. -1.
         13    1    3    3    0    0 -0.25435422256E+02  0.20190079526E+02  0.12119540139E+03  0.12547081467E+03  0.00000000000E+00 0.  1.
         21    1    1    2  503  502 -0.38660951143E+02  0.29870697476E+01  0.11734133754E+02  0.40512734096E+02  0.00000000000E+00 0.  1.
          1    1    1    2  501    0  0.36549038954E+02  0.18502739337E+02  0.30383276229E+02  0.51003206623E+02  0.00000000000E+00 0. -1.
<scales pt_clust_5="13000.00000" pt_clust_6="13000.00000" pt_clust_7="13000.00000" pt_clust_8="13000.00000" pt_clust_9="38.77617" pt_clust_10="32.64437"></scales>
<clustering>
<clus scale="   38.776">  2  9  1 -1</clus>
<clus scale="   32.644">  2 10  1 -1</clus>
<clus scale="   79.750">  5  6 -1 -1</clus>
<clus scale="   83.646">  7  8 -1 -1</clus>
<clus scale="   92.752">  2  5  1 -1</clus>
<clus scale="   38.776">  2  5  1 -1</clus>
</clustering>
</event>
<event>
10    4  0.3403565E-005  0.1523715E+03  0.7546771E-02  0.1199488E+00
         -3   -1    0    0    0  501 -0.00000000000E+00  0.00000000000E+00  0.89735160034E+02  0.89735160034E+02  0.00000000000E+00 0.  1.
         21   -1    0    0  503  502  0.00000000000E+00 -0.00000000000E+00 -0.66278932071E+03  0.66278932071E+03  0.00000000000E+00 0.  1.
         24    2    1    2    0    0  0.72193456057E+02  0.11931161518E+03 -0.11762001083E+03  0.19931969173E+03  0.80291443814E+02 0.  0.
         23    2    1    2    0    0  0.19703082539E+02 -0.10109811841E+03 -0.24724473610E+03  0.28289266941E+03  0.91045383578E+02 0.  0.
        -11    1    3    3    0    0  0.32957382582E+02  0.11364633981E+03 -0.70488236038E+02  0.13773260703E+03  0.00000000000E+00 0.  1.
         12    1    3    3    0    0  0.39236073475E+02  0.56652753639E+01 -0.47131774792E+02  0.61587084699E+02  0.00000000000E+00 0. -1.
        -11    1    4    4    0    0  0.40094474698E+02 -0.10084051541E+03 -0.16022936550E+03  0.19351957528E+03  0.00000000000E+00 0.  1.
         11    1    4    4    0    0 -0.20391392159E+02 -0.25760299772E+00 -0.87015370598E+02  0.89373094126E+02  0.00000000000E+00 0. -1.
         21    1    1    2  503  501  0.27800692567E+02  0.31942972242E+02 -0.44706865468E+02  0.61578696014E+02  0.00000000000E+00 0.  1.
         -4    1    1    2    0  502 -0.11969723116E+03 -0.50156469010E+02 -0.16348254828E+03  0.20873342359E+03  0.00000000000E+00 0.  1.
<scales pt_clust_5="13000.00000" pt_clust_6="13000.00000" pt_clust_7="13000.00000" pt_clust_8="13000.00000" pt_clust_9="42.34657" pt_clust_10="119.32343"></scales>
<clustering>
<clus scale="   42.347">  1  9  2 -1</clus>
<clus scale="   80.291">  5  6 -1 -1</clus>
<clus scale="   91.045">  7  8 -1 -1</clus>
<clus scale="  119.323">  2 10  1 -1</clus>
<clus scale="  146.200">  1  5  2 -1</clus>
<clus scale="  119.323">  2  5  1 -1</clus>
</clustering>
</event>
<event>
10    4  0.3403565E-005  0.9504486E+02  0.7546771E-02  0.1296407E+00
          2   -1    0    0  503    0 -0.00000000000E+00  0.00000000000E+00  0.77787243591E+03  0.77787243591E+03  0.00000000000E+00 0. -1.
         21   -1    0    0  501  502  0.00000000000E+00 -0.00000000000E+00 -0.32172992106E+02  0.32172992106E+02  0.00000000000E+00 0. -1.
         24    2    1    2    0    0  0.46040022929E+01  0.59108870858E+02  0.26194294421E+03  0.28067786864E+03  0.81553077628E+02 0.  0.
         23    2    1    2    0    0 -0.58075929145E+01  0.12941675964E+02  0.17016656456E+03  0.19348263533E+03  0.90981621036E+02 0.  0.
        -13    1    3    3    0    0 -0.32923591693E+02  0.15466255145E+02  0.15519387159E+03  0.15939982973E+03  0.00000000000E+00 0.  1.
         14    1    3    3    0    0  0.37527593986E+02  0.43642615713E+02  0.10674907262E+03  0.12127803891E+03  0.00000000000E+00 0. -1.
        -13    1    4    4    0    0  0.93596065722E+01  0.48306794619E+02  0.65189226415E+02  0.81674866894E+02  0.00000000000E+00 0.  1.
         13    1    4    4    0    0 -0.15167199487E+02 -0.35365118655E+02  0.10497733815E+03  0.11180776843E+03  0.00000000000E+00 0. -1.
         21    1    1    2  503  502 -0.11069945671E+02 -0.93478932020E+02  0.22450460786E+03  0.24344028709E+03  0.00000000000E+00 0. -1.
          1    1    1    2  501    0  0.12273536292E+02  0.21428385198E+02  0.89085327173E+02  0.92444636961E+02  0.00000000000E+00 0. -1.
<scales pt_clust_5="13000.00000" pt_clust_6="13000.00000" pt_clust_7="13000.00000" pt_clust_8="13000.00000" pt_clust_9="87.12858" pt_clust_10="24.69445"></scales>
<clustering>
<clus scale="   24.694">  2 10  1 -1</clus>
<clus scale="   81.553">  5  6 -1 -1</clus>
<clus scale="   87.129">  2  9  1 -1</clus>
<clus scale="   86.063">  1  5  2 -1</clus>
<clus scale="   90.982">  7  8 -1 -1</clus>
<clus scale="   24.694">  2  5  1 -1</clus>
</clustering>
</event>
<event>
10    4  0.3403565E-005  0.1785959E+03  0.7546771E-02  0.1187496E+00
         21   -1    0    0  501  502  0.00000000000E+00  0.00000000000E+00  0.21616856792E+03  0.21616856792E+03  0.00000000000E+00 0.  1.
          2   -1    0    0  503    0 -0.00000000000E+00 -0.00000000000E+00 -0.38393665111E+03  0.38393665111E+03  0.00000000000E+00 0. -1.
         24    2    1    2    0    0 -0.79980941730E+02  0.53035810273E+02 -0.10541554341E+03  0.15668815373E+03  0.65030704399E+02 0.  0.
         23    2    1    2    0    0 -0.43077915984E+02  0.11403814325E+03  0.62199464596E+02  0.16418280692E+03  0.90701795634E+02 0.  0.
        -13    1    3    3    0    0 -0.60693367633E+02  0.34493150886E+01 -0.41898331776E+02  0.73831245790E+02  0.00000000000E+00 0.  1.
         14    1    3    3    0    0 -0.19287574097E+02  0.49586495185E+02 -0.63517211637E+02  0.82856907940E+02  0.00000000000E+00 0. -1.
        -11    1    4    4    0    0 -0.43249715484E+02  0.93350690260E+02  0.84957664232E+02  0.13342673635E+03  0.00000000000E+00 0.  1.
         11    1    4    4    0    0  0.17179950037E+00  0.20687452991E+02 -0.22758199636E+02  0.30756070572E+02  0.00000000000E+00 0. -1.
         21    1    1    2  503  502 -0.19112790862E+02  0.10260716951E+02 -0.43757156910E+01  0.22129798343E+02  0.00000000000E+00 0.  1.
          1    1    1    2  501    0  0.14217164858E+03 -0.17733467048E+03 -0.12017628868E+03  0.25710446004E+03  0.00000000000E+00 0. -1.
<scales pt_clust_5="13000.00000" pt_clust_6="13000.00000" pt_clust_7="13000.00000" pt_clust_8="13000.00000" pt_clust_9="21.69288" pt_clust_10="153.84965"></scales>
<clustering>
<clus scale="   21.693">  1  9  2 -1</clus>
<clus scale="   65.031">  5  6 -1 -1</clus>
<clus scale="   90.702">  7  8 -1 -1</clus>
<clus scale="  118.147">  2  5  1 -1</clus>
<clus scale="  153.850">  1 10  2 -1</clus>
<clus scale="   21.693">  1  5  2 -1</clus>
</clustering>
</event>
<event>
10    4  0.3403565E-005  0.9799375E+02  0.7546771E-02  0.1290117E+00
          2   -1    0    0  503    0 -0.00000000000E+00  0.00000000000E+00  0.36260093130E+03  0.36260093130E+03  0.00000000000E+00 0. -1.
         21   -1    0    0  501  502  0.00000000000E+00 -0.00000000000E+00 -0.57662707501E+02  0.57662707501E+02  0.00000000000E+00 0.  1.
         23    2    1    2    0    0  0.16620268468E+02  0.96105200881E+01  0.13034774549E+03  0.16051729824E+03  0.91687910111E+02 0.  0.
         24    2    1    2    0    0 -0.54150856429E+02 -0.11294740437E+02  0.10450298063E+03  0.14345595516E+03  0.81233316410E+02 0.  0.
        -13    1    4    4    0    0 -0.57158761101E+02 -0.29851919136E+02  0.10655170429E+03  0.12454527985E+03  0.00000000000E+00 0.  1.
         14    1    4    4    0    0  0.30079046721E+01  0.18557178698E+02 -0.20487236572E+01  0.18910675302E+02  0.00000000000E+00 0. -1.
        -13    1    3    3    0    0 -0.16343014271E+02 -0.32509212254E+02  0.31498263430E+02  0.48125706186E+02  0.00000000000E+00 0. -1.
         13    1    3    3    0    0  0.32963282739E+02  0.42119732342E+02  0.98849482062E+02  0.11239159206E+03  0.00000000000E+00 0.  1.
         21    1    1    2  503  502 -0.25010891951E+02  0.13112865091E+02  0.14048743392E+02  0.31541387698E+02  0.00000000000E+00 0. -1.
          1    1    1    2  501    0  0.62541479912E+02 -0.11428644741E+02  0.56038754285E+02  0.84748997705E+02  0.00000000000E+00 0. -1.
<scales pt_clust_5="13000.00000" pt_clust_6="13000.00000" pt_clust_7="13000.00000" pt_clust_8="13000.00000" pt_clust_9="28.23990" pt_clust_10="55.71978"></scales>
<clustering>
<clus scale="   28.240">  2  9  1 -1</clus>
<clus scale="   55.720">  2 10  1 -1</clus>
<clus scale="   81.233">  5  6 -1 -1</clus>
<clus scale="   88.289">  2  5  1 -1</clus>
<clus scale="   91.688">  7  8 -1 -1</clus>
<clus scale="   28.240">  2  5  1 -1</clus>
</clustering>
</event>
<event>
10    4  0.3403565E-005  0.1641918E+03  0.7546771E-02  0.1186085E+00
          2   -1    0    0  503    0 -0.00000000000E+00  0.00000000000E+00  0.27272859249E+03  0.27272859249E+03  0.00000000000E+00 0. -1.
         21   -1    0    0  501  502  0.00000000000E+00 -0.00000000000E+00 -0.12695616600E+04  0.12695616600E+04  0.00000000000E+00 0.  1.
         23    2    1    2    0    0 -0.65932978874E+02  0.12201209476E+03 -0.62544559071E+02  0.17773338603E+03  0.91887026662E+02 0.  0.
         24    2    1    2    0    0  0.33968602632E+02 -0.13113809068E+03 -0.68773535010E+02  0.17082097326E+03  0.78095716877E+02 0.  0.
        -11    1    4    4    0    0  0.19992458004E+02 -0.64883448763E+01  0.93986119470E+01  0.23024571718E+02  0.00000000000E+00 0.  1.
         12    1    4    4    0    0  0.13976144628E+02 -0.12464974581E+03 -0.78172146957E+02  0.14779640154E+03  0.00000000000E+00 0. -1.
        -11    1    3    3    0    0  0.80157128780E+01  0.64806628455E+02 -0.52335772824E+02  0.83685027704E+02  0.00000000000E+00 0.  1.
         11    1    3    3    0    0 -0.73948691752E+02  0.57205466305E+02 -0.10208786247E+02  0.94048358325E+02  0.00000000000E+00 0. -1.
         21    1    1    2  503  502  0.12004661180E+03 -0.70063156352E+02 -0.10028169795E+04  0.10124040346E+04  0.00000000000E+00 0.  1.
          1    1    1    2  501    0 -0.88082235562E+02  0.79189152277E+02  0.13730200610E+03  0.18133185859E+03  0.00000000000E+00 0. -1.
<scales pt_clust_5="13000.00000" pt_clust_6="13000.00000" pt_clust_7="13000.00000" pt_clust_8="13000.00000" pt_clust_9="49.28440" pt_clust_10="118.44584"></scales>
<clustering>
<clus scale="   78.096">  5  6 -1 -1</clus>
<clus scale="   91.887">  7  8 -1 -1</clus>
<clus scale="  118.446">  2 10  1 -1</clus>
<clus scale="   49.284">  2  9  1 -1</clus>
<clus scale="  156.891">  2  5  1 -1</clus>
<clus scale="  118.446">  2  5  1 -1</clus>
</clustering>
</event>
<event>
10    4  0.3403565E-005  0.9853676E+02  0.7546771E-02  0.1286129E+00
          2   -1    0    0  502    0 -0.00000000000E+00  0.00000000000E+00  0.10029741495E+04  0.10029741495E+04  0.00000000000E+00 0. -1.
         21   -1    0    0  503  502  0.00000000000E+00 -0.00000000000E+00 -0.35728878793E+02  0.35728878793E+02  0.00000000000E+00 0. -1.
         23    2    1    2    0    0  0.15972808463E+02  0.39187800744E+02  0.45175660433E+03  0.46201247881E+03  0.87067138949E+02 0.  0.
         24    2    1    2    0    0 -0.46828130630E+02 -0.49213209533E+02  0.90188448552E+02  0.13921026678E+03  0.81429284129E+02 0.  0.
        -11    1    4    4    0    0  0.91477810459E+01 -0.38233164424E+02  0.95844703430E+01  0.40463796556E+02  0.00000000000E+00 0.  1.
         12    1    4    4    0    0 -0.55975911676E+02 -0.10980045109E+02  0.80603978209E+02  0.98746470224E+02  0.00000000000E+00 0. -1.
        -13    1    3    3    0    0  0.32601443797E+02  0.60715923710E+02  0.34734196902E+03  0.35411258234E+03  0.00000000000E+00 0. -1.
         13    1    3    3    0    0 -0.16628635334E+02 -0.21528122965E+02  0.10441463531E+03  0.10789989647E+03  0.00000000000E+00 0.  1.
         21    1    1    2  503  501 -0.18170939386E+02  0.21708813194E+02  0.40616780339E+02  0.49509377431E+02  0.00000000000E+00 0.  1.
          1    1    1    2  501    0  0.49026261553E+02 -0.11683404405E+02  0.38468343750E+03  0.38797090528E+03  0.00000000000E+00 0. -1.
<scales pt_clust_5="13000.00000" pt_clust_6="13000.00000" pt_clust_7="13000.00000" pt_clust_8="13000.00000" pt_clust_9="28.30999" pt_clust_10="49.21400"></scales>
<clustering>
<clus scale="   28.310">  2  9  1 -1</clus>
<clus scale="   49.214">  2 10  1 -1</clus>
<clus scale="   81.429">  5  6 -1 -1</clus>
<clus scale="   87.067">  7  8 -1 -1</clus>
<clus scale="   93.592">  2  5  1 -1</clus>
<clus scale="   28.310">  2  5  1 -1</clus>
</clustering>
</event>
<event>
10    4  0.3403565E-005  0.7096645E+03  0.7546771E-02  0.9700846E-01
         21   -1    0    0  503  502  0.00000000000E+00  0.00000000000E+00  0.11413447169E+04  0.11413447169E+04  0.00000000000E+00 0.  1.
         -1   -1    0    0    0  501 -0.00000000000E+00 -0.00000000000E+00 -0.10737773982E+04  0.10737773982E+04  0.00000000000E+00 0.  1.
         24    2    1    2    0    0  0.52572958109E+03  0.18785631898E+02 -0.38347534557E+03  0.65578747632E+03  0.79116250155E+02 0.  0.
         23    2    1    2    0    0  0.15467974902E+03 -0.15289277195E+02 -0.78944874358E+02  0.20098622238E+03  0.10001790663E+03 0.  0.
        -13    1    3    3    0    0  0.21155256940E+03  0.13298712979E+02 -0.10795428460E+03  0.23787701223E+03  0.00000000000E+00 0.  1.
         14    1    3    3    0    0  0.31417701169E+03  0.54869189194E+01 -0.27552106097E+03  0.41791046409E+03  0.00000000000E+00 0. -1.
        -11    1    4    4    0    0  0.23740641367E+02  0.10252002100E+02 -0.61155855780E+02  0.66398496186E+02  0.00000000000E+00 0.  1.
         11    1    4    4    0    0  0.13093910765E+03 -0.25541279295E+02 -0.17789018579E+02  0.13458772620E+03  0.00000000000E+00 0. -1.
         21    1    1    2  503  501 -0.60853232727E+03 -0.79191896723E+02  0.83484107790E+03  0.10361189966E+04  0.00000000000E+00 0.  1.
         -2    1    1    2    0  502 -0.71877002839E+02  0.75695542019E+02 -0.30485353924E+03  0.32222941983E+03  0.00000000000E+00 0.  1.
<scales pt_clust_5="13000.00000" pt_clust_6="13000.00000" pt_clust_7="13000.00000" pt_clust_8="13000.00000" pt_clust_9="668.10483" pt_clust_10="104.38453"></scales>
<clustering>
<clus scale="   79.116">  5  6 -1 -1</clus>
<clus scale="  100.018">  7  8 -1 -1</clus>
<clus scale="  104.385">  1 10  2 -1</clus>
<clus scale="  104.824">  5  7 -1 -1</clus>
<clus scale="  668.105">  1  9  2 -1</clus>
<clus scale="  104.385">  1  5  2 -1</clus>
</clustering>
</event>
<event>
10    4  0.3403565E-005  0.9547222E+02  0.7546771E-02  0.1296612E+00
          2   -1    0    0  503    0 -0.00000000000E+00  0.00000000000E+00  0.13287716403E+03  0.13287716403E+03  0.00000000000E+00 0. -1.
         21   -1    0    0  501  502  0.00000000000E+00 -0.00000000000E+00 -0.12436520988E+03  0.12436520988E+03  0.00000000000E+00 0. -1.
         24    2    1    2    0    0  0.24780850112E+02 -0.19052428403E+02  0.42778910562E+02  0.95321573246E+02  0.79240656086E+02 0.  0.
         23    2    1    2    0    0 -0.21548611765E+02  0.13877191514E+02 -0.29366276538E+02  0.98782257824E+02  0.90766938639E+02 0.  0.
        -13    1    3    3    0    0  0.40345619966E+02 -0.29058709198E+02  0.11149579784E+01  0.49733497384E+02  0.00000000000E+00 0.  1.
         14    1    3    3    0    0 -0.15564769855E+02  0.10006280795E+02  0.41663952583E+02  0.45588075862E+02  0.00000000000E+00 0. -1.
        -11    1    4    4    0    0 -0.50897330126E+02  0.20644944723E+02 -0.38769438038E+02  0.67229616111E+02  0.00000000000E+00 0. -1.
         11    1    4    4    0    0  0.29348718361E+02 -0.67677532088E+01  0.94031614997E+01  0.31552641714E+02  0.00000000000E+00 0.  1.
         21    1    1    2  503  502 -0.29224747556E+02  0.17591616610E+02 -0.16640112604E+01  0.34151424248E+02  0.00000000000E+00 0. -1.
          1    1    1    2  501    0  0.25992509210E+02 -0.12416379721E+02 -0.32366686148E+01  0.28987118590E+02  0.00000000000E+00 0. -1.
<scales pt_clust_5="13000.00000" pt_clust_6="13000.00000" pt_clust_7="13000.00000" pt_clust_8="13000.00000" pt_clust_9="29.37128" pt_clust_10="28.80585"></scales>
<clustering>
<clus scale="   28.806">  2 10  1 -1</clus>
<clus scale="   29.371">  2  9  1 -1</clus>
<clus scale="   79.241">  5  6 -1 -1</clus>
<clus scale="   84.590">  1  5  2 -1</clus>
<clus scale="   90.767">  7  8 -1 -1</clus>
<clus scale="   28.806">  2  5  1 -1</clus>
</clustering>
</event>
<event>
10    4  0.3403565E-005  0.1445237E+03  0.7546771E-02  0.1225845E+00
         21   -1    0    0  501  502  0.00000000000E+00  0.00000000000E+00  0.33955313051E+03  0.33955313051E+03  0.00000000000E+00 0.  1.
          2   -1    0    0  503    0 -0.00000000000E+00 -0.00000000000E+00 -0.51662153183E+03  0.51662153183E+03  0.00000000000E+00 0. -1.
         24    2    1    2    0    0 -0.48994224443E+02 -0.34125599525E+02 -0.10667473351E+03  0.14641706358E+03  0.80582052380E+02 0.  0.
         23    2    1    2    0    0 -0.19972392941E+02 -0.74566990628E+02 -0.28533683171E+03  0.30925680273E+03  0.90903959953E+02 0.  0.
        -11    1    3    3    0    0 -0.73152502048E+01 -0.42761982336E+02 -0.15983098030E+02  0.46233747863E+02  0.00000000000E+00 0.  1.
         12    1    3    3    0    0 -0.41678974238E+02  0.86363828110E+01 -0.90691635481E+02  0.10018331572E+03  0.00000000000E+00 0. -1.
        -13    1    4    4    0    0  0.36435032899E+02 -0.26583461238E+02 -0.11424195708E+03  0.12282270470E+03  0.00000000000E+00 0. -1.
         13    1    4    4    0    0 -0.56407425840E+02 -0.47983529390E+02 -0.17109487463E+03  0.18643409802E+03  0.00000000000E+00 0.  1.
         21    1    1    2  503  502 -0.11274060420E+02  0.10298537505E+03  0.27903512596E+03  0.29764692747E+03  0.00000000000E+00 0.  1.
          1    1    1    2  501    0  0.80240677804E+02  0.57072151021E+01 -0.64091962055E+02  0.10285386856E+03  0.00000000000E+00 0. -1.
<scales pt_clust_5="13000.00000" pt_clust_6="13000.00000" pt_clust_7="13000.00000" pt_clust_8="13000.00000" pt_clust_9="112.35464" pt_clust_10="80.44343"></scales>
<clustering>
<clus scale="   80.443">  1 10  2 -1</clus>
<clus scale="   80.582">  5  6 -1 -1</clus>
<clus scale="   90.904">  7  8 -1 -1</clus>
<clus scale="   97.833">  2  5  1 -1</clus>
<clus scale="  112.355">  1  9  2 -1</clus>
<clus scale="   80.443">  1  5  2 -1</clus>
</clustering>
</event>
<event>
10    4  0.3403565E-005  0.1438109E+03  0.7546771E-02  0.1220270E+00
          2   -1    0    0  503    0 -0.00000000000E+00  0.00000000000E+00  0.36548611012E+03  0.36548611012E+03  0.00000000000E+00 0. -1.
         21   -1    0    0  501  502  0.00000000000E+00 -0.00000000000E+00 -0.22018629922E+03  0.22018629922E+03  0.00000000000E+00 0. -1.
         24    2    1    2    0    0 -0.76910878554E+02 -0.35941564957E+02  0.12267019525E+03  0.16675207511E+03  0.74506364959E+02 0.  0.
         23    2    1    2    0    0 -0.33502819367E+02  0.86241723260E+02  0.12866672684E+03  0.18274128719E+03  0.90989986891E+02 0.  0.
        -11    1    3    3    0    0 -0.22045327902E+02 -0.74699431816E+01 -0.59713698255E+01  0.24030268227E+02  0.00000000000E+00 0.  1.
         12    1    3    3    0    0 -0.54865550652E+02 -0.28471621775E+02  0.12864156508E+03  0.14272180689E+03  0.00000000000E+00 0. -1.
        -13    1    4    4    0    0  0.27963918117E+02  0.90916980885E+01  0.17925295141E+02  0.34437710384E+02  0.00000000000E+00 0.  1.
         13    1    4    4    0    0 -0.61466737484E+02  0.77150025172E+02  0.11074143169E+03  0.14830357681E+03  0.00000000000E+00 0. -1.
         21    1    1    2  503  502  0.10317439539E+03 -0.78451674833E+02 -0.14046035404E+03  0.19112491257E+03  0.00000000000E+00 0. -1.
          1    1    1    2  501    0  0.72393025306E+01  0.28151516530E+02  0.34423242850E+02  0.45054134465E+02  0.00000000000E+00 0. -1.
<scales pt_clust_5="13000.00000" pt_clust_6="13000.00000" pt_clust_7="13000.00000" pt_clust_8="13000.00000" pt_clust_9="111.36605" pt_clust_10="29.06744"></scales>
<clustering>
<clus scale="   29.067">  2 10  1 -1</clus>
<clus scale="   74.506">  5  6 -1 -1</clus>
<clus scale="   90.990">  7  8 -1 -1</clus>
<clus scale="  111.559">  1  5  2 -1</clus>
<clus scale="  111.366">  2  9  1 -1</clus>
<clus scale="   29.067">  2  5  1 -1</clus>
</clustering>
</event>
<event>
10    4  0.3403565E-005  0.3149509E+03  0.7546771E-02  0.1077997E+00
         21   -1    0    0  503  502  0.00000000000E+00  0.00000000000E+00  0.82935060595E+03  0.82935060595E+03  0.00000000000E+00 0. -1.
          2   -1    0    0  502    0 -0.00000000000E+00 -0.00000000000E+00 -0.18904972118E+03  0.18904972118E+03  0.00000000000E+00 0. -1.
         24    2    1    2    0    0  0.34683652099E+02 -0.10517556646E+03  0.89307073285E+02  0.16360347698E+03  0.80780497886E+02 0.  0.
         23    2    1    2    0    0  0.13265318812E+03 -0.59329065838E+02  0.13616273146E+03  0.21792561752E+03  0.88512592091E+02 0.  0.
        -13    1    3    3    0    0 -0.18534127073E+02 -0.12092933259E+02  0.39723401368E+02  0.45471986072E+02  0.00000000000E+00 0.  1.
         14    1    3    3    0    0  0.53217779172E+02 -0.93082633202E+02  0.49583671918E+02  0.11813149091E+03  0.00000000000E+00 0. -1.
        -13    1    4    4    0    0  0.99791592081E+02  0.10534258992E+01  0.65693615067E+02  0.11947854459E+03  0.00000000000E+00 0. -1.
         13    1    4    4    0    0  0.32861596040E+02 -0.60382491737E+02  0.70469116395E+02  0.98447072928E+02  0.00000000000E+00 0.  1.
         21    1    1    2  503  501 -0.50924852300E+02 -0.59529942723E+02  0.37277551385E+03  0.38091828308E+03  0.00000000000E+00 0. -1.
          1    1    1    2  501    0 -0.11641198792E+03  0.22403457502E+03  0.42055566175E+02  0.25595294955E+03  0.00000000000E+00 0. -1.
<scales pt_clust_5="13000.00000" pt_clust_6="13000.00000" pt_clust_7="13000.00000" pt_clust_8="13000.00000" pt_clust_9="78.33999" pt_clust_10="243.98707"></scales>
<clustering>
<clus scale="   78.340">  1  9  2 -1</clus>
<clus scale="   80.780">  5  6 -1 -1</clus>
<clus scale="   88.513">  7  8 -1 -1</clus>
<clus scale="  132.372">  5  7 -1 -1</clus>
<clus scale="  243.987">  1 10  2 -1</clus>
<clus scale="   78.340">  1  5  2 -1</clus>
</clustering>
</event>
<event>
10    4  0.3403565E-005  0.1874832E+03  0.7546771E-02  0.1168461E+00
         -1   -1    0    0    0  501 -0.00000000000E+00  0.00000000000E+00  0.22485093874E+03  0.22485093874E+03  0.00000000000E+00 0.  1.
         21   -1    0    0  503  502  0.00000000000E+00 -0.00000000000E+00 -0.56077695960E+03  0.56077695960E+03  0.00000000000E+00 0.  1.
         23    2    1    2    0    0 -0.73567880603E+02 -0.10655270488E+03  0.32791447307E+02  0.16219215326E+03  0.92007084451E+02 0.  0.
         24    2    1    2    0    0  0.21895600831E+03  0.80387165793E+02 -0.57223442576E+02  0.25301651259E+03  0.79617857689E+02 0.  0.
        -13    1    4    4    0    0  0.14366853204E+03  0.63845179519E+02 -0.74571620631E+02  0.17400511673E+03  0.00000000000E+00 0.  1.
         14    1    4    4    0    0  0.75287476269E+02  0.16541986274E+02  0.17348178055E+02  0.79011395853E+02  0.00000000000E+00 0. -1.
        -11    1    3    3    0    0  0.15142237098E+02 -0.46433545289E+02  0.24683785008E+02  0.54723401893E+02  0.00000000000E+00 0. -1.
         11    1    3    3    0    0 -0.88710117702E+02 -0.60119159592E+02  0.81076622999E+01  0.10746875137E+03  0.00000000000E+00 0.  1.
         21    1    1    2  503  501  0.26492703969E+02  0.51914618369E+01 -0.35403695926E+02  0.44522312663E+02  0.00000000000E+00 0.  1.
         -2    1    1    2    0  502 -0.17188083167E+03  0.20974077252E+02 -0.27609032966E+03  0.32589691982E+03  0.00000000000E+00 0.  1.
<scales pt_clust_5="13000.00000" pt_clust_6="13000.00000" pt_clust_7="13000.00000" pt_clust_8="13000.00000" pt_clust_9="26.99657" pt_clust_10="169.73792"></scales>
<clustering>
<clus scale="   26.997">  2  9  1 -1</clus>
<clus scale="   79.618">  5  6 -1 -1</clus>
<clus scale="   92.007">  7  8 -1 -1</clus>
<clus scale="  156.909">  1  7  2 -1</clus>
<clus scale="  169.738">  2 10  1 -1</clus>
<clus scale="   26.997">  2  5  1 -1</clus>
</clustering>
</event>
<event>
10    4  0.3403565E-005  0.9786892E+02  0.7546771E-02  0.1288605E+00
         21   -1    0    0  503  502  0.00000000000E+00  0.00000000000E+00  0.38735119119E+03  0.38735119119E+03  0.00000000000E+00 0. -1.
         -3   -1    0    0    0  501 -0.00000000000E+00 -0.00000000000E+00 -0.14710116658E+03  0.14710116658E+03  0.00000000000E+00 0.  1.
         23    2    1    2    0    0 -0.41519149522E+02  0.50845431930E+01 -0.91960724803E+02  0.13585068852E+03  0.90823688041E+02 0.  0.
         24    2    1    2    0    0  0.67646345406E+00 -0.37311098000E+02  0.97309608564E+02  0.13358640870E+03  0.83567894763E+02 0.  0.
        -11    1    4    4    0    0  0.19011948574E+02  0.14934504344E+02  0.31870679836E+01  0.24385467207E+02  0.00000000000E+00 0.  1.
         12    1    4    4    0    0 -0.18335485119E+02 -0.52245602344E+02  0.94122540580E+02  0.10920094150E+03  0.00000000000E+00 0. -1.
        -11    1    3    3    0    0  0.26859020004E+02 -0.92776460106E+01 -0.38615656796E+02  0.47944244919E+02  0.00000000000E+00 0.  1.
         11    1    3    3    0    0 -0.68378169525E+02  0.14362189204E+02 -0.53345068006E+02  0.87906443603E+02  0.00000000000E+00 0. -1.
         21    1    1    2  503  501 -0.28184765537E+02  0.19015711622E+02  0.15463633665E+03  0.15832995582E+03  0.00000000000E+00 0. -1.
         -4    1    1    2    0  502  0.69027451605E+02  0.13210843185E+02  0.80264804195E+02  0.10668530473E+03  0.00000000000E+00 0.  1.
<scales pt_clust_5="13000.00000" pt_clust_6="13000.00000" pt_clust_7="13000.00000" pt_clust_8="13000.00000" pt_clust_9="33.99968" pt_clust_10="61.29287"></scales>
<clustering>
<clus scale="   34.000">  1  9  2 -1</clus>
<clus scale="   61.293">  1 10  2 -1</clus>
<clus scale="   83.568">  5  6 -1 -1</clus>
<clus scale="   90.824">  7  8 -1 -1</clus>
<clus scale="   91.176">  1  5  2 -1</clus>
<clus scale="   34.000">  1  5  2 -1</clus>
</clustering>
</event>
<event>
10    4  0.3403565E-005  0.2732109E+03  0.7546771E-02  0.1117493E+00
         21   -1    0    0  501  502  0.00000000000E+00  0.00000000000E+00  0.29889875005E+03  0.29889875005E+03  0.00000000000E+00 0. -1.
          2   -1    0    0  503    0 -0.00000000000E+00 -0.00000000000E+00 -0.72912280743E+03  0.72912280743E+03  0.00000000000E+00 0. -1.
         24    2    1    2    0    0 -0.10810991163E+03 -0.82247398685E+02  0.40418298112E+02  0.17789774762E+03  0.10752479809E+03 0.  0.
         23    2    1    2    0    0  0.28144692143E+03  0.36589540807E+02 -0.92531626711E+02  0.31284301713E+03  0.93581447658E+02 0.  0.
        -11    1    3    3    0    0 -0.61057613484E+02 -0.36195330806E+02 -0.33858454601E+02  0.78641776967E+02  0.00000000000E+00 0.  1.
         12    1    3    3    0    0 -0.47052298141E+02 -0.46052067879E+02  0.74276752713E+02  0.99255970651E+02  0.00000000000E+00 0. -1.
        -13    1    4    4    0    0  0.27210475327E+03  0.12042838039E+02 -0.87666451355E+02  0.28613184617E+03  0.00000000000E+00 0. -1.
         13    1    4    4    0    0  0.93421681595E+01  0.24546702768E+02 -0.48651753557E+01  0.26711170958E+02  0.00000000000E+00 0.  1.
         21    1    1    2  503  502  0.16710798778E+02 -0.16275751217E+02  0.55288736954E+02  0.60008293655E+02  0.00000000000E+00 0. -1.
          1    1    1    2  501    0 -0.19004780858E+03  0.61933609096E+02 -0.43339946574E+03  0.47727249909E+03  0.00000000000E+00 0. -1.
<scales pt_clust_5="13000.00000" pt_clust_6="13000.00000" pt_clust_7="13000.00000" pt_clust_8="13000.00000" pt_clust_9="23.32704" pt_clust_10="256.68421"></scales>
<clustering>
<clus scale="   23.327">  1  9  2 -1</clus>
<clus scale="   93.581">  7  8 -1 -1</clus>
<clus scale="  107.525">  5  6 -1 -1</clus>
<clus scale="  172.342">  2  5  1 -1</clus>
<clus scale="  256.684">  1 10  2 -1</clus>
<clus scale="   23.327">  1  5  2 -1</clus>
</clustering>
</event>
<event>
10    4  0.3403565E-005  0.1733494E+03  0.7546771E-02  0.1176681E+00
          2   -1    0    0  502    0 -0.00000000000E+00  0.00000000000E+00  0.11324868053E+03  0.11324868053E+03  0.00000000000E+00 0. -1.
         21   -1    0    0  503  502  0.00000000000E+00 -0.00000000000E+00 -0.45824589473E+03  0.45824589473E+03  0.00000000000E+00 0.  1.
         24    2    1    2    0    0 -0.90619315809E+02 -0.14737699108E+03 -0.76399028870E+02  0.20361995060E+03  0.75448225765E+02 0.  0.
         23    2    1    2    0    0  0.98581540612E+02  0.57190821676E+02 -0.19604773379E+03  0.24508714132E+03  0.92972483474E+02 0.  0.
        -13    1    3    3    0    0 -0.11145549484E+02 -0.88765529103E+02 -0.43957068375E+02  0.99678314042E+02  0.00000000000E+00 0.  1.
         14    1    3    3    0    0 -0.79473766324E+02 -0.58611461980E+02 -0.32441960495E+02  0.10394163656E+03  0.00000000000E+00 0. -1.
        -11    1    4    4    0    0  0.10350967265E+03  0.28468257870E+02 -0.10773585350E+03  0.15209111798E+03  0.00000000000E+00 0. -1.
         11    1    4    4    0    0 -0.49281320411E+01  0.28722563806E+02 -0.88311880291E+02  0.92996023343E+02  0.00000000000E+00 0.  1.
         21    1    1    2  503  501  0.11716204328E+02  0.22608333778E+02 -0.34182440529E+02  0.42624469974E+02  0.00000000000E+00 0. -1.
          1    1    1    2  501    0 -0.19678429131E+02  0.67577835629E+02 -0.38368011008E+02  0.80163013355E+02  0.00000000000E+00 0. -1.
<scales pt_clust_5="13000.00000" pt_clust_6="13000.00000" pt_clust_7="13000.00000" pt_clust_8="13000.00000" pt_clust_9="24.18119" pt_clust_10="99.06164"></scales>
<clustering>
<clus scale="   24.181">  9 10 -1 -1</clus>
<clus scale="   75.448">  5  6 -1 -1</clus>
<clus scale="   92.972">  7  8 -1 -1</clus>
<clus scale="   99.062">  2  9  1 -1</clus>
<clus scale="  164.616">  1  5  2 -1</clus>
<clus scale="   99.062">  2  5  1 -1</clus>
</clustering>
</event>
<event>
10    4  0.3403565E-005  0.1368042E+03  0.7546771E-02  0.1219899E+00
         21   -1    0    0  503  502  0.00000000000E+00  0.00000000000E+00  0.30088866620E+03  0.30088866620E+03  0.00000000000E+00 0.  1.
          2   -1    0    0  502    0 -0.00000000000E+00 -0.00000000000E+00 -0.96328586257E+03  0.96328586257E+03  0.00000000000E+00 0. -1.
         24    2    1    2    0    0  0.61740948649E+02  0.90726666780E+02 -0.78401295451E+03  0.79574393815E+03  0.80553270949E+02 0.  0.
         23    2    1    2    0    0 -0.44799893570E+02 -0.61212247842E+02 -0.12949707353E+03  0.17512902556E+03  0.90259147967E+02 0.  0.
        -13    1    3    3    0    0  0.24728468686E+02  0.95479279238E+02 -0.58692144195E+03  0.59515087914E+03  0.00000000000E+00 0.  1.
         14    1    3    3    0    0  0.37012479963E+02 -0.47526124574E+01 -0.19709151256E+03  0.20059305901E+03  0.00000000000E+00 0. -1.
        -11    1    4    4    0    0 -0.64440874329E+02 -0.12900798506E+02 -0.74168821035E+02  0.99096270869E+02  0.00000000000E+00 0.  1.
         11    1    4    4    0    0  0.19640980758E+02 -0.48311449337E+02 -0.55328252492E+02  0.76032754691E+02  0.00000000000E+00 0. -1.
         21    1    1    2  503  501  0.25489702401E+02  0.11676575833E+02  0.22814601446E+03  0.22986228761E+03  0.00000000000E+00 0.  1.
          1    1    1    2  501    0 -0.42430757480E+02 -0.41190994771E+02  0.22966817204E+02  0.63439277447E+02  0.00000000000E+00 0. -1.
<scales pt_clust_5="13000.00000" pt_clust_6="13000.00000" pt_clust_7="13000.00000" pt_clust_8="13000.00000" pt_clust_9="28.03689" pt_clust_10="43.62151"></scales>
<clustering>
<clus scale="   28.037">  1  9  2 -1</clus>
<clus scale="   43.622">  1 10  2 -1</clus>
<clus scale="   80.553">  5  6 -1 -1</clus>
<clus scale="   90.259">  7  8 -1 -1</clus>
<clus scale="  130.604">  2  5  1 -1</clus>
<clus scale="   28.037">  1  5  2 -1</clus>
</clustering>
</event>
<event>
10    4  0.3403565E-005  0.1591652E+03  0.7546771E-02  0.1215988E+00
          2   -1    0    0  503    0 -0.00000000000E+00  0.00000000000E+00  0.56596742317E+03  0.56596742317E+03  0.00000000000E+00 0. -1.
         21   -1    0    0  501  502  0.00000000000E+00 -0.00000000000E+00 -0.13545160300E+03  0.13545160300E+03  0.00000000000E+00 0. -1.
         24    2    1    2    0    0 -0.40095892516E+02 -0.17119779888E+02  0.23268746351E+03  0.24952705556E+03  0.78863986217E+02 0.  0.
         23    2    1    2    0    0  0.12800675891E+03  0.90049003715E+02  0.93909915233E+02  0.20525315602E+03  0.93889469484E+02 0.  0.
        -11    1    3    3    0    0 -0.14190815921E+02  0.28493831606E+02  0.13439173290E+03  0.13811015737E+03  0.00000000000E+00 0.  1.
         12    1    3    3    0    0 -0.25905076595E+02 -0.45613611494E+02  0.98295730610E+02  0.11141689819E+03  0.00000000000E+00 0. -1.
        -13    1    4    4    0    0  0.16302420792E+02  0.56910658769E+02  0.64208384751E+01  0.59546781373E+02  0.00000000000E+00 0.  1.
         13    1    4    4    0    0  0.11170433812E+03  0.33138344946E+02  0.87489076758E+02  0.14570637465E+03  0.00000000000E+00 0. -1.
         21    1    1    2  503  502 -0.10673240893E+03 -0.36781905804E+02 -0.21362490950E+02  0.11489591694E+03  0.00000000000E+00 0. -1.
          1    1    1    2  501    0  0.18821542530E+02 -0.36147318022E+02  0.12528093238E+03  0.13174289765E+03  0.00000000000E+00 0. -1.
<scales pt_clust_5="13000.00000" pt_clust_6="13000.00000" pt_clust_7="13000.00000" pt_clust_8="13000.00000" pt_clust_9="128.52362" pt_clust_10="40.75390"></scales>
<clustering>
<clus scale="   40.754">  2 10  1 -1</clus>
<clus scale="   78.864">  5  6 -1 -1</clus>
<clus scale="   90.054">  1  5  2 -1</clus>
<clus scale="   93.889">  7  8 -1 -1</clus>
<clus scale="  128.524">  2  9  1 -1</clus>
<clus scale="   40.754">  2  5  1 -1</clus>
</clustering>
</event>
<event>
10    4  0.3403565E-005  0.1628179E+03  0.7546771E-02  0.1186753E+00
         21   -1    0    0  501  502  0.00000000000E+00  0.00000000000E+00  0.57406905224E+03  0.57406905224E+03  0.00000000000E+00 0. -1.
          4   -1    0    0  503    0 -0.00000000000E+00 -0.00000000000E+00 -0.15909088582E+03  0.15909088582E+03  0.00000000000E+00 0. -1.
         24    2    1    2    0    0  0.11315363160E+03 -0.56112868508E+02 -0.59131577260E+01  0.15149698185E+03  0.83450414741E+02 0.  0.
         23    2    1    2    0    0 -0.14987385998E+03  0.24579576909E+02  0.45249777645E+02  0.18291300861E+03  0.91341648960E+02 0.  0.
        -13    1    3    3    0    0  0.70848429826E+02 -0.71913085934E+02  0.14412663120E+02  0.10197409865E+03  0.00000000000E+00 0.  1.
         14    1    3    3    0    0  0.42305201770E+02  0.15800217426E+02 -0.20325820846E+02  0.49522883202E+02  0.00000000000E+00 0. -1.
        -13    1    4    4    0    0 -0.11543758956E+03  0.28474636266E+02  0.72119693511E+02  0.13906074998E+03  0.00000000000E+00 0. -1.
         13    1    4    4    0    0 -0.34436270417E+02 -0.38950593571E+01 -0.26869915866E+02  0.43852258622E+02  0.00000000000E+00 0.  1.
         21    1    1    2  503  502  0.67232379095E+02  0.22878134452E+02  0.35225815983E+03  0.35934581256E+03  0.00000000000E+00 0. -1.
          3    1    1    2  501    0 -0.30512150712E+02  0.86551571479E+01  0.23383386675E+02  0.39404135046E+02  0.00000000000E+00 0. -1.
<scales pt_clust_5="13000.00000" pt_clust_6="13000.00000" pt_clust_7="13000.00000" pt_clust_8="13000.00000" pt_clust_9="55.18767" pt_clust_10="31.71598"></scales>
<clustering>
<clus scale="   31.716">  1 10  2 -1</clus>
<clus scale="   55.188">  1  9  2 -1</clus>
<clus scale="   83.450">  5  6 -1 -1</clus>
<clus scale="   91.342">  7  8 -1 -1</clus>
<clus scale="  158.526">  2  5  1 -1</clus>
<clus scale="   31.716">  1  5  2 -1</clus>
</clustering>
</event>
<event>
10    4  0.3403565E-005  0.9784414E+02  0.7546771E-02  0.1288313E+00
          2   -1    0    0  503    0 -0.00000000000E+00  0.00000000000E+00  0.32370418325E+03  0.32370418325E+03  0.00000000000E+00 0. -1.
         21   -1    0    0  501  502  0.00000000000E+00 -0.00000000000E+00 -0.28039855067E+03  0.28039855067E+03  0.00000000000E+00 0.  1.
         23    2    1    2    0    0 -0.44772679323E+02 -0.84408519547E+01  0.29132490227E+03  0.30757854924E+03  0.87512996038E+02 0.  0.
         24    2    1    2    0    0  0.25111610676E+02 -0.14573186841E+02 -0.77882095815E+02  0.11580580396E+03  0.80637414505E+02 0.  0.
        -11    1    4    4    0    0 -0.16872649268E+01 -0.26659312517E+02 -0.81889005369E+02  0.86135793995E+02  0.00000000000E+00 0.  1.
         12    1    4    4    0    0  0.26798875603E+02  0.12086125676E+02  0.40069095543E+01  0.29670009970E+02  0.00000000000E+00 0. -1.
        -13    1    3    3    0    0  0.26574789411E+02 -0.12298697853E+00  0.88882264185E+02  0.92770099950E+02  0.00000000000E+00 0.  1.
         13    1    3    3    0    0 -0.71347468734E+02 -0.83178649762E+01  0.20244263809E+03  0.21480844930E+03  0.00000000000E+00 0. -1.
         21    1    1    2  503  502  0.30491787016E+02 -0.26475646806E+01 -0.11419696719E+03  0.11822734874E+03  0.00000000000E+00 0.  1.
          1    1    1    2  501    0 -0.10830718369E+02  0.25661603476E+02 -0.55940206683E+02  0.62491031974E+02  0.00000000000E+00 0. -1.
<scales pt_clust_5="13000.00000" pt_clust_6="13000.00000" pt_clust_7="13000.00000" pt_clust_8="13000.00000" pt_clust_9="27.06481" pt_clust_10="27.85359"></scales>
<clustering>
<clus scale="   27.854">  2 10  1 -1</clus>
<clus scale="   27.065">  2  9  1 -1</clus>
<clus scale="   80.637">  5  6 -1 -1</clus>
<clus scale="   87.513">  7  8 -1 -1</clus>
<clus scale="   91.746">  2  5  1 -1</clus>
<clus scale="   27.854">  2  5  1 -1</clus>
</clustering>
</event>
<event>
10    4  0.3495713E-005  0.1911162E+03  0.7546771E-02  0.1180062E+00
         -3   -1    0    0    0  501 -0.00000000000E+00  0.00000000000E+00  0.74397948976E+03  0.74397948976E+03  0.00000000000E+00 0.  1.
         21   -1    0    0  503  502  0.00000000000E+00 -0.00000000000E+00 -0.11092363466E+04  0.11092363466E+04  0.00000000000E+00 0. -1.
         23    2    1    2    0    0  0.29532633238E+02 -0.63129461970E+02  0.24093834747E+03  0.26661535512E+03  0.90415457237E+02 0.  0.
         24    2    1    2    0    0 -0.17396145562E+03  0.39543086072E+01  0.68631825775E+02  0.20535335098E+03  0.84743416578E+02 0.  0.
        -13    1    4    4    0    0 -0.17761462584E+03  0.39415279340E+01  0.47487141319E+02  0.18389540382E+03  0.00000000000E+00 0.  1.
         14    1    4    4    0    0  0.36531702170E+01  0.12780673217E-01  0.21144684456E+02  0.21457947169E+02  0.00000000000E+00 0. -1.
        -11    1    3    3    0    0  0.41836237854E+02  0.43879069275E+01  0.12498741837E+03  0.13187637876E+03  0.00000000000E+00 0. -1.
         11    1    3    3    0    0 -0.12303604616E+02 -0.67517368897E+02  0.11595092911E+03  0.13473897636E+03  0.00000000000E+00 0.  1.
         21    1    1    2  503  501  0.24263489599E+03  0.52669739692E+02 -0.10057784149E+04  0.10359710488E+04  0.00000000000E+00 0. -1.
         -4    1    1    2    0  502 -0.98206073611E+02  0.65054136700E+01  0.33095138478E+03  0.34527608140E+03  0.00000000000E+00 0.  1.
<scales pt_clust_5="13000.00000" pt_clust_6="13000.00000" pt_clust_7="13000.00000" pt_clust_8="13000.00000" pt_clust_9="171.30076" pt_clust_10="98.42135"></scales>
<clustering>
<clus scale="   84.743">  5  6 -1 -1</clus>
<clus scale="   90.415">  7  8 -1 -1</clus>
<clus scale="   98.421">  2 10  1 -1</clus>
<clus scale="  113.827">  1  7  2 -1</clus>
<clus scale="  171.301">  2  9  1 -1</clus>
<clus scale="   98.421">  2  5  1 -1</clus>
</clustering>
</event>
<event>
10    4  0.3403565E-005  0.1035081E+03  0.7546771E-02  0.1277254E+00
         21   -1    0    0  501  502  0.00000000000E+00  0.00000000000E+00  0.65277368113E+03  0.65277368113E+03  0.00000000000E+00 0. -1.
          2   -1    0    0  503    0 -0.00000000000E+00 -0.00000000000E+00 -0.55757718050E+02  0.55757718050E+02  0.00000000000E+00 0. -1.
         23    2    1    2    0    0  0.15320529072E+02  0.38651723973E+02  0.52965790506E+02  0.11429776648E+03  0.92357620591E+02 0.  0.
         24    2    1    2    0    0  0.12265950411E+02 -0.63239318227E+02  0.17277831620E+03  0.20235930803E+03  0.83350333458E+02 0.  0.
        -11    1    4    4    0    0 -0.23828452520E+02 -0.28051012755E+01  0.11957627216E+02  0.26807621888E+02  0.00000000000E+00 0.  1.
         12    1    4    4    0    0  0.36094402930E+02 -0.60434216951E+02  0.16082068898E+03  0.17555168614E+03  0.00000000000E+00 0. -1.
        -11    1    3    3    0    0  0.29534600087E+02  0.62297987734E+02  0.52578554095E+02  0.86705456742E+02  0.00000000000E+00 0.  1.
         11    1    3    3    0    0 -0.14214071015E+02 -0.23646263761E+02  0.38723641097E+00  0.27592309738E+02  0.00000000000E+00 0. -1.
         21    1    1    2  503  502 -0.21205451474E+02 -0.45862168257E+02  0.20588896655E+03  0.21199829291E+03  0.00000000000E+00 0. -1.
          1    1    1    2  501    0 -0.63810280086E+01  0.70449762510E+02  0.16538288982E+03  0.17987603176E+03  0.00000000000E+00 0. -1.
<scales pt_clust_5="13000.00000" pt_clust_6="13000.00000" pt_clust_7="13000.00000" pt_clust_8="13000.00000" pt_clust_9="50.52732" pt_clust_10="54.60747"></scales>
<clustering>
<clus scale="   50.527">  1  9  2 -1</clus>
<clus scale="   54.607">  1 10  2 -1</clus>
<clus scale="   83.350">  5  6 -1 -1</clus>
<clus scale="   92.358">  7  8 -1 -1</clus>
<clus scale="   95.558">  1  5  2 -1</clus>
<clus scale="   50.527">  1  5  2 -1</clus>
</clustering>
</event>
<event>
10    4  0.3403565E-005  0.3077724E+03  0.7546771E-02  0.1128199E+00
         21   -1    0    0  501  502  0.00000000000E+00  0.00000000000E+00  0.17975787750E+03  0.17975787750E+03  0.00000000000E+00 0. -1.
          2   -1    0    0  503    0 -0.00000000000E+00 -0.00000000000E+00 -0.13783556970E+04  0.13783556970E+04  0.00000000000E+00 0. -1.
         24    2    1    2    0    0  0.71476950276E+01  0.46414925079E+02 -0.57109891775E+02  0.10859665599E+03  0.79537784348E+02 0.  0.
         23    2    1    2    0    0  0.86623846822E+02  0.10658307975E+03 -0.36098050722E+03  0.39641269097E+03  0.89288584074E+02 0.  0.
        -11    1    3    3    0    0 -0.20724115676E+02  0.57671575307E+02 -0.45695492451E+02  0.76443296628E+02  0.00000000000E+00 0.  1.
         12    1    3    3    0    0  0.27871810703E+02 -0.11256650228E+02 -0.11414399325E+02  0.32153359361E+02  0.00000000000E+00 0. -1.
        -11    1    4    4    0    0  0.87885175294E+02  0.40073309450E+02 -0.19541602885E+03  0.21798417030E+03  0.00000000000E+00 0.  1.
         11    1    4    4    0    0 -0.12613284719E+01  0.66509770300E+02 -0.16556447837E+03  0.17842852068E+03  0.00000000000E+00 0. -1.
         21    1    1    2  503  502  0.56906273249E+02  0.25309155044E+03 -0.19368763039E+03  0.32374149410E+03  0.00000000000E+00 0. -1.
          1    1    1    2  501    0 -0.15067781510E+03 -0.40608955527E+03 -0.58681979014E+03  0.72936273346E+03  0.00000000000E+00 0. -1.
<scales pt_clust_5="13000.00000" pt_clust_6="13000.00000" pt_clust_7="13000.00000" pt_clust_8="13000.00000" pt_clust_9="307.77244" pt_clust_10="13000.00000"></scales>
<clustering>
<clus scale="   79.538">  5  6 -1 -1</clus>
<clus scale="   89.289">  7  8 -1 -1</clus>
<clus scale="   92.367">  2  5  1 -1</clus>
<clus scale="  174.008">  2  7  1 -1</clus>
<clus scale="  307.772">  1  9  2 -1</clus>
<clus scale="  307.772">  1  5  2 -1</clus>
</clustering>
</event>
<event>
10    4  0.6119788E-005  0.8988745E+02  0.7546771E-02  0.1308144E+00
          2   -1    0    0  503    0 -0.00000000000E+00  0.00000000000E+00  0.10596211061E+04  0.10596211061E+04  0.00000000000E+00 0. -1.
         21   -1    0    0  501  502  0.00000000000E+00 -0.00000000000E+00 -0.25319347333E+03  0.25319347333E+03  0.00000000000E+00 0.  1.
         24    2    1    2    0    0 -0.34542467572E+01 -0.44058848817E+01  0.69685531526E+03  0.70164756929E+03  0.81673970437E+02 0.  0.
         23    2    1    2    0    0  0.16884284996E+02 -0.43655472319E+02  0.23024328777E+03  0.25145102400E+03  0.89581061411E+02 0.  0.
        -11    1    3    3    0    0 -0.27977241655E+02  0.99344503186E+01  0.10515517338E+03  0.10926586769E+03  0.00000000000E+00 0.  1.
         12    1    3    3    0    0  0.24522994897E+02 -0.14340335200E+02  0.59170014188E+03  0.59238170160E+03  0.00000000000E+00 0. -1.
        -13    1    4    4    0    0  0.17972681647E+02  0.25334969377E+02  0.88785106626E+02  0.94062070557E+02  0.00000000000E+00 0.  1.
         13    1    4    4    0    0 -0.10883966514E+01 -0.68990441696E+02  0.14145818115E+03  0.15738895344E+03  0.00000000000E+00 0. -1.
         21    1    1    2  503  502  0.10558554885E+02 -0.44403576046E+02 -0.21836280173E+03  0.22308176489E+03  0.00000000000E+00 0.  1.
          1    1    1    2  501    0 -0.23988593123E+02  0.92464933246E+02  0.97691831443E+02  0.13663422123E+03  0.00000000000E+00 0. -1.
<scales pt_clust_5="13000.00000" pt_clust_6="13000.00000" pt_clust_7="13000.00000" pt_clust_8="13000.00000" pt_clust_9="45.64165" pt_clust_10="68.16517"></scales>
<clustering>
<clus scale="   45.642">  2  9  1 -1</clus>
<clus scale="   68.165">  2 10  1 -1</clus>
<clus scale="   81.674">  5  6 -1 -1</clus>
<clus scale="   82.010">  1  5  2 -1</clus>
<clus scale="   89.581">  7  8 -1 -1</clus>
<clus scale="   45.642">  2  5  1 -1</clus>
</clustering>
</event>
<event>
10    4  0.3403565E-005  0.4301131E+03  0.7546771E-02  0.1077321E+00
         21   -1    0    0  503  502  0.00000000000E+00  0.00000000000E+00  0.23295324717E+03  0.23295324717E+03  0.00000000000E+00 0. -1.
         -1   -1    0    0    0  501 -0.00000000000E+00 -0.00000000000E+00 -0.15328961155E+04  0.15328961155E+04  0.00000000000E+00 0.  1.
         24    2    1    2    0    0  0.87945545085E+02  0.41975232775E+02 -0.60393639382E+03  0.61698893773E+03  0.80248628803E+02 0.  0.
         23    2    1    2    0    0 -0.30371570266E+03  0.29748822116E+03 -0.41254923473E+03  0.59995789196E+03  0.94921711282E+02 0.  0.
        -13    1    3    3    0    0  0.53684149101E+02  0.64601937398E+02 -0.44334579326E+03  0.45123263466E+03  0.00000000000E+00 0.  1.
         14    1    3    3    0    0  0.34261395983E+02 -0.22626704624E+02 -0.16059060056E+03  0.16575630306E+03  0.00000000000E+00 0. -1.
        -11    1    4    4    0    0 -0.74708818465E+02  0.26549066937E+02 -0.56626530354E+02  0.97431126708E+02  0.00000000000E+00 0.  1.
         11    1    4    4    0    0 -0.22900688419E+03  0.27093915423E+03 -0.35592270438E+03  0.50252676525E+03  0.00000000000E+00 0. -1.
         21    1    1    2  503  501 -0.19674860119E+02  0.12416255090E+02  0.17787061944E+02  0.29285543939E+02  0.00000000000E+00 0. -1.
         -2    1    1    2    0  502  0.23544501769E+03 -0.35187970903E+03 -0.30124430170E+03  0.51961698903E+03  0.00000000000E+00 0.  1.
<scales pt_clust_5="13000.00000" pt_clust_6="13000.00000" pt_clust_7="13000.00000" pt_clust_8="13000.00000" pt_clust_9="23.26507" pt_clust_10="419.50822"></scales>
<clustering>
<clus scale="   23.265">  1  9  2 -1</clus>
<clus scale="   80.249">  5  6 -1 -1</clus>
<clus scale="   94.922">  7  8 -1 -1</clus>
<clus scale="  125.942">  2  5  1 -1</clus>
<clus scale="  419.508">  1 10  2 -1</clus>
<clus scale="   23.265">  1  5  2 -1</clus>
</clustering>
</event>
<event>
10    4  0.3403565E-005  0.1829791E+03  0.7546771E-02  0.1179368E+00
          2   -1    0    0  503    0 -0.00000000000E+00  0.00000000000E+00  0.92591528903E+03  0.92591528903E+03  0.00000000000E+00 0. -1.
         21   -1    0    0  501  502  0.00000000000E+00 -0.00000000000E+00 -0.24350103220E+03  0.24350103220E+03  0.00000000000E+00 0. -1.
         24    2    1    2    0    0 -0.11456546920E+03  0.29531780710E+02  0.39764660559E+03  0.41982981475E+03  0.64318563501E+02 0.  0.
         23    2    1    2    0    0 -0.61345611826E+02 -0.94009924715E+02  0.37737218620E+03  0.40400097743E+03  0.90586272775E+02 0.  0.
        -11    1    3    3    0    0 -0.51952639615E+02  0.45605794264E+02  0.22948795995E+03  0.23967413084E+03  0.00000000000E+00 0.  1.
         12    1    3    3    0    0 -0.62612829588E+02 -0.16074013554E+02  0.16815864564E+03  0.18015568390E+03  0.00000000000E+00 0. -1.
        -11    1    4    4    0    0 -0.18556014468E+02 -0.96914519096E+02  0.29606621418E+03  0.31207683808E+03  0.00000000000E+00 0.  1.
         11    1    4    4    0    0 -0.42789597358E+02  0.29045943817E+01  0.81305972012E+02  0.91924139351E+02  0.00000000000E+00 0. -1.
         21    1    1    2  503  502  0.22402503677E+02 -0.14327359474E+02 -0.15862007980E+03  0.16083368776E+03  0.00000000000E+00 0. -1.
          1    1    1    2  501    0  0.15350857735E+03  0.78805503478E+02  0.66015544846E+02  0.18475184129E+03  0.00000000000E+00 0. -1.
<scales pt_clust_5="13000.00000" pt_clust_6="13000.00000" pt_clust_7="13000.00000" pt_clust_8="13000.00000" pt_clust_9="26.59221" pt_clust_10="158.98267"></scales>
<clustering>
<clus scale="   26.592">  2  9  1 -1</clus>
<clus scale="   64.319">  5  6 -1 -1</clus>
<clus scale="   90.586">  7  8 -1 -1</clus>
<clus scale="  131.738">  1  5  2 -1</clus>
<clus scale="  158.983">  2 10  1 -1</clus>
<clus scale="   26.592">  2  5  1 -1</clus>
</clustering>
</event>
<event>
10    4  0.3403565E-005  0.1348792E+03  0.7546771E-02  0.1220787E+00
          2   -1    0    0  503    0 -0.00000000000E+00  0.00000000000E+00  0.97060214254E+03  0.97060214254E+03  0.00000000000E+00 0. -1.
         21   -1    0    0  501  502  0.00000000000E+00 -0.00000000000E+00 -0.18308441709E+03  0.18308441709E+03  0.00000000000E+00 0. -1.
         24    2    1    2    0    0 -0.70223503585E+02  0.10479057295E+03  0.83296633912E+03  0.84653906348E+03  0.82964204736E+02 0.  0.
         23    2    1    2    0    0  0.44512061795E+02 -0.11911164072E+02  0.82982503002E+02  0.12725151284E+03  0.84756428904E+02 0.  0.
        -13    1    3    3    0    0 -0.46525525943E+02  0.72495026111E+02  0.30146536869E+03  0.31353073516E+03  0.00000000000E+00 0.  1.
         14    1    3    3    0    0 -0.23697977642E+02  0.32295546838E+02  0.53150097043E+03  0.53300832832E+03  0.00000000000E+00 0. -1.
        -11    1    4    4    0    0  0.26025734838E+02  0.30949466541E+02  0.11790153546E+02  0.42121444345E+02  0.00000000000E+00 0. -1.
         11    1    4    4    0    0  0.18486326957E+02 -0.42860630613E+02  0.71192349456E+02  0.85130068495E+02  0.00000000000E+00 0.  1.
         21    1    1    2  503  502  0.30986207018E+02 -0.23070012808E+02 -0.63270208039E+01  0.39145902833E+02  0.00000000000E+00 0. -1.
          1    1    1    2  501    0 -0.52747652276E+01 -0.69809396069E+02 -0.12210409586E+03  0.14075008047E+03  0.00000000000E+00 0. -1.
<scales pt_clust_5="13000.00000" pt_clust_6="13000.00000" pt_clust_7="13000.00000" pt_clust_8="13000.00000" pt_clust_9="38.63121" pt_clust_10="90.97187"></scales>
<clustering>
<clus scale="   38.631">  2  9  1 -1</clus>
<clus scale="   82.964">  5  6 -1 -1</clus>
<clus scale="   84.756">  7  8 -1 -1</clus>
<clus scale="   90.972">  2 10  1 -1</clus>
<clus scale="  133.760">  1  5  2 -1</clus>
<clus scale="   38.631">  2  5  1 -1</clus>
</clustering>
</event>
<event>
10    4  0.3403565E-005  0.2677775E+03  0.7546771E-02  0.1102558E+00
         21   -1    0    0  501  502  0.00000000000E+00  0.00000000000E+00  0.92468093055E+02  0.92468093055E+02  0.00000000000E+00 0. -1.
          4   -1    0    0  503    0 -0.00000000000E+00 -0.00000000000E+00 -0.80726409125E+03  0.80726409125E+03  0.00000000000E+00 0. -1.
         24    2    1    2    0    0  0.51518661581E+02  0.46963535429E+02 -0.11677187115E+03  0.16214397642E+03  0.88290730238E+02 0.  0.
         23    2    1    2    0    0  0.11868741165E+03  0.10112474218E+02 -0.17778869987E+03  0.23241236915E+03  0.90651661408E+02 0.  0.
        -11    1    3    3    0    0  0.33975167655E+02  0.73271761828E+02 -0.80675970532E+02  0.11415636347E+03  0.00000000000E+00 0.  1.
         12    1    3    3    0    0  0.17543493926E+02 -0.26308226400E+02 -0.36095900617E+02  0.47987612952E+02  0.00000000000E+00 0. -1.
        -11    1    4    4    0    0  0.59338422102E+02  0.47513998476E+02 -0.11733035628E+03  0.13980357968E+03  0.00000000000E+00 0. -1.
         11    1    4    4    0    0  0.59348989544E+02 -0.37401524258E+02 -0.60458343591E+02  0.92608789467E+02  0.00000000000E+00 0.  1.
         21    1    1    2  503  502 -0.47028818631E+01  0.39012516210E+02  0.42703657348E+01  0.39526314556E+02  0.00000000000E+00 0. -1.
          3    1    1    2  501    0 -0.16550319136E+03 -0.96088525856E+02 -0.42450579292E+03  0.46564952419E+03  0.00000000000E+00 0. -1.
<scales pt_clust_5="13000.00000" pt_clust_6="13000.00000" pt_clust_7="13000.00000" pt_clust_8="13000.00000" pt_clust_9="39.29496" pt_clust_10="187.14647"></scales>
<clustering>
<clus scale="   39.295">  1  9  2 -1</clus>
<clus scale="   88.291">  5  6 -1 -1</clus>
<clus scale="   90.652">  7  8 -1 -1</clus>
<clus scale="  104.206">  5  7 -1 -1</clus>
<clus scale="  187.146">  1 10  2 -1</clus>
<clus scale="   39.295">  1  5  2 -1</clus>
</clustering>
</event>
<event>
10    4  0.3403565E-005  0.2629861E+03  0.7546771E-02  0.1147590E+00
          2   -1    0    0  502    0 -0.00000000000E+00  0.00000000000E+00  0.10538496028E+04  0.10538496028E+04  0.00000000000E+00 0. -1.
         21   -1    0    0  503  502  0.00000000000E+00 -0.00000000000E+00 -0.33187118147E+03  0.33187118147E+03  0.00000000000E+00 0. -1.
         24    2    1    2    0    0 -0.46481067863E+02  0.56388607855E+01  0.46644941093E+03  0.47557872500E+03  0.80048637010E+02 0.  0.
         23    2    1    2    0    0 -0.13777461625E+03 -0.18286928613E+03  0.46799172221E+03  0.52893405227E+03  0.91279564499E+02 0.  0.
        -13    1    3    3    0    0 -0.22134014512E+02  0.28822631063E+02  0.82366178661E+02  0.90026918458E+02  0.00000000000E+00 0.  1.
         14    1    3    3    0    0 -0.24347053351E+02 -0.23183770278E+02  0.38408323227E+03  0.38555180654E+03  0.00000000000E+00 0. -1.
        -11    1    4    4    0    0 -0.50958303689E+02 -0.14015944670E+03  0.26563761286E+03  0.30463873782E+03  0.00000000000E+00 0.  1.
         11    1    4    4    0    0 -0.86816312565E+02 -0.42709839430E+02  0.20235410936E+03  0.22429531445E+03  0.00000000000E+00 0. -1.
         21    1    1    2  503  501  0.16133022072E+02  0.16998496326E+02 -0.13404428965E+03  0.13607753255E+03  0.00000000000E+00 0.  1.
          1    1    1    2  501    0  0.16812266204E+03  0.16023192902E+03 -0.78418422176E+02  0.24513047446E+03  0.00000000000E+00 0. -1.
<scales pt_clust_5="13000.00000" pt_clust_6="13000.00000" pt_clust_7="13000.00000" pt_clust_8="13000.00000" pt_clust_9="23.43551" pt_clust_10="246.63686"></scales>
<clustering>
<clus scale="   23.436">  2  9  1 -1</clus>
<clus scale="   80.049">  5  6 -1 -1</clus>
<clus scale="   91.280">  7  8 -1 -1</clus>
<clus scale="   92.574">  1  5  2 -1</clus>
<clus scale="  246.637">  2 10  1 -1</clus>
<clus scale="   23.436">  2  5  1 -1</clus>
</clustering>
</event>
<event>
10    4  0.3403565E-005  0.9235225E+02  0.7546771E-02  0.1303330E+00
         21   -1    0    0  501  502  0.00000000000E+00  0.00000000000E+00  0.19920153694E+03  0.19920153694E+03  0.00000000000E+00 0. -1.
          4   -1    0    0  503    0 -0.00000000000E+00 -0.00000000000E+00 -0.39278723497E+03  0.39278723497E+03  0.00000000000E+00 0. -1.
         23    2    1    2    0    0 -0.32300061411E+01 -0.26856948353E+01 -0.23303537185E+03  0.25016362433E+03  0.90877436744E+02 0.  0.
         24    2    1    2    0    0  0.38308501490E+02  0.14408283425E+02 -0.10497536300E+03  0.13871716845E+03  0.80916537658E+02 0.  0.
        -11    1    4    4    0    0 -0.79157067360E+01 -0.27229060892E+02 -0.36087132469E+02  0.45895111940E+02  0.00000000000E+00 0.  1.
         12    1    4    4    0    0  0.46224208226E+02  0.41637344317E+02 -0.68888230535E+02  0.92822056507E+02  0.00000000000E+00 0. -1.
        -13    1    3    3    0    0  0.13792071346E+02 -0.33599567437E+02 -0.40415137386E+02  0.54337238556E+02  0.00000000000E+00 0.  1.
         13    1    3    3    0    0 -0.17022077487E+02  0.30913872601E+02 -0.19262023447E+03  0.19582638578E+03  0.00000000000E+00 0. -1.
         21    1    1    2  503  502 -0.19325737205E+02  0.32310006284E+02  0.15123361838E+03  0.15584937585E+03  0.00000000000E+00 0. -1.
          3    1    1    2  501    0 -0.15752758144E+02 -0.44032594874E+02 -0.68085815545E+01  0.47258603272E+02  0.00000000000E+00 0. -1.
<scales pt_clust_5="13000.00000" pt_clust_6="13000.00000" pt_clust_7="13000.00000" pt_clust_8="13000.00000" pt_clust_9="37.64865" pt_clust_10="38.39869"></scales>
<clustering>
<clus scale="   37.649">  1  9  2 -1</clus>
<clus scale="   38.399">  1 10  2 -1</clus>
<clus scale="   80.917">  5  6 -1 -1</clus>
<clus scale="   82.569">  1  5  2 -1</clus>
<clus scale="   90.877">  7  8 -1 -1</clus>
<clus scale="   37.649">  1  5  2 -1</clus>
</clustering>
</event>
<event>
10    4  0.3403565E-005  0.5106244E+03  0.7546771E-02  0.1043254E+00
         21   -1    0    0  501  502  0.00000000000E+00  0.00000000000E+00  0.27610937424E+03  0.27610937424E+03  0.00000000000E+00 0. -1.
          2   -1    0    0  503    0 -0.00000000000E+00 -0.00000000000E+00 -0.18934965121E+04  0.18934965121E+04  0.00000000000E+00 0. -1.
         24    2    1    2    0    0 -0.14709664635E+03 -0.91341349377E+02 -0.67333403847E+03  0.70105377414E+03  0.90094402782E+02 0.  0.
         23    2    1    2    0    0 -0.12094802174E+03 -0.39886776367E+03 -0.73916600660E+03  0.85345379780E+03  0.91066364903E+02 0.  0.
        -13    1    3    3    0    0 -0.51576014755E+02 -0.68249739554E+00 -0.96961821295E+02  0.10982780108E+03  0.00000000000E+00 0.  1.
         14    1    3    3    0    0 -0.95520631594E+02 -0.90658851982E+02 -0.57637221717E+03  0.59122597307E+03  0.00000000000E+00 0. -1.
        -13    1    4    4    0    0 -0.11269377516E+03 -0.31793511700E+03 -0.65283945835E+03  0.73483466437E+03  0.00000000000E+00 0.  1.
         13    1    4    4    0    0 -0.82542465780E+01 -0.80932646674E+02 -0.86326548247E+02  0.11861913343E+03  0.00000000000E+00 0. -1.
         21    1    1    2  503  502 -0.18572003730E+02  0.28784515880E+02  0.79563813266E+00  0.34265153101E+02  0.00000000000E+00 0.  1.
          1    1    1    2  501    0  0.28661667182E+03  0.46142459717E+03 -0.20568273092E+03  0.58083316127E+03  0.00000000000E+00 0. -1.
<scales pt_clust_5="13000.00000" pt_clust_6="13000.00000" pt_clust_7="13000.00000" pt_clust_8="13000.00000" pt_clust_9="34.25591" pt_clust_10="502.43823"></scales>
<clustering>
<clus scale="   34.256">  1  9  2 -1</clus>
<clus scale="   90.094">  5  6 -1 -1</clus>
<clus scale="   91.066">  7  8 -1 -1</clus>
<clus scale="  195.223">  2  5  1 -1</clus>
<clus scale="  502.438">  1 10  2 -1</clus>
<clus scale="   34.256">  1  5  2 -1</clus>
</clustering>
</event>
<event>
10    4  0.3403565E-005  0.1974184E+03  0.7546771E-02  0.1184256E+00
          2   -1    0    0  503    0 -0.00000000000E+00  0.00000000000E+00  0.16507771221E+04  0.16507771221E+04  0.00000000000E+00 0. -1.
         21   -1    0    0  501  502  0.00000000000E+00 -0.00000000000E+00 -0.11873371854E+03  0.11873371854E+03  0.00000000000E+00 0. -1.
         24    2    1    2    0    0 -0.55584662393E+02 -0.10677429202E+01  0.31277323936E+03  0.32783649916E+03  0.80986888777E+02 0.  0.
         23    2    1    2    0    0  0.19063189485E+03  0.59446462632E+02  0.91031597626E+03  0.93640501502E+03  0.91130534210E+02 0.  0.
        -13    1    3    3    0    0 -0.53443747336E+02 -0.27208715956E+02  0.27735155418E+03  0.28376122526E+03  0.00000000000E+00 0.  1.
         14    1    3    3    0    0 -0.21409150570E+01  0.26140973036E+02  0.35421685171E+02  0.44075273895E+02  0.00000000000E+00 0. -1.
        -11    1    4    4    0    0  0.16879969629E+03  0.53298267480E+02  0.88450733486E+03  0.90204615636E+03  0.00000000000E+00 0.  1.
         11    1    4    4    0    0  0.21832198556E+02  0.61481951519E+01  0.25808641404E+02  0.34358858662E+02  0.00000000000E+00 0. -1.
         21    1    1    2  503  502  0.46208530097E+02 -0.32447404278E+02 -0.66686512755E+02  0.87379364163E+02  0.00000000000E+00 0. -1.
          1    1    1    2  501    0 -0.18125576255E+03 -0.25931315434E+02  0.37564070074E+03  0.41788996235E+03  0.00000000000E+00 0. -1.
<scales pt_clust_5="13000.00000" pt_clust_6="13000.00000" pt_clust_7="13000.00000" pt_clust_8="13000.00000" pt_clust_9="56.46293" pt_clust_10="175.12638"></scales>
<clustering>
<clus scale="   56.463">  2  9  1 -1</clus>
<clus scale="   80.987">  5  6 -1 -1</clus>
<clus scale="   91.131">  7  8 -1 -1</clus>
<clus scale="   94.013">  1  5  2 -1</clus>
<clus scale="  175.126">  2 10  1 -1</clus>
<clus scale="   56.463">  2  5  1 -1</clus>
</clustering>
</event>
<event>
10    4  0.3403565E-005  0.1027291E+03  0.7546771E-02  0.1283611E+00
         21   -1    0    0  501  502  0.00000000000E+00  0.00000000000E+00  0.36675376163E+02  0.36675376163E+02  0.00000000000E+00 0.  1.
          2   -1    0    0  503    0 -0.00000000000E+00 -0.00000000000E+00 -0.61053383071E+03  0.61053383071E+03  0.00000000000E+00 0. -1.
         23    2    1    2    0    0 -0.13243431007E+02  0.38264651156E+02 -0.38620427195E+03  0.40040690457E+03  0.97633895528E+02 0.  0.
         24    2    1    2    0    0 -0.22121613221E+02 -0.21230606714E+02 -0.14181973689E+03  0.16593545535E+03  0.80508590467E+02 0.  0.
        -13    1    4    4    0    0  0.83919920901E+01 -0.34813701683E+02 -0.23119250714E+02  0.42625334130E+02  0.00000000000E+00 0.  1.
         14    1    4    4    0    0 -0.30513605311E+02  0.13583094968E+02 -0.11870048617E+03  0.12331012122E+03  0.00000000000E+00 0. -1.
        -11    1    3    3    0    0 -0.13875142763E+02  0.68717583313E+02 -0.20487801067E+03  0.21654012353E+03  0.00000000000E+00 0. -1.
         11    1    3    3    0    0  0.63171175532E+00 -0.30452932158E+02 -0.18132626128E+03  0.18386678103E+03  0.00000000000E+00 0.  1.
         21    1    1    2  503  502  0.19859881923E+02  0.11658388972E+02  0.18420909272E+01  0.23102515932E+02  0.00000000000E+00 0. -1.
          1    1    1    2  501    0  0.15505162306E+02 -0.28692433414E+02 -0.47676536633E+02  0.57764331024E+02  0.00000000000E+00 0. -1.
<scales pt_clust_5="13000.00000" pt_clust_6="13000.00000" pt_clust_7="13000.00000" pt_clust_8="13000.00000" pt_clust_9="23.02896" pt_clust_10="32.79666"></scales>
<clustering>
<clus scale="   23.029">  1  9  2 -1</clus>
<clus scale="   32.797">  1 10  2 -1</clus>
<clus scale="   80.509">  5  6 -1 -1</clus>
<clus scale="   86.617">  1  5  2 -1</clus>
<clus scale="   97.634">  7  8 -1 -1</clus>
<clus scale="   23.029">  1  5  2 -1</clus>
</clustering>
</event>
<event>
10    4  0.3403565E-005  0.2608475E+03  0.7546771E-02  0.1144286E+00
         21   -1    0    0  503  502  0.00000000000E+00  0.00000000000E+00  0.89480073786E+03  0.89480073786E+03  0.00000000000E+00 0.  1.
          2   -1    0    0  502    0 -0.00000000000E+00 -0.00000000000E+00 -0.42159385777E+03  0.42159385777E+03  0.00000000000E+00 0. -1.
         23    2    1    2    0    0  0.42221579922E+02  0.25160343919E+02  0.71009779265E+02  0.12482001574E+03  0.90121822335E+02 0.  0.
         24    2    1    2    0    0  0.37376943635E+02  0.10278188306E+03  0.29260113277E+02  0.13837306130E+03  0.79560030570E+02 0.  0.
        -13    1    4    4    0    0  0.34237455222E+02  0.10498472864E+03  0.47153931607E+02  0.12007285227E+03  0.00000000000E+00 0.  1.
         14    1    4    4    0    0  0.31394884130E+01 -0.22028455759E+01 -0.17893818330E+02  0.18300209030E+02  0.00000000000E+00 0. -1.
        -13    1    3    3    0    0  0.67510075596E+02  0.26721221331E+02  0.34514708636E+02  0.80392158129E+02  0.00000000000E+00 0. -1.
         13    1    3    3    0    0 -0.25288495674E+02 -0.15608774126E+01  0.36495070629E+02  0.44427857612E+02  0.00000000000E+00 0.  1.
         21    1    1    2  503  501 -0.14655537605E+03  0.20990288022E+03  0.59202702124E+03  0.64500673737E+03  0.00000000000E+00 0.  1.
          1    1    1    2  501    0  0.66956852493E+02 -0.33784510720E+03 -0.21909003370E+03  0.40819478122E+03  0.00000000000E+00 0. -1.
<scales pt_clust_5="13000.00000" pt_clust_6="13000.00000" pt_clust_7="13000.00000" pt_clust_8="13000.00000" pt_clust_9="13000.00000" pt_clust_10="260.84750"></scales>
<clustering>
<clus scale="   79.560">  5  6 -1 -1</clus>
<clus scale="   90.122">  7  8 -1 -1</clus>
<clus scale="  102.653">  2  7  1 -1</clus>
<clus scale="  139.600">  2  5  1 -1</clus>
<clus scale="  260.847">  2 10  1 -1</clus>
<clus scale="  260.847">  1  5  2 -1</clus>
</clustering>
</event>
<event>
10    4  0.3403565E-005  0.3175780E+03  0.7546771E-02  0.1106671E+00
          2   -1    0    0  502    0 -0.00000000000E+00  0.00000000000E+00  0.44878359112E+04  0.44878359112E+04  0.00000000000E+00 0. -1.
         21   -1    0    0  503  502  0.00000000000E+00 -0.00000000000E+00 -0.68210074335E+02  0.68210074335E+02  0.00000000000E+00 0. -1.
         23    2    1    2    0    0  0.37777286193E+02  0.82350653649E+02  0.28328060770E+03  0.31133608390E+03  0.92051621020E+02 0.  0.
         24    2    1    2    0    0  0.31081067323E+02 -0.37226944669E+03  0.32335466125E+04  0.32560126975E+04  0.79021625893E+02 0.  0.
        -13    1    4    4    0    0  0.89621169351E+01 -0.60178571699E+02  0.32148723387E+03  0.32719385931E+03  0.00000000000E+00 0.  1.
         14    1    4    4    0    0  0.22118950388E+02 -0.31209087499E+03  0.29120593786E+04  0.29288188382E+04  0.00000000000E+00 0. -1.
        -13    1    3    3    0    0  0.63172210955E+01  0.58949679023E+02  0.25790580451E+03  0.26463253001E+03  0.00000000000E+00 0. -1.
         13    1    3    3    0    0  0.31460065098E+02  0.23400974627E+02  0.25374803192E+02  0.46703553896E+02  0.00000000000E+00 0.  1.
         21    1    1    2  503  501  0.95249811804E+02  0.40569566122E+02  0.20245108222E+03  0.22738702038E+03  0.00000000000E+00 0. -1.
          1    1    1    2  501    0 -0.16410816532E+03  0.24934922692E+03  0.70034753444E+03  0.76131018375E+03  0.00000000000E+00 0. -1.
<scales pt_clust_5="13000.00000" pt_clust_6="13000.00000" pt_clust_7="13000.00000" pt_clust_8="13000.00000" pt_clust_9="103.52978" pt_clust_10="307.58963"></scales>
<clustering>
<clus scale="   79.022">  5  6 -1 -1</clus>
<clus scale="   92.052">  7  8 -1 -1</clus>
<clus scale="  103.530">  2  9  1 -1</clus>
<clus scale="  144.408">  1  7  2 -1</clus>
<clus scale="  307.590">  2 10  1 -1</clus>
<clus scale="  103.530">  2  5  1 -1</clus>
</clustering>
</event>
<event>
10    4  0.3403565E-005  0.2884416E+03  0.7546771E-02  0.1091166E+00
         -3   -1    0    0    0  501 -0.00000000000E+00  0.00000000000E+00  0.10131039996E+04  0.10131039996E+04  0.00000000000E+00 0.  1.
         21   -1    0    0  503  502  0.00000000000E+00 -0.00000000000E+00 -0.14435444598E+03  0.14435444598E+03  0.00000000000E+00 0.  1.
         24    2    1    2    0    0  0.14617030036E+03 -0.70510787477E+02  0.16530157684E+03  0.24464047862E+03  0.78656370460E+02 0.  0.
         23    2    1    2    0    0  0.59230299275E+02 -0.49412004363E+02  0.20590064196E+03  0.23716632288E+03  0.88898907882E+02 0.  0.
        -13    1    3    3    0    0  0.15159046877E+03 -0.76540142549E+02  0.16460796808E+03  0.23650337587E+03  0.00000000000E+00 0.  1.
         14    1    3    3    0    0 -0.54201684019E+01  0.60293550721E+01  0.69360876449E+00  0.81371027527E+01  0.00000000000E+00 0. -1.
        -11    1    4    4    0    0 -0.57695699619E+01 -0.24959538954E+02  0.70979970039E+01  0.26582853192E+02  0.00000000000E+00 0. -1.
         11    1    4    4    0    0  0.64999869236E+02 -0.24452465409E+02  0.19880264496E+03  0.21058346969E+03  0.00000000000E+00 0.  1.
         21    1    1    2  503  501 -0.86478630972E+02  0.17999269046E+03  0.46082269776E+02  0.20493779013E+03  0.00000000000E+00 0.  1.
         -4    1    1    2    0  502 -0.11892196867E+03 -0.60069898622E+02  0.45146506504E+03  0.47071385395E+03  0.00000000000E+00 0.  1.
<scales pt_clust_5="13000.00000" pt_clust_6="13000.00000" pt_clust_7="13000.00000" pt_clust_8="13000.00000" pt_clust_9="213.12609" pt_clust_10="133.23230"></scales>
<clustering>
<clus scale="   78.656">  5  6 -1 -1</clus>
<clus scale="   88.899">  7  8 -1 -1</clus>
<clus scale="  105.993">  5  7 -1 -1</clus>
<clus scale="  133.232">  2 10  1 -1</clus>
<clus scale="  213.126">  2  9  1 -1</clus>
<clus scale="  133.232">  2  5  1 -1</clus>
</clustering>
</event>
<event>
10    4  0.3403565E-005  0.1204035E+03  0.7546771E-02  0.1248413E+00
          2   -1    0    0  503    0 -0.00000000000E+00  0.00000000000E+00  0.44062780000E+03  0.44062780000E+03  0.00000000000E+00 0. -1.
         21   -1    0    0  501  502  0.00000000000E+00 -0.00000000000E+00 -0.27222040309E+03  0.27222040309E+03  0.00000000000E+00 0. -1.
         24    2    1    2    0    0 -0.28454001116E+02 -0.60043502623E+02  0.80049350113E+02  0.13131824158E+03  0.80135695743E+02 0.  0.
         23    2    1    2    0    0  0.73968100455E+02  0.79643649871E+02 -0.18825529267E+03  0.23828104156E+03  0.97587953673E+02 0.  0.
        -11    1    3    3    0    0 -0.11566388149E+02  0.19559949521E+02  0.17471771870E+02  0.28664189721E+02  0.00000000000E+00 0.  1.
         12    1    3    3    0    0 -0.16887612967E+02 -0.79603452144E+02  0.62577578243E+02  0.10265405186E+03  0.00000000000E+00 0. -1.
        -11    1    4    4    0    0  0.13721337261E+01 -0.21382176242E+02 -0.32766896702E+02  0.39150347780E+02  0.00000000000E+00 0.  1.
         11    1    4    4    0    0  0.72595966729E+02  0.10102582611E+03 -0.15548839597E+03  0.19913069378E+03  0.00000000000E+00 0. -1.
         21    1    1    2  503  502  0.11739365340E+02 -0.23528765633E+02 -0.24965323787E+02  0.36258556267E+02  0.00000000000E+00 0. -1.
          1    1    1    2  501    0 -0.57253464680E+02  0.39286183847E+01  0.30157866325E+03  0.30699036367E+03  0.00000000000E+00 0. -1.
<scales pt_clust_5="13000.00000" pt_clust_6="13000.00000" pt_clust_7="13000.00000" pt_clust_8="13000.00000" pt_clust_9="26.29478" pt_clust_10="57.23948"></scales>
<clustering>
<clus scale="   26.295">  2  9  1 -1</clus>
<clus scale="   57.239">  2 10  1 -1</clus>
<clus scale="   80.136">  5  6 -1 -1</clus>
<clus scale="   97.588">  7  8 -1 -1</clus>
<clus scale="  106.749">  1  5  2 -1</clus>
<clus scale="   26.295">  2  5  1 -1</clus>
</clustering>
</event>
<event>
10    4  0.3403565E-005  0.2291649E+03  0.7546771E-02  0.1154430E+00
         -3   -1    0    0    0  501 -0.00000000000E+00  0.00000000000E+00  0.77473488341E+03  0.77473488341E+03  0.00000000000E+00 0.  1.
         21   -1    0    0  503  502  0.00000000000E+00 -0.00000000000E+00 -0.32864215021E+03  0.32864215021E+03  0.00000000000E+00 0.  1.
         23    2    1    2    0    0  0.11737869147E+03 -0.30565379441E+02  0.29106629429E+02  0.15447537222E+03  0.91123241349E+02 0.  0.
         24    2    1    2    0    0  0.16335492495E+03 -0.98775741193E+02  0.42552523552E+03  0.47322664748E+03  0.80188872458E+02 0.  0.
        -13    1    4    4    0    0  0.15518703007E+03 -0.63540519531E+02  0.31385068000E+03  0.35584078077E+03  0.00000000000E+00 0.  1.
         14    1    4    4    0    0  0.81678948870E+01 -0.35235221661E+02  0.11167455552E+03  0.11738586671E+03  0.00000000000E+00 0. -1.
        -13    1    3    3    0    0  0.12028876098E+03 -0.48250895244E+01  0.39299709881E+02  0.12663780914E+03  0.00000000000E+00 0. -1.
         13    1    3    3    0    0 -0.29100695015E+01 -0.25740289917E+02 -0.10193080452E+02  0.27837563087E+02  0.00000000000E+00 0.  1.
         21    1    1    2  503  501 -0.92754373957E+02  0.32850366262E+02 -0.17895189306E+03  0.20422120478E+03  0.00000000000E+00 0.  1.
         -4    1    1    2    0  502 -0.18797924247E+03  0.96490754371E+02  0.17041276131E+03  0.27145380914E+03  0.00000000000E+00 0.  1.
<scales pt_clust_5="13000.00000" pt_clust_6="13000.00000" pt_clust_7="13000.00000" pt_clust_8="13000.00000" pt_clust_9="98.39980" pt_clust_10="214.67721"></scales>
<clustering>
<clus scale="   80.189">  5  6 -1 -1</clus>
<clus scale="   91.123">  7  8 -1 -1</clus>
<clus scale="   98.400">  2  9  1 -1</clus>
<clus scale="  119.010">  1  7  2 -1</clus>
<clus scale="  214.677">  2 10  1 -1</clus>
<clus scale="   98.400">  2  5  1 -1</clus>
</clustering>
</event>
<event>
10    4  0.3403565E-005  0.1819392E+03  0.7546771E-02  0.1199390E+00
         -1   -1    0    0    0  501 -0.00000000000E+00  0.00000000000E+00  0.41664080776E+03  0.41664080776E+03  0.00000000000E+00 0.  1.
         21   -1    0    0  503  502  0.00000000000E+00 -0.00000000000E+00 -0.66404119079E+03  0.66404119079E+03  0.00000000000E+00 0.  1.
         24    2    1    2    0    0  0.24728685703E+02  0.12838837091E+02  0.23391962597E+03  0.24924852669E+03  0.81425383083E+02 0.  0.
         23    2    1    2    0    0 -0.48430829015E+02  0.23547336646E+02  0.77685479143E+02  0.13070310407E+03  0.90267632531E+02 0.  0.
        -11    1    3    3    0    0 -0.76764540307E+01  0.36070246545E+02  0.16967664071E+03  0.17363799422E+03  0.00000000000E+00 0.  1.
         12    1    3    3    0    0  0.32405139734E+02 -0.23231409454E+02  0.64242985254E+02  0.75610532473E+02  0.00000000000E+00 0. -1.
        -11    1    4    4    0    0 -0.41191179327E+02  0.57218206256E+02  0.55613295957E+02  0.89796854448E+02  0.00000000000E+00 0.  1.
         11    1    4    4    0    0 -0.72396496874E+01 -0.33670869610E+02  0.22072183186E+02  0.40906249626E+02  0.00000000000E+00 0. -1.
         21    1    1    2  503  501 -0.12842896072E+03  0.80980711593E+02 -0.55239225735E+02  0.16156498897E+03  0.00000000000E+00 0. -1.
         -2    1    1    2    0  502  0.15213110403E+03 -0.11736688533E+03 -0.50376626240E+03  0.53916537882E+03  0.00000000000E+00 0.  1.
<scales pt_clust_5="13000.00000" pt_clust_6="13000.00000" pt_clust_7="13000.00000" pt_clust_8="13000.00000" pt_clust_9="13000.00000" pt_clust_10="181.93925"></scales>
<clustering>
<clus scale="   81.425">  5  6 -1 -1</clus>
<clus scale="   86.061">  1  5  2 -1</clus>
<clus scale="   90.268">  7  8 -1 -1</clus>
<clus scale="  101.279">  1  7  2 -1</clus>
<clus scale="  181.939">  2 10  1 -1</clus>
<clus scale="  181.939">  2  5  1 -1</clus>
</clustering>
</event>
<event>
10    4  0.3403565E-005  0.9295119E+02  0.7546771E-02  0.1302850E+00
          2   -1    0    0  503    0 -0.00000000000E+00  0.00000000000E+00  0.14441733794E+03  0.14441733794E+03  0.00000000000E+00 0. -1.
         21   -1    0    0  501  502  0.00000000000E+00 -0.00000000000E+00 -0.16785033987E+03  0.16785033987E+03  0.00000000000E+00 0. -1.
         23    2    1    2    0    0 -0.19127268194E+02  0.69911836650E+01  0.25683700988E+02  0.97079078627E+02  0.91378148225E+02 0.  0.
         24    2    1    2    0    0 -0.25479716153E+02  0.40961224301E+02  0.23556375130E+02  0.96264604193E+02  0.79905778137E+02 0.  0.
        -13    1    4    4    0    0 -0.17382428196E+02 -0.20997386512E+02  0.19753270802E+02  0.33663492952E+02  0.00000000000E+00 0.  1.
         14    1    4    4    0    0 -0.80972879569E+01  0.61958610812E+02  0.38031043278E+01  0.62601111241E+02  0.00000000000E+00 0. -1.
        -11    1    3    3    0    0  0.32679603728E+02 -0.51769622754E+01 -0.80746063166E+01  0.34058137139E+02  0.00000000000E+00 0. -1.
         11    1    3    3    0    0 -0.51806871922E+02  0.12168145940E+02  0.33758307304E+02  0.63020941488E+02  0.00000000000E+00 0.  1.
         21    1    1    2  503  502  0.15400483436E+02  0.16282565983E+02 -0.25978069565E+02  0.34309720829E+02  0.00000000000E+00 0.  1.
          1    1    1    2  501    0  0.29206500911E+02 -0.64234973949E+02 -0.46695008484E+02  0.84614274156E+02  0.00000000000E+00 0. -1.
<scales pt_clust_5="13000.00000" pt_clust_6="13000.00000" pt_clust_7="13000.00000" pt_clust_8="13000.00000" pt_clust_9="22.41198" pt_clust_10="67.26742"></scales>
<clustering>
<clus scale="   22.412">  2  9  1 -1</clus>
<clus scale="   67.267">  2 10  1 -1</clus>
<clus scale="   79.906">  5  6 -1 -1</clus>
<clus scale="   81.700">  2  5  1 -1</clus>
<clus scale="   91.378">  7  8 -1 -1</clus>
<clus scale="   22.412">  2  5  1 -1</clus>
</clustering>
</event>
<event>
10    4  0.3403565E-005  0.1068968E+03  0.7546771E-02  0.1271737E+00
          2   -1    0    0  503    0 -0.00000000000E+00  0.00000000000E+00  0.88224166152E+03  0.88224166152E+03  0.00000000000E+00 0. -1.
         21   -1    0    0  501  502  0.00000000000E+00 -0.00000000000E+00 -0.50011869245E+02  0.50011869245E+02  0.00000000000E+00 0.  1.
         23    2    1    2    0    0 -0.53928328484E+02  0.29289108260E+01  0.48742835014E+03  0.49899454454E+03  0.92153761897E+02 0.  0.
         24    2    1    2    0    0  0.50870584225E+02 -0.28844778034E+02  0.20519171346E+03  0.22779656773E+03  0.79798492681E+02 0.  0.
        -11    1    4    4    0    0  0.47584196400E+01 -0.46047525597E+02  0.69979325286E+02  0.83905441650E+02  0.00000000000E+00 0.  1.
         12    1    4    4    0    0  0.46112164585E+02  0.17202747563E+02  0.13521238818E+03  0.14389112608E+03  0.00000000000E+00 0. -1.
        -13    1    3    3    0    0 -0.73904237050E+02 -0.11862108332E+02  0.42927862693E+03  0.43575530451E+03  0.00000000000E+00 0.  1.
         13    1    3    3    0    0  0.19975908566E+02  0.14791019158E+02  0.58149723210E+02  0.63239240035E+02  0.00000000000E+00 0. -1.
         21    1    1    2  503  502 -0.18552782994E+02  0.20559596216E+02 -0.26224923929E+02  0.38139866131E+02  0.00000000000E+00 0.  1.
          1    1    1    2  501    0  0.21610527253E+02  0.53562709924E+01  0.16583465260E+03  0.16732255236E+03  0.00000000000E+00 0. -1.
<scales pt_clust_5="13000.00000" pt_clust_6="13000.00000" pt_clust_7="13000.00000" pt_clust_8="13000.00000" pt_clust_9="24.46402" pt_clust_10="22.26443"></scales>
<clustering>
<clus scale="   22.264">  2 10  1 -1</clus>
<clus scale="   24.464">  2  9  1 -1</clus>
<clus scale="   79.798">  5  6 -1 -1</clus>
<clus scale="   92.154">  7  8 -1 -1</clus>
<clus scale="   96.449">  2  5  1 -1</clus>
<clus scale="   22.264">  2  5  1 -1</clus>
</clustering>
</event>
<event>
10    4  0.3403565E-005  0.2821928E+03  0.7546771E-02  0.1094497E+00
         21   -1    0    0  501  502  0.00000000000E+00  0.00000000000E+00  0.10999316075E+03  0.10999316075E+03  0.00000000000E+00 0.  1.
          2   -1    0    0  503    0 -0.00000000000E+00 -0.00000000000E+00 -0.83718007598E+03  0.83718007598E+03  0.00000000000E+00 0. -1.
         24    2    1    2    0    0  0.12024166670E+03  0.34041050836E+02 -0.96393289742E+02  0.17579666667E+03  0.77433520870E+02 0.  0.
         23    2    1    2    0    0  0.70423275538E+02  0.61238295237E+02 -0.53787485170E+02  0.13956134455E+03  0.88739555956E+02 0.  0.
        -11    1    3    3    0    0  0.12623486012E+03  0.37253123739E+02 -0.71076092857E+02  0.14958223863E+03  0.00000000000E+00 0.  1.
         12    1    3    3    0    0 -0.59931934195E+01 -0.32120729029E+01 -0.25317196886E+02  0.26214428047E+02  0.00000000000E+00 0. -1.
        -11    1    4    4    0    0  0.11982729680E+02 -0.17507232979E+02  0.90808710688E+01  0.23077071663E+02  0.00000000000E+00 0.  1.
         11    1    4    4    0    0  0.58440545858E+02  0.78745528216E+02 -0.62868356239E+02  0.11648427289E+03  0.00000000000E+00 0. -1.
         21    1    1    2  503  502  0.22635299474E+02  0.24078272499E+01 -0.48318465804E+02  0.53411876507E+02  0.00000000000E+00 0.  1.
          1    1    1    2  501    0 -0.21330024171E+03 -0.97687173323E+02 -0.52868767451E+03  0.57840334899E+03  0.00000000000E+00 0. -1.
<scales pt_clust_5="13000.00000" pt_clust_6="13000.00000" pt_clust_7="13000.00000" pt_clust_8="13000.00000" pt_clust_9="22.76301" pt_clust_10="219.47142"></scales>
<clustering>
<clus scale="   22.763">  2  9  1 -1</clus>
<clus scale="   77.434">  5  6 -1 -1</clus>
<clus scale="   88.740">  7  8 -1 -1</clus>
<clus scale="  102.424">  5  7 -1 -1</clus>
<clus scale="  219.471">  1 10  2 -1</clus>
<clus scale="  219.471">  1  5  2 -1</clus>
</clustering>
</event>
<event>
10    4  0.3403565E-005  0.1380417E+03  0.7546771E-02  0.1218016E+00
          2   -1    0    0  503    0 -0.00000000000E+00  0.00000000000E+00  0.31189386693E+03  0.31189386693E+03  0.00000000000E+00 0. -1.
         21   -1    0    0  501  502  0.00000000000E+00 -0.00000000000E+00 -0.69529538935E+03  0.69529538935E+03  0.00000000000E+00 0. -1.
         24    2    1    2    0    0 -0.90207906200E+02 -0.18072900240E+02  0.16046637513E+03  0.20270832384E+03  0.82928348244E+02 0.  0.
         23    2    1    2    0    0  0.12322460407E+03  0.44177959487E+02  0.72097732154E+02  0.17542505445E+03  0.91868773780E+02 0.  0.
        -13    1    3    3    0    0 -0.60409013340E+02  0.28523597103E+02  0.10445422166E+03  0.12399003552E+03  0.00000000000E+00 0.  1.
         14    1    3    3    0    0 -0.29798892860E+02 -0.46596497344E+02  0.56012153469E+02  0.78718288324E+02  0.00000000000E+00 0. -1.
        -11    1    4    4    0    0  0.76686700475E+02 -0.13962610833E+02  0.10247293434E+02  0.78618137563E+02  0.00000000000E+00 0.  1.
         11    1    4    4    0    0  0.46537903594E+02  0.58140570320E+02  0.61850438720E+02  0.96806916891E+02  0.00000000000E+00 0. -1.
         21    1    1    2  503  502  0.45612477999E+02 -0.12755384246E+02 -0.20207884462E+03  0.20755495036E+03  0.00000000000E+00 0.  1.
          1    1    1    2  501    0 -0.78629175868E+02 -0.13349675001E+02 -0.41388678508E+03  0.42150092762E+03  0.00000000000E+00 0. -1.
<scales pt_clust_5="13000.00000" pt_clust_6="13000.00000" pt_clust_7="13000.00000" pt_clust_8="13000.00000" pt_clust_9="47.36241" pt_clust_10="46.57368"></scales>
<clustering>
<clus scale="   47.362">  2  9  1 -1</clus>
<clus scale="   46.574">  2 10  1 -1</clus>
<clus scale="   82.928">  5  6 -1 -1</clus>
<clus scale="   91.869">  7  8 -1 -1</clus>
<clus scale="  132.260">  1  5  2 -1</clus>
<clus scale="   47.362">  2  5  1 -1</clus>
</clustering>
</event>
<event>
10    4  0.3403565E-005  0.1169369E+03  0.7546771E-02  0.1262910E+00
         21   -1    0    0  503  502  0.00000000000E+00  0.00000000000E+00  0.14231373235E+03  0.14231373235E+03  0.00000000000E+00 0. -1.
          2   -1    0    0  502    0 -0.00000000000E+00 -0.00000000000E+00 -0.88608763505E+03  0.88608763505E+03  0.00000000000E+00 0. -1.
         24    2    1    2    0    0 -0.32242261714E+02  0.26493335746E+02 -0.38405162971E+03  0.39406812946E+03  0.77798303941E+02 0.  0.
         23    2    1    2    0    0 -0.67356624215E+02 -0.93078864224E+02 -0.11199987065E+03  0.19447995744E+03  0.10989946782E+03 0.  0.
        -11    1    3    3    0    0 -0.47553956826E+02 -0.91037959811E+01 -0.24382568807E+03  0.24858645191E+03  0.00000000000E+00 0.  1.
         12    1    3    3    0    0  0.15311695112E+02  0.35597131727E+02 -0.14022594164E+03  0.14548167755E+03  0.00000000000E+00 0. -1.
        -13    1    4    4    0    0 -0.10913335877E+02  0.25379251095E+02 -0.22727465887E+02  0.35773523614E+02  0.00000000000E+00 0.  1.
         13    1    4    4    0    0 -0.56443288339E+02 -0.11845811532E+03 -0.89272404766E+02  0.15870643382E+03  0.00000000000E+00 0. -1.
         21    1    1    2  503  501  0.63128017461E+02  0.20707351718E+00  0.80900185939E+02  0.10261593226E+03  0.00000000000E+00 0. -1.
          1    1    1    2  501    0  0.36470868468E+02  0.66378454962E+02 -0.32862258828E+03  0.33723734825E+03  0.00000000000E+00 0. -1.
<scales pt_clust_5="13000.00000" pt_clust_6="13000.00000" pt_clust_7="13000.00000" pt_clust_8="13000.00000" pt_clust_9="63.12836" pt_clust_10="78.48453"></scales>
<clustering>
<clus scale="   63.128">  1  9  2 -1</clus>
<clus scale="   77.798">  5  6 -1 -1</clus>
<clus scale="   78.485">  1 10  2 -1</clus>
<clus scale="   87.458">  2  5  1 -1</clus>
<clus scale="  109.899">  7  8 -1 -1</clus>
<clus scale="   63.128">  1  5  2 -1</clus>
</clustering>
</event>
<event>
10    4  0.3403565E-005  0.1025906E+03  0.7546771E-02  0.1282757E+00
          2   -1    0    0  503    0 -0.00000000000E+00  0.00000000000E+00  0.25684189120E+03  0.25684189120E+03  0.00000000000E+00 0. -1.
         21   -1    0    0  501  502  0.00000000000E+00 -0.00000000000E+00 -0.13488947373E+03  0.13488947373E+03  0.00000000000E+00 0. -1.
         24    2    1    2    0    0 -0.27787352219E+02 -0.75786443592E+01  0.15572325788E+03  0.17795258059E+03  0.81165356520E+02 0.  0.
         23    2    1    2    0    0  0.78192367837E+02 -0.39923999490E+02 -0.30398352626E+01  0.13045161731E+03  0.96438642348E+02 0.  0.
        -11    1    3    3    0    0 -0.37913771512E+02 -0.28404708871E+02  0.46790410569E+02  0.66585464461E+02  0.00000000000E+00 0.  1.
         12    1    3    3    0    0  0.10126419293E+02  0.20826064512E+02  0.10893284731E+03  0.11136711612E+03  0.00000000000E+00 0. -1.
        -11    1    4    4    0    0  0.50366311625E+02  0.15219741691E+02  0.29830087124E+02  0.60483385997E+02  0.00000000000E+00 0. -1.
         11    1    4    4    0    0  0.27826056213E+02 -0.55143741181E+02 -0.32869922387E+02  0.69968231316E+02  0.00000000000E+00 0.  1.
         21    1    1    2  503  502 -0.18558365315E+02  0.99878416077E+01 -0.26610689507E+02  0.33945525467E+02  0.00000000000E+00 0. -1.
          1    1    1    2  501    0 -0.31846650303E+02  0.37514802241E+02 -0.41203156406E+01  0.49381641566E+02  0.00000000000E+00 0. -1.
<scales pt_clust_5="13000.00000" pt_clust_6="13000.00000" pt_clust_7="13000.00000" pt_clust_8="13000.00000" pt_clust_9="21.07534" pt_clust_10="54.26338"></scales>
<clustering>
<clus scale="   21.075">  2  9  1 -1</clus>
<clus scale="   54.263">  2 10  1 -1</clus>
<clus scale="   81.165">  5  6 -1 -1</clus>
<clus scale="   88.387">  1  5  2 -1</clus>
<clus scale="   96.439">  7  8 -1 -1</clus>
<clus scale="   21.075">  2  5  1 -1</clus>
</clustering>
</event>
<event>
10    4  0.3403565E-005  0.9489907E+02  0.7546771E-02  0.1301547E+00
          2   -1    0    0  503    0 -0.00000000000E+00  0.00000000000E+00  0.50588937455E+03  0.50588937455E+03  0.00000000000E+00 0. -1.
         21   -1    0    0  501  502  0.00000000000E+00 -0.00000000000E+00 -0.15034271159E+03  0.15034271159E+03  0.00000000000E+00 0.  1.
         24    2    1    2    0    0  0.23934198677E+02 -0.11548047794E+02  0.43195366052E+03  0.43912835401E+03  0.74454974239E+02 0.  0.
         23    2    1    2    0    0  0.10240773517E+02 -0.24159042691E+02 -0.10650556744E+03  0.14282336548E+03  0.91468820066E+02 0.  0.
        -11    1    3    3    0    0  0.28021537657E+02  0.27104981321E+02  0.17816442247E+03  0.18237995509E+03  0.00000000000E+00 0.  1.
         12    1    3    3    0    0 -0.40873389795E+01 -0.38653029115E+02  0.25378923805E+03  0.25674839892E+03  0.00000000000E+00 0. -1.
        -13    1    4    4    0    0  0.27989249546E+02  0.26233043922E+01  0.34009005170E+01  0.28316884369E+02  0.00000000000E+00 0. -1.
         13    1    4    4    0    0 -0.17748476029E+02 -0.26782347084E+02 -0.10990646796E+03  0.11450648111E+03  0.00000000000E+00 0.  1.
         21    1    1    2  503  502 -0.28264855013E+02 -0.21237938542E+01  0.58012740998E+01  0.28932115554E+02  0.00000000000E+00 0. -1.
          1    1    1    2  501    0 -0.59101171811E+01  0.37830884339E+02  0.24297295775E+02  0.45348251091E+02  0.00000000000E+00 0. -1.
<scales pt_clust_5="13000.00000" pt_clust_6="13000.00000" pt_clust_7="13000.00000" pt_clust_8="13000.00000" pt_clust_9="28.34453" pt_clust_10="38.52115"></scales>
<clustering>
<clus scale="   28.345">  2  9  1 -1</clus>
<clus scale="   38.521">  2 10  1 -1</clus>
<clus scale="   74.455">  5  6 -1 -1</clus>
<clus scale="   78.631">  1  5  2 -1</clus>
<clus scale="   91.469">  7  8 -1 -1</clus>
<clus scale="   28.345">  2  5  1 -1</clus>
</clustering>
</event>
<event>
10    4  0.3403565E-005  0.9934539E+02  0.7546771E-02  0.1288894E+00
          2   -1    0    0  502    0 -0.00000000000E+00  0.00000000000E+00  0.20634122829E+03  0.20634122829E+03  0.00000000000E+00 0. -1.
         21   -1    0    0  503  502  0.00000000000E+00 -0.00000000000E+00 -0.25955701335E+03  0.25955701335E+03  0.00000000000E+00 0. -1.
         23    2    1    2    0    0 -0.38454753910E+02 -0.25859960062E+02  0.77198467965E+02  0.12818536055E+03  0.91238026995E+02 0.  0.
         24    2    1    2    0    0 -0.58181873514E+01 -0.10616608459E+02 -0.17284690219E+03  0.18972127619E+03  0.77275787693E+02 0.  0.
        -11    1    4    4    0    0  0.93087368244E+01 -0.38063745393E+02 -0.53421259383E+02  0.66252035808E+02  0.00000000000E+00 0.  1.
         12    1    4    4    0    0 -0.15126924176E+02  0.27447136934E+02 -0.11942564281E+03  0.12346924038E+03  0.00000000000E+00 0. -1.
        -13    1    3    3    0    0  0.27146529582E+02 -0.96110679056E+00  0.41130222977E+02  0.49290496415E+02  0.00000000000E+00 0.  1.
         13    1    3    3    0    0 -0.65601283493E+02 -0.24898853271E+02  0.36068244988E+02  0.78894864133E+02  0.00000000000E+00 0. -1.
         21    1    1    2  503  501 -0.39989043754E+02  0.29729590406E+02 -0.66061317214E+01  0.50265426909E+02  0.00000000000E+00 0. -1.
          1    1    1    2  501    0  0.84261985015E+02  0.67469781149E+01  0.49038780885E+02  0.97726177983E+02  0.00000000000E+00 0. -1.
<scales pt_clust_5="13000.00000" pt_clust_6="13000.00000" pt_clust_7="13000.00000" pt_clust_8="13000.00000" pt_clust_9="49.82943" pt_clust_10="80.65723"></scales>
<clustering>
<clus scale="   49.829">  2  9  1 -1</clus>
<clus scale="   77.276">  5  6 -1 -1</clus>
<clus scale="   80.657">  2 10  1 -1</clus>
<clus scale="   86.699">  2  5  1 -1</clus>
<clus scale="   91.238">  7  8 -1 -1</clus>
<clus scale="   49.829">  2  5  1 -1</clus>
</clustering>
</event>
<event>
10    4  0.3403565E-005  0.1430581E+03  0.7546771E-02  0.1211288E+00
         21   -1    0    0  503  502  0.00000000000E+00  0.00000000000E+00  0.11972677884E+04  0.11972677884E+04  0.00000000000E+00 0.  1.
          2   -1    0    0  502    0 -0.00000000000E+00 -0.00000000000E+00 -0.48136860726E+02  0.48136860726E+02  0.00000000000E+00 0. -1.
         24    2    1    2    0    0  0.63717317621E+02 -0.73192158218E+02  0.39539829498E+03  0.41525758811E+03  0.81743894088E+02 0.  0.
         23    2    1    2    0    0 -0.27749856428E+02  0.13285041034E+03  0.52536473009E+03  0.55026942002E+03  0.91482506113E+02 0.  0.
        -13    1    3    3    0    0  0.71750271385E+02 -0.22410262107E+02  0.22060597332E+03  0.23306075765E+03  0.00000000000E+00 0.  1.
         14    1    3    3    0    0 -0.80329537645E+01 -0.50781896111E+02  0.17479232165E+03  0.18219683046E+03  0.00000000000E+00 0. -1.
        -13    1    4    4    0    0 -0.69383516479E+01  0.78577224327E+02  0.43986521733E+03  0.44688245695E+03  0.00000000000E+00 0.  1.
         13    1    4    4    0    0 -0.20811504780E+02  0.54273186018E+02  0.85499512756E+02  0.10338696307E+03  0.00000000000E+00 0. -1.
         21    1    1    2  503  501 -0.45963031305E+02  0.10118689574E+02  0.19731743067E+03  0.20285254884E+03  0.00000000000E+00 0.  1.
          1    1    1    2  501    0  0.99955701121E+01 -0.69776941701E+02  0.31050471943E+02  0.77025092164E+02  0.00000000000E+00 0. -1.
<scales pt_clust_5="13000.00000" pt_clust_6="13000.00000" pt_clust_7="13000.00000" pt_clust_8="13000.00000" pt_clust_9="47.06366" pt_clust_10="69.63424"></scales>
<clustering>
<clus scale="   47.064">  1  9  2 -1</clus>
<clus scale="   69.634">  1 10  2 -1</clus>
<clus scale="   81.744">  5  6 -1 -1</clus>
<clus scale="   91.483">  7  8 -1 -1</clus>
<clus scale="  137.035">  2  5  1 -1</clus>
<clus scale="   47.064">  1  5  2 -1</clus>
</clustering>
</event>
<event>
10    4  0.3403565E-005  0.1610271E+03  0.7546771E-02  0.1188485E+00
          2   -1    0    0  503    0 -0.00000000000E+00  0.00000000000E+00  0.40656166865E+03  0.40656166865E+03  0.00000000000E+00 0. -1.
         21   -1    0    0  501  502  0.00000000000E+00 -0.00000000000E+00 -0.19561248009E+03  0.19561248009E+03  0.00000000000E+00 0.  1.
         24    2    1    2    0    0  0.33828411397E+02  0.11615353137E+03  0.16359484059E+03  0.21881374448E+03  0.80499556751E+02 0.  0.
         23    2    1    2    0    0  0.98410758363E+02 -0.12226193602E+03 -0.65679970190E+02  0.19102064048E+03  0.86846809066E+02 0.  0.
        -13    1    3    3    0    0  0.27132187782E+02  0.13000861015E+02  0.81292423163E+02  0.86681232483E+02  0.00000000000E+00 0.  1.
         14    1    3    3    0    0  0.66962236152E+01  0.10315267035E+03  0.82302417431E+02  0.13213251200E+03  0.00000000000E+00 0. -1.
        -11    1    4    4    0    0  0.56542998825E+02 -0.11543877917E+03 -0.22513228119E+02  0.13049930227E+03  0.00000000000E+00 0.  1.
         11    1    4    4    0    0  0.41867759538E+02 -0.68231568512E+01 -0.43166742071E+02  0.60521338213E+02  0.00000000000E+00 0. -1.
         21    1    1    2  503  502 -0.10411746217E+03  0.29714516392E+02  0.49708941669E+02  0.11914015820E+03  0.00000000000E+00 0. -1.
          1    1    1    2  501    0 -0.28121707590E+02 -0.23606111738E+02  0.63325376490E+02  0.73199605578E+02  0.00000000000E+00 0. -1.
<scales pt_clust_5="13000.00000" pt_clust_6="13000.00000" pt_clust_7="13000.00000" pt_clust_8="13000.00000" pt_clust_9="112.15540" pt_clust_10="36.71621"></scales>
<clustering>
<clus scale="   36.716">  2 10  1 -1</clus>
<clus scale="   80.500">  5  6 -1 -1</clus>
<clus scale="   86.847">  7  8 -1 -1</clus>
<clus scale="  112.155">  1  9  2 -1</clus>
<clus scale="  157.694">  1  5  2 -1</clus>
<clus scale="   36.716">  2  5  1 -1</clus>
</clustering>
</event>
<event>
10    4  0.3403565E-005  0.1434872E+03  0.7546771E-02  0.1224187E+00
          2   -1    0    0  503    0 -0.00000000000E+00  0.00000000000E+00  0.42850303442E+03  0.42850303442E+03  0.00000000000E+00 0. -1.
         21   -1    0    0  501  502  0.00000000000E+00 -0.00000000000E+00 -0.27843559450E+03  0.27843559450E+03  0.00000000000E+00 0.  1.
         23    2    1    2    0    0 -0.34732775575E+02  0.27830125816E+02  0.23322148924E+03  0.25443725596E+03  0.91461317373E+02 0.  0.
         24    2    1    2    0    0 -0.58808443756E+01  0.51735519579E+02 -0.12420596936E+03  0.15671349292E+03  0.80130192318E+02 0.  0.
        -11    1    4    4    0    0 -0.43063078003E+02  0.25433438373E+02 -0.64298266231E+02  0.81458919185E+02  0.00000000000E+00 0.  1.
         12    1    4    4    0    0  0.37182233627E+02  0.26302081206E+02 -0.59907703130E+02  0.75254573732E+02  0.00000000000E+00 0. -1.
        -11    1    3    3    0    0  0.99008899685E-01  0.53720954275E+02  0.16551542341E+03  0.17401524679E+03  0.00000000000E+00 0. -1.
         11    1    3    3    0    0 -0.34831784475E+02 -0.25890828459E+02  0.67706065833E+02  0.80422009167E+02  0.00000000000E+00 0.  1.
         21    1    1    2  503  502  0.11482978392E+03 -0.13637572728E+03 -0.26810294512E+02  0.18028591226E+03  0.00000000000E+00 0.  1.
          1    1    1    2  501    0 -0.74216163969E+02  0.56810081888E+02  0.67862214556E+02  0.11550196779E+03  0.00000000000E+00 0. -1.
<scales pt_clust_5="13000.00000" pt_clust_6="13000.00000" pt_clust_7="13000.00000" pt_clust_8="13000.00000" pt_clust_9="119.02831" pt_clust_10="93.46354"></scales>
<clustering>
<clus scale="   80.130">  5  6 -1 -1</clus>
<clus scale="   91.461">  7  8 -1 -1</clus>
<clus scale="   93.464">  2 10  1 -1</clus>
<clus scale="  103.478">  1  7  2 -1</clus>
<clus scale="  119.028">  1  9  2 -1</clus>
<clus scale="   93.464">  2  5  1 -1</clus>
</clustering>
</event>
<event>
10    4  0.3403565E-005  0.1544492E+03  0.7546771E-02  0.1196976E+00
         21   -1    0    0  501  502  0.00000000000E+00  0.00000000000E+00  0.21317759343E+03  0.21317759343E+03  0.00000000000E+00 0. -1.
          2   -1    0    0  503    0 -0.00000000000E+00 -0.00000000000E+00 -0.48085025523E+03  0.48085025523E+03  0.00000000000E+00 0. -1.
         24    2    1    2    0    0  0.57059014933E+02  0.95846704319E+02 -0.21605064838E+03  0.25592145195E+03  0.79847260379E+02 0.  0.
         23    2    1    2    0    0 -0.14497978122E+03 -0.45005102905E+02  0.11862208731E+03  0.21297984717E+03  0.90799886862E+02 0.  0.
        -11    1    3    3    0    0  0.22958701651E+02  0.24666169644E+02 -0.98134803184E+01  0.35097383127E+02  0.00000000000E+00 0.  1.
         12    1    3    3    0    0  0.34100313282E+02  0.71180534674E+02 -0.20623716806E+03  0.22082406882E+03  0.00000000000E+00 0. -1.
        -11    1    4    4    0    0 -0.10217207817E+03  0.14030314934E+02  0.59213796779E+02  0.11892122193E+03  0.00000000000E+00 0.  1.
         11    1    4    4    0    0 -0.42807703044E+02 -0.59035417839E+02  0.59408290533E+02  0.94058625247E+02  0.00000000000E+00 0. -1.
         21    1    1    2  503  502  0.63180129129E+02 -0.28018462950E+02 -0.21146724324E+02  0.72276876886E+02  0.00000000000E+00 0.  1.
          1    1    1    2  501    0  0.24740637155E+02 -0.22823138464E+02 -0.14909737641E+03  0.15284967265E+03  0.00000000000E+00 0. -1.
<scales pt_clust_5="13000.00000" pt_clust_6="13000.00000" pt_clust_7="13000.00000" pt_clust_8="13000.00000" pt_clust_9="72.98167" pt_clust_10="33.66000"></scales>
<clustering>
<clus scale="   33.660">  1 10  2 -1</clus>
<clus scale="   72.982">  2  9  1 -1</clus>
<clus scale="   79.847">  5  6 -1 -1</clus>
<clus scale="   90.800">  7  8 -1 -1</clus>
<clus scale="  148.275">  2  5  1 -1</clus>
<clus scale="   33.660">  1  5  2 -1</clus>
</clustering>
</event>
<event>
10    4  0.3403565E-005  0.1225357E+03  0.7546771E-02  0.1241992E+00
         21   -1    0    0  501  502  0.00000000000E+00  0.00000000000E+00  0.62269736133E+02  0.62269736133E+02  0.00000000000E+00 0. -1.
          2   -1    0    0  503    0 -0.00000000000E+00 -0.00000000000E+00 -0.14733689394E+04  0.14733689394E+04  0.00000000000E+00 0. -1.
         24    2    1    2    0    0  0.47238820313E+01 -0.85221266870E+02 -0.10979256113E+04  0.11041834520E+04  0.80594468768E+02 0.  0.
         23    2    1    2    0    0 -0.70924670878E+02  0.39871505104E+02 -0.57931412498E+02  0.13492125511E+03  0.90706398169E+02 0.  0.
        -13    1    3    3    0    0  0.24711620252E+02 -0.76831155640E+00 -0.12681039536E+03  0.12919802958E+03  0.00000000000E+00 0.  1.
         14    1    3    3    0    0 -0.19987738220E+02 -0.84452955314E+02 -0.97111521590E+03  0.97498542240E+03  0.00000000000E+00 0. -1.
        -13    1    4    4    0    0 -0.10175698782E+02  0.43736261828E+02  0.75298736606E+01  0.45531356686E+02  0.00000000000E+00 0.  1.
         13    1    4    4    0    0 -0.60748972095E+02 -0.38647567240E+01 -0.65461286158E+02  0.89389898426E+02  0.00000000000E+00 0. -1.
         21    1    1    2  503  502 -0.92043603086E+01 -0.37605136872E+02 -0.70856777615E+02  0.80743727322E+02  0.00000000000E+00 0. -1.
          1    1    1    2  501    0  0.75405149155E+02  0.82954898638E+02 -0.18438540191E+03  0.21579024112E+03  0.00000000000E+00 0. -1.
<scales pt_clust_5="13000.00000" pt_clust_6="13000.00000" pt_clust_7="13000.00000" pt_clust_8="13000.00000" pt_clust_9="38.71520" pt_clust_10="102.91125"></scales>
<clustering>
<clus scale="   38.715">  1  9  2 -1</clus>
<clus scale="   80.594">  5  6 -1 -1</clus>
<clus scale="   90.706">  7  8 -1 -1</clus>
<clus scale="  102.911">  1 10  2 -1</clus>
<clus scale="  115.251">  2  5  1 -1</clus>
<clus scale="   38.715">  1  5  2 -1</clus>
</clustering>
</event>
<event>
10    4  0.3403565E-005  0.1018767E+03  0.7546771E-02  0.1281365E+00
         -1   -1    0    0    0  501 -0.00000000000E+00  0.00000000000E+00  0.64937055352E+03  0.64937055352E+03  0.00000000000E+00 0.  1.
         21   -1    0    0  503  502  0.00000000000E+00 -0.00000000000E+00 -0.12144331306E+03  0.12144331306E+03  0.00000000000E+00 0. -1.
         24    2    1    2    0    0 -0.41888311594E+02 -0.17906714494E+02  0.54469699997E+03  0.55259575191E+03  0.81190899561E+02 0.  0.
         23    2    1    2    0    0  0.36836521854E+02  0.82881488116E+01  0.38786428963E+02  0.10636086574E+03  0.91556670621E+02 0.  0.
        -11    1    3    3    0    0 -0.42004532655E+02 -0.12086107863E+02  0.11761498256E+03  0.12547405664E+03  0.00000000000E+00 0.  1.
         12    1    3    3    0    0  0.11622106159E+00 -0.58206066310E+01  0.42708201742E+03  0.42712169527E+03  0.00000000000E+00 0. -1.
        -11    1    4    4    0    0 -0.29620822603E+02  0.12399363511E+02  0.16798817639E+02  0.36240000293E+02  0.00000000000E+00 0. -1.
         11    1    4    4    0    0  0.66457344458E+02 -0.41112146997E+01  0.21987611324E+02  0.70120865442E+02  0.00000000000E+00 0.  1.
         21    1    1    2  503  501 -0.33831958131E+02 -0.22701249841E+02 -0.44049294763E+02  0.60002404156E+02  0.00000000000E+00 0. -1.
         -2    1    1    2    0  502  0.38883747871E+02  0.32319815524E+02 -0.11506893717E+02  0.51854844778E+02  0.00000000000E+00 0.  1.
<scales pt_clust_5="13000.00000" pt_clust_6="13000.00000" pt_clust_7="13000.00000" pt_clust_8="13000.00000" pt_clust_9="40.74246" pt_clust_10="32.12180"></scales>
<clustering>
<clus scale="   40.742">  2  9  1 -1</clus>
<clus scale="   32.122">  2 10  1 -1</clus>
<clus scale="   81.191">  5  6 -1 -1</clus>
<clus scale="   91.557">  7  8 -1 -1</clus>
<clus scale="   92.672">  1  5  2 -1</clus>
<clus scale="   40.742">  2  5  1 -1</clus>
</clustering>
</event>
<event>
10    4  0.3403565E-005  0.1625322E+03  0.7546771E-02  0.1187762E+00
          2   -1    0    0  503    0 -0.00000000000E+00  0.00000000000E+00  0.52710619814E+03  0.52710619814E+03  0.00000000000E+00 0. -1.
         21   -1    0    0  501  502  0.00000000000E+00 -0.00000000000E+00 -0.13562748308E+03  0.13562748308E+03  0.00000000000E+00 0.  1.
         23    2    1    2    0    0  0.76270454419E+02  0.94631760244E+02  0.34621205091E+03  0.38014146793E+03  0.99359947565E+02 0.  0.
         24    2    1    2    0    0 -0.84062938114E+02 -0.12738907571E+03  0.81558782608E+02  0.19412972425E+03  0.87977046103E+02 0.  0.
        -13    1    4    4    0    0 -0.58227218738E+02 -0.39841258879E+02 -0.17115970927E+01  0.70573822878E+02  0.00000000000E+00 0.  1.
         14    1    4    4    0    0 -0.25835719376E+02 -0.87547816835E+02  0.83270379701E+02  0.12355590137E+03  0.00000000000E+00 0. -1.
        -13    1    3    3    0    0  0.53367716994E+02 -0.59709080604E+01  0.11186480679E+03  0.12408666309E+03  0.00000000000E+00 0.  1.
         13    1    3    3    0    0  0.22902737425E+02  0.10060266830E+03  0.23434724412E+03  0.25605480483E+03  0.00000000000E+00 0. -1.
         21    1    1    2  503  502 -0.32515175591E+02  0.13830025001E+02 -0.98843743627E+01  0.36690694894E+02  0.00000000000E+00 0.  1.
          1    1    1    2  501    0  0.40307659285E+02  0.18927290469E+02 -0.26407744094E+02  0.51771794152E+02  0.00000000000E+00 0. -1.
<scales pt_clust_5="13000.00000" pt_clust_6="13000.00000" pt_clust_7="13000.00000" pt_clust_8="13000.00000" pt_clust_9="35.33421" pt_clust_10="37.47268"></scales>
<clustering>
<clus scale="   35.334">  2  9  1 -1</clus>
<clus scale="   37.473">  2 10  1 -1</clus>
<clus scale="   87.977">  5  6 -1 -1</clus>
<clus scale="   99.360">  7  8 -1 -1</clus>
<clus scale="  155.834">  2  5  1 -1</clus>
<clus scale="   35.334">  2  5  1 -1</clus>
</clustering>
</event>
<event>
10    4  0.3403565E-005  0.4742077E+03  0.7546771E-02  0.1042329E+00
         21   -1    0    0  503  502  0.00000000000E+00  0.00000000000E+00  0.47632026372E+03  0.47632026372E+03  0.00000000000E+00 0. -1.
          2   -1    0    0  502    0 -0.00000000000E+00 -0.00000000000E+00 -0.12160770735E+04  0.12160770735E+04  0.00000000000E+00 0. -1.
         24    2    1    2    0    0 -0.41666542336E+01  0.23705886674E+03 -0.59359459746E+03  0.64422882081E+03  0.80386317958E+02 0.  0.
         23    2    1    2    0    0  0.44200120695E+03 -0.23442141298E+02 -0.27821152947E+03  0.53050853269E+03  0.90127949005E+02 0.  0.
        -13    1    3    3    0    0 -0.25728248538E+02  0.14950114835E+03 -0.28668974054E+03  0.32435095724E+03  0.00000000000E+00 0.  1.
         14    1    3    3    0    0  0.21561594304E+02  0.87557718389E+02 -0.30690485692E+03  0.31987786357E+03  0.00000000000E+00 0. -1.
        -11    1    4    4    0    0  0.56204560663E+02 -0.31942261002E+02 -0.53832773143E+02  0.84126263090E+02  0.00000000000E+00 0.  1.
         11    1    4    4    0    0  0.38579664629E+03  0.85001197042E+01 -0.22437875633E+03  0.44638226960E+03  0.00000000000E+00 0. -1.
         21    1    1    2  503  501 -0.75765670938E+01 -0.28878225527E+02  0.20791631526E+02  0.36381976582E+02  0.00000000000E+00 0. -1.
          1    1    1    2  501    0 -0.43025798563E+03 -0.18473849992E+03  0.11125768563E+03  0.48127800714E+03  0.00000000000E+00 0. -1.
<scales pt_clust_5="13000.00000" pt_clust_6="13000.00000" pt_clust_7="13000.00000" pt_clust_8="13000.00000" pt_clust_9="29.01513" pt_clust_10="29.01513"></scales>
<clustering>
<clus scale="   29.015">  9 10 -1 -1</clus>
<clus scale="   80.386">  5  6 -1 -1</clus>
<clus scale="   90.128">  7  8 -1 -1</clus>
<clus scale="  250.352">  2  5  1 -1</clus>
<clus scale="  468.820">  2  7  1 -1</clus>
<clus scale="  474.208">  1  5  2 -1</clus>
</clustering>
</event>
<event>
10    4  0.3403565E-005  0.1503458E+03  0.7546771E-02  0.1210379E+00
         21   -1    0    0  501  502  0.00000000000E+00  0.00000000000E+00  0.28177509933E+03  0.28177509933E+03  0.00000000000E+00 0. -1.
          2   -1    0    0  503    0 -0.00000000000E+00 -0.00000000000E+00 -0.72495114443E+03  0.72495114443E+03  0.00000000000E+00 0. -1.
         24    2    1    2    0    0  0.29554351764E+02  0.12583690131E+03 -0.46838987598E+03  0.49212209042E+03  0.78017245010E+02 0.  0.
         23    2    1    2    0    0  0.81552683282E+02  0.35439243490E+02  0.10665775524E+03  0.16633868896E+03  0.91574573778E+02 0.  0.
        -11    1    3    3    0    0  0.47998711195E+02  0.49874664126E+02 -0.27389798828E+03  0.28250923239E+03  0.00000000000E+00 0.  1.
         12    1    3    3    0    0 -0.18444359431E+02  0.75962237187E+02 -0.19449188770E+03  0.20961285803E+03  0.00000000000E+00 0. -1.
        -11    1    4    4    0    0  0.17149084995E+02  0.54412054860E+02  0.68379278068E+02  0.89053290222E+02  0.00000000000E+00 0.  1.
         11    1    4    4    0    0  0.64403598286E+02 -0.18972811369E+02  0.38278477167E+02  0.77285398736E+02  0.00000000000E+00 0. -1.
         21    1    1    2  503  502  0.37350079511E+01 -0.12522261877E+03  0.78686536564E+02  0.14793993907E+03  0.00000000000E+00 0.  1.
          1    1    1    2  501    0 -0.11484204300E+03 -0.36053526036E+02 -0.16013046092E+03  0.20032552531E+03  0.00000000000E+00 0. -1.
<scales pt_clust_5="13000.00000" pt_clust_6="13000.00000" pt_clust_7="13000.00000" pt_clust_8="13000.00000" pt_clust_9="128.51914" pt_clust_10="120.36846"></scales>
<clustering>
<clus scale="   78.017">  5  6 -1 -1</clus>
<clus scale="   91.575">  7  8 -1 -1</clus>
<clus scale="  120.368">  1 10  2 -1</clus>
<clus scale="  120.368">  1  7  2 -1</clus>
<clus scale="  128.519">  1  9  2 -1</clus>
<clus scale="  120.368">  1  5  2 -1</clus>
</clustering>
</event>
<event>
10    4  0.3403565E-005  0.1502709E+03  0.7546771E-02  0.1207248E+00
         21   -1    0    0  501  502  0.00000000000E+00  0.00000000000E+00  0.11452962624E+03  0.11452962624E+03  0.00000000000E+00 0. -1.
          2   -1    0    0  503    0 -0.00000000000E+00 -0.00000000000E+00 -0.48252667152E+03  0.48252667152E+03  0.00000000000E+00 0. -1.
         23    2    1    2    0    0  0.84616967128E+02 -0.10681314234E+03 -0.10943720938E+03  0.20651451131E+03  0.11001209970E+03 0.  0.
         24    2    1    2    0    0 -0.22451395787E+02  0.66095314875E+02 -0.39332206964E+01  0.10499975322E+03  0.78337871618E+02 0.  0.
        -11    1    4    4    0    0  0.96799055386E+01  0.58882060624E+02  0.21461414994E+02  0.63414430283E+02  0.00000000000E+00 0.  1.
         12    1    4    4    0    0 -0.32131301325E+02  0.72132542507E+01 -0.25394635690E+02  0.41585322935E+02  0.00000000000E+00 0. -1.
        -11    1    3    3    0    0  0.22320040003E+02  0.23518229594E+01  0.17059289880E+02  0.28191038083E+02  0.00000000000E+00 0.  1.
         11    1    3    3    0    0  0.62296927125E+02 -0.10916496530E+03 -0.12649649926E+03  0.17832347322E+03  0.00000000000E+00 0. -1.
         21    1    1    2  503  502 -0.32016513549E+02 -0.12128204239E+02 -0.13407448957E+02  0.36768331013E+02  0.00000000000E+00 0.  1.
          1    1    1    2  501    0 -0.30149057792E+02  0.52846031700E+02 -0.24121916624E+03  0.24877370222E+03  0.00000000000E+00 0. -1.
<scales pt_clust_5="13000.00000" pt_clust_6="13000.00000" pt_clust_7="13000.00000" pt_clust_8="13000.00000" pt_clust_9="34.23668" pt_clust_10="61.04979"></scales>
<clustering>
<clus scale="   34.237">  1  9  2 -1</clus>
<clus scale="   61.050">  1 10  2 -1</clus>
<clus scale="   78.338">  5  6 -1 -1</clus>
<clus scale="  110.012">  7  8 -1 -1</clus>
<clus scale="  128.901">  1  5  2 -1</clus>
<clus scale="   34.237">  1  5  2 -1</clus>
</clustering>
</event>
<event>
10    4  0.3403565E-005  0.1599620E+03  0.7546771E-02  0.1205408E+00
         21   -1    0    0  501  502  0.00000000000E+00  0.00000000000E+00  0.58556409838E+03  0.58556409838E+03  0.00000000000E+00 0. -1.
          2   -1    0    0  503    0 -0.00000000000E+00 -0.00000000000E+00 -0.57951881563E+03  0.57951881563E+03  0.00000000000E+00 0. -1.
         23    2    1    2    0    0 -0.16255937657E+02  0.66072049979E+02 -0.17841093356E+03  0.21047421432E+03  0.88539044394E+02 0.  0.
         24    2    1    2    0    0 -0.10693577983E+03  0.12636717426E+02 -0.31736011534E+03  0.34465027912E+03  0.80445164270E+02 0.  0.
        -13    1    4    4    0    0 -0.71912311132E+02  0.27800424605E+02 -0.28294033234E+03  0.29325667215E+03  0.00000000000E+00 0.  1.
         14    1    4    4    0    0 -0.35023468699E+02 -0.15163707179E+02 -0.34419783007E+02  0.51393606969E+02  0.00000000000E+00 0. -1.
        -11    1    3    3    0    0 -0.25170416589E+02 -0.70226655907E+01 -0.98073764604E+02  0.10149547284E+03  0.00000000000E+00 0.  1.
         11    1    3    3    0    0  0.89144789321E+01  0.73094715570E+02 -0.80337168960E+02  0.10897874148E+03  0.00000000000E+00 0. -1.
         21    1    1    2  503  502  0.11030569939E+03 -0.51592286268E+02  0.54440110331E+03  0.55785452638E+03  0.00000000000E+00 0. -1.
          1    1    1    2  501    0  0.12886018102E+02 -0.27116481138E+02 -0.42584771653E+02  0.52103894178E+02  0.00000000000E+00 0. -1.
<scales pt_clust_5="13000.00000" pt_clust_6="13000.00000" pt_clust_7="13000.00000" pt_clust_8="13000.00000" pt_clust_9="138.26208" pt_clust_10="30.02256"></scales>
<clustering>
<clus scale="   30.023">  1 10  2 -1</clus>
<clus scale="   80.445">  5  6 -1 -1</clus>
<clus scale="   88.539">  7  8 -1 -1</clus>
<clus scale="  111.172">  2  7  1 -1</clus>
<clus scale="  138.262">  1  9  2 -1</clus>
<clus scale="   30.023">  1  5  2 -1</clus>
</clustering>
</event>
<event>
10    4  0.3403565E-005  0.1511212E+03  0.7546771E-02  0.1226454E+00
         21   -1    0    0  503  502  0.00000000000E+00  0.00000000000E+00  0.45151316149E+02  0.45151316149E+02  0.00000000000E+00 0. -1.
          2   -1    0    0  502    0 -0.00000000000E+00 -0.00000000000E+00 -0.14987328868E+04  0.14987328868E+04  0.00000000000E+00 0. -1.
         24    2    1    2    0    0 -0.22737641807E+02 -0.33664731538E+01 -0.19919447975E+03  0.21563718205E+03  0.79326036218E+02 0.  0.
         23    2    1    2    0    0 -0.33558878408E+02 -0.12408875391E+03 -0.37404221204E+03  0.40591508274E+03  0.91297649710E+02 0.  0.
        -13    1    3    3    0    0  0.17337548280E+02 -0.14847456772E+02 -0.16291694857E+02  0.28043838437E+02  0.00000000000E+00 0.  1.
         14    1    3    3    0    0 -0.40075190087E+02  0.11480983618E+02 -0.18290278490E+03  0.18759334361E+03  0.00000000000E+00 0. -1.
        -13    1    4    4    0    0  0.27515635861E+02 -0.28269109941E+02 -0.14449589619E+03  0.14978423418E+03  0.00000000000E+00 0.  1.
         13    1    4    4    0    0 -0.61074514269E+02 -0.95819643973E+02 -0.22954631585E+03  0.25613084856E+03  0.00000000000E+00 0. -1.
         21    1    1    2  503  501 -0.21068706324E+02  0.26946191392E+02 -0.13484775657E+01  0.34231652144E+02  0.00000000000E+00 0. -1.
          1    1    1    2  501    0  0.77365226539E+02  0.10050903568E+03 -0.87899640128E+03  0.88810028600E+03  0.00000000000E+00 0. -1.
<scales pt_clust_5="13000.00000" pt_clust_6="13000.00000" pt_clust_7="13000.00000" pt_clust_8="13000.00000" pt_clust_9="34.20508" pt_clust_10="120.42577"></scales>
<clustering>
<clus scale="   34.205">  1  9  2 -1</clus>
<clus scale="   79.326">  5  6 -1 -1</clus>
<clus scale="   84.494">  2  5  1 -1</clus>
<clus scale="   91.298">  7  8 -1 -1</clus>
<clus scale="  120.426">  1 10  2 -1</clus>
<clus scale="   34.205">  1  5  2 -1</clus>
</clustering>
</event>
<event>
10    4  0.3403565E-005  0.2972075E+03  0.7546771E-02  0.1096898E+00
         -1   -1    0    0    0  501 -0.00000000000E+00  0.00000000000E+00  0.98409325407E+03  0.98409325407E+03  0.00000000000E+00 0.  1.
         21   -1    0    0  501  502  0.00000000000E+00 -0.00000000000E+00 -0.26324257677E+03  0.26324257677E+03  0.00000000000E+00 0.  1.
         24    2    1    2    0    0  0.10263082135E+03  0.18502255505E+03  0.43958541291E+03  0.49419505201E+03  0.78911233831E+02 0.  0.
         23    2    1    2    0    0  0.11741580189E+03 -0.33071921460E+03  0.10470817547E+03  0.37785696371E+03  0.93007599570E+02 0.  0.
        -13    1    3    3    0    0  0.10670171865E+03  0.13268615551E+03  0.29830619068E+03  0.34347846516E+03  0.00000000000E+00 0.  1.
         14    1    3    3    0    0 -0.40708972947E+01  0.52336399543E+02  0.14127922222E+03  0.15071658686E+03  0.00000000000E+00 0. -1.
        -13    1    4    4    0    0  0.96819816428E+02 -0.32351136024E+03  0.11045122029E+03  0.35529304682E+03  0.00000000000E+00 0.  1.
         13    1    4    4    0    0  0.20595985459E+02 -0.72078543562E+01 -0.57430448203E+01  0.22563916886E+02  0.00000000000E+00 0. -1.
         21    1    1    2  503  502 -0.13858223357E+02  0.17587126770E+02 -0.42675332550E+02  0.48192752473E+02  0.00000000000E+00 0.  1.
         -2    1    1    2    0  503 -0.20618839988E+03  0.12810953278E+03  0.21923242148E+03  0.32709106264E+03  0.00000000000E+00 0.  1.
<scales pt_clust_5="13000.00000" pt_clust_6="13000.00000" pt_clust_7="13000.00000" pt_clust_8="13000.00000" pt_clust_9="22.39101" pt_clust_10="282.27997"></scales>
<clustering>
<clus scale="   22.391">  2  9  1 -1</clus>
<clus scale="   78.911">  5  6 -1 -1</clus>
<clus scale="   93.008">  7  8 -1 -1</clus>
<clus scale="  226.849">  1  5  2 -1</clus>
<clus scale="  282.280">  2 10  1 -1</clus>
<clus scale="   22.391">  2  5  1 -1</clus>
</clustering>
</event>
<event>
10    4  0.3403565E-005  0.2580756E+03  0.7546771E-02  0.1108928E+00
         21   -1    0    0  503  502  0.00000000000E+00  0.00000000000E+00  0.16528966884E+03  0.16528966884E+03  0.00000000000E+00 0.  1.
          2   -1    0    0  502    0 -0.00000000000E+00 -0.00000000000E+00 -0.74610620525E+03  0.74610620525E+03  0.00000000000E+00 0. -1.
         24    2    1    2    0    0  0.15278570019E+03  0.15513814474E+03 -0.20005963299E+03  0.30626794353E+03  0.79780212750E+02 0.  0.
         23    2    1    2    0    0 -0.14172721119E+03 -0.23642632473E+03 -0.23520844850E+03  0.37384133142E+03  0.91925608013E+02 0.  0.
        -11    1    3    3    0    0  0.35970753769E+02  0.54243953195E+01 -0.60541559986E+02  0.70630019657E+02  0.00000000000E+00 0.  1.
         12    1    3    3    0    0  0.11681494642E+03  0.14971374942E+03 -0.13951807301E+03  0.23563792387E+03  0.00000000000E+00 0. -1.
        -11    1    4    4    0    0 -0.31306822092E+02 -0.15726799781E+02 -0.32944501200E+01  0.35189526033E+02  0.00000000000E+00 0. -1.
         11    1    4    4    0    0 -0.11042038910E+03 -0.22069952495E+03 -0.23191399838E+03  0.33865180539E+03  0.00000000000E+00 0.  1.
         21    1    1    2  503  501 -0.36532258011E+02  0.10510871346E+02  0.24581115190E+02  0.45269366197E+02  0.00000000000E+00 0.  1.
          1    1    1    2  501    0  0.25473769015E+02  0.70777308652E+02 -0.17012957010E+03  0.18601723294E+03  0.00000000000E+00 0. -1.
<scales pt_clust_5="13000.00000" pt_clust_6="13000.00000" pt_clust_7="13000.00000" pt_clust_8="13000.00000" pt_clust_9="38.01426" pt_clust_10="75.10633"></scales>
<clustering>
<clus scale="   38.014">  1  9  2 -1</clus>
<clus scale="   75.106">  1 10  2 -1</clus>
<clus scale="   79.780">  5  6 -1 -1</clus>
<clus scale="   91.926">  7  8 -1 -1</clus>
<clus scale="  254.003">  2  5  1 -1</clus>
<clus scale="   38.014">  1  5  2 -1</clus>
</clustering>
</event>
<event>
10    4  0.3403565E-005  0.1075651E+03  0.7546771E-02  0.1271201E+00
          2   -1    0    0  502    0 -0.00000000000E+00  0.00000000000E+00  0.10666436869E+04  0.10666436869E+04  0.00000000000E+00 0. -1.
         21   -1    0    0  503  502  0.00000000000E+00 -0.00000000000E+00 -0.33550443987E+02  0.33550443987E+02  0.00000000000E+00 0. -1.
         24    2    1    2    0    0  0.31472053234E+02  0.26450727109E+02  0.40944628975E+03  0.41923202617E+03  0.80119264083E+02 0.  0.
         23    2    1    2    0    0 -0.86129235754E+02 -0.90620517493E+01  0.34129653782E+03  0.36445124848E+03  0.94026697026E+02 0.  0.
        -11    1    3    3    0    0  0.16768386106E+02  0.55224417988E+02  0.25778562198E+03  0.26416726143E+03  0.00000000000E+00 0.  1.
         12    1    3    3    0    0  0.14703667128E+02 -0.28773690878E+02  0.15166066777E+03  0.15506476473E+03  0.00000000000E+00 0. -1.
        -11    1    4    4    0    0 -0.65072896200E+02 -0.35778491586E+02  0.30809177579E+03  0.31691501162E+03  0.00000000000E+00 0. -1.
         11    1    4    4    0    0 -0.21056339554E+02  0.26716439837E+02  0.33204762029E+02  0.47536236855E+02  0.00000000000E+00 0.  1.
         21    1    1    2  503  501 -0.70651937451E+01 -0.49446454697E+02  0.38868580501E+02  0.63290089231E+02  0.00000000000E+00 0. -1.
          1    1    1    2  501    0  0.61722376265E+02  0.32057779337E+02  0.24348183488E+03  0.25322076705E+03  0.00000000000E+00 0. -1.
<scales pt_clust_5="13000.00000" pt_clust_6="13000.00000" pt_clust_7="13000.00000" pt_clust_8="13000.00000" pt_clust_9="49.94866" pt_clust_10="63.59891"></scales>
<clustering>
<clus scale="   49.949">  2  9  1 -1</clus>
<clus scale="   63.599">  2 10  1 -1</clus>
<clus scale="   80.119">  5  6 -1 -1</clus>
<clus scale="   94.027">  7  8 -1 -1</clus>
<clus scale="   95.647">  1  5  2 -1</clus>
<clus scale="   49.949">  2  5  1 -1</clus>
</clustering>
</event>
<event>
10    4  0.3403565E-005  0.2514539E+03  0.7546771E-02  0.1132185E+00
         21   -1    0    0  503  502  0.00000000000E+00  0.00000000000E+00  0.12336289571E+04  0.12336289571E+04  0.00000000000E+00 0. -1.
          4   -1    0    0  502    0 -0.00000000000E+00 -0.00000000000E+00 -0.11631740332E+03  0.11631740332E+03  0.00000000000E+00 0. -1.
         24    2    1    2    0    0  0.13339672078E+03  0.35577569914E+02  0.18921430654E+03  0.24760289039E+03  0.80278819949E+02 0.  0.
         23    2    1    2    0    0  0.17311218395E+03 -0.14670741784E+03  0.41130226518E+03  0.47778493177E+03  0.87281114784E+02 0.  0.
        -13    1    3    3    0    0  0.14378299682E+03  0.27143428991E+02  0.17309588694E+03  0.22665502860E+03  0.00000000000E+00 0.  1.
         14    1    3    3    0    0 -0.10386276043E+02  0.84341409228E+01  0.16118419604E+02  0.20947861792E+02  0.00000000000E+00 0. -1.
        -11    1    4    4    0    0  0.66007733533E+02 -0.49620780306E+02  0.74291215797E+02  0.11107847437E+03  0.00000000000E+00 0.  1.
         11    1    4    4    0    0  0.10710445042E+03 -0.97086637535E+02  0.33701104939E+03  0.36670645740E+03  0.00000000000E+00 0. -1.
         21    1    1    2  503  501 -0.40492822539E+02  0.16356775037E+02  0.17910729780E+03  0.18435464977E+03  0.00000000000E+00 0. -1.
          3    1    1    2  501    0 -0.26601608220E+03  0.94773072889E+02  0.33768768422E+03  0.44020388845E+03  0.00000000000E+00 0. -1.
<scales pt_clust_5="13000.00000" pt_clust_6="13000.00000" pt_clust_7="13000.00000" pt_clust_8="13000.00000" pt_clust_9="43.67165" pt_clust_10="235.82007"></scales>
<clustering>
<clus scale="   43.672">  1  9  2 -1</clus>
<clus scale="   80.279">  5  6 -1 -1</clus>
<clus scale="   87.281">  7  8 -1 -1</clus>
<clus scale="  153.577">  2  5  1 -1</clus>
<clus scale="  235.820">  1 10  2 -1</clus>
<clus scale="   43.672">  1  5  2 -1</clus>
</clustering>
</event>
<event>
10    4  0.3403565E-005  0.2987495E+03  0.7546771E-02  0.1105356E+00
          2   -1    0    0  502    0 -0.00000000000E+00  0.00000000000E+00  0.12717467392E+04  0.12717467392E+04  0.00000000000E+00 0. -1.
         21   -1    0    0  503  502  0.00000000000E+00 -0.00000000000E+00 -0.21815813297E+03  0.21815813297E+03  0.00000000000E+00 0. -1.
         23    2    1    2    0    0  0.73790541135E+01  0.15396610515E+03  0.51863534317E+03  0.54879474254E+03  0.91831575644E+02 0.  0.
         24    2    1    2    0    0  0.24633101625E+03  0.13081486237E+02  0.57201888424E+03  0.62810750654E+03  0.80394906493E+02 0.  0.
        -13    1    4    4    0    0  0.23180226735E+02 -0.22580896318E+02  0.54201335002E+02  0.63126892099E+02  0.00000000000E+00 0.  1.
         14    1    4    4    0    0  0.22315078951E+03  0.35662382555E+02  0.51781754924E+03  0.56498061444E+03  0.00000000000E+00 0. -1.
        -13    1    3    3    0    0 -0.24840206404E+02  0.10840172858E+03  0.42922511916E+03  0.44339843655E+03  0.00000000000E+00 0.  1.
         13    1    3    3    0    0  0.32219260517E+02  0.45564376573E+02  0.89410224004E+02  0.10539630599E+03  0.00000000000E+00 0. -1.
         21    1    1    2  503  501 -0.26125889739E+02 -0.13545580932E+01 -0.16085053557E+02  0.30710354772E+02  0.00000000000E+00 0. -1.
          1    1    1    2  501    0 -0.22758418062E+03 -0.16569303329E+03 -0.20980567602E+02  0.28229226835E+03  0.00000000000E+00 0. -1.
<scales pt_clust_5="13000.00000" pt_clust_6="13000.00000" pt_clust_7="13000.00000" pt_clust_8="13000.00000" pt_clust_9="20.04360" pt_clust_10="295.14578"></scales>
<clustering>
<clus scale="   20.044">  9 10 -1 -1</clus>
<clus scale="   80.395">  5  6 -1 -1</clus>
<clus scale="   91.832">  7  8 -1 -1</clus>
<clus scale="  179.424">  1  7  2 -1</clus>
<clus scale="  295.146">  2  9  1 -1</clus>
<clus scale="  295.146">  2  5  1 -1</clus>
</clustering>
</event>
<event>
10    4  0.3403565E-005  0.9106989E+02  0.7546771E-02  0.1306422E+00
         21   -1    0    0  501  502  0.00000000000E+00  0.00000000000E+00  0.37702805990E+02  0.37702805990E+02  0.00000000000E+00 0. -1.
          2   -1    0    0  503    0 -0.00000000000E+00 -0.00000000000E+00 -0.56240611395E+03  0.56240611395E+03  0.00000000000E+00 0. -1.
         23    2    1    2    0    0 -0.39675718591E+01 -0.12420772894E+02 -0.19895240221E+03  0.21882086928E+03  0.90169270058E+02 0.  0.
         24    2    1    2    0    0  0.17836597667E+02 -0.11906517584E+02 -0.59240210976E+02  0.10211448705E+03  0.80362033896E+02 0.  0.
        -11    1    4    4    0    0  0.39612854039E+02 -0.29980671523E+02 -0.53923440853E+02  0.73319549532E+02  0.00000000000E+00 0.  1.
         12    1    4    4    0    0 -0.21776256373E+02  0.18074153938E+02 -0.53167701230E+01  0.28794937519E+02  0.00000000000E+00 0. -1.
        -11    1    3    3    0    0 -0.14539191622E+02  0.18331097396E+02 -0.74166712385E+01  0.24544332075E+02  0.00000000000E+00 0.  1.
         11    1    3    3    0    0  0.10571619763E+02 -0.30751870290E+02 -0.19153573097E+03  0.19427653721E+03  0.00000000000E+00 0. -1.
         21    1    1    2  503  502  0.21536894719E+01 -0.26338519471E+02 -0.53995891365E+02  0.60115823796E+02  0.00000000000E+00 0. -1.
          1    1    1    2  501    0 -0.16022715280E+02  0.50665809950E+02 -0.21251480341E+03  0.21905773981E+03  0.00000000000E+00 0. -1.
<scales pt_clust_5="13000.00000" pt_clust_6="13000.00000" pt_clust_7="13000.00000" pt_clust_8="13000.00000" pt_clust_9="26.42643" pt_clust_10="42.21346"></scales>
<clustering>
<clus scale="   26.426">  2  9  1 -1</clus>
<clus scale="   42.213">  1 10  2 -1</clus>
<clus scale="   80.362">  5  6 -1 -1</clus>
<clus scale="   81.371">  1  5  2 -1</clus>
<clus scale="   90.169">  7  8 -1 -1</clus>
<clus scale="   42.213">  1  5  2 -1</clus>
</clustering>
</event>
<event>
10    4  0.3403565E-005  0.2205633E+03  0.7546771E-02  0.1134318E+00
         21   -1    0    0  501  502  0.00000000000E+00  0.00000000000E+00  0.28643153024E+03  0.28643153024E+03  0.00000000000E+00 0.  1.
          2   -1    0    0  503    0 -0.00000000000E+00 -0.00000000000E+00 -0.10487589684E+04  0.10487589684E+04  0.00000000000E+00 0. -1.
         24    2    1    2    0    0 -0.22294036604E+03  0.88096215780E+02 -0.23990831150E+03  0.34861581950E+03  0.80707134976E+02 0.  0.
         23    2    1    2    0    0  0.13761903320E+03  0.16277331985E+03  0.49030811760E+02  0.23735313471E+03  0.92186431244E+02 0.  0.
        -13    1    3    3    0    0 -0.75562389237E+02 -0.31143962677E+01 -0.10280261265E+03  0.12762347472E+03  0.00000000000E+00 0.  1.
         14    1    3    3    0    0 -0.14737797680E+03  0.91210612048E+02 -0.13710569885E+03  0.22099234478E+03  0.00000000000E+00 0. -1.
        -11    1    4    4    0    0  0.82195443105E+02  0.63328215117E+02  0.64927916879E+02  0.12240174871E+03  0.00000000000E+00 0.  1.
         11    1    4    4    0    0  0.55423590092E+02  0.99445104728E+02 -0.15897105119E+02  0.11495138600E+03  0.00000000000E+00 0. -1.
         21    1    1    2  503  502  0.11009911808E+03 -0.43424009456E+02  0.21724871020E+02  0.12033050495E+03  0.00000000000E+00 0.  1.
          1    1    1    2  501    0 -0.24777785243E+02 -0.20744552617E+03 -0.59317480944E+03  0.62889103947E+03  0.00000000000E+00 0. -1.
<scales pt_clust_5="13000.00000" pt_clust_6="13000.00000" pt_clust_7="13000.00000" pt_clust_8="13000.00000" pt_clust_9="118.35312" pt_clust_10="211.62517"></scales>
<clustering>
<clus scale="   80.707">  5  6 -1 -1</clus>
<clus scale="   92.186">  7  8 -1 -1</clus>
<clus scale="  118.353">  1  9  2 -1</clus>
<clus scale="  211.625">  1 10  2 -1</clus>
<clus scale="  216.017">  2  5  1 -1</clus>
<clus scale="  118.353">  1  5  2 -1</clus>
</clustering>
</event>
<event>
10    4  0.3403565E-005  0.1053519E+03  0.7546771E-02  0.1275620E+00
         21   -1    0    0  503  502  0.00000000000E+00  0.00000000000E+00  0.77923221273E+02  0.77923221273E+02  0.00000000000E+00 0. -1.
          4   -1    0    0  502    0 -0.00000000000E+00 -0.00000000000E+00 -0.26407970918E+03  0.26407970918E+03  0.00000000000E+00 0. -1.
         23    2    1    2    0    0  0.47922710868E+02 -0.15520913258E+02 -0.69405953245E+02  0.12817881622E+03  0.95263516717E+02 0.  0.
         24    2    1    2    0    0 -0.40880372912E+02 -0.29985140083E+02 -0.42083448786E+02  0.10517115464E+03  0.81973420026E+02 0.  0.
        -13    1    4    4    0    0  0.56141108772E+01 -0.22288732394E+02  0.17725628913E+02  0.29025915197E+02  0.00000000000E+00 0.  1.
         14    1    4    4    0    0 -0.46494483789E+02 -0.76964076889E+01 -0.59809077699E+02  0.76145239440E+02  0.00000000000E+00 0. -1.
        -13    1    3    3    0    0 -0.12713865947E+01 -0.25740433179E+02 -0.73383342599E+02  0.77777254356E+02  0.00000000000E+00 0.  1.
         13    1    3    3    0    0  0.49194097463E+02  0.10219519921E+02  0.39773893546E+01  0.50401561867E+02  0.00000000000E+00 0. -1.
         21    1    1    2  503  501  0.21876095825E+02  0.23579360657E+02 -0.86320772442E+01  0.33302591117E+02  0.00000000000E+00 0.  1.
          3    1    1    2  501    0 -0.28918433782E+02  0.21926692684E+02 -0.66035008635E+02  0.75350368479E+02  0.00000000000E+00 0. -1.
<scales pt_clust_5="13000.00000" pt_clust_6="13000.00000" pt_clust_7="13000.00000" pt_clust_8="13000.00000" pt_clust_9="32.16442" pt_clust_10="36.13662"></scales>
<clustering>
<clus scale="   32.164">  1  9  2 -1</clus>
<clus scale="   36.137">  1 10  2 -1</clus>
<clus scale="   81.973">  5  6 -1 -1</clus>
<clus scale="   93.507">  1  5  2 -1</clus>
<clus scale="   95.264">  7  8 -1 -1</clus>
<clus scale="   32.164">  1  5  2 -1</clus>
</clustering>
</event>
<event>
10    4  0.3403565E-005  0.4192017E+03  0.7546771E-02  0.1096881E+00
         21   -1    0    0  503  502  0.00000000000E+00  0.00000000000E+00  0.32654902766E+03  0.32654902766E+03  0.00000000000E+00 0. -1.
          2   -1    0    0  502    0 -0.00000000000E+00 -0.00000000000E+00 -0.11466220678E+04  0.11466220678E+04  0.00000000000E+00 0. -1.
         24    2    1    2    0    0  0.14266679137E+02 -0.22071674109E+01 -0.36565533531E+03  0.37449076147E+03  0.79568187518E+02 0.  0.
         23    2    1    2    0    0 -0.28373522274E+03 -0.31809726587E+03 -0.42342602679E+03  0.60779782697E+03  0.91853421964E+02 0.  0.
        -11    1    3    3    0    0 -0.15718271294E+02  0.29043148657E+02 -0.99561038439E+02  0.10489503759E+03  0.00000000000E+00 0.  1.
         12    1    3    3    0    0  0.29984950431E+02 -0.31250316068E+02 -0.26609429687E+03  0.26959572388E+03  0.00000000000E+00 0. -1.
        -11    1    4    4    0    0 -0.25203036649E+03 -0.31031033367E+03 -0.40958221023E+03  0.57233678525E+03  0.00000000000E+00 0. -1.
         11    1    4    4    0    0 -0.31704856249E+02 -0.77869322070E+01 -0.13843816563E+02  0.35461041722E+02  0.00000000000E+00 0.  1.
         21    1    1    2  503  501  0.84637301575E+01  0.34426875430E+02  0.80568766648E+02  0.88023693624E+02  0.00000000000E+00 0.  1.
          1    1    1    2  501    0  0.26100481345E+03  0.28587755786E+03 -0.11156044472E+03  0.40285881342E+03  0.00000000000E+00 0. -1.
<scales pt_clust_5="13000.00000" pt_clust_6="13000.00000" pt_clust_7="13000.00000" pt_clust_8="13000.00000" pt_clust_9="35.45200" pt_clust_10="409.01472"></scales>
<clustering>
<clus scale="   35.452">  1  9  2 -1</clus>
<clus scale="   79.568">  5  6 -1 -1</clus>
<clus scale="   80.880">  2  5  1 -1</clus>
<clus scale="   91.853">  7  8 -1 -1</clus>
<clus scale="  409.015">  1 10  2 -1</clus>
<clus scale="   35.452">  1  5  2 -1</clus>
</clustering>
</event>
<event>
10    4  0.3403565E-005  0.7475510E+03  0.7546771E-02  0.9639200E-01
          2   -1    0    0  502    0 -0.00000000000E+00  0.00000000000E+00  0.16461490298E+04  0.16461490298E+04  0.00000000000E+00 0. -1.
         21   -1    0    0  503  502  0.00000000000E+00 -0.00000000000E+00 -0.48865376574E+03  0.48865376574E+03  0.00000000000E+00 0. -1.
         24    2    1    2    0    0 -0.10536991567E+03 -0.20992233661E+03  0.23220736718E+03  0.34011518454E+03  0.81165699917E+02 0.  0.
         23    2    1    2    0    0 -0.36747869521E+03 -0.33405598390E+03  0.87750343027E+03  0.10122086206E+04  0.88994548186E+02 0.  0.
        -13    1    3    3    0    0 -0.74127363619E+02 -0.14289434418E+03  0.10259877224E+03  0.19089307924E+03  0.00000000000E+00 0.  1.
         14    1    3    3    0    0 -0.31242552047E+02 -0.67027992438E+02  0.12960859494E+03  0.14922210530E+03  0.00000000000E+00 0. -1.
        -13    1    4    4    0    0 -0.28178198079E+03 -0.26048261395E+03  0.74561528229E+03  0.83856688824E+03  0.00000000000E+00 0. -1.
         13    1    4    4    0    0 -0.85696714426E+02 -0.73573369953E+02  0.13188814798E+03  0.17364173233E+03  0.00000000000E+00 0.  1.
         21    1    1    2  503  501  0.13011758737E+03  0.71301710046E+01 -0.47026082431E+02  0.13853836404E+03  0.00000000000E+00 0. -1.
          1    1    1    2  501    0  0.34273102350E+03  0.53684814951E+03  0.94810549039E+02  0.64394062639E+03  0.00000000000E+00 0. -1.
<scales pt_clust_5="13000.00000" pt_clust_6="13000.00000" pt_clust_7="13000.00000" pt_clust_8="13000.00000" pt_clust_9="130.31280" pt_clust_10="693.54815"></scales>
<clustering>
<clus scale="   81.166">  5  6 -1 -1</clus>
<clus scale="   88.995">  7  8 -1 -1</clus>
<clus scale="  130.313">  2  9  1 -1</clus>
<clus scale="  169.462">  5  7 -1 -1</clus>
<clus scale="  693.548">  2 10  1 -1</clus>
<clus scale="  130.313">  2  5  1 -1</clus>
</clustering>
</event>
<event>
10    4  0.3403565E-005  0.1139187E+03  0.7546771E-02  0.1259800E+00
         21   -1    0    0  501  502  0.00000000000E+00  0.00000000000E+00  0.70173474983E+03  0.70173474983E+03  0.00000000000E+00 0. -1.
          2   -1    0    0  503    0 -0.00000000000E+00 -0.00000000000E+00 -0.19718621672E+03  0.19718621672E+03  0.00000000000E+00 0. -1.
         24    2    1    2    0    0  0.37381344501E+02  0.68777414893E+02 -0.11457246433E+03  0.16041243171E+03  0.80483544567E+02 0.  0.
         23    2    1    2    0    0  0.29123727649E+01 -0.22970238758E+02  0.48095575031E+01  0.99524498761E+02  0.96674092841E+02 0.  0.
        -11    1    3    3    0    0  0.14622512956E+02  0.38931253648E+02 -0.18749038830E+01  0.41629024254E+02  0.00000000000E+00 0.  1.
         12    1    3    3    0    0  0.22758831545E+02  0.29846161245E+02 -0.11269756045E+03  0.11878340745E+03  0.00000000000E+00 0. -1.
        -11    1    4    4    0    0  0.15613585709E+02  0.33885706746E+02  0.15309069635E+02  0.40328560518E+02  0.00000000000E+00 0. -1.
         11    1    4    4    0    0 -0.12701212944E+02 -0.56855945504E+02 -0.10499512132E+02  0.59195938243E+02  0.00000000000E+00 0.  1.
         21    1    1    2  503  502 -0.23708796352E+01  0.61612924441E+02  0.23292953340E+03  0.24095215512E+03  0.00000000000E+00 0. -1.
          1    1    1    2  501    0 -0.37922837631E+02 -0.10742010058E+03  0.38138190655E+03  0.39803188096E+03  0.00000000000E+00 0. -1.
<scales pt_clust_5="13000.00000" pt_clust_6="13000.00000" pt_clust_7="13000.00000" pt_clust_8="13000.00000" pt_clust_9="61.65852" pt_clust_10="68.57199"></scales>
<clustering>
<clus scale="   61.659">  1  9  2 -1</clus>
<clus scale="   68.572">  1 10  2 -1</clus>
<clus scale="   80.484">  5  6 -1 -1</clus>
<clus scale="   96.674">  7  8 -1 -1</clus>
<clus scale="  100.544">  2  5  1 -1</clus>
<clus scale="   61.659">  1  5  2 -1</clus>
</clustering>
</event>
<event>
10    4  0.3403565E-005  0.1846600E+03  0.7546771E-02  0.1189915E+00
          2   -1    0    0  503    0 -0.00000000000E+00  0.00000000000E+00  0.15198066476E+03  0.15198066476E+03  0.00000000000E+00 0. -1.
         21   -1    0    0  501  502  0.00000000000E+00 -0.00000000000E+00 -0.77790245823E+03  0.77790245823E+03  0.00000000000E+00 0. -1.
         24    2    1    2    0    0 -0.40555018656E+02  0.62034393291E+02 -0.20368470132E+03  0.22949953295E+03  0.75429454339E+02 0.  0.
         23    2    1    2    0    0  0.15472946948E+03 -0.13861339947E+03  0.23015386549E+01  0.22619290869E+03  0.89459776569E+02 0.  0.
        -11    1    3    3    0    0 -0.44309047700E+02  0.66735267115E+02 -0.20746606853E+03  0.22239392343E+03  0.00000000000E+00 0.  1.
         12    1    3    3    0    0  0.37540290438E+01 -0.47008738241E+01  0.37813672065E+01  0.71056095250E+01  0.00000000000E+00 0. -1.
        -13    1    4    4    0    0  0.12855047732E+03 -0.11535911573E+03  0.37279926764E+02  0.17669958614E+03  0.00000000000E+00 0. -1.
         13    1    4    4    0    0  0.26178992153E+02 -0.23254283746E+02 -0.34978388109E+02  0.49493322554E+02  0.00000000000E+00 0.  1.
         21    1    1    2  503  502  0.38860651342E+02 -0.18332372374E+01 -0.89935183099E+02  0.97989020510E+02  0.00000000000E+00 0.  1.
          1    1    1    2  501    0 -0.15303510216E+03  0.78412243419E+02 -0.33460344770E+03  0.37620166085E+03  0.00000000000E+00 0. -1.
<scales pt_clust_5="13000.00000" pt_clust_6="13000.00000" pt_clust_7="13000.00000" pt_clust_8="13000.00000" pt_clust_9="38.90387" pt_clust_10="161.54336"></scales>
<clustering>
<clus scale="   38.904">  2  9  1 -1</clus>
<clus scale="   75.429">  5  6 -1 -1</clus>
<clus scale="   89.460">  7  8 -1 -1</clus>
<clus scale="  101.312">  1  5  2 -1</clus>
<clus scale="  161.543">  2 10  1 -1</clus>
<clus scale="   38.904">  2  5  1 -1</clus>
</clustering>
</event>
<event>
10    4  0.3403565E-005  0.1022459E+03  0.7546771E-02  0.1281673E+00
         21   -1    0    0  503  502  0.00000000000E+00  0.00000000000E+00  0.24680118035E+02  0.24680118035E+02  0.00000000000E+00 0.  1.
         -1   -1    0    0    0  501 -0.00000000000E+00 -0.00000000000E+00 -0.11681510090E+04  0.11681510090E+04  0.00000000000E+00 0.  1.
         24    2    1    2    0    0  0.44080457342E+02 -0.75498901013E+01 -0.58902529891E+03  0.59614394864E+03  0.80229154210E+02 0.  0.
         23    2    1    2    0    0 -0.38880274062E+02 -0.48561997170E+02 -0.26396617707E+03  0.28658824691E+03  0.92653857714E+02 0.  0.
        -13    1    3    3    0    0  0.40274285976E+02 -0.32797572072E+02 -0.21255832051E+03  0.21881210767E+03  0.00000000000E+00 0.  1.
         14    1    3    3    0    0  0.38061713658E+01  0.25247681970E+02 -0.37646697840E+03  0.37733184097E+03  0.00000000000E+00 0. -1.
        -11    1    4    4    0    0 -0.66829192822E+02 -0.46187422839E+02 -0.16805932164E+03  0.18666374750E+03  0.00000000000E+00 0.  1.
         11    1    4    4    0    0  0.27948918760E+02 -0.23745743311E+01 -0.95906855433E+02  0.99924499409E+02  0.00000000000E+00 0. -1.
         21    1    1    2  503  501 -0.21604441314E+02 -0.20718981502E+02 -0.75856224303E+02  0.81548726811E+02  0.00000000000E+00 0.  1.
         -2    1    1    2    0  502  0.16404258034E+02  0.76830868774E+02 -0.21462319069E+03  0.22855020469E+03  0.00000000000E+00 0.  1.
<scales pt_clust_5="13000.00000" pt_clust_6="13000.00000" pt_clust_7="13000.00000" pt_clust_8="13000.00000" pt_clust_9="29.93373" pt_clust_10="70.86448"></scales>
<clustering>
<clus scale="   29.934">  1  9  2 -1</clus>
<clus scale="   70.864">  1 10  2 -1</clus>
<clus scale="   80.229">  5  6 -1 -1</clus>
<clus scale="   91.138">  2  5  1 -1</clus>
<clus scale="   92.654">  7  8 -1 -1</clus>
<clus scale="   29.934">  1  5  2 -1</clus>
</clustering>
</event>
<event>
10    4  0.3403565E-005  0.2234474E+03  0.7546771E-02  0.1132566E+00
         -1   -1    0    0    0  501 -0.00000000000E+00  0.00000000000E+00  0.25030651805E+03  0.25030651805E+03  0.00000000000E+00 0.  1.
         21   -1    0    0  503  502  0.00000000000E+00 -0.00000000000E+00 -0.37257893574E+03  0.37257893574E+03  0.00000000000E+00 0.  1.
         24    2    1    2    0    0 -0.12467525686E+03 -0.15576899884E+03  0.46426906708E+02  0.21738702624E+03  0.72758235542E+02 0.  0.
         23    2    1    2    0    0  0.15148260684E+03  0.14994588710E+03 -0.51210559063E+02  0.23718612217E+03  0.90575857480E+02 0.  0.
        -11    1    3    3    0    0 -0.67026475253E+02 -0.12264647047E+03  0.55303666956E+02  0.15031034789E+03  0.00000000000E+00 0.  1.
         12    1    3    3    0    0 -0.57648781609E+02 -0.33122528371E+02 -0.88767602482E+01  0.67076678356E+02  0.00000000000E+00 0. -1.
        -13    1    4    4    0    0  0.96097427000E+02  0.11748411597E+03  0.49932297293E+01  0.15186232359E+03  0.00000000000E+00 0. -1.
         13    1    4    4    0    0  0.55385179838E+02  0.32461771131E+02 -0.56203788792E+02  0.85323798587E+02  0.00000000000E+00 0.  1.
         21    1    1    2  503  501  0.11670250038E+02 -0.26856555553E+02 -0.11400955935E+03  0.11771002054E+03  0.00000000000E+00 0.  1.
         -2    1    1    2    0  502 -0.38477600014E+02  0.32679667289E+02 -0.34792059843E+01  0.50602284842E+02  0.00000000000E+00 0.  1.
<scales pt_clust_5="13000.00000" pt_clust_6="13000.00000" pt_clust_7="13000.00000" pt_clust_8="13000.00000" pt_clust_9="29.28258" pt_clust_10="47.73375"></scales>
<clustering>
<clus scale="   29.283">  2  9  1 -1</clus>
<clus scale="   47.734">  2 10  1 -1</clus>
<clus scale="   72.758">  5  6 -1 -1</clus>
<clus scale="   90.576">  7  8 -1 -1</clus>
<clus scale="  216.837">  1  5  2 -1</clus>
<clus scale="   29.283">  2  5  1 -1</clus>
</clustering>
</event>
<event>
10    4  0.3403565E-005  0.1034556E+03  0.7546771E-02  0.1278578E+00
         21   -1    0    0  501  502  0.00000000000E+00  0.00000000000E+00  0.17334525491E+03  0.17334525491E+03  0.00000000000E+00 0. -1.
          4   -1    0    0  503    0 -0.00000000000E+00 -0.00000000000E+00 -0.50627297928E+03  0.50627297928E+03  0.00000000000E+00 0. -1.
         24    2    1    2    0    0 -0.36313822621E+02  0.28163801299E+02 -0.38195795596E+03  0.39308716880E+03  0.80707798513E+02 0.  0.
         23    2    1    2    0    0  0.46733631250E+02 -0.23501110728E+02 -0.66188775435E+02  0.12500614003E+03  0.92245577441E+02 0.  0.
        -13    1    3    3    0    0 -0.31194438740E+01  0.43306531082E+02 -0.10334413935E+03  0.11209459266E+03  0.00000000000E+00 0.  1.
         14    1    3    3    0    0 -0.33194378747E+02 -0.15142729782E+02 -0.27861381660E+03  0.28099257615E+03  0.00000000000E+00 0. -1.
        -11    1    4    4    0    0 -0.22809056466E+01 -0.47161518937E+02 -0.13157455488E+02  0.49015610104E+02  0.00000000000E+00 0.  1.
         11    1    4    4    0    0  0.49014536897E+02  0.23660408208E+02 -0.53031319947E+02  0.75990529931E+02  0.00000000000E+00 0. -1.
         21    1    1    2  503  502 -0.13536441251E+02 -0.53093458394E+02  0.27570308390E+02  0.61337366023E+02  0.00000000000E+00 0.  1.
          3    1    1    2  501    0  0.31166326207E+01  0.48430767823E+02  0.87648698641E+02  0.10018755933E+03  0.00000000000E+00 0. -1.
<scales pt_clust_5="13000.00000" pt_clust_6="13000.00000" pt_clust_7="13000.00000" pt_clust_8="13000.00000" pt_clust_9="28.53794" pt_clust_10="48.53095"></scales>
<clustering>
<clus scale="   48.531">  1 10  2 -1</clus>
<clus scale="   28.538">  1  9  2 -1</clus>
<clus scale="   80.708">  5  6 -1 -1</clus>
<clus scale="   92.246">  7  8 -1 -1</clus>
<clus scale="   93.314">  2  5  1 -1</clus>
<clus scale="   48.531">  1  5  2 -1</clus>
</clustering>
</event>
<event>
10    4  0.3403565E-005  0.1310104E+03  0.7546771E-02  0.1229806E+00
         21   -1    0    0  501  502  0.00000000000E+00  0.00000000000E+00  0.10183514415E+03  0.10183514415E+03  0.00000000000E+00 0.  1.
          2   -1    0    0  503    0 -0.00000000000E+00 -0.00000000000E+00 -0.96920901708E+03  0.96920901708E+03  0.00000000000E+00 0. -1.
         24    2    1    2    0    0 -0.75557579471E+02  0.54934061840E+02 -0.79177089983E+03  0.80125109310E+03  0.79846461466E+02 0.  0.
         23    2    1    2    0    0  0.85856329090E+02  0.23504912355E+02 -0.41377128695E+01  0.12977892714E+03  0.94348604182E+02 0.  0.
        -13    1    3    3    0    0  0.37464808942E+01  0.23211499228E+02 -0.58895777727E+02  0.63415474843E+02  0.00000000000E+00 0.  1.
         14    1    3    3    0    0 -0.79304060366E+02  0.31722562612E+02 -0.73287512211E+03  0.73783561826E+03  0.00000000000E+00 0. -1.
        -11    1    4    4    0    0 -0.11331768380E+02 -0.19125880929E+02  0.63906194741E+01  0.23131111369E+02  0.00000000000E+00 0. -1.
         11    1    4    4    0    0  0.97188097470E+02  0.42630793284E+02 -0.10528332344E+02  0.10664781577E+03  0.00000000000E+00 0.  1.
         21    1    1    2  503  502  0.36379355431E+02 -0.19881198729E+02 -0.43462155938E+02  0.60063953943E+02  0.00000000000E+00 0. -1.
          1    1    1    2  501    0 -0.46678105050E+02 -0.58557775465E+02 -0.28003104289E+02  0.79950187043E+02  0.00000000000E+00 0. -1.
<scales pt_clust_5="13000.00000" pt_clust_6="13000.00000" pt_clust_7="13000.00000" pt_clust_8="13000.00000" pt_clust_9="41.45744" pt_clust_10="73.78254"></scales>
<clustering>
<clus scale="   41.457">  1  9  2 -1</clus>
<clus scale="   73.783">  1 10  2 -1</clus>
<clus scale="   79.846">  5  6 -1 -1</clus>
<clus scale="   94.349">  7  8 -1 -1</clus>
<clus scale="  120.986">  2  5  1 -1</clus>
<clus scale="   41.457">  1  5  2 -1</clus>
</clustering>
</event>
<event>
10    4  0.3403565E-005  0.1194591E+03  0.7546771E-02  0.1244896E+00
          2   -1    0    0  502    0 -0.00000000000E+00  0.00000000000E+00  0.50073513397E+03  0.50073513397E+03  0.00000000000E+00 0. -1.
         21   -1    0    0  503  502  0.00000000000E+00 -0.00000000000E+00 -0.19276638214E+03  0.19276638214E+03  0.00000000000E+00 0.  1.
         23    2    1    2    0    0  0.48887149385E+02  0.70959143328E+02  0.37816257626E+03  0.39548556644E+03  0.77309415838E+02 0.  0.
         24    2    1    2    0    0 -0.36682863268E+02 -0.93649085039E+02  0.53297660880E+02  0.13944099599E+03  0.80544193588E+02 0.  0.
        -11    1    4    4    0    0 -0.22194339682E+02 -0.64037881420E+02 -0.95770791265E+01  0.68448224340E+02  0.00000000000E+00 0.  1.
         12    1    4    4    0    0 -0.14488523586E+02 -0.29611203620E+02  0.62874740006E+02  0.70992771649E+02  0.00000000000E+00 0. -1.
        -11    1    3    3    0    0 -0.14129503129E+02  0.25075202156E+02  0.45712519622E+02  0.54018914021E+02  0.00000000000E+00 0.  1.
         11    1    3    3    0    0  0.63016652514E+02  0.45883941173E+02  0.33245005664E+03  0.34146665242E+03  0.00000000000E+00 0. -1.
         21    1    1    2  503  501  0.25989591364E+02  0.53889298068E+01 -0.11199570290E+03  0.11509794478E+03  0.00000000000E+00 0.  1.
          1    1    1    2  501    0 -0.38193877481E+02  0.17301011904E+02 -0.11495782417E+02  0.43477008905E+02  0.00000000000E+00 0. -1.
<scales pt_clust_5="13000.00000" pt_clust_6="13000.00000" pt_clust_7="13000.00000" pt_clust_8="13000.00000" pt_clust_9="26.54241" pt_clust_10="34.91105"></scales>
<clustering>
<clus scale="   26.542">  2  9  1 -1</clus>
<clus scale="   34.911">  2 10  1 -1</clus>
<clus scale="   77.309">  7  8 -1 -1</clus>
<clus scale="   80.544">  5  6 -1 -1</clus>
<clus scale="  117.302">  1  7  2 -1</clus>
<clus scale="   26.542">  2  5  1 -1</clus>
</clustering>
</event>
<event>
10    4  0.3403565E-005  0.3491597E+03  0.7546771E-02  0.1095923E+00
          2   -1    0    0  502    0 -0.00000000000E+00  0.00000000000E+00  0.24375063944E+04  0.24375063944E+04  0.00000000000E+00 0. -1.
         21   -1    0    0  503  502  0.00000000000E+00 -0.00000000000E+00 -0.88925273845E+02  0.88925273845E+02  0.00000000000E+00 0.  1.
         23    2    1    2    0    0 -0.34672368987E+02  0.97644758994E+02  0.47682596483E+03  0.49739899931E+03  0.96468086175E+02 0.  0.
         24    2    1    2    0    0 -0.28613767478E+03 -0.15890927434E+03  0.58806437813E+03  0.68030096215E+03  0.99311428789E+02 0.  0.
        -13    1    4    4    0    0 -0.20262052231E+03 -0.11776484028E+03  0.32081077984E+03  0.39729484030E+03  0.00000000000E+00 0.  1.
         14    1    4    4    0    0 -0.83517152473E+02 -0.41144434054E+02  0.26725359828E+03  0.28300612185E+03  0.00000000000E+00 0. -1.
        -11    1    3    3    0    0  0.33771301475E+02  0.29331052014E+02  0.14069463412E+03  0.14763397809E+03  0.00000000000E+00 0.  1.
         11    1    3    3    0    0 -0.68443670462E+02  0.68313706980E+02  0.33613133071E+03  0.34976502122E+03  0.00000000000E+00 0. -1.
         21    1    1    2  503  501 -0.24789729567E+02  0.12738135166E+02  0.12572354752E+02  0.30575396702E+02  0.00000000000E+00 0.  1.
          1    1    1    2  501    0  0.34559977333E+03  0.48526380176E+02  0.12711184229E+04  0.13181563101E+04  0.00000000000E+00 0. -1.
<scales pt_clust_5="13000.00000" pt_clust_6="13000.00000" pt_clust_7="13000.00000" pt_clust_8="13000.00000" pt_clust_9="27.87097" pt_clust_10="334.73850"></scales>
<clustering>
<clus scale="   27.871">  2  9  1 -1</clus>
<clus scale="   96.468">  7  8 -1 -1</clus>
<clus scale="   99.311">  5  6 -1 -1</clus>
<clus scale="  143.517">  1  7  2 -1</clus>
<clus scale="  334.738">  2 10  1 -1</clus>
<clus scale="   27.871">  2  5  1 -1</clus>
</clustering>
</event>
<event>
10    4  0.3403565E-005  0.2020861E+03  0.7546771E-02  0.1184150E+00
         21   -1    0    0  503  502  0.00000000000E+00  0.00000000000E+00  0.28546610698E+03  0.28546610698E+03  0.00000000000E+00 0.  1.
         -3   -1    0    0    0  501 -0.00000000000E+00 -0.00000000000E+00 -0.37075412933E+03  0.37075412933E+03  0.00000000000E+00 0.  1.
         24    2    1    2    0    0  0.38418058978E+02  0.15461926086E+02 -0.18311831805E+02  0.89743202632E+02  0.77482261329E+02 0.  0.
         23    2    1    2    0    0  0.74395606265E+01 -0.20584894639E+03 -0.79774367603E+02  0.23930726466E+03  0.92059119055E+02 0.  0.
        -13    1    3    3    0    0  0.54199411847E+02  0.33552517563E+02 -0.15239273917E+02  0.65540698416E+02  0.00000000000E+00 0.  1.
         14    1    3    3    0    0 -0.15781352868E+02 -0.18090591477E+02 -0.30725578881E+01  0.24202504216E+02  0.00000000000E+00 0. -1.
        -13    1    4    4    0    0 -0.15666542002E+02 -0.14790197278E+02 -0.35978223821E+02  0.41935939994E+02  0.00000000000E+00 0. -1.
         13    1    4    4    0    0  0.23106102628E+02 -0.19105874911E+03 -0.43796143782E+02  0.19737132467E+03  0.00000000000E+00 0.  1.
         21    1    1    2  503  501 -0.14162113722E+03  0.43216590027E+02  0.28852556038E+02  0.15085320729E+03  0.00000000000E+00 0.  1.
         -4    1    1    2    0  502  0.95763517612E+02  0.14717043028E+03 -0.16054378988E+02  0.17631656172E+03  0.00000000000E+00 0.  1.
<scales pt_clust_5="13000.00000" pt_clust_6="13000.00000" pt_clust_7="13000.00000" pt_clust_8="13000.00000" pt_clust_9="141.94882" pt_clust_10="179.89977"></scales>
<clustering>
<clus scale="   77.482">  5  6 -1 -1</clus>
<clus scale="   87.855">  2  5  1 -1</clus>
<clus scale="   92.059">  7  8 -1 -1</clus>
<clus scale="  141.949">  1  9  2 -1</clus>
<clus scale="  179.900">  1 10  2 -1</clus>
<clus scale="  141.949">  1  5  2 -1</clus>
</clustering>
</event>
<event>
10    4  0.3403565E-005  0.2401517E+03  0.7546771E-02  0.1145474E+00
         21   -1    0    0  503  502  0.00000000000E+00  0.00000000000E+00  0.80993342096E+03  0.80993342096E+03  0.00000000000E+00 0. -1.
          2   -1    0    0  502    0 -0.00000000000E+00 -0.00000000000E+00 -0.18509219410E+03  0.18509219410E+03  0.00000000000E+00 0. -1.
         24    2    1    2    0    0 -0.31822482099E+02  0.87440360174E+02  0.44635254568E+02  0.13164348098E+03  0.81726453362E+02 0.  0.
         23    2    1    2    0    0 -0.14088415542E+03 -0.26442654602E+03  0.28991015714E+03  0.42488348600E+03  0.81904419713E+02 0.  0.
        -13    1    3    3    0    0 -0.60709447295E+01  0.34254411826E+02  0.61091958273E+02  0.70302549492E+02  0.00000000000E+00 0.  1.
         14    1    3    3    0    0 -0.25751537370E+02  0.53185948349E+02 -0.16456703705E+02  0.61340931485E+02  0.00000000000E+00 0. -1.
        -13    1    4    4    0    0 -0.90401402222E+02 -0.22137218152E+03  0.25623639318E+03  0.35047845221E+03  0.00000000000E+00 0. -1.
         13    1    4    4    0    0 -0.50482753199E+02 -0.43054364496E+02  0.33673763964E+02  0.74405033782E+02  0.00000000000E+00 0.  1.
         21    1    1    2  503  501  0.53488972387E+02  0.50906140335E+02  0.24956898231E+03  0.26026367826E+03  0.00000000000E+00 0.  1.
          1    1    1    2  501    0  0.11921766513E+03  0.12608004551E+03  0.40726832833E+02  0.17823496982E+03  0.00000000000E+00 0. -1.
<scales pt_clust_5="13000.00000" pt_clust_6="13000.00000" pt_clust_7="13000.00000" pt_clust_8="13000.00000" pt_clust_9="73.84108" pt_clust_10="225.75334"></scales>
<clustering>
<clus scale="   73.841">  1  9  2 -1</clus>
<clus scale="   81.726">  5  6 -1 -1</clus>
<clus scale="   81.904">  7  8 -1 -1</clus>
<clus scale="  127.861">  2  5  1 -1</clus>
<clus scale="  225.753">  1 10  2 -1</clus>
<clus scale="   73.841">  1  5  2 -1</clus>
</clustering>
</event>
<event>
10    4  0.3403565E-005  0.3803027E+03  0.7546771E-02  0.1085344E+00
         21   -1    0    0  503  502  0.00000000000E+00  0.00000000000E+00  0.10649142738E+03  0.10649142738E+03  0.00000000000E+00 0. -1.
          2   -1    0    0  502    0 -0.00000000000E+00 -0.00000000000E+00 -0.19782750087E+04  0.19782750087E+04  0.00000000000E+00 0. -1.
         24    2    1    2    0    0 -0.52034379942E+02 -0.98577239689E+02 -0.22055449175E+03  0.26497577879E+03  0.95618150145E+02 0.  0.
         23    2    1    2    0    0 -0.13170740629E+03  0.37707357567E+03 -0.75356656854E+03  0.85905860795E+03  0.10289701810E+03 0.  0.
        -13    1    3    3    0    0 -0.58429402642E+02 -0.11263891758E+03 -0.17014069183E+03  0.21224838247E+03  0.00000000000E+00 0.  1.
         14    1    3    3    0    0  0.63950227007E+01  0.14061677891E+02 -0.50413799921E+02  0.52727396322E+02  0.00000000000E+00 0. -1.
        -13    1    4    4    0    0 -0.40650855734E+02  0.31258798618E+02 -0.61598116800E+02  0.80149438901E+02  0.00000000000E+00 0.  1.
         13    1    4    4    0    0 -0.91056550556E+02  0.34581477706E+03 -0.69196845174E+03  0.77890916905E+03  0.00000000000E+00 0. -1.
         21    1    1    2  503  501  0.21343769710E+02 -0.10711903231E+02 -0.30420529082E+02  0.38674409703E+02  0.00000000000E+00 0. -1.
          1    1    1    2  501    0  0.16239801652E+03 -0.26778443275E+03 -0.86724199192E+03  0.92205763960E+03  0.00000000000E+00 0. -1.
<scales pt_clust_5="13000.00000" pt_clust_6="13000.00000" pt_clust_7="13000.00000" pt_clust_8="13000.00000" pt_clust_9="21.18700" pt_clust_10="374.07130"></scales>
<clustering>
<clus scale="   21.187">  9 10 -1 -1</clus>
<clus scale="   95.618">  5  6 -1 -1</clus>
<clus scale="  102.897">  7  8 -1 -1</clus>
<clus scale="  146.860">  2  5  1 -1</clus>
<clus scale="  374.071">  1  9  2 -1</clus>
<clus scale="  374.071">  1  5  2 -1</clus>
</clustering>
</event>
<event>
10    4  0.3403565E-005  0.1638231E+03  0.7546771E-02  0.1212744E+00
          2   -1    0    0  503    0 -0.00000000000E+00  0.00000000000E+00  0.61411799926E+03  0.61411799926E+03  0.00000000000E+00 0. -1.
         21   -1    0    0  501  502  0.00000000000E+00 -0.00000000000E+00 -0.14719261275E+03  0.14719261275E+03  0.00000000000E+00 0. -1.
         24    2    1    2    0    0  0.38340211540E+02 -0.69337107034E+01  0.12841287206E+03  0.15699713719E+03  0.81487343863E+02 0.  0.
         23    2    1    2    0    0  0.81234767829E+02  0.12018040442E+03  0.11721492312E+03  0.20810984608E+03  0.92346915069E+02 0.  0.
        -13    1    3    3    0    0 -0.34130577668E+01  0.31070367345E+02  0.64786691313E+02  0.71932830207E+02  0.00000000000E+00 0.  1.
         14    1    3    3    0    0  0.41753269306E+02 -0.38004078048E+02  0.63626180751E+02  0.85064306986E+02  0.00000000000E+00 0. -1.
        -11    1    4    4    0    0  0.76375052551E+02  0.85242280716E+02  0.12753087049E+03  0.17135786531E+03  0.00000000000E+00 0. -1.
         11    1    4    4    0    0  0.48597152775E+01  0.34938123703E+02 -0.10315947374E+02  0.36751980772E+02  0.00000000000E+00 0.  1.
         21    1    1    2  503  502 -0.26428861854E+02 -0.88688790896E+01 -0.68746776096E+02  0.74183967127E+02  0.00000000000E+00 0. -1.
          1    1    1    2  501    0 -0.93146117514E+02 -0.10437781463E+03  0.29004436742E+03  0.32201966162E+03  0.00000000000E+00 0. -1.
<scales pt_clust_5="13000.00000" pt_clust_6="13000.00000" pt_clust_7="13000.00000" pt_clust_8="13000.00000" pt_clust_9="27.87726" pt_clust_10="135.31468"></scales>
<clustering>
<clus scale="   27.877">  2  9  1 -1</clus>
<clus scale="   81.487">  5  6 -1 -1</clus>
<clus scale="   88.468">  1  5  2 -1</clus>
<clus scale="   92.347">  7  8 -1 -1</clus>
<clus scale="  135.315">  2 10  1 -1</clus>
<clus scale="   27.877">  2  5  1 -1</clus>
</clustering>
</event>
<event>
10    4  0.3403565E-005  0.2513222E+03  0.7546771E-02  0.1129626E+00
          2   -1    0    0  503    0 -0.00000000000E+00  0.00000000000E+00  0.15410883652E+04  0.15410883652E+04  0.00000000000E+00 0. -1.
         21   -1    0    0  501  502  0.00000000000E+00 -0.00000000000E+00 -0.17320556763E+03  0.17320556763E+03  0.00000000000E+00 0. -1.
         24    2    1    2    0    0 -0.11892491293E+03 -0.76713544918E+02  0.86618247466E+03  0.88124894617E+03  0.79369533341E+02 0.  0.
         23    2    1    2    0    0 -0.16403446038E+03 -0.48594715036E+02  0.16283529686E+03  0.25381257181E+03  0.92934047506E+02 0.  0.
        -13    1    3    3    0    0 -0.50645823311E+02  0.45273620287E+01  0.18547082810E+03  0.19231464973E+03  0.00000000000E+00 0.  1.
         14    1    3    3    0    0 -0.68279089624E+02 -0.81240906946E+02  0.68071164656E+03  0.68893429643E+03  0.00000000000E+00 0. -1.
        -11    1    4    4    0    0 -0.27551786753E+02 -0.39419821572E+02  0.10788850892E+02  0.49289173148E+02  0.00000000000E+00 0.  1.
         11    1    4    4    0    0 -0.13648267363E+03 -0.91748934640E+01  0.15204644597E+03  0.20452339867E+03  0.00000000000E+00 0. -1.
         21    1    1    2  503  502 -0.32758654281E+02  0.13079082498E+01 -0.52148447359E+02  0.61597894577E+02  0.00000000000E+00 0. -1.
          1    1    1    2  501    0  0.31571802760E+03  0.12400035170E+03  0.39101347339E+03  0.51763452024E+03  0.00000000000E+00 0. -1.
<scales pt_clust_5="13000.00000" pt_clust_6="13000.00000" pt_clust_7="13000.00000" pt_clust_8="13000.00000" pt_clust_9="32.78475" pt_clust_10="233.50837"></scales>
<clustering>
<clus scale="   32.785">  2  9  1 -1</clus>
<clus scale="   79.370">  5  6 -1 -1</clus>
<clus scale="   92.934">  7  8 -1 -1</clus>
<clus scale="  163.779">  1  5  2 -1</clus>
<clus scale="  233.508">  2 10  1 -1</clus>
<clus scale="   32.785">  2  5  1 -1</clus>
</clustering>
</event>
<event>
10    4  0.3403565E-005  0.1350484E+03  0.7546771E-02  0.1223906E+00
         21   -1    0    0  501  502  0.00000000000E+00  0.00000000000E+00  0.26546717457E+03  0.26546717457E+03  0.00000000000E+00 0. -1.
          2   -1    0    0  503    0 -0.00000000000E+00 -0.00000000000E+00 -0.12394966311E+04  0.12394966311E+04  0.00000000000E+00 0. -1.
         24    2    1    2    0    0 -0.47262496711E+02 -0.89576745015E+02 -0.99472934301E+03  0.10028050600E+04  0.76640626980E+02 0.  0.
         23    2    1    2    0    0  0.13384594065E+02  0.86721703426E+02 -0.16100094020E+03  0.20529640683E+03  0.92333692160E+02 0.  0.
        -13    1    3    3    0    0 -0.68364002963E+01 -0.77083650382E+02 -0.46566234226E+03  0.47204877134E+03  0.00000000000E+00 0.  1.
         14    1    3    3    0    0 -0.40426096415E+02 -0.12493094633E+02 -0.52906700075E+03  0.53075628868E+03  0.00000000000E+00 0. -1.
        -11    1    4    4    0    0 -0.93188654349E+01  0.89532040422E+02 -0.77703072629E+02  0.11891423385E+03  0.00000000000E+00 0. -1.
         11    1    4    4    0    0  0.22703459500E+02 -0.28103369959E+01 -0.83297867572E+02  0.86382172983E+02  0.00000000000E+00 0.  1.
         21    1    1    2  503  502  0.58124080299E+02 -0.96756743092E+02  0.35548948801E+02  0.11833851362E+03  0.00000000000E+00 0.  1.
          1    1    1    2  501    0 -0.24246177653E+02  0.99611784681E+02  0.14615187785E+03  0.17852382523E+03  0.00000000000E+00 0. -1.
<scales pt_clust_5="13000.00000" pt_clust_6="13000.00000" pt_clust_7="13000.00000" pt_clust_8="13000.00000" pt_clust_9="45.89313" pt_clust_10="102.52017"></scales>
<clustering>
<clus scale="   76.641">  5  6 -1 -1</clus>
<clus scale="   92.334">  7  8 -1 -1</clus>
<clus scale="  102.520">  1 10  2 -1</clus>
<clus scale="   45.893">  1  9  2 -1</clus>
<clus scale="  124.845">  2  5  1 -1</clus>
<clus scale="  102.520">  1  5  2 -1</clus>
</clustering>
</event>
<event>
10    4  0.3403565E-005  0.1729971E+03  0.7546771E-02  0.1198538E+00
          2   -1    0    0  502    0 -0.00000000000E+00  0.00000000000E+00  0.34682100719E+03  0.34682100719E+03  0.00000000000E+00 0. -1.
         21   -1    0    0  503  502  0.00000000000E+00 -0.00000000000E+00 -0.50123422155E+03  0.50123422155E+03  0.00000000000E+00 0.  1.
         23    2    1    2    0    0 -0.10658555872E+02 -0.22509451080E+02  0.22178305152E+03  0.24404969110E+03  0.98753478839E+02 0.  0.
         24    2    1    2    0    0  0.65377403202E+02  0.16337868095E+03 -0.30126299925E+03  0.35765637098E+03  0.78688542660E+02 0.  0.
        -13    1    4    4    0    0  0.27986958582E+02  0.36963034177E+02 -0.15003508893E+03  0.15703523062E+03  0.00000000000E+00 0.  1.
         14    1    4    4    0    0  0.37390444620E+02  0.12641564677E+03 -0.15122791031E+03  0.20062114035E+03  0.00000000000E+00 0. -1.
        -13    1    3    3    0    0 -0.34511294640E+02 -0.49168231151E+02  0.17586984249E+03  0.18584602743E+03  0.00000000000E+00 0. -1.
         13    1    3    3    0    0  0.23852738768E+02  0.26658780072E+02  0.45913209031E+02  0.58203663675E+02  0.00000000000E+00 0.  1.
         21    1    1    2  503  501 -0.27696409919E+01 -0.19830567981E+02 -0.10857422271E+03  0.11040509126E+03  0.00000000000E+00 0. -1.
          1    1    1    2  501    0 -0.51949206338E+02 -0.12103866189E+03  0.33640956081E+02  0.13594407540E+03  0.00000000000E+00 0. -1.
<scales pt_clust_5="13000.00000" pt_clust_6="13000.00000" pt_clust_7="13000.00000" pt_clust_8="13000.00000" pt_clust_9="20.02305" pt_clust_10="154.06531"></scales>
<clustering>
<clus scale="   20.023">  2  9  1 -1</clus>
<clus scale="   78.689">  5  6 -1 -1</clus>
<clus scale="   98.753">  7  8 -1 -1</clus>
<clus scale="  101.980">  1  7  2 -1</clus>
<clus scale="  154.065">  2 10  1 -1</clus>
<clus scale="   20.023">  2  5  1 -1</clus>
</clustering>
</event>
<event>
10    4  0.3403565E-005  0.3131628E+03  0.7546771E-02  0.1122054E+00
         -1   -1    0    0    0  501 -0.00000000000E+00  0.00000000000E+00  0.32449112729E+03  0.32449112729E+03  0.00000000000E+00 0.  1.
         21   -1    0    0  503  502  0.00000000000E+00 -0.00000000000E+00 -0.13411341577E+04  0.13411341577E+04  0.00000000000E+00 0.  1.
         23    2    1    2    0    0 -0.21740347576E+02 -0.36708944269E+02 -0.10375074895E+03  0.14509956156E+03  0.92029753629E+02 0.  0.
         24    2    1    2    0    0 -0.21575767443E+03 -0.15270863485E+03  0.19936821182E+03  0.33921029934E+03  0.73787817809E+02 0.  0.
        -11    1    4    4    0    0 -0.15180646167E+03 -0.99229947490E+02  0.92247968161E+02  0.20347351649E+03  0.00000000000E+00 0.  1.
         12    1    4    4    0    0 -0.63951212764E+02 -0.53478687360E+02  0.10712024366E+03  0.13573678284E+03  0.00000000000E+00 0. -1.
        -13    1    3    3    0    0  0.34552828941E+02 -0.24848387066E+02 -0.55985652170E+02  0.70325909710E+02  0.00000000000E+00 0. -1.
         13    1    3    3    0    0 -0.56293176517E+02 -0.11860557202E+02 -0.47765096785E+02  0.74773651846E+02  0.00000000000E+00 0.  1.
         21    1    1    2  503  501 -0.50099035576E+02  0.14970346451E+02 -0.79465688602E+02  0.95125287403E+02  0.00000000000E+00 0.  1.
         -2    1    1    2    0  502  0.28759705758E+03  0.17444723267E+03 -0.10327948047E+04  0.10861901367E+04  0.00000000000E+00 0.  1.
<scales pt_clust_5="13000.00000" pt_clust_6="13000.00000" pt_clust_7="13000.00000" pt_clust_8="13000.00000" pt_clust_9="52.28790" pt_clust_10="304.34570"></scales>
<clustering>
<clus scale="   52.288">  2  9  1 -1</clus>
<clus scale="   73.788">  5  6 -1 -1</clus>
<clus scale="   92.030">  7  8 -1 -1</clus>
<clus scale="  102.097">  1  7  2 -1</clus>
<clus scale="  304.346">  2 10  1 -1</clus>
<clus scale="   52.288">  2  5  1 -1</clus>
</clustering>
</event>
<event>
10    4  0.3403565E-005  0.2739587E+03  0.7546771E-02  0.1123838E+00
          2   -1    0    0  502    0 -0.00000000000E+00  0.00000000000E+00  0.93870417523E+03  0.93870417523E+03  0.00000000000E+00 0. -1.
         21   -1    0    0  503  502  0.00000000000E+00 -0.00000000000E+00 -0.25121834883E+03  0.25121834883E+03  0.00000000000E+00 0.  1.
         23    2    1    2    0    0  0.10282931464E+03 -0.34104542210E+02 -0.61926760417E+02  0.15660782065E+03  0.94626096212E+02 0.  0.
         24    2    1    2    0    0  0.77932842346E+02 -0.21384166036E+03  0.18361655152E+03  0.30270190159E+03  0.78176848308E+02 0.  0.
        -11    1    4    4    0    0  0.83525614176E+02 -0.21357021033E+03  0.16302955172E+03  0.28136701601E+03  0.00000000000E+00 0.  1.
         12    1    4    4    0    0 -0.55927718294E+01 -0.27145003088E+00  0.20586999805E+02  0.21334885583E+02  0.00000000000E+00 0. -1.
        -11    1    3    3    0    0  0.95941363461E+02  0.11038766920E+02 -0.52705575263E+02  0.11002034931E+03  0.00000000000E+00 0.  1.
         11    1    3    3    0    0  0.68879511831E+01 -0.45143309130E+02 -0.92211851536E+01  0.46587471345E+02  0.00000000000E+00 0. -1.
         21    1    1    2  503  501 -0.11631958776E+02 -0.39256513235E+02 -0.28046660868E+02  0.49628534959E+02  0.00000000000E+00 0.  1.
          1    1    1    2  501    0 -0.16913019821E+03  0.28720271581E+03  0.59384269616E+03  0.68098426685E+03  0.00000000000E+00 0. -1.
<scales pt_clust_5="13000.00000" pt_clust_6="13000.00000" pt_clust_7="13000.00000" pt_clust_8="13000.00000" pt_clust_9="40.94357" pt_clust_10="262.56778"></scales>
<clustering>
<clus scale="   40.944">  2  9  1 -1</clus>
<clus scale="   78.177">  5  6 -1 -1</clus>
<clus scale="   94.626">  7  8 -1 -1</clus>
<clus scale="  145.882">  1  7  2 -1</clus>
<clus scale="  262.568">  2 10  1 -1</clus>
<clus scale="   40.944">  2  5  1 -1</clus>
</clustering>
</event>
<event>
10    4  0.3403565E-005  0.1337154E+03  0.7546771E-02  0.1226210E+00
         21   -1    0    0  501  502  0.00000000000E+00  0.00000000000E+00  0.93288555563E+02  0.93288555563E+02  0.00000000000E+00 0. -1.
          2   -1    0    0  503    0 -0.00000000000E+00 -0.00000000000E+00 -0.53691302920E+03  0.53691302920E+03  0.00000000000E+00 0. -1.
         23    2    1    2    0    0 -0.45776113240E+02 -0.96227111544E+02 -0.39602042910E+03  0.42023610256E+03  0.91712006267E+02 0.  0.
         24    2    1    2    0    0  0.50170071703E+02  0.62239110528E+02 -0.95536429930E+02  0.14518186663E+03  0.74564213807E+02 0.  0.
        -11    1    4    4    0    0  0.69656355602E+02  0.53442749604E+02 -0.79699491224E+02  0.11857547918E+03  0.00000000000E+00 0.  1.
         12    1    4    4    0    0 -0.19486283899E+02  0.87963609236E+01 -0.15836938706E+02  0.26606387452E+02  0.00000000000E+00 0. -1.
        -13    1    3    3    0    0  0.13217112836E+02 -0.75755342685E+02 -0.24597800074E+03  0.25771833630E+03  0.00000000000E+00 0. -1.
         13    1    3    3    0    0 -0.58993226076E+02 -0.20471768859E+02 -0.15004242836E+03  0.16251776626E+03  0.00000000000E+00 0.  1.
         21    1    1    2  503  502 -0.14588813228E+02  0.16779145328E+02  0.17179467312E+02  0.28098172297E+02  0.00000000000E+00 0.  1.
          1    1    1    2  501    0  0.10194854765E+02  0.17208855689E+02  0.30752918080E+02  0.36685443274E+02  0.00000000000E+00 0. -1.
<scales pt_clust_5="13000.00000" pt_clust_6="13000.00000" pt_clust_7="13000.00000" pt_clust_8="13000.00000" pt_clust_9="25.66288" pt_clust_10="20.00199"></scales>
<clustering>
<clus scale="   20.002">  1 10  2 -1</clus>
<clus scale="   25.663">  1  9  2 -1</clus>
<clus scale="   74.564">  5  6 -1 -1</clus>
<clus scale="   91.712">  7  8 -1 -1</clus>
<clus scale="  122.591">  1  5  2 -1</clus>
<clus scale="   20.002">  1  5  2 -1</clus>
</clustering>
</event>
<event>
10    4  0.3403565E-005  0.1332770E+03  0.7546771E-02  0.1234779E+00
         21   -1    0    0  501  502  0.00000000000E+00  0.00000000000E+00  0.10419743928E+03  0.10419743928E+03  0.00000000000E+00 0.  1.
          2   -1    0    0  503    0 -0.00000000000E+00 -0.00000000000E+00 -0.41267118070E+03  0.41267118070E+03  0.00000000000E+00 0. -1.
         24    2    1    2    0    0 -0.20310858234E+02 -0.52099295013E+02 -0.37787249166E+02  0.10402859287E+03  0.79165677113E+02 0.  0.
         23    2    1    2    0    0 -0.25111743931E+02 -0.39482796184E+02 -0.20272304126E+03  0.22689628982E+03  0.90530679875E+02 0.  0.
        -11    1    3    3    0    0  0.23349631696E+02 -0.30441588300E+02  0.56065856858E+01  0.38772792028E+02  0.00000000000E+00 0.  1.
         12    1    3    3    0    0 -0.43660489930E+02 -0.21657706713E+02 -0.43393834852E+02  0.65255800847E+02  0.00000000000E+00 0. -1.
        -13    1    4    4    0    0 -0.51436332591E+02 -0.43411772510E+02 -0.17902276031E+03  0.19125748877E+03  0.00000000000E+00 0.  1.
         13    1    4    4    0    0  0.26324588660E+02  0.39289763257E+01 -0.23700280957E+02  0.35638801054E+02  0.00000000000E+00 0. -1.
         21    1    1    2  503  502 -0.25224995303E+02 -0.19031716554E+02  0.10172867624E+02  0.33196292846E+02  0.00000000000E+00 0. -1.
          1    1    1    2  501    0  0.70647597467E+02  0.11061380775E+03 -0.78136318618E+02  0.15274744443E+03  0.00000000000E+00 0. -1.
<scales pt_clust_5="13000.00000" pt_clust_6="13000.00000" pt_clust_7="13000.00000" pt_clust_8="13000.00000" pt_clust_9="31.59916" pt_clust_10="97.81082"></scales>
<clustering>
<clus scale="   31.599">  1  9  2 -1</clus>
<clus scale="   79.166">  5  6 -1 -1</clus>
<clus scale="   90.531">  7  8 -1 -1</clus>
<clus scale="  103.741">  2  5  1 -1</clus>
<clus scale="   97.811">  1 10  2 -1</clus>
<clus scale="   31.599">  1  5  2 -1</clus>
</clustering>
</event>
<event>
10    4  0.3403565E-005  0.1893606E+03  0.7546771E-02  0.1160336E+00
         21   -1    0    0  501  502  0.00000000000E+00  0.00000000000E+00  0.22495171014E+03  0.22495171014E+03  0.00000000000E+00 0. -1.
          2   -1    0    0  503    0 -0.00000000000E+00 -0.00000000000E+00 -0.46853390197E+03  0.46853390197E+03  0.00000000000E+00 0. -1.
         23    2    1    2    0    0  0.32227054155E+02  0.11238886340E+03 -0.72168345481E+02  0.16528123297E+03  0.91868254831E+02 0.  0.
         24    2    1    2    0    0  0.31091950226E+01 -0.21783671064E+03 -0.24010563590E+03  0.33384416892E+03  0.79616035680E+02 0.  0.
        -11    1    4    4    0    0  0.34684457942E+02 -0.53286674138E+02 -0.53906827103E+02  0.83357226872E+02  0.00000000000E+00 0.  1.
         12    1    4    4    0    0 -0.31575262920E+02 -0.16455003650E+03 -0.18619880879E+03  0.25048694205E+03  0.00000000000E+00 0. -1.
        -11    1    3    3    0    0 -0.29338198457E+02  0.26443767795E+02 -0.44846240989E+01  0.39750655305E+02  0.00000000000E+00 0.  1.
         11    1    3    3    0    0  0.61565252612E+02  0.85945095604E+02 -0.67683721382E+02  0.12553057766E+03  0.00000000000E+00 0. -1.
         21    1    1    2  503  502  0.15740059417E+02 -0.29572161315E+02  0.29846317274E+02  0.44867191243E+02  0.00000000000E+00 0. -1.
          1    1    1    2  501    0 -0.51076308595E+02  0.13502000855E+03  0.38845472278E+02  0.14949301899E+03  0.00000000000E+00 0. -1.
<scales pt_clust_5="13000.00000" pt_clust_6="13000.00000" pt_clust_7="13000.00000" pt_clust_8="13000.00000" pt_clust_9="33.50018" pt_clust_10="127.69572"></scales>
<clustering>
<clus scale="   33.500">  1  9  2 -1</clus>
<clus scale="   79.616">  5  6 -1 -1</clus>
<clus scale="   91.868">  7  8 -1 -1</clus>
<clus scale="  127.696">  1 10  2 -1</clus>
<clus scale="  183.729">  1  5  2 -1</clus>
<clus scale="   33.500">  1  5  2 -1</clus>
</clustering>
</event>
<event>
10    4  0.3403565E-005  0.9821972E+02  0.7546771E-02  0.1287615E+00
         21   -1    0    0  503  502  0.00000000000E+00  0.00000000000E+00  0.19977747934E+03  0.19977747934E+03  0.00000000000E+00 0. -1.
          2   -1    0    0  502    0 -0.00000000000E+00 -0.00000000000E+00 -0.48893504595E+03  0.48893504595E+03  0.00000000000E+00 0. -1.
         23    2    1    2    0    0 -0.53972761323E+02 -0.13266877727E+02 -0.40735690442E+03  0.42031248757E+03  0.87372024266E+02 0.  0.
         24    2    1    2    0    0  0.64021096180E+01 -0.74492009708E+01 -0.42693255096E+02  0.91382033625E+02  0.80196536310E+02 0.  0.
        -11    1    4    4    0    0  0.37709221951E+02 -0.17705609177E+02 -0.40913021905E+02  0.58389634165E+02  0.00000000000E+00 0.  1.
         12    1    4    4    0    0 -0.31307112333E+02  0.10256408206E+02 -0.17802331907E+01  0.32992399460E+02  0.00000000000E+00 0. -1.
        -13    1    3    3    0    0  0.20661041812E+02  0.42730791798E-01 -0.37980659880E+02  0.43236685807E+02  0.00000000000E+00 0.  1.
         13    1    3    3    0    0 -0.74633803135E+02 -0.13309608519E+02 -0.36937624454E+03  0.37707580177E+03  0.00000000000E+00 0. -1.
         21    1    1    2  503  501  0.18439881005E+02 -0.15824473252E+02  0.79872597894E+02  0.83486975389E+02  0.00000000000E+00 0. -1.
          1    1    1    2  501    0  0.29130770700E+02  0.36540551950E+02  0.81019995005E+02  0.93531028696E+02  0.00000000000E+00 0. -1.
<scales pt_clust_5="13000.00000" pt_clust_6="13000.00000" pt_clust_7="13000.00000" pt_clust_8="13000.00000" pt_clust_9="24.29904" pt_clust_10="49.45279"></scales>
<clustering>
<clus scale="   24.299">  1  9  2 -1</clus>
<clus scale="   49.453">  1 10  2 -1</clus>
<clus scale="   80.197">  5  6 -1 -1</clus>
<clus scale="   87.372">  7  8 -1 -1</clus>
<clus scale="   91.895">  1  5  2 -1</clus>
<clus scale="   24.299">  1  5  2 -1</clus>
</clustering>
</event>
<event>
10    4  0.3403565E-005  0.9606592E+02  0.7546771E-02  0.1295442E+00
         21   -1    0    0  501  502  0.00000000000E+00  0.00000000000E+00  0.12168738666E+03  0.12168738666E+03  0.00000000000E+00 0.  1.
          2   -1    0    0  503    0 -0.00000000000E+00 -0.00000000000E+00 -0.23163402322E+03  0.23163402322E+03  0.00000000000E+00 0. -1.
         23    2    1    2    0    0 -0.12563675760E+02  0.12718957592E+02 -0.75363866277E+02  0.11972491702E+03  0.91294718269E+02 0.  0.
         24    2    1    2    0    0  0.37242298185E+02 -0.27207619522E+02 -0.41761131490E+02  0.10088323834E+03  0.79411537829E+02 0.  0.
        -13    1    4    4    0    0  0.45683242606E+02 -0.32496064464E+02  0.19060143021E+01  0.56094436009E+02  0.00000000000E+00 0.  1.
         14    1    4    4    0    0 -0.84409444206E+01  0.52884449421E+01 -0.43667145792E+02  0.44788802331E+02  0.00000000000E+00 0. -1.
        -13    1    3    3    0    0 -0.52122044045E+02  0.69202339354E+01 -0.36816413602E+02  0.64187579980E+02  0.00000000000E+00 0.  1.
         13    1    3    3    0    0  0.39558368286E+02  0.57987236570E+01 -0.38547452675E+02  0.55537337038E+02  0.00000000000E+00 0. -1.
         21    1    1    2  503  502  0.13628282837E+02  0.23144367708E+02  0.60672048007E+02  0.66351256651E+02  0.00000000000E+00 0.  1.
          1    1    1    2  501    0 -0.38306905263E+02 -0.86557057789E+01 -0.53493686800E+02  0.66361997866E+02  0.00000000000E+00 0. -1.
<scales pt_clust_5="13000.00000" pt_clust_6="13000.00000" pt_clust_7="13000.00000" pt_clust_8="13000.00000" pt_clust_9="26.85874" pt_clust_10="37.30115"></scales>
<clustering>
<clus scale="   26.859">  1  9  2 -1</clus>
<clus scale="   37.301">  1 10  2 -1</clus>
<clus scale="   79.412">  5  6 -1 -1</clus>
<clus scale="   84.854">  1  5  2 -1</clus>
<clus scale="   91.295">  7  8 -1 -1</clus>
<clus scale="   26.859">  1  5  2 -1</clus>
</clustering>
</event>
<event>
10    4  0.3403565E-005  0.9389971E+02  0.7546771E-02  0.1297903E+00
         21   -1    0    0  501  502  0.00000000000E+00  0.00000000000E+00  0.17850202140E+03  0.17850202140E+03  0.00000000000E+00 0. -1.
          2   -1    0    0  503    0 -0.00000000000E+00 -0.00000000000E+00 -0.74893880893E+03  0.74893880893E+03  0.00000000000E+00 0. -1.
         24    2    1    2    0    0  0.53953037222E+02  0.13214061603E+02 -0.39929334090E+03  0.41109120691E+03  0.80469041658E+02 0.  0.
         23    2    1    2    0    0  0.12915436993E+02  0.17539341630E+02 -0.15346390412E+03  0.17827471719E+03  0.88069676401E+02 0.  0.
        -11    1    3    3    0    0 -0.96176887545E+01  0.30282448161E+02 -0.11843747747E+03  0.12262529377E+03  0.00000000000E+00 0.  1.
         12    1    3    3    0    0  0.63570725976E+02 -0.17068386558E+02 -0.28085586342E+03  0.28846591314E+03  0.00000000000E+00 0. -1.
        -13    1    4    4    0    0 -0.12293365970E+02 -0.31861157152E+02 -0.72452912720E+02  0.80097969659E+02  0.00000000000E+00 0.  1.
         13    1    4    4    0    0  0.25208802963E+02  0.49400498782E+02 -0.81010991403E+02  0.98176747526E+02  0.00000000000E+00 0. -1.
         21    1    1    2  503  502 -0.13069802350E+02 -0.21485246784E+02  0.15497150445E+03  0.15699873488E+03  0.00000000000E+00 0. -1.
          1    1    1    2  501    0 -0.53798671865E+02 -0.92681564491E+01 -0.17265104695E+03  0.18107617135E+03  0.00000000000E+00 0. -1.
<scales pt_clust_5="13000.00000" pt_clust_6="13000.00000" pt_clust_7="13000.00000" pt_clust_8="13000.00000" pt_clust_9="25.14827" pt_clust_10="57.79217"></scales>
<clustering>
<clus scale="   25.148">  1  9  2 -1</clus>
<clus scale="   57.792">  1 10  2 -1</clus>
<clus scale="   80.469">  5  6 -1 -1</clus>
<clus scale="   86.811">  2  5  1 -1</clus>
<clus scale="   88.070">  7  8 -1 -1</clus>
<clus scale="   25.148">  1  5  2 -1</clus>
</clustering>
</event>
<event>
10    4  0.3403565E-005  0.2448507E+03  0.7546771E-02  0.1139549E+00
          2   -1    0    0  503    0 -0.00000000000E+00  0.00000000000E+00  0.80520406937E+03  0.80520406937E+03  0.00000000000E+00 0. -1.
         21   -1    0    0  501  502  0.00000000000E+00 -0.00000000000E+00 -0.18329279916E+03  0.18329279916E+03  0.00000000000E+00 0. -1.
         24    2    1    2    0    0  0.87638883641E+02  0.23119947444E+02  0.94188485536E+02  0.15485471760E+03  0.83026543102E+02 0.  0.
         23    2    1    2    0    0 -0.22375578351E+03 -0.20258506338E+03  0.31062030866E+03  0.44336391575E+03  0.94758783666E+02 0.  0.
        -13    1    3    3    0    0  0.85943188219E+02  0.38557446878E+02  0.47187738335E+02  0.10535459629E+03  0.00000000000E+00 0.  1.
         14    1    3    3    0    0  0.16956954221E+01 -0.15437499434E+02  0.47000747202E+02  0.49500121305E+02  0.00000000000E+00 0. -1.
        -13    1    4    4    0    0 -0.12151885662E+03 -0.99212050076E+02  0.22609510527E+03  0.27518877161E+03  0.00000000000E+00 0.  1.
         13    1    4    4    0    0 -0.10223692689E+03 -0.10337301330E+03  0.84525203394E+02  0.16817514414E+03  0.00000000000E+00 0. -1.
         21    1    1    2  503  502  0.92239553942E+02 -0.15278960951E+01 -0.14179326501E+02  0.93335540273E+02  0.00000000000E+00 0.  1.
          1    1    1    2  501    0  0.43877345922E+02  0.18099301203E+03  0.23128180251E+03  0.29694269491E+03  0.00000000000E+00 0. -1.
<scales pt_clust_5="13000.00000" pt_clust_6="13000.00000" pt_clust_7="13000.00000" pt_clust_8="13000.00000" pt_clust_9="92.25221" pt_clust_10="225.77127"></scales>
<clustering>
<clus scale="   83.027">  5  6 -1 -1</clus>
<clus scale="   92.252">  2  9  1 -1</clus>
<clus scale="   94.759">  7  8 -1 -1</clus>
<clus scale="  139.085">  1  5  2 -1</clus>
<clus scale="  225.771">  2 10  1 -1</clus>
<clus scale="   92.252">  2  5  1 -1</clus>
</clustering>
</event>
<event>
10    4  0.3403565E-005  0.1397737E+03  0.7546771E-02  0.1240155E+00
         21   -1    0    0  501  502  0.00000000000E+00  0.00000000000E+00  0.21719826783E+02  0.21719826783E+02  0.00000000000E+00 0. -1.
          2   -1    0    0  503    0 -0.00000000000E+00 -0.00000000000E+00 -0.21701305490E+04  0.21701305490E+04  0.00000000000E+00 0. -1.
         24    2    1    2    0    0  0.67685141220E+01  0.58029598593E+01 -0.84691580680E+03  0.85076920436E+03  0.80388855970E+02 0.  0.
         23    2    1    2    0    0  0.95066419314E+02 -0.47651219119E+02 -0.31409337525E+03  0.34420703541E+03  0.92279857393E+02 0.  0.
        -11    1    3    3    0    0 -0.13746840926E+02  0.25292016300E+02 -0.12390952233E+03  0.12720940000E+03  0.00000000000E+00 0.  1.
         12    1    3    3    0    0  0.20515355048E+02 -0.19489056441E+02 -0.72300628446E+03  0.72355980436E+03  0.00000000000E+00 0. -1.
        -11    1    4    4    0    0  0.44095433641E+02  0.16637751975E+02 -0.54982678016E+02  0.72417656276E+02  0.00000000000E+00 0.  1.
         11    1    4    4    0    0  0.50970985672E+02 -0.64288971094E+02 -0.25911069724E+03  0.27178937913E+03  0.00000000000E+00 0. -1.
         21    1    1    2  503  502 -0.22219282801E+02 -0.24744414459E+02 -0.22837061683E+03  0.23077937778E+03  0.00000000000E+00 0.  1.
          1    1    1    2  501    0 -0.79615650635E+02  0.66592673718E+02 -0.75903092334E+03  0.76609475824E+03  0.00000000000E+00 0. -1.
<scales pt_clust_5="13000.00000" pt_clust_6="13000.00000" pt_clust_7="13000.00000" pt_clust_8="13000.00000" pt_clust_9="33.25632" pt_clust_10="104.98157"></scales>
<clustering>
<clus scale="   33.256">  2  9  1 -1</clus>
<clus scale="   80.389">  5  6 -1 -1</clus>
<clus scale="   80.600">  2  5  1 -1</clus>
<clus scale="   92.280">  7  8 -1 -1</clus>
<clus scale="  104.982">  1 10  2 -1</clus>
<clus scale="  104.982">  1  5  2 -1</clus>
</clustering>
</event>
<event>
10    4  0.3403565E-005  0.2404444E+03  0.7546771E-02  0.1151752E+00
          2   -1    0    0  503    0 -0.00000000000E+00  0.00000000000E+00  0.58856122240E+03  0.58856122240E+03  0.00000000000E+00 0. -1.
         21   -1    0    0  501  502  0.00000000000E+00 -0.00000000000E+00 -0.41155892494E+03  0.41155892494E+03  0.00000000000E+00 0. -1.
         24    2    1    2    0    0  0.33785152831E+02 -0.79371707204E+02  0.61477887346E+02  0.13289865831E+03  0.80257200877E+02 0.  0.
         23    2    1    2    0    0  0.58828840865E+02 -0.16322154262E+03  0.37443159660E+03  0.42295485504E+03  0.92680550133E+02 0.  0.
        -13    1    3    3    0    0  0.37251094627E+02 -0.67258430088E+02  0.72499759543E+01  0.77226307824E+02  0.00000000000E+00 0.  1.
         14    1    3    3    0    0 -0.34659417960E+01 -0.12113277116E+02  0.54227911392E+02  0.55672350489E+02  0.00000000000E+00 0. -1.
        -11    1    4    4    0    0 -0.70603243645E+01 -0.35333121648E+02  0.21817601360E+02  0.42122267206E+02  0.00000000000E+00 0. -1.
         11    1    4    4    0    0  0.65889165230E+02 -0.12788842097E+03  0.35261399524E+03  0.38083258783E+03  0.00000000000E+00 0.  1.
         21    1    1    2  503  502 -0.66239396232E+02  0.38326657949E+02 -0.22226423056E+03  0.23507015657E+03  0.00000000000E+00 0. -1.
          1    1    1    2  501    0 -0.26374597464E+02  0.20426659187E+03 -0.36642955921E+02  0.20919647742E+03  0.00000000000E+00 0. -1.
<scales pt_clust_5="13000.00000" pt_clust_6="13000.00000" pt_clust_7="13000.00000" pt_clust_8="13000.00000" pt_clust_9="76.52836" pt_clust_10="221.86441"></scales>
<clustering>
<clus scale="   76.528">  2  9  1 -1</clus>
<clus scale="   80.257">  5  6 -1 -1</clus>
<clus scale="   92.681">  7  8 -1 -1</clus>
<clus scale="  109.745">  1  5  2 -1</clus>
<clus scale="  221.864">  2 10  1 -1</clus>
<clus scale="   76.528">  2  5  1 -1</clus>
</clustering>
</event>
<event>
10    4  0.3403565E-005  0.1445798E+03  0.7546771E-02  0.1209666E+00
          2   -1    0    0  503    0 -0.00000000000E+00  0.00000000000E+00  0.10862478105E+03  0.10862478105E+03  0.00000000000E+00 0. -1.
         21   -1    0    0  501  502  0.00000000000E+00 -0.00000000000E+00 -0.43240722487E+03  0.43240722487E+03  0.00000000000E+00 0. -1.
         24    2    1    2    0    0  0.95036269827E+02 -0.66673253029E+01 -0.10407273726E+03  0.16210000626E+03  0.79805586136E+02 0.  0.
         23    2    1    2    0    0 -0.11790382744E+03  0.86426931622E+02 -0.14712070657E+03  0.22671938700E+03  0.91576476801E+02 0.  0.
        -13    1    3    3    0    0  0.74606397302E+02  0.30976601569E+02 -0.75826927133E+02  0.11079434661E+03  0.00000000000E+00 0.  1.
         14    1    3    3    0    0  0.20429872525E+02 -0.37643926872E+02 -0.28245810130E+02  0.51305659645E+02  0.00000000000E+00 0. -1.
        -13    1    4    4    0    0 -0.84065276606E+02  0.58509960041E+02 -0.38230806584E+02  0.10932511480E+03  0.00000000000E+00 0. -1.
         13    1    4    4    0    0 -0.33838550838E+02  0.27916971581E+02 -0.10888989998E+03  0.11739427219E+03  0.00000000000E+00 0.  1.
         21    1    1    2  503  502 -0.16023084333E+02 -0.56266530758E+02 -0.86738867230E+02  0.10462453251E+03  0.00000000000E+00 0.  1.
          1    1    1    2  501    0  0.38890641950E+02 -0.23493075561E+02  0.14149867240E+02  0.47588080162E+02  0.00000000000E+00 0. -1.
<scales pt_clust_5="13000.00000" pt_clust_6="13000.00000" pt_clust_7="13000.00000" pt_clust_8="13000.00000" pt_clust_9="62.07816" pt_clust_10="45.43576"></scales>
<clustering>
<clus scale="   45.436">  2 10  1 -1</clus>
<clus scale="   62.078">  2  9  1 -1</clus>
<clus scale="   79.806">  5  6 -1 -1</clus>
<clus scale="   91.576">  7  8 -1 -1</clus>
<clus scale="  137.426">  1  5  2 -1</clus>
<clus scale="   45.436">  2  5  1 -1</clus>
</clustering>
</event>
<event>
10    4  0.3403565E-005  0.3640041E+03  0.7546771E-02  0.1057381E+00
          2   -1    0    0  503    0 -0.00000000000E+00  0.00000000000E+00  0.17012368268E+04  0.17012368268E+04  0.00000000000E+00 0. -1.
         21   -1    0    0  501  502  0.00000000000E+00 -0.00000000000E+00 -0.11080776072E+03  0.11080776072E+03  0.00000000000E+00 0.  1.
         23    2    1    2    0    0 -0.26507204688E+03 -0.20656155740E+03  0.71522293665E+03  0.79598761180E+03  0.95506868886E+02 0.  0.
         24    2    1    2    0    0  0.33085620048E+03  0.17342256208E+03  0.66736295531E+03  0.76895910865E+03  0.79897347971E+02 0.  0.
        -13    1    4    4    0    0  0.13852407088E+02  0.22497922127E+02  0.22457995593E+02  0.34675744378E+02  0.00000000000E+00 0.  1.
         14    1    4    4    0    0  0.31700379340E+03  0.15092463995E+03  0.64490495972E+03  0.73428336427E+03  0.00000000000E+00 0. -1.
        -11    1    3    3    0    0 -0.20874001108E+03 -0.17565808892E+03  0.47963587956E+03  0.55179591643E+03  0.00000000000E+00 0.  1.
         11    1    3    3    0    0 -0.56332035799E+02 -0.30903468484E+02  0.23558705709E+03  0.24419169538E+03  0.00000000000E+00 0. -1.
         21    1    1    2  503  502 -0.40822603285E+02  0.45855559241E+02  0.32374422298E+02  0.69406919478E+02  0.00000000000E+00 0. -1.
          1    1    1    2  501    0 -0.24961550317E+02 -0.12716563913E+02  0.17546875178E+03  0.17769094756E+03  0.00000000000E+00 0. -1.
<scales pt_clust_5="13000.00000" pt_clust_6="13000.00000" pt_clust_7="13000.00000" pt_clust_8="13000.00000" pt_clust_9="62.75924" pt_clust_10="28.01412"></scales>
<clustering>
<clus scale="   28.014">  2 10  1 -1</clus>
<clus scale="   62.759">  2  9  1 -1</clus>
<clus scale="   79.897">  5  6 -1 -1</clus>
<clus scale="   95.507">  7  8 -1 -1</clus>
<clus scale="  360.224">  2  5  1 -1</clus>
<clus scale="   28.014">  2  5  1 -1</clus>
</clustering>
</event>
<event>
10    4  0.3403565E-005  0.1570695E+03  0.7546771E-02  0.1218499E+00
         21   -1    0    0  503  502  0.00000000000E+00  0.00000000000E+00  0.24950540040E+03  0.24950540040E+03  0.00000000000E+00 0. -1.
          2   -1    0    0  502    0 -0.00000000000E+00 -0.00000000000E+00 -0.43136710508E+03  0.43136710508E+03  0.00000000000E+00 0. -1.
         24    2    1    2    0    0 -0.25170912075E+01  0.37435089055E+02 -0.25080665568E+03  0.26605033213E+03  0.80443017445E+02 0.  0.
         23    2    1    2    0    0 -0.40209402216E+02  0.91998427991E+02 -0.11132276741E+03  0.17342472877E+03  0.87194444934E+02 0.  0.
        -13    1    3    3    0    0  0.11628178037E+02  0.26980759809E+02 -0.22342801874E+02  0.36910387697E+02  0.00000000000E+00 0.  1.
         14    1    3    3    0    0 -0.14145269244E+02  0.10454329246E+02 -0.22846385380E+03  0.22913994444E+03  0.00000000000E+00 0. -1.
        -13    1    4    4    0    0  0.27425461797E+02  0.18417804710E+02 -0.27722512213E+02  0.43126664240E+02  0.00000000000E+00 0. -1.
         13    1    4    4    0    0 -0.67634864012E+02  0.73580623281E+02 -0.83600255195E+02  0.13029806453E+03  0.00000000000E+00 0.  1.
         21    1    1    2  503  501  0.18251664254E+02  0.85621067818E+01  0.27259828229E+02  0.33904736478E+02  0.00000000000E+00 0. -1.
          1    1    1    2  501    0  0.24474829169E+02 -0.13799562383E+03  0.15300789017E+03  0.20749270810E+03  0.00000000000E+00 0. -1.
<scales pt_clust_5="13000.00000" pt_clust_6="13000.00000" pt_clust_7="13000.00000" pt_clust_8="13000.00000" pt_clust_9="20.16018" pt_clust_10="130.64434"></scales>
<clustering>
<clus scale="   20.160">  1  9  2 -1</clus>
<clus scale="   80.443">  5  6 -1 -1</clus>
<clus scale="   87.194">  7  8 -1 -1</clus>
<clus scale="   88.873">  2  5  1 -1</clus>
<clus scale="  130.644">  1 10  2 -1</clus>
<clus scale="   20.160">  1  5  2 -1</clus>
</clustering>
</event>
<event>
10    4  0.3403565E-005  0.1457498E+03  0.7546771E-02  0.1207914E+00
          2   -1    0    0  503    0 -0.00000000000E+00  0.00000000000E+00  0.65001381678E+03  0.65001381678E+03  0.00000000000E+00 0. -1.
         21   -1    0    0  501  502  0.00000000000E+00 -0.00000000000E+00 -0.80437812678E+02  0.80437812678E+02  0.00000000000E+00 0. -1.
         23    2    1    2    0    0  0.54498726970E+02 -0.67027630609E+02  0.16249192149E+03  0.20529052240E+03  0.90982193489E+02 0.  0.
         24    2    1    2    0    0 -0.15272135497E+03  0.35232235475E+02  0.30710942252E+03  0.35399390633E+03  0.80189560658E+02 0.  0.
        -11    1    4    4    0    0 -0.10662060015E+03  0.40911458473E+01  0.26018664449E+03  0.28121482859E+03  0.00000000000E+00 0.  1.
         12    1    4    4    0    0 -0.46100754820E+02  0.31141089628E+02  0.46922778032E+02  0.72779077738E+02  0.00000000000E+00 0. -1.
        -13    1    3    3    0    0 -0.98414186893E+01 -0.39634883425E+02  0.17725238921E+02  0.44519227315E+02  0.00000000000E+00 0.  1.
         13    1    3    3    0    0  0.64340145659E+02 -0.27392747184E+02  0.14476668257E+03  0.16077129509E+03  0.00000000000E+00 0. -1.
         21    1    1    2  503  502  0.39906142621E+01 -0.26948871157E+02  0.13380621273E+02  0.30351403336E+02  0.00000000000E+00 0.  1.
          1    1    1    2  501    0  0.94232013739E+02  0.58744266291E+02  0.86594038819E+02  0.14081579739E+03  0.00000000000E+00 0. -1.
<scales pt_clust_5="13000.00000" pt_clust_6="13000.00000" pt_clust_7="13000.00000" pt_clust_8="13000.00000" pt_clust_9="27.24274" pt_clust_10="107.36071"></scales>
<clustering>
<clus scale="   27.243">  2  9  1 -1</clus>
<clus scale="   80.190">  5  6 -1 -1</clus>
<clus scale="   90.982">  7  8 -1 -1</clus>
<clus scale="  107.361">  2 10  1 -1</clus>
<clus scale="  139.268">  2  5  1 -1</clus>
<clus scale="   27.243">  2  5  1 -1</clus>
</clustering>
</event>
<event>
10    4  0.3403565E-005  0.1743561E+03  0.7546771E-02  0.1173924E+00
         21   -1    0    0  501  502  0.00000000000E+00  0.00000000000E+00  0.98695580678E+03  0.98695580678E+03  0.00000000000E+00 0.  1.
          2   -1    0    0  503    0 -0.00000000000E+00 -0.00000000000E+00 -0.34483692225E+03  0.34483692225E+03  0.00000000000E+00 0. -1.
         24    2    1    2    0    0  0.11819829710E+03  0.90421669264E+02 -0.30411527424E+03  0.34962865014E+03  0.87219133595E+02 0.  0.
         23    2    1    2    0    0 -0.82091236850E+02 -0.12162453426E+03  0.62405875797E+03  0.64755786701E+03  0.91380299977E+02 0.  0.
        -11    1    3    3    0    0  0.38234329549E+02  0.32084444605E+02 -0.30105816745E+02  0.58289242091E+02  0.00000000000E+00 0.  1.
         12    1    3    3    0    0  0.79963967546E+02  0.58337224660E+02 -0.27400945749E+03  0.29133940805E+03  0.00000000000E+00 0. -1.
        -13    1    4    4    0    0  0.65070992316E+01 -0.69285384802E+02  0.23124208556E+03  0.24148645723E+03  0.00000000000E+00 0.  1.
         13    1    4    4    0    0 -0.88598336081E+02 -0.52339149456E+02  0.39281667241E+03  0.40607140979E+03  0.00000000000E+00 0. -1.
         21    1    1    2  503  502 -0.31216103377E+01  0.36870085106E+02  0.27063242796E+03  0.27315024929E+03  0.00000000000E+00 0.  1.
          1    1    1    2  501    0 -0.32985449908E+02 -0.56672201130E+01  0.51542972834E+02  0.61455962591E+02  0.00000000000E+00 0. -1.
<scales pt_clust_5="13000.00000" pt_clust_6="13000.00000" pt_clust_7="13000.00000" pt_clust_8="13000.00000" pt_clust_9="37.45473" pt_clust_10="33.46875"></scales>
<clustering>
<clus scale="   33.469">  1 10  2 -1</clus>
<clus scale="   37.455">  1  9  2 -1</clus>
<clus scale="   87.219">  5  6 -1 -1</clus>
<clus scale="   91.380">  7  8 -1 -1</clus>
<clus scale="  172.212">  2  5  1 -1</clus>
<clus scale="   33.469">  1  5  2 -1</clus>
</clustering>
</event>
<event>
10    4  0.3403565E-005  0.2242243E+03  0.7546771E-02  0.1168273E+00
         21   -1    0    0  501  502  0.00000000000E+00  0.00000000000E+00  0.17004350272E+03  0.17004350272E+03  0.00000000000E+00 0. -1.
          2   -1    0    0  503    0 -0.00000000000E+00 -0.00000000000E+00 -0.12191044258E+04  0.12191044258E+04  0.00000000000E+00 0. -1.
         24    2    1    2    0    0 -0.12013488946E+02 -0.50896526776E+02 -0.22630265951E+03  0.24567961515E+03  0.80067466813E+02 0.  0.
         23    2    1    2    0    0  0.22639813048E+03  0.33535249567E+02 -0.74327625951E+03  0.78277442220E+03  0.88856466557E+02 0.  0.
        -13    1    3    3    0    0 -0.28789610049E+02 -0.42142850660E+02 -0.62062878128E+02  0.80353359296E+02  0.00000000000E+00 0.  1.
         14    1    3    3    0    0  0.16776121103E+02 -0.87536761157E+01 -0.16423978138E+03  0.16532625585E+03  0.00000000000E+00 0. -1.
        -11    1    4    4    0    0  0.76891632673E+02  0.52871899330E+02 -0.32643079850E+03  0.33950674091E+03  0.00000000000E+00 0.  1.
         11    1    4    4    0    0  0.14950649781E+03 -0.19336649763E+02 -0.41684546101E+03  0.44326768129E+03  0.00000000000E+00 0. -1.
         21    1    1    2  503  502 -0.33284070828E+02  0.62232978108E+02  0.86037120690E+02  0.11127964356E+03  0.00000000000E+00 0. -1.
          1    1    1    2  501    0 -0.18110057071E+03 -0.44871700898E+02 -0.16551912476E+03  0.24941424762E+03  0.00000000000E+00 0. -1.
<scales pt_clust_5="13000.00000" pt_clust_6="13000.00000" pt_clust_7="13000.00000" pt_clust_8="13000.00000" pt_clust_9="70.57459" pt_clust_10="205.86666"></scales>
<clustering>
<clus scale="   70.575">  1  9  2 -1</clus>
<clus scale="   80.067">  5  6 -1 -1</clus>
<clus scale="   88.856">  7  8 -1 -1</clus>
<clus scale="   92.120">  2  5  1 -1</clus>
<clus scale="  205.867">  1 10  2 -1</clus>
<clus scale="   70.575">  1  5  2 -1</clus>
</clustering>
</event>
<event>
10    4  0.3403565E-005  0.1576099E+03  0.7546771E-02  0.1199324E+00
          2   -1    0    0  503    0 -0.00000000000E+00  0.00000000000E+00  0.58520031111E+03  0.58520031111E+03  0.00000000000E+00 0. -1.
         21   -1    0    0  501  502  0.00000000000E+00 -0.00000000000E+00 -0.19395334553E+03  0.19395334553E+03  0.00000000000E+00 0. -1.
         24    2    1    2    0    0  0.95552452121E+02  0.19540606044E+02  0.34216044394E+03  0.36483486478E+03  0.80737864532E+02 0.  0.
         23    2    1    2    0    0 -0.65115831873E+01 -0.12322139866E+03 -0.74679268007E+02  0.17075380209E+03  0.91399967473E+02 0.  0.
        -11    1    3    3    0    0  0.16324743441E+02  0.32432568136E+02  0.49646576690E+02  0.61507327216E+02  0.00000000000E+00 0.  1.
         12    1    3    3    0    0  0.79227708680E+02 -0.12891962092E+02  0.29251386725E+03  0.30332753756E+03  0.00000000000E+00 0. -1.
        -13    1    4    4    0    0  0.25248582481E+02 -0.70568858789E+02 -0.79270357437E+02  0.10909282431E+03  0.00000000000E+00 0. -1.
         13    1    4    4    0    0 -0.31760165669E+02 -0.52652539870E+02  0.45910894299E+01  0.61660977776E+02  0.00000000000E+00 0.  1.
         21    1    1    2  503  502  0.14898032374E+02 -0.34002747577E+02  0.25388556877E+02  0.44974626532E+02  0.00000000000E+00 0. -1.
          1    1    1    2  501    0 -0.10393890131E+03  0.13768354019E+03  0.98377232772E+02  0.19859036324E+03  0.00000000000E+00 0. -1.
<scales pt_clust_5="13000.00000" pt_clust_6="13000.00000" pt_clust_7="13000.00000" pt_clust_8="13000.00000" pt_clust_9="37.12328" pt_clust_10="128.40145"></scales>
<clustering>
<clus scale="   37.123">  1  9  2 -1</clus>
<clus scale="   80.738">  5  6 -1 -1</clus>
<clus scale="   91.400">  7  8 -1 -1</clus>
<clus scale="  132.573">  1  5  2 -1</clus>
<clus scale="  128.401">  2 10  1 -1</clus>
<clus scale="  128.401">  2  5  1 -1</clus>
</clustering>
</event>
<event>
10    4  0.3403565E-005  0.2800702E+03  0.7546771E-02  0.1137161E+00
         21   -1    0    0  503  502  0.00000000000E+00  0.00000000000E+00  0.56183730778E+03  0.56183730778E+03  0.00000000000E+00 0.  1.
          2   -1    0    0  502    0 -0.00000000000E+00 -0.00000000000E+00 -0.94766963846E+03  0.94766963846E+03  0.00000000000E+00 0. -1.
         23    2    1    2    0    0 -0.36256632184E+02  0.15653616822E+02 -0.26761357441E+03  0.28515271999E+03  0.90196837039E+02 0.  0.
         24    2    1    2    0    0  0.17591734943E+03 -0.19675036179E+03 -0.10796381554E+03  0.29620595711E+03  0.80150888140E+02 0.  0.
        -13    1    4    4    0    0  0.14660409595E+03 -0.13684620600E+03 -0.47299025819E+02  0.20605058333E+03  0.00000000000E+00 0.  1.
         14    1    4    4    0    0  0.29313253471E+02 -0.59904155786E+02 -0.60664789721E+02  0.90155373780E+02  0.00000000000E+00 0. -1.
        -13    1    3    3    0    0  0.28410739003E+02  0.11143437312E+02 -0.55282683348E+02  0.63146823863E+02  0.00000000000E+00 0. -1.
         13    1    3    3    0    0 -0.64667371187E+02  0.45101795104E+01 -0.21233089107E+03  0.22200589613E+03  0.00000000000E+00 0.  1.
         21    1    1    2  503  501  0.82614890478E+02  0.55492723433E+02  0.41793492002E+03  0.42962106542E+03  0.00000000000E+00 0.  1.
          1    1    1    2  501    0 -0.22227560772E+03  0.12560402153E+03 -0.42818986073E+03  0.49852720372E+03  0.00000000000E+00 0. -1.
<scales pt_clust_5="13000.00000" pt_clust_6="13000.00000" pt_clust_7="13000.00000" pt_clust_8="13000.00000" pt_clust_9="99.33659" pt_clust_10="268.35656"></scales>
<clustering>
<clus scale="   80.151">  5  6 -1 -1</clus>
<clus scale="   90.197">  7  8 -1 -1</clus>
<clus scale="   98.463">  2  7  1 -1</clus>
<clus scale="   99.337">  1  9  2 -1</clus>
<clus scale="  268.357">  1 10  2 -1</clus>
<clus scale="   99.337">  1  5  2 -1</clus>
</clustering>
</event>
<event>
10    4  0.3403565E-005  0.1626645E+03  0.7546771E-02  0.1190044E+00
         21   -1    0    0  501  502  0.00000000000E+00  0.00000000000E+00  0.16402828974E+03  0.16402828974E+03  0.00000000000E+00 0.  1.
          2   -1    0    0  503    0 -0.00000000000E+00 -0.00000000000E+00 -0.71345531502E+03  0.71345531502E+03  0.00000000000E+00 0. -1.
         23    2    1    2    0    0 -0.72033734047E+02  0.92505176626E+02 -0.60245313911E+03  0.62389569502E+03  0.11202672401E+03 0.  0.
         24    2    1    2    0    0  0.46400576023E+02 -0.12121569723E+03  0.44971996139E+02  0.16371471680E+03  0.89071709025E+02 0.  0.
        -11    1    4    4    0    0  0.46193367081E+02 -0.12981648865E+03  0.56842475101E+02  0.14905440236E+03  0.00000000000E+00 0.  1.
         12    1    4    4    0    0  0.20720894166E+00  0.86007914182E+01 -0.11870478962E+02  0.14660314436E+02  0.00000000000E+00 0. -1.
        -11    1    3    3    0    0 -0.80895446248E+02  0.11195948760E+03 -0.55357033070E+03  0.57054282146E+03  0.00000000000E+00 0. -1.
         11    1    3    3    0    0  0.88617122012E+01 -0.19454310976E+02 -0.48882808415E+02  0.53352873561E+02  0.00000000000E+00 0.  1.
         21    1    1    2  503  502 -0.16561706877E+02 -0.16873155302E+02  0.13995164976E+02  0.27474681932E+02  0.00000000000E+00 0. -1.
          1    1    1    2  501    0  0.42194864901E+02  0.45583675909E+02 -0.59410472840E+01  0.62398511009E+02  0.00000000000E+00 0. -1.
<scales pt_clust_5="13000.00000" pt_clust_6="13000.00000" pt_clust_7="13000.00000" pt_clust_8="13000.00000" pt_clust_9="23.64304" pt_clust_10="57.45953"></scales>
<clustering>
<clus scale="   23.643">  1  9  2 -1</clus>
<clus scale="   57.460">  1 10  2 -1</clus>
<clus scale="   89.072">  5  6 -1 -1</clus>
<clus scale="  112.027">  7  8 -1 -1</clus>
<clus scale="  147.796">  1  5  2 -1</clus>
<clus scale="   23.643">  1  5  2 -1</clus>
</clustering>
</event>
<event>
10    4  0.3403565E-005  0.1109685E+03  0.7546771E-02  0.1261458E+00
         21   -1    0    0  501  502  0.00000000000E+00  0.00000000000E+00  0.32774173654E+03  0.32774173654E+03  0.00000000000E+00 0. -1.
          2   -1    0    0  503    0 -0.00000000000E+00 -0.00000000000E+00 -0.88293524785E+02  0.88293524785E+02  0.00000000000E+00 0. -1.
         23    2    1    2    0    0 -0.45283192402E+01  0.59867677153E+02  0.32514892581E+02  0.11107261769E+03  0.87608582447E+02 0.  0.
         24    2    1    2    0    0  0.19422502068E+02 -0.79252765804E+02  0.86119443704E+02  0.14325864057E+03  0.80300965373E+02 0.  0.
        -13    1    4    4    0    0  0.39700928518E+02 -0.70816269707E+02  0.89723316378E+02  0.12100157554E+03  0.00000000000E+00 0.  1.
         14    1    4    4    0    0 -0.20278426450E+02 -0.84364960975E+01 -0.36038726735E+01  0.22257065034E+02  0.00000000000E+00 0. -1.
        -11    1    3    3    0    0 -0.25810238944E+02  0.62661856408E+02  0.49316626698E+02  0.83814117855E+02  0.00000000000E+00 0. -1.
         11    1    3    3    0    0  0.21281919704E+02 -0.27941792556E+01 -0.16801734116E+02  0.27258499836E+02  0.00000000000E+00 0.  1.
         21    1    1    2  503  502  0.21974679489E+02 -0.12711762169E+02  0.10831281616E+03  0.11124810821E+03  0.00000000000E+00 0. -1.
          1    1    1    2  501    0 -0.36868862317E+02  0.32096850821E+02  0.12501059305E+02  0.50455894848E+02  0.00000000000E+00 0. -1.
<scales pt_clust_5="13000.00000" pt_clust_6="13000.00000" pt_clust_7="13000.00000" pt_clust_8="13000.00000" pt_clust_9="25.38652" pt_clust_10="45.28905"></scales>
<clustering>
<clus scale="   25.387">  1  9  2 -1</clus>
<clus scale="   45.289">  1 10  2 -1</clus>
<clus scale="   80.301">  5  6 -1 -1</clus>
<clus scale="   87.609">  7  8 -1 -1</clus>
<clus scale="  105.295">  1  5  2 -1</clus>
<clus scale="   25.387">  1  5  2 -1</clus>
</clustering>
</event>
<event>
10    4  0.3403565E-005  0.1019481E+03  0.7546771E-02  0.1287890E+00
         21   -1    0    0  503  502  0.00000000000E+00  0.00000000000E+00  0.16970283367E+03  0.16970283367E+03  0.00000000000E+00 0.  1.
         -3   -1    0    0    0  501 -0.00000000000E+00 -0.00000000000E+00 -0.37888037922E+03  0.37888037922E+03  0.00000000000E+00 0.  1.
         24    2    1    2    0    0  0.26354130059E+02 -0.55196457179E+01 -0.17131481760E+03  0.19125536509E+03  0.80652596271E+02 0.  0.
         23    2    1    2    0    0  0.39529823654E+02 -0.80120105773E+00 -0.39163713156E+02  0.11537624871E+03  0.10106746982E+03 0.  0.
        -11    1    3    3    0    0  0.32754706970E+02  0.32632480084E+02 -0.98040326142E+02  0.10839582619E+03  0.00000000000E+00 0.  1.
         12    1    3    3    0    0 -0.64005769112E+01 -0.38152125802E+02 -0.73274491458E+02  0.82859538898E+02  0.00000000000E+00 0. -1.
        -13    1    4    4    0    0  0.79553161133E+01 -0.44759562475E+02  0.47098108125E+01  0.45704352148E+02  0.00000000000E+00 0.  1.
         13    1    4    4    0    0  0.31574507541E+02  0.43958361417E+02 -0.43873523969E+02  0.69671896561E+02  0.00000000000E+00 0. -1.
         21    1    1    2  503  501  0.42624835578E+01 -0.21148122190E+02  0.10867001564E+03  0.11079072226E+03  0.00000000000E+00 0.  1.
         -4    1    1    2    0  502 -0.70146437271E+02  0.27468968965E+02 -0.10736903043E+03  0.13116087684E+03  0.00000000000E+00 0.  1.
<scales pt_clust_5="13000.00000" pt_clust_6="13000.00000" pt_clust_7="13000.00000" pt_clust_8="13000.00000" pt_clust_9="21.57341" pt_clust_10="73.10479"></scales>
<clustering>
<clus scale="   21.573">  1  9  2 -1</clus>
<clus scale="   73.105">  1 10  2 -1</clus>
<clus scale="   80.653">  5  6 -1 -1</clus>
<clus scale="   81.753">  2  5  1 -1</clus>
<clus scale="  101.067">  7  8 -1 -1</clus>
<clus scale="   21.573">  1  5  2 -1</clus>
</clustering>
</event>
<event>
10    4  0.3403565E-005  0.2711707E+03  0.7546771E-02  0.1117374E+00
         21   -1    0    0  501  502  0.00000000000E+00  0.00000000000E+00  0.19578914422E+03  0.19578914422E+03  0.00000000000E+00 0. -1.
         -3   -1    0    0    0  501 -0.00000000000E+00 -0.00000000000E+00 -0.15298363657E+04  0.15298363657E+04  0.00000000000E+00 0.  1.
         23    2    1    2    0    0  0.21272630939E+02  0.16184842652E+03 -0.77975068882E+02  0.20131434701E+03  0.88317138491E+02 0.  0.
         24    2    1    2    0    0  0.26956066029E+02  0.17678254619E+03 -0.75957457295E+03  0.78425339592E+03  0.78237836234E+02 0.  0.
        -13    1    4    4    0    0  0.33861087865E+02  0.22281016392E+02 -0.15916290729E+03  0.16424325868E+03  0.00000000000E+00 0.  1.
         14    1    4    4    0    0 -0.69050218364E+01  0.15450152980E+03 -0.60041166565E+03  0.62001013725E+03  0.00000000000E+00 0. -1.
        -11    1    3    3    0    0 -0.17246962318E+02  0.12277699210E+02 -0.35154781392E+02  0.41037278928E+02  0.00000000000E+00 0.  1.
         11    1    3    3    0    0  0.38519593257E+02  0.14957072731E+03 -0.42820287490E+02  0.16027706808E+03  0.00000000000E+00 0. -1.
         21    1    1    2  503  502  0.14887733012E+02 -0.21706515163E+02  0.77225299011E+02  0.81587769930E+02  0.00000000000E+00 0.  1.
         -4    1    1    2    0  503 -0.63116429980E+02 -0.31692445755E+03 -0.57372287861E+03  0.65846999701E+03  0.00000000000E+00 0.  1.
<scales pt_clust_5="13000.00000" pt_clust_6="13000.00000" pt_clust_7="13000.00000" pt_clust_8="13000.00000" pt_clust_9="26.32142" pt_clust_10="259.63891"></scales>
<clustering>
<clus scale="   26.321">  1  9  2 -1</clus>
<clus scale="   78.238">  5  6 -1 -1</clus>
<clus scale="   88.317">  7  8 -1 -1</clus>
<clus scale="  176.789">  2  7  1 -1</clus>
<clus scale="  259.639">  1 10  2 -1</clus>
<clus scale="   26.321">  1  5  2 -1</clus>
</clustering>
</event>
<event>
10    4  0.3403565E-005  0.1018457E+03  0.7546771E-02  0.1282237E+00
          2   -1    0    0  503    0 -0.00000000000E+00  0.00000000000E+00  0.60577430950E+03  0.60577430950E+03  0.00000000000E+00 0. -1.
         21   -1    0    0  501  502  0.00000000000E+00 -0.00000000000E+00 -0.93758529886E+02  0.93758529886E+02  0.00000000000E+00 0.  1.
         24    2    1    2    0    0 -0.73342358288E+01  0.36912794252E+02  0.39935132073E+03  0.40919492063E+03  0.80886712753E+02 0.  0.
         23    2    1    2    0    0  0.28858344742E+02 -0.71951439448E+02  0.61969202303E+02  0.13579889682E+03  0.92689506655E+02 0.  0.
        -11    1    3    3    0    0 -0.39683835200E+02  0.40444501706E+02  0.25076466104E+03  0.25708652186E+03  0.00000000000E+00 0.  1.
         12    1    3    3    0    0  0.32349599371E+02 -0.35317074532E+01  0.14858665969E+03  0.15210839876E+03  0.00000000000E+00 0. -1.
        -13    1    4    4    0    0 -0.18301795558E+01 -0.80512270337E+02  0.65414762951E+02  0.10375291053E+03  0.00000000000E+00 0. -1.
         13    1    4    4    0    0  0.30688524298E+02  0.85608308883E+01 -0.34455606480E+01  0.32045986289E+02  0.00000000000E+00 0.  1.
         21    1    1    2  503  502  0.15318151470E+02  0.37392248601E+02 -0.39852716176E+02  0.56754427197E+02  0.00000000000E+00 0.  1.
          1    1    1    2  501    0 -0.36842260383E+02 -0.23536034051E+01  0.90547972755E+02  0.97784594744E+02  0.00000000000E+00 0. -1.
<scales pt_clust_5="13000.00000" pt_clust_6="13000.00000" pt_clust_7="13000.00000" pt_clust_8="13000.00000" pt_clust_9="36.40093" pt_clust_10="36.91738"></scales>
<clustering>
<clus scale="   36.917">  2 10  1 -1</clus>
<clus scale="   36.401">  2  9  1 -1</clus>
<clus scale="   80.887">  5  6 -1 -1</clus>
<clus scale="   91.235">  1  5  2 -1</clus>
<clus scale="   92.690">  7  8 -1 -1</clus>
<clus scale="   36.917">  2  5  1 -1</clus>
</clustering>
</event>
