<event>
10    4  0.7697601E-005  0.1218851E+03  0.7546771E-02  0.1255760E+00
          2   -1    0    0  503    0 -0.00000000000E+00  0.00000000000E+00  0.73486325892E+03  0.73486325892E+03  0.00000000000E+00 0. -1.
         21   -1    0    0  501  502  0.00000000000E+00 -0.00000000000E+00 -0.12829532502E+03  0.12829532502E+03  0.00000000000E+00 0. -1.
         23    2    1    2    0    0 -0.59526137952E+00 -0.39611313887E+01  0.16268539617E+03  0.18537489381E+03  0.88776507189E+02 0.  0.
         24    2    1    2    0    0  0.53517370102E+02 -0.74178016761E+02  0.52495717837E+03  0.53873549890E+03  0.79305810505E+02 0.  0.
        -13    1    4    4    0    0  0.34833124593E+02 -0.72456231903E+02  0.23891589351E+03  0.25207946422E+03  0.00000000000E+00 0.  1.
         14    1    4    4    0    0  0.18684245509E+02 -0.17217848576E+01  0.28604128486E+03  0.28665603468E+03  0.00000000000E+00 0. -1.
        -13    1    3    3    0    0 -0.36262614911E+02 -0.14136351381E+02  0.13078440760E+03  0.13645283047E+03  0.00000000000E+00 0.  1.
         13    1    3    3    0    0  0.35667353531E+02  0.10175219993E+02  0.31900988570E+02  0.48922063341E+02  0.00000000000E+00 0. -1.
         21    1    1    2  503  502 -0.20215938882E+02  0.67319194111E-01  0.21643515750E+01  0.20331579734E+02  0.00000000000E+00 0.  1.
          1    1    1    2  501    0 -0.32706169840E+02  0.78071828955E+02 -0.83238992218E+02  0.11871661151E+03  0.00000000000E+00 0. -1.
<scales pt_clust_5="13000.00000" pt_clust_6="13000.00000" pt_clust_7="13000.00000" pt_clust_8="13000.00000" pt_clust_9="20.21605" pt_clust_10="92.55573"></scales>
<clustering>
<clus scale="   20.216">  2  9  1 -1</clus>
<clus scale="   79.306">  5  6 -1 -1</clus>
<clus scale="   88.777">  7  8 -1 -1</clus>
<clus scale="   88.900">  1  7  2 -1</clus>
<clus scale="   92.556">  2 10  1 -1</clus>
<clus scale="   20.216">  2  5  1 -1</clus>
</clustering>
</event>
<event>
10    4  0.7697601E-005  0.4060707E+03  0.7546771E-02  0.1051575E+00
         21   -1    0    0  503  502  0.00000000000E+00  0.00000000000E+00  0.43674278103E+03  0.43674278103E+03  0.00000000000E+00 0. -1.
          2   -1    0    0  502    0 -0.00000000000E+00 -0.00000000000E+00 -0.20278125280E+04  0.20278125280E+04  0.00000000000E+00 0. -1.
         23    2    1    2    0    0 -0.85917402092E+02  0.27886080506E+03 -0.31654240907E+03  0.43972796239E+03  0.89534549680E+02 0.  0.
         24    2    1    2    0    0  0.37578076974E+03  0.20333168937E+02 -0.14737287630E+04  0.15230825694E+04  0.79242801096E+02 0.  0.
        -11    1    4    4    0    0  0.11633435033E+03 -0.19443283655E+02 -0.56642110348E+03  0.57857116141E+03  0.00000000000E+00 0.  1.
         12    1    4    4    0    0  0.25944641941E+03  0.39776452592E+02 -0.90730765957E+03  0.94451140800E+03  0.00000000000E+00 0. -1.
        -13    1    3    3    0    0 -0.19685719213E+02  0.20461535030E+03 -0.20636346084E+03  0.29127452186E+03  0.00000000000E+00 0. -1.
         13    1    3    3    0    0 -0.66231682880E+02  0.74245454757E+02 -0.11017894823E+03  0.14845344052E+03  0.00000000000E+00 0.  1.
         21    1    1    2  503  501 -0.26098995806E+02 -0.48246601522E+01  0.86877673900E+02  0.90841428600E+02  0.00000000000E+00 0. -1.
          1    1    1    2  501    0 -0.26376437185E+03 -0.29436931384E+03  0.11232375129E+03  0.41090334860E+03  0.00000000000E+00 0. -1.
<scales pt_clust_5="13000.00000" pt_clust_6="13000.00000" pt_clust_7="13000.00000" pt_clust_8="13000.00000" pt_clust_9="26.54119" pt_clust_10="398.26376"></scales>
<clustering>
<clus scale="   26.541">  1  9  2 -1</clus>
<clus scale="   79.243">  5  6 -1 -1</clus>
<clus scale="   89.535">  7  8 -1 -1</clus>
<clus scale="  305.780">  2  7  1 -1</clus>
<clus scale="  398.264">  1 10  2 -1</clus>
<clus scale="   26.541">  1  5  2 -1</clus>
</clustering>
</event>
<event>
10    4  0.7697601E-005  0.1249633E+03  0.7546771E-02  0.1237152E+00
         21   -1    0    0  503  502  0.00000000000E+00  0.00000000000E+00  0.50902774347E+03  0.50902774347E+03  0.00000000000E+00 0.  1.
         -1   -1    0    0    0  501 -0.00000000000E+00 -0.00000000000E+00 -0.91501974407E+02  0.91501974407E+02  0.00000000000E+00 0.  1.
         24    2    1    2    0    0 -0.77830971477E+02 -0.34952541598E+02  0.17106979719E+02  0.11784694031E+03  0.79472714185E+02 0.  0.
         23    2    1    2    0    0  0.79386048366E+02  0.83652510664E+02  0.26891347320E+03  0.30523901898E+03  0.86928219966E+02 0.  0.
        -11    1    3    3    0    0 -0.56900835705E+02 -0.10926571725E+02  0.46656353387E+02  0.74390257326E+02  0.00000000000E+00 0.  1.
         12    1    3    3    0    0 -0.20930135771E+02 -0.24025969873E+02 -0.29549373668E+02  0.43456682983E+02  0.00000000000E+00 0. -1.
        -13    1    4    4    0    0  0.52846197735E+02  0.88115557997E+02  0.14064895848E+03  0.17418151939E+03  0.00000000000E+00 0. -1.
         13    1    4    4    0    0  0.26539850630E+02 -0.44630473331E+01  0.12826451472E+03  0.13105749959E+03  0.00000000000E+00 0.  1.
         21    1    1    2  503  501  0.60559786361E+01 -0.80570327854E+02  0.11555617052E+03  0.14100170620E+03  0.00000000000E+00 0. -1.
         -2    1    1    2    0  502 -0.76110555253E+01  0.31870358788E+02  0.15949145630E+02  0.36442052382E+02  0.00000000000E+00 0.  1.
<scales pt_clust_5="13000.00000" pt_clust_6="13000.00000" pt_clust_7="13000.00000" pt_clust_8="13000.00000" pt_clust_9="72.21576" pt_clust_10="32.76658"></scales>
<clustering>
<clus scale="   32.767">  1 10  2 -1</clus>
<clus scale="   72.216">  1  9  2 -1</clus>
<clus scale="   79.473">  5  6 -1 -1</clus>
<clus scale="   86.928">  7  8 -1 -1</clus>
<clus scale="  119.897">  2  5  1 -1</clus>
<clus scale="   32.767">  1  5  2 -1</clus>
</clustering>
</event>
<event>
10    4  0.7697601E-005  0.2931874E+03  0.7546771E-02  0.1121506E+00
          2   -1    0    0  502    0 -0.00000000000E+00  0.00000000000E+00  0.80925676568E+03  0.80925676568E+03  0.00000000000E+00 0. -1.
         21   -1    0    0  503  502  0.00000000000E+00 -0.00000000000E+00 -0.17737590030E+03  0.17737590030E+03  0.00000000000E+00 0. -1.
         24    2    1    2    0    0 -0.31343544698E+02  0.73039627856E+02  0.13950907334E+03  0.18807522448E+03  0.97940305746E+02 0.  0.
         23    2    1    2    0    0 -0.14359954585E+03 -0.27489757538E+03  0.39309024827E+03  0.50908382460E+03  0.91961354220E+02 0.  0.
        -11    1    3    3    0    0 -0.37641118255E+02  0.52359491838E+02  0.21309614440E+02  0.67915166469E+02  0.00000000000E+00 0.  1.
         12    1    3    3    0    0  0.62975735569E+01  0.20680136019E+02  0.11819945890E+03  0.12016005801E+03  0.00000000000E+00 0. -1.
        -13    1    4    4    0    0 -0.15584353219E+02 -0.11958769946E+03  0.12311328082E+03  0.17233969317E+03  0.00000000000E+00 0.  1.
         13    1    4    4    0    0 -0.12801519263E+03 -0.15530987592E+03  0.26997696745E+03  0.33674413143E+03  0.00000000000E+00 0. -1.
         21    1    1    2  503  501  0.38152576344E+02  0.72549954448E+02  0.15440930009E+02  0.83411853424E+02  0.00000000000E+00 0. -1.
          1    1    1    2  501    0  0.13679051420E+03  0.12930799308E+03  0.83840613763E+02  0.20606176347E+03  0.00000000000E+00 0. -1.
<scales pt_clust_5="13000.00000" pt_clust_6="13000.00000" pt_clust_7="13000.00000" pt_clust_8="13000.00000" pt_clust_9="33.56056" pt_clust_10="282.99894"></scales>
<clustering>
<clus scale="   33.561">  9 10 -1 -1</clus>
<clus scale="   91.961">  7  8 -1 -1</clus>
<clus scale="   97.940">  5  6 -1 -1</clus>
<clus scale="  126.133">  1  5  2 -1</clus>
<clus scale="  282.999">  2  9  1 -1</clus>
<clus scale="  282.999">  2  5  1 -1</clus>
</clustering>
</event>
<event>
10    4  0.7697601E-005  0.1015271E+03  0.7546771E-02  0.1283658E+00
         -1   -1    0    0    0  501 -0.00000000000E+00  0.00000000000E+00  0.30165672209E+03  0.30165672209E+03  0.00000000000E+00 0.  1.
         21   -1    0    0  503  502  0.00000000000E+00 -0.00000000000E+00 -0.15171716684E+03  0.15171716684E+03  0.00000000000E+00 0.  1.
         23    2    1    2    0    0 -0.33252060507E+02  0.23963829407E+02  0.22220187004E+03  0.24432837881E+03  0.92966235768E+02 0.  0.
         24    2    1    2    0    0  0.28932306599E+02 -0.26912480103E+02 -0.74071159283E+02  0.11584489348E+03  0.79825702365E+02 0.  0.
        -11    1    4    4    0    0 -0.23291902737E+02 -0.25602720577E+02 -0.42477654832E+02  0.54793824416E+02  0.00000000000E+00 0.  1.
         12    1    4    4    0    0  0.52224209336E+02 -0.13097595265E+01 -0.31593504450E+02  0.61051069067E+02  0.00000000000E+00 0. -1.
        -13    1    3    3    0    0  0.24484664283E+02  0.32179046337E+02  0.63823043836E+02  0.75553760546E+02  0.00000000000E+00 0.  1.
         13    1    3    3    0    0 -0.57736724790E+02 -0.82152169308E+01  0.15837882621E+03  0.16877461826E+03  0.00000000000E+00 0. -1.
         21    1    1    2  503  501 -0.21073211606E+02 -0.26084391708E+02 -0.28608809006E+02  0.44078789580E+02  0.00000000000E+00 0.  1.
         -2    1    1    2    0  502  0.25392965514E+02  0.29033042404E+02  0.30417653506E+02  0.49121827059E+02  0.00000000000E+00 0.  1.
<scales pt_clust_5="13000.00000" pt_clust_6="13000.00000" pt_clust_7="13000.00000" pt_clust_8="13000.00000" pt_clust_9="33.53320" pt_clust_10="35.85505"></scales>
<clustering>
<clus scale="   33.533">  2  9  1 -1</clus>
<clus scale="   35.855">  2 10  1 -1</clus>
<clus scale="   79.826">  5  6 -1 -1</clus>
<clus scale="   89.650">  2  5  1 -1</clus>
<clus scale="   92.966">  7  8 -1 -1</clus>
<clus scale="   33.533">  2  5  1 -1</clus>
</clustering>
</event>
<event>
10    4  0.7697601E-005  0.1182425E+03  0.7546771E-02  0.1249510E+00
         21   -1    0    0  501  502  0.00000000000E+00  0.00000000000E+00  0.13592047898E+03  0.13592047898E+03  0.00000000000E+00 0. -1.
          2   -1    0    0  503    0 -0.00000000000E+00 -0.00000000000E+00 -0.48767584085E+03  0.48767584085E+03  0.00000000000E+00 0. -1.
         23    2    1    2    0    0  0.77333127220E+02  0.55605452117E+02 -0.75834826861E+02  0.15249429583E+03  0.91821622865E+02 0.  0.
         24    2    1    2    0    0 -0.67295748845E+02  0.65883988060E+02  0.81564929908E+01  0.12467288955E+03  0.81285812504E+02 0.  0.
        -13    1    4    4    0    0  0.32103245842E+01  0.48688466681E+02 -0.10123694429E+02  0.49833343863E+02  0.00000000000E+00 0.  1.
         14    1    4    4    0    0 -0.70506073429E+02  0.17195521379E+02  0.18280187420E+02  0.74839545683E+02  0.00000000000E+00 0. -1.
        -11    1    3    3    0    0  0.91810803437E+01  0.38958985226E+02 -0.71824219447E+02  0.82224164729E+02  0.00000000000E+00 0.  1.
         11    1    3    3    0    0  0.68152046877E+02  0.16646466890E+02 -0.40106074136E+01  0.70270131103E+02  0.00000000000E+00 0. -1.
         21    1    1    2  503  502 -0.43518901418E+02 -0.10489785806E+01 -0.92445718501E+01  0.44502328539E+02  0.00000000000E+00 0.  1.
          1    1    1    2  501    0  0.33481523043E+02 -0.12044046160E+03 -0.27483245615E+03  0.30192680591E+03  0.00000000000E+00 0. -1.
<scales pt_clust_5="13000.00000" pt_clust_6="13000.00000" pt_clust_7="13000.00000" pt_clust_8="13000.00000" pt_clust_9="43.53154" pt_clust_10="123.88295"></scales>
<clustering>
<clus scale="   43.532">  1  9  2 -1</clus>
<clus scale="   81.286">  5  6 -1 -1</clus>
<clus scale="   91.822">  7  8 -1 -1</clus>
<clus scale="  123.883">  1 10  2 -1</clus>
<clus scale="  110.261">  1  5  2 -1</clus>
<clus scale="   43.532">  1  5  2 -1</clus>
</clustering>
</event>
<event>
10    4  0.7697601E-005  0.1521957E+03  0.7546771E-02  0.1200361E+00
          2   -1    0    0  502    0 -0.00000000000E+00  0.00000000000E+00  0.40683031794E+03  0.40683031794E+03  0.00000000000E+00 0. -1.
         21   -1    0    0  503  502  0.00000000000E+00 -0.00000000000E+00 -0.98013253454E+02  0.98013253454E+02  0.00000000000E+00 0. -1.
         24    2    1    2    0    0  0.43885514964E+01  0.91869259734E+02  0.84845364770E+02  0.14828477315E+03  0.79563922460E+02 0.  0.
         23    2    1    2    0    0  0.24905316199E+02 -0.16505342961E+03  0.12647004324E+03  0.22941091430E+03  0.93657815258E+02 0.  0.
        -13    1    3    3    0    0  0.26018033787E+02  0.77132457227E+02  0.28656261598E+02  0.86299104102E+02  0.00000000000E+00 0.  1.
         14    1    3    3    0    0 -0.21629482290E+02  0.14736802507E+02  0.56189103172E+02  0.61985669050E+02  0.00000000000E+00 0. -1.
        -13    1    4    4    0    0  0.27238455817E+02 -0.91230419593E+02  0.12289989540E+03  0.15546481024E+03  0.00000000000E+00 0. -1.
         13    1    4    4    0    0 -0.23331396179E+01 -0.73823010021E+02  0.35701478395E+01  0.73946104053E+02  0.00000000000E+00 0.  1.
         21    1    1    2  503  501 -0.64797495289E+01  0.37937776217E+02  0.36128714838E+02  0.52787745302E+02  0.00000000000E+00 0. -1.
          1    1    1    2  501    0 -0.22814118167E+02  0.35246393663E+02  0.61372941637E+02  0.74360138644E+02  0.00000000000E+00 0. -1.
<scales pt_clust_5="13000.00000" pt_clust_6="13000.00000" pt_clust_7="13000.00000" pt_clust_8="13000.00000" pt_clust_9="20.21877" pt_clust_10="81.60893"></scales>
<clustering>
<clus scale="   20.219">  9 10 -1 -1</clus>
<clus scale="   79.564">  5  6 -1 -1</clus>
<clus scale="   81.609">  2  9  1 -1</clus>
<clus scale="   93.658">  7  8 -1 -1</clus>
<clus scale="  143.952">  1  5  2 -1</clus>
<clus scale="   81.609">  2  5  1 -1</clus>
</clustering>
</event>
<event>
10    4  0.7697601E-005  0.1201407E+03  0.7546771E-02  0.1246022E+00
         21   -1    0    0  501  502  0.00000000000E+00  0.00000000000E+00  0.66193155059E+02  0.66193155059E+02  0.00000000000E+00 0.  1.
          2   -1    0    0  503    0 -0.00000000000E+00 -0.00000000000E+00 -0.13436824527E+04  0.13436824527E+04  0.00000000000E+00 0. -1.
         23    2    1    2    0    0  0.12091156718E+02  0.85226349089E+02 -0.54569576738E+03  0.55987875497E+03  0.90942966082E+02 0.  0.
         24    2    1    2    0    0 -0.93934204850E+02 -0.30061755246E+02 -0.16970302181E+03  0.21230164527E+03  0.80904443671E+02 0.  0.
        -13    1    4    4    0    0 -0.74609914237E+02  0.76740749231E+01 -0.64666857020E+02  0.99031980315E+02  0.00000000000E+00 0.  1.
         14    1    4    4    0    0 -0.19324290613E+02 -0.37735830169E+02 -0.10503616479E+03  0.11326966496E+03  0.00000000000E+00 0. -1.
        -13    1    3    3    0    0 -0.37011089296E+02  0.58511013591E+02 -0.29146484871E+03  0.29957489460E+03  0.00000000000E+00 0. -1.
         13    1    3    3    0    0  0.49102246014E+02  0.26715335499E+02 -0.25423091867E+03  0.26030386037E+03  0.00000000000E+00 0.  1.
         21    1    1    2  503  502 -0.40070967519E+02 -0.91695118988E+01  0.16736374944E+02  0.44383202145E+02  0.00000000000E+00 0.  1.
          1    1    1    2  501    0  0.12191401565E+03 -0.45995081944E+02 -0.57882688340E+03  0.59331200538E+03  0.00000000000E+00 0. -1.
<scales pt_clust_5="13000.00000" pt_clust_6="13000.00000" pt_clust_7="13000.00000" pt_clust_8="13000.00000" pt_clust_9="41.10672" pt_clust_10="123.42601"></scales>
<clustering>
<clus scale="   41.107">  1  9  2 -1</clus>
<clus scale="   80.904">  5  6 -1 -1</clus>
<clus scale="   90.943">  7  8 -1 -1</clus>
<clus scale="  123.426">  1 10  2 -1</clus>
<clus scale="  112.733">  1  5  2 -1</clus>
<clus scale="   41.107">  1  5  2 -1</clus>
</clustering>
</event>
<event>
10    4  0.7697601E-005  0.1488610E+03  0.7546771E-02  0.1230451E+00
         21   -1    0    0  501  502  0.00000000000E+00  0.00000000000E+00  0.13074011491E+03  0.13074011491E+03  0.00000000000E+00 0. -1.
          2   -1    0    0  503    0 -0.00000000000E+00 -0.00000000000E+00 -0.51490897111E+03  0.51490897111E+03  0.00000000000E+00 0. -1.
         24    2    1    2    0    0  0.19931284708E+01 -0.10338941158E+02 -0.28068957528E+03  0.29230929478E+03  0.80914892779E+02 0.  0.
         23    2    1    2    0    0 -0.36267808690E+01 -0.12585754324E+03 -0.87350692962E+02  0.17872169014E+03  0.91967517284E+02 0.  0.
        -11    1    3    3    0    0  0.47875919546E+01  0.21787439237E+02 -0.21037981969E+02  0.30662847724E+02  0.00000000000E+00 0.  1.
         12    1    3    3    0    0 -0.27944634839E+01 -0.32126380395E+02 -0.25965159332E+03  0.26164644705E+03  0.00000000000E+00 0. -1.
        -11    1    4    4    0    0 -0.19972584617E+02  0.73852080707E+01 -0.77894390310E+01  0.22674231959E+02  0.00000000000E+00 0.  1.
         11    1    4    4    0    0  0.16345803748E+02 -0.13324275132E+03 -0.79561253931E+02  0.15604745818E+03  0.00000000000E+00 0. -1.
         21    1    1    2  503  502 -0.11467120905E+02  0.25548857082E+02  0.40808162256E+02  0.49492878950E+02  0.00000000000E+00 0.  1.
          1    1    1    2  501    0  0.13100773303E+02  0.11064762732E+03 -0.56936750215E+02  0.12512522215E+03  0.00000000000E+00 0. -1.
<scales pt_clust_5="13000.00000" pt_clust_6="13000.00000" pt_clust_7="13000.00000" pt_clust_8="13000.00000" pt_clust_9="28.00427" pt_clust_10="117.05378"></scales>
<clustering>
<clus scale="   28.004">  1  9  2 -1</clus>
<clus scale="   80.915">  5  6 -1 -1</clus>
<clus scale="   81.380">  2  5  1 -1</clus>
<clus scale="   91.968">  7  8 -1 -1</clus>
<clus scale="  117.054">  1 10  2 -1</clus>
<clus scale="   28.004">  1  5  2 -1</clus>
</clustering>
</event>
<event>
10    4  0.7697601E-005  0.2955061E+03  0.7546771E-02  0.1096419E+00
         -1   -1    0    0    0  501 -0.00000000000E+00  0.00000000000E+00  0.93452682856E+03  0.93452682856E+03  0.00000000000E+00 0.  1.
         21   -1    0    0  501  502  0.00000000000E+00 -0.00000000000E+00 -0.53669986428E+03  0.53669986428E+03  0.00000000000E+00 0.  1.
         23    2    1    2    0    0 -0.15203032250E+02  0.21680192789E+03  0.43337578607E+03  0.49366015774E+03  0.93013822934E+02 0.  0.
         24    2    1    2    0    0  0.16166723574E+03  0.20638786234E+03 -0.27217251995E+03  0.38629036157E+03  0.80063212473E+02 0.  0.
        -11    1    4    4    0    0  0.14757335183E+03  0.17682051336E+03 -0.26784952198E+03  0.35325168724E+03  0.00000000000E+00 0.  1.
         12    1    4    4    0    0  0.14093883910E+02  0.29567348989E+02 -0.43229979671E+01  0.33038674327E+02  0.00000000000E+00 0. -1.
        -13    1    3    3    0    0 -0.48866778065E+02  0.71106380839E+02  0.17562426883E+03  0.19567310290E+03  0.00000000000E+00 0. -1.
         13    1    3    3    0    0  0.33663745816E+02  0.14569554705E+03  0.25775151724E+03  0.29798705484E+03  0.00000000000E+00 0.  1.
         21    1    1    2  503  502  0.48422192007E+02 -0.43414871498E+02 -0.45710970002E+02  0.79492468350E+02  0.00000000000E+00 0.  1.
         -2    1    1    2    0  503 -0.19488639549E+03 -0.37977491873E+03  0.28233466815E+03  0.51178370518E+03  0.00000000000E+00 0.  1.
<scales pt_clust_5="13000.00000" pt_clust_6="13000.00000" pt_clust_7="13000.00000" pt_clust_8="13000.00000" pt_clust_9="65.03507" pt_clust_10="284.45359"></scales>
<clustering>
<clus scale="   65.035">  2  9  1 -1</clus>
<clus scale="   80.063">  5  6 -1 -1</clus>
<clus scale="   93.014">  7  8 -1 -1</clus>
<clus scale="  233.693">  1  7  2 -1</clus>
<clus scale="  284.454">  2 10  1 -1</clus>
<clus scale="   65.035">  2  5  1 -1</clus>
</clustering>
</event>
<event>
10    4  0.7697601E-005  0.1090237E+03  0.7546771E-02  0.1265987E+00
          2   -1    0    0  503    0 -0.00000000000E+00  0.00000000000E+00  0.34877692373E+03  0.34877692373E+03  0.00000000000E+00 0. -1.
         21   -1    0    0  501  502  0.00000000000E+00 -0.00000000000E+00 -0.84440955837E+02  0.84440955837E+02  0.00000000000E+00 0. -1.
         23    2    1    2    0    0 -0.32055175116E+02 -0.71050280863E+01  0.60647241509E+02  0.11194153343E+03  0.88174845208E+02 0.  0.
         24    2    1    2    0    0  0.68164611634E+02  0.72171855232E+02  0.13344772801E+03  0.18406641257E+03  0.78847683291E+02 0.  0.
        -13    1    4    4    0    0  0.44970802422E+01  0.61939511504E+02  0.70493244525E+02  0.93946922992E+02  0.00000000000E+00 0.  1.
         14    1    4    4    0    0  0.63667531392E+02  0.10232343728E+02  0.62954483484E+02  0.90119489582E+02  0.00000000000E+00 0. -1.
        -11    1    3    3    0    0 -0.42851230196E+02 -0.34343978600E+02  0.13696172656E+02  0.56597896965E+02  0.00000000000E+00 0. -1.
         11    1    3    3    0    0  0.10796055080E+02  0.27238950514E+02  0.46951068853E+02  0.55343636462E+02  0.00000000000E+00 0.  1.
         21    1    1    2  503  502  0.11919328592E+02 -0.29922004997E+02 -0.13125162131E+02  0.34780262479E+02  0.00000000000E+00 0.  1.
          1    1    1    2  501    0 -0.48028765110E+02 -0.35144822148E+02  0.83366160508E+02  0.10242967109E+03  0.00000000000E+00 0. -1.
<scales pt_clust_5="13000.00000" pt_clust_6="13000.00000" pt_clust_7="13000.00000" pt_clust_8="13000.00000" pt_clust_9="32.20864" pt_clust_10="60.98105"></scales>
<clustering>
<clus scale="   32.209">  2  9  1 -1</clus>
<clus scale="   60.981">  2 10  1 -1</clus>
<clus scale="   78.848">  5  6 -1 -1</clus>
<clus scale="   88.175">  7  8 -1 -1</clus>
<clus scale="  101.628">  2  5  1 -1</clus>
<clus scale="   32.209">  2  5  1 -1</clus>
</clustering>
</event>
<event>
10    4  0.7697601E-005  0.1060635E+03  0.7546771E-02  0.1272974E+00
          2   -1    0    0  502    0 -0.00000000000E+00  0.00000000000E+00  0.51598621659E+03  0.51598621659E+03  0.00000000000E+00 0. -1.
         21   -1    0    0  503  502  0.00000000000E+00 -0.00000000000E+00 -0.57034107821E+02  0.57034107821E+02  0.00000000000E+00 0. -1.
         24    2    1    2    0    0 -0.72965219291E+02  0.55087618441E+00  0.28981813888E+03  0.30937703565E+03  0.79971056490E+02 0.  0.
         23    2    1    2    0    0 -0.11098709745E+02 -0.13977978982E+01  0.30519897379E+02  0.96982163637E+02  0.91372538165E+02 0.  0.
        -11    1    3    3    0    0 -0.23400618056E+02 -0.73331718790E+01  0.12444748161E+02  0.27499747126E+02  0.00000000000E+00 0.  1.
         12    1    3    3    0    0 -0.49564601235E+02  0.78840480635E+01  0.27737339072E+03  0.28187728853E+03  0.00000000000E+00 0. -1.
        -11    1    4    4    0    0 -0.35162905824E+02  0.18835429543E+02 -0.14177875233E+02  0.42334566233E+02  0.00000000000E+00 0. -1.
         11    1    4    4    0    0  0.24064196079E+02 -0.20233227441E+02  0.44697772611E+02  0.54647597404E+02  0.00000000000E+00 0.  1.
         21    1    1    2  503  501  0.19420573472E+02  0.69203404504E+01  0.10737232348E+02  0.23245170346E+02  0.00000000000E+00 0. -1.
          1    1    1    2  501    0  0.64643355564E+02 -0.60734187366E+01  0.12787684017E+03  0.14341595478E+03  0.00000000000E+00 0. -1.
<scales pt_clust_5="13000.00000" pt_clust_6="13000.00000" pt_clust_7="13000.00000" pt_clust_8="13000.00000" pt_clust_9="20.61674" pt_clust_10="67.80051"></scales>
<clustering>
<clus scale="   20.617">  2  9  1 -1</clus>
<clus scale="   67.801">  2 10  1 -1</clus>
<clus scale="   79.971">  5  6 -1 -1</clus>
<clus scale="   91.373">  7  8 -1 -1</clus>
<clus scale="   96.415">  1  5  2 -1</clus>
<clus scale="   20.617">  2  5  1 -1</clus>
</clustering>
</event>
<event>
10    4  0.7697601E-005  0.9578103E+02  0.7546771E-02  0.1291137E+00
         21   -1    0    0  501  502  0.00000000000E+00  0.00000000000E+00  0.59526954766E+03  0.59526954766E+03  0.00000000000E+00 0.  1.
          2   -1    0    0  503    0 -0.00000000000E+00 -0.00000000000E+00 -0.90737843002E+02  0.90737843002E+02  0.00000000000E+00 0. -1.
         24    2    1    2    0    0  0.12084350971E+02  0.73478578566E+02  0.26595694281E+02  0.11228479766E+03  0.79720836585E+02 0.  0.
         23    2    1    2    0    0  0.36837675913E+02 -0.15244792317E+02  0.11179720073E+03  0.14097647989E+03  0.76067967839E+02 0.  0.
        -11    1    3    3    0    0 -0.20747040688E+02 -0.68363182986E+01  0.11951874667E+01  0.21877006611E+02  0.00000000000E+00 0.  1.
         12    1    3    3    0    0  0.32831391659E+02  0.80314896865E+02  0.25400506814E+02  0.90407791053E+02  0.00000000000E+00 0. -1.
        -13    1    4    4    0    0  0.13708724762E+02  0.18688035532E+02  0.14346585242E+01  0.23221327519E+02  0.00000000000E+00 0.  1.
         13    1    4    4    0    0  0.23128951150E+02 -0.33932827849E+02  0.11036254221E+03  0.11775515237E+03  0.00000000000E+00 0. -1.
         21    1    1    2  503  502 -0.25868703129E+02 -0.85108226258E+02  0.38323802711E+03  0.39342595924E+03  0.00000000000E+00 0.  1.
          1    1    1    2  501    0 -0.23053323755E+02  0.26874440009E+02 -0.17099217470E+02  0.39320153866E+02  0.00000000000E+00 0. -1.
<scales pt_clust_5="13000.00000" pt_clust_6="13000.00000" pt_clust_7="13000.00000" pt_clust_8="13000.00000" pt_clust_9="78.85772" pt_clust_10="35.40752"></scales>
<clustering>
<clus scale="   35.408">  1 10  2 -1</clus>
<clus scale="   76.068">  7  8 -1 -1</clus>
<clus scale="   78.858">  1  9  2 -1</clus>
<clus scale="   79.721">  5  6 -1 -1</clus>
<clus scale="   92.763">  1  7  2 -1</clus>
<clus scale="   35.408">  1  5  2 -1</clus>
</clustering>
</event>
<event>
10    4  0.7697601E-005  0.1790115E+03  0.7546771E-02  0.1190772E+00
          2   -1    0    0  503    0 -0.00000000000E+00  0.00000000000E+00  0.33763912760E+03  0.33763912760E+03  0.00000000000E+00 0. -1.
         21   -1    0    0  501  502  0.00000000000E+00 -0.00000000000E+00 -0.12990168811E+04  0.12990168811E+04  0.00000000000E+00 0. -1.
         23    2    1    2    0    0  0.27463602447E+02 -0.49281204306E+02  0.63158326714E+02  0.12510532585E+03  0.92084101594E+02 0.  0.
         24    2    1    2    0    0  0.12474864810E+03  0.50121313825E+02  0.18551834044E+03  0.24566715869E+03  0.88661868454E+02 0.  0.
        -11    1    4    4    0    0  0.46910774001E+02 -0.26405217558E+01  0.12296726672E+02  0.48567505180E+02  0.00000000000E+00 0.  1.
         12    1    4    4    0    0  0.77837874101E+02  0.52761835581E+02  0.17322161377E+03  0.19709965351E+03  0.00000000000E+00 0. -1.
        -13    1    3    3    0    0  0.44310014432E+02 -0.16955293959E+02 -0.51069051073E+01  0.47717290912E+02  0.00000000000E+00 0. -1.
         13    1    3    3    0    0 -0.16846411985E+02 -0.32325910347E+02  0.68265231821E+02  0.77388034942E+02  0.00000000000E+00 0.  1.
         21    1    1    2  503  502 -0.25294739075E+03  0.25870981521E+02 -0.99402473595E+03  0.10260296613E+04  0.00000000000E+00 0. -1.
          1    1    1    2  501    0  0.10073514020E+03 -0.26711091040E+02 -0.21602968474E+03  0.23985386289E+03  0.00000000000E+00 0. -1.
<scales pt_clust_5="13000.00000" pt_clust_6="13000.00000" pt_clust_7="13000.00000" pt_clust_8="13000.00000" pt_clust_9="155.51264" pt_clust_10="104.21637"></scales>
<clustering>
<clus scale="   88.662">  5  6 -1 -1</clus>
<clus scale="   92.084">  7  8 -1 -1</clus>
<clus scale="  104.216">  2 10  1 -1</clus>
<clus scale="  109.122">  1  7  2 -1</clus>
<clus scale="  155.513">  2  9  1 -1</clus>
<clus scale="  104.216">  2  5  1 -1</clus>
</clustering>
</event>
<event>
10    4  0.7697601E-005  0.1193015E+03  0.7546771E-02  0.1249008E+00
          2   -1    0    0  502    0 -0.00000000000E+00  0.00000000000E+00  0.36888337251E+03  0.36888337251E+03  0.00000000000E+00 0. -1.
         21   -1    0    0  503  502  0.00000000000E+00 -0.00000000000E+00 -0.64070994185E+03  0.64070994185E+03  0.00000000000E+00 0. -1.
         24    2    1    2    0    0 -0.76157006633E+02 -0.31579762508E+01  0.32293857904E+03  0.34051285382E+03  0.76484085330E+02 0.  0.
         23    2    1    2    0    0  0.84054276929E+02  0.73766331407E+02 -0.12981232938E+03  0.19412005120E+03  0.91240124392E+02 0.  0.
        -13    1    3    3    0    0  0.63852401428E+00  0.22231257727E+02  0.35330938511E+02  0.41748194561E+02  0.00000000000E+00 0.  1.
         14    1    3    3    0    0 -0.76795530647E+02 -0.25389233978E+02  0.28760764053E+03  0.29876465926E+03  0.00000000000E+00 0. -1.
        -11    1    4    4    0    0  0.16276109653E+02  0.24393972141E+02 -0.10144350911E+03  0.10559717403E+03  0.00000000000E+00 0.  1.
         11    1    4    4    0    0  0.67778167277E+02  0.49372359266E+02 -0.28368820270E+02  0.88522877170E+02  0.00000000000E+00 0. -1.
         21    1    1    2  503  501  0.28082621163E+02 -0.25200435736E+02 -0.14652794906E+03  0.15130808117E+03  0.00000000000E+00 0. -1.
          1    1    1    2  501    0 -0.35979891459E+02 -0.45407919420E+02 -0.31842486994E+03  0.32365232817E+03  0.00000000000E+00 0. -1.
<scales pt_clust_5="13000.00000" pt_clust_6="13000.00000" pt_clust_7="13000.00000" pt_clust_8="13000.00000" pt_clust_9="37.73189" pt_clust_10="64.32674"></scales>
<clustering>
<clus scale="   37.732">  2  9  1 -1</clus>
<clus scale="   64.327">  2 10  1 -1</clus>
<clus scale="   76.484">  5  6 -1 -1</clus>
<clus scale="   91.240">  7  8 -1 -1</clus>
<clus scale="  108.434">  1  5  2 -1</clus>
<clus scale="   37.732">  2  5  1 -1</clus>
</clustering>
</event>
<event>
10    4  0.7697601E-005  0.1307558E+03  0.7546771E-02  0.1242636E+00
         21   -1    0    0  503  502  0.00000000000E+00  0.00000000000E+00  0.22099602536E+03  0.22099602536E+03  0.00000000000E+00 0. -1.
          2   -1    0    0  502    0 -0.00000000000E+00 -0.00000000000E+00 -0.42220397416E+03  0.42220397416E+03  0.00000000000E+00 0. -1.
         24    2    1    2    0    0 -0.32269571227E+02 -0.25505196236E+02 -0.17725500330E+03  0.19960749923E+03  0.82048627602E+02 0.  0.
         23    2    1    2    0    0  0.49437640821E+02 -0.68080270683E+02 -0.11452171870E+03  0.17338432437E+03  0.99337285538E+02 0.  0.
        -13    1    3    3    0    0 -0.32182954757E+02  0.22838605657E+02 -0.10933796916E+03  0.11624171362E+03  0.00000000000E+00 0.  1.
         14    1    3    3    0    0 -0.86616469127E-01 -0.48343801894E+02 -0.67917034148E+02  0.83365785616E+02  0.00000000000E+00 0. -1.
        -13    1    4    4    0    0  0.46335458484E+02 -0.27146941184E+02 -0.12047699187E+03  0.13190389191E+03  0.00000000000E+00 0.  1.
         13    1    4    4    0    0  0.31021823368E+01 -0.40933329499E+02  0.59552731744E+01  0.41480432468E+02  0.00000000000E+00 0. -1.
         21    1    1    2  503  501 -0.28724448099E+02 -0.48280186109E+00  0.15368015627E+03  0.15634230856E+03  0.00000000000E+00 0. -1.
          1    1    1    2  501    0  0.11556378504E+02  0.94068268780E+02 -0.63111383067E+02  0.11386586735E+03  0.00000000000E+00 0. -1.
<scales pt_clust_5="13000.00000" pt_clust_6="13000.00000" pt_clust_7="13000.00000" pt_clust_8="13000.00000" pt_clust_9="28.72851" pt_clust_10="85.02467"></scales>
<clustering>
<clus scale="   28.729">  1  9  2 -1</clus>
<clus scale="   82.049">  5  6 -1 -1</clus>
<clus scale="   93.625">  2  5  1 -1</clus>
<clus scale="   85.025">  1 10  2 -1</clus>
<clus scale="   99.337">  7  8 -1 -1</clus>
<clus scale="   28.729">  1  5  2 -1</clus>
</clustering>
</event>
<event>
10    4  0.7697601E-005  0.2705257E+03  0.7546771E-02  0.1101432E+00
         21   -1    0    0  503  502  0.00000000000E+00  0.00000000000E+00  0.22851908209E+03  0.22851908209E+03  0.00000000000E+00 0. -1.
          2   -1    0    0  502    0 -0.00000000000E+00 -0.00000000000E+00 -0.48282941876E+03  0.48282941876E+03  0.00000000000E+00 0. -1.
         23    2    1    2    0    0  0.79437519124E+02  0.22924150318E+03 -0.14567299883E+03  0.29736167611E+03  0.91331033089E+02 0.  0.
         24    2    1    2    0    0 -0.52322677662E+02 -0.27044956283E+03 -0.49490693390E+02  0.29150252965E+03  0.81509308847E+02 0.  0.
        -13    1    4    4    0    0 -0.16321894938E+02 -0.16850158076E+03  0.71610064285E+01  0.16944163297E+03  0.00000000000E+00 0.  1.
         14    1    4    4    0    0 -0.36000782724E+02 -0.10194798207E+03 -0.56651699818E+02  0.12206089668E+03  0.00000000000E+00 0. -1.
        -11    1    3    3    0    0  0.86182255867E+02  0.17947016940E+03 -0.79712076635E+02  0.21445497917E+03  0.00000000000E+00 0. -1.
         11    1    3    3    0    0 -0.67447367427E+01  0.49771333779E+02 -0.65960922193E+02  0.82906696934E+02  0.00000000000E+00 0.  1.
         21    1    1    2  503  501  0.13924510532E+02  0.22902632341E+02  0.18642072750E+02  0.32648881116E+02  0.00000000000E+00 0.  1.
          1    1    1    2  501    0 -0.41039351994E+02  0.18305427312E+02 -0.77788717204E+02  0.89835413983E+02  0.00000000000E+00 0. -1.
<scales pt_clust_5="13000.00000" pt_clust_6="13000.00000" pt_clust_7="13000.00000" pt_clust_8="13000.00000" pt_clust_9="26.80341" pt_clust_10="44.84322"></scales>
<clustering>
<clus scale="   26.803">  1  9  2 -1</clus>
<clus scale="   44.843">  1 10  2 -1</clus>
<clus scale="   81.509">  5  6 -1 -1</clus>
<clus scale="   91.331">  7  8 -1 -1</clus>
<clus scale="  267.370">  1  5  2 -1</clus>
<clus scale="   26.803">  1  5  2 -1</clus>
</clustering>
</event>
<event>
10    4  0.7697601E-005  0.2825831E+03  0.7546771E-02  0.1094434E+00
         21   -1    0    0  501  502  0.00000000000E+00  0.00000000000E+00  0.60394157645E+03  0.60394157645E+03  0.00000000000E+00 0. -1.
          2   -1    0    0  503    0 -0.00000000000E+00 -0.00000000000E+00 -0.19972430893E+04  0.19972430893E+04  0.00000000000E+00 0. -1.
         24    2    1    2    0    0  0.33554064704E+02  0.26958343372E+03 -0.91088935722E+03  0.95445898756E+03  0.86437462090E+02 0.  0.
         23    2    1    2    0    0 -0.20270616761E+03 -0.21776827033E+03 -0.52030101624E+03  0.60606396311E+03  0.89930917571E+02 0.  0.
        -11    1    3    3    0    0  0.36636256091E+02  0.18870255384E+03 -0.50009318245E+03  0.53576493000E+03  0.00000000000E+00 0.  1.
         12    1    3    3    0    0 -0.30821913876E+01  0.80880879880E+02 -0.41079617477E+03  0.41869405756E+03  0.00000000000E+00 0. -1.
        -13    1    4    4    0    0 -0.64411522569E+02 -0.27495642978E+02 -0.76062769248E+02  0.10339438809E+03  0.00000000000E+00 0.  1.
         13    1    4    4    0    0 -0.13829464505E+03 -0.19027262735E+03 -0.44423824699E+03  0.50266957502E+03  0.00000000000E+00 0. -1.
         21    1    1    2  503  502  0.11434653524E+03 -0.23993647518E+02  0.53101671592E+03  0.54371828904E+03  0.00000000000E+00 0. -1.
          1    1    1    2  501    0  0.54805567672E+02 -0.27821515873E+02 -0.49312785534E+03  0.49694342606E+03  0.00000000000E+00 0. -1.
<scales pt_clust_5="13000.00000" pt_clust_6="13000.00000" pt_clust_7="13000.00000" pt_clust_8="13000.00000" pt_clust_9="170.41010" pt_clust_10="61.46292"></scales>
<clustering>
<clus scale="   61.463">  1 10  2 -1</clus>
<clus scale="   86.437">  5  6 -1 -1</clus>
<clus scale="   89.931">  7  8 -1 -1</clus>
<clus scale="  170.410">  1  9  2 -1</clus>
<clus scale="  281.491">  2  5  1 -1</clus>
<clus scale="   61.463">  1  5  2 -1</clus>
</clustering>
</event>
<event>
10    4  0.7697601E-005  0.1728589E+03  0.7546771E-02  0.1199060E+00
         21   -1    0    0  501  502  0.00000000000E+00  0.00000000000E+00  0.21714528115E+03  0.21714528115E+03  0.00000000000E+00 0.  1.
          2   -1    0    0  503    0 -0.00000000000E+00 -0.00000000000E+00 -0.14925174325E+04  0.14925174325E+04  0.00000000000E+00 0. -1.
         24    2    1    2    0    0  0.63261731423E+02 -0.84764589696E+01 -0.62993611986E+03  0.63875149691E+03  0.84321187615E+02 0.  0.
         23    2    1    2    0    0  0.13247478565E+03 -0.38741351707E+02 -0.59810904654E+03  0.62098408312E+03  0.94001801952E+02 0.  0.
        -11    1    3    3    0    0  0.21417719752E+02  0.32495232871E+02 -0.13936215252E+03  0.14469439670E+03  0.00000000000E+00 0.  1.
         12    1    3    3    0    0  0.41844011672E+02 -0.40971691841E+02 -0.49057396733E+03  0.49405710021E+03  0.00000000000E+00 0. -1.
        -13    1    4    4    0    0  0.85460675835E+02 -0.47015123592E+02 -0.52279130476E+03  0.53181265244E+03  0.00000000000E+00 0. -1.
         13    1    4    4    0    0  0.47014109815E+02  0.82737718850E+01 -0.75317741775E+02  0.89171430677E+02  0.00000000000E+00 0.  1.
         21    1    1    2  503  502 -0.62028771254E+02  0.81355378745E+02  0.16651087383E+03  0.19542808708E+03  0.00000000000E+00 0.  1.
          1    1    1    2  501    0 -0.13370774582E+03 -0.34137568068E+02 -0.21383785879E+03  0.25449904656E+03  0.00000000000E+00 0. -1.
<scales pt_clust_5="13000.00000" pt_clust_6="13000.00000" pt_clust_7="13000.00000" pt_clust_8="13000.00000" pt_clust_9="102.30477" pt_clust_10="145.06505"></scales>
<clustering>
<clus scale="   84.321">  5  6 -1 -1</clus>
<clus scale="   94.002">  7  8 -1 -1</clus>
<clus scale="  102.305">  1  9  2 -1</clus>
<clus scale="  101.070">  2  5  1 -1</clus>
<clus scale="  145.065">  1 10  2 -1</clus>
<clus scale="  102.305">  1  5  2 -1</clus>
</clustering>
</event>
<event>
10    4  0.7697601E-005  0.1205932E+03  0.7546771E-02  0.1244739E+00
         21   -1    0    0  503  502  0.00000000000E+00  0.00000000000E+00  0.16686572471E+03  0.16686572471E+03  0.00000000000E+00 0.  1.
          2   -1    0    0  502    0 -0.00000000000E+00 -0.00000000000E+00 -0.47991555342E+03  0.47991555342E+03  0.00000000000E+00 0. -1.
         23    2    1    2    0    0  0.53553512237E+02  0.54841803117E+02 -0.24614833834E+03  0.27326228105E+03  0.90596179483E+02 0.  0.
         24    2    1    2    0    0 -0.11680584156E+03 -0.25105392303E+01 -0.35504251177E+02  0.14717007111E+03  0.82149683805E+02 0.  0.
        -11    1    4    4    0    0 -0.51636411007E+02 -0.79512968238E+01  0.25143371461E+02  0.57980438006E+02  0.00000000000E+00 0.  1.
         12    1    4    4    0    0 -0.65169430548E+02  0.54407575935E+01 -0.60647622638E+02  0.89189633102E+02  0.00000000000E+00 0. -1.
        -11    1    3    3    0    0  0.16633374134E+02 -0.22398767482E+02 -0.30995432468E+02  0.41702407048E+02  0.00000000000E+00 0.  1.
         11    1    3    3    0    0  0.36920138103E+02  0.77240570598E+02 -0.21515290587E+03  0.23155987400E+03  0.00000000000E+00 0. -1.
         21    1    1    2  503  501  0.13773270376E+02  0.18977660442E+02  0.81008571153E+02  0.84334116305E+02  0.00000000000E+00 0.  1.
          1    1    1    2  501    0  0.49479058942E+02 -0.71308924328E+02 -0.11240581035E+03  0.14201480966E+03  0.00000000000E+00 0. -1.
<scales pt_clust_5="13000.00000" pt_clust_6="13000.00000" pt_clust_7="13000.00000" pt_clust_8="13000.00000" pt_clust_9="23.44898" pt_clust_10="85.52133"></scales>
<clustering>
<clus scale="   23.449">  1  9  2 -1</clus>
<clus scale="   82.150">  5  6 -1 -1</clus>
<clus scale="   85.521">  1 10  2 -1</clus>
<clus scale="   90.596">  7  8 -1 -1</clus>
<clus scale="  114.384">  1  5  2 -1</clus>
<clus scale="   23.449">  1  5  2 -1</clus>
</clustering>
</event>
<event>
10    4  0.7697601E-005  0.2298994E+03  0.7546771E-02  0.1165099E+00
          2   -1    0    0  503    0 -0.00000000000E+00  0.00000000000E+00  0.70120420178E+03  0.70120420178E+03  0.00000000000E+00 0. -1.
         21   -1    0    0  501  502  0.00000000000E+00 -0.00000000000E+00 -0.22142834326E+03  0.22142834326E+03  0.00000000000E+00 0. -1.
         23    2    1    2    0    0  0.82890451578E+01  0.97028947083E+01  0.14151309470E+03  0.16910335187E+03  0.91690420474E+02 0.  0.
         24    2    1    2    0    0  0.80492695870E+02  0.21289547802E+03  0.33989792925E+03  0.41605114532E+03  0.75923610049E+02 0.  0.
        -13    1    4    4    0    0 -0.39565059165E+01  0.90160011819E+02  0.14391131037E+03  0.16986743927E+03  0.00000000000E+00 0.  1.
         14    1    4    4    0    0  0.84449201786E+02  0.12273546620E+03  0.19598661888E+03  0.24618370605E+03  0.00000000000E+00 0. -1.
        -13    1    3    3    0    0 -0.34438139757E+02 -0.17308391807E+02  0.39147972041E+02  0.54937506422E+02  0.00000000000E+00 0.  1.
         13    1    3    3    0    0  0.42727184915E+02  0.27011286515E+02  0.10236512266E+03  0.11416584545E+03  0.00000000000E+00 0. -1.
         21    1    1    2  503  502 -0.24479628120E+02 -0.16004427006E+03 -0.11079444827E+03  0.19618570371E+03  0.00000000000E+00 0. -1.
          1    1    1    2  501    0 -0.64302112907E+02 -0.62554102662E+02  0.10915928284E+03  0.14129234414E+03  0.00000000000E+00 0. -1.
<scales pt_clust_5="13000.00000" pt_clust_6="13000.00000" pt_clust_7="13000.00000" pt_clust_8="13000.00000" pt_clust_9="217.00083" pt_clust_10="89.70945"></scales>
<clustering>
<clus scale="   75.924">  5  6 -1 -1</clus>
<clus scale="   89.709">  2 10  1 -1</clus>
<clus scale="   91.690">  7  8 -1 -1</clus>
<clus scale="   91.941">  1  7  2 -1</clus>
<clus scale="  217.001">  2  9  1 -1</clus>
<clus scale="   89.709">  2  5  1 -1</clus>
</clustering>
</event>
<event>
10    4  0.7697601E-005  0.1453496E+03  0.7546771E-02  0.1211330E+00
          2   -1    0    0  502    0 -0.00000000000E+00  0.00000000000E+00  0.54735826750E+03  0.54735826750E+03  0.00000000000E+00 0. -1.
         21   -1    0    0  503  502  0.00000000000E+00 -0.00000000000E+00 -0.13356638432E+03  0.13356638432E+03  0.00000000000E+00 0. -1.
         23    2    1    2    0    0  0.32613704004E+02 -0.91870131437E+02  0.19187099011E+03  0.23719379944E+03  0.99712822183E+02 0.  0.
         24    2    1    2    0    0 -0.69739732688E+02  0.98749810680E+02  0.11302199722E+03  0.18233331901E+03  0.76526544024E+02 0.  0.
        -11    1    4    4    0    0 -0.16472072142E+02  0.26482621034E+02  0.81365982744E+02  0.87138289663E+02  0.00000000000E+00 0.  1.
         12    1    4    4    0    0 -0.53267660546E+02  0.72267189645E+02  0.31656014473E+02  0.95195029343E+02  0.00000000000E+00 0. -1.
        -11    1    3    3    0    0  0.48553714546E+02 -0.34219207670E+01  0.54901475883E+02  0.73371280431E+02  0.00000000000E+00 0. -1.
         11    1    3    3    0    0 -0.15940010542E+02 -0.88448210670E+02  0.13696951423E+03  0.16382251901E+03  0.00000000000E+00 0.  1.
         21    1    1    2  503  501 -0.27823114972E+02  0.60340056246E+01 -0.67349345688E+02  0.73119554945E+02  0.00000000000E+00 0. -1.
          1    1    1    2  501    0  0.64949143656E+02 -0.12913684867E+02  0.17624824153E+03  0.18827797843E+03  0.00000000000E+00 0. -1.
<scales pt_clust_5="13000.00000" pt_clust_6="13000.00000" pt_clust_7="13000.00000" pt_clust_8="13000.00000" pt_clust_9="28.46990" pt_clust_10="63.51706"></scales>
<clustering>
<clus scale="   28.470">  2  9  1 -1</clus>
<clus scale="   63.517">  2 10  1 -1</clus>
<clus scale="   76.527">  5  6 -1 -1</clus>
<clus scale="   99.713">  7  8 -1 -1</clus>
<clus scale="  130.538">  2  5  1 -1</clus>
<clus scale="   28.470">  2  5  1 -1</clus>
</clustering>
</event>
<event>
10    4  0.7697601E-005  0.1986558E+03  0.7546771E-02  0.1151897E+00
         21   -1    0    0  501  502  0.00000000000E+00  0.00000000000E+00  0.56850721753E+03  0.56850721753E+03  0.00000000000E+00 0.  1.
          2   -1    0    0  503    0 -0.00000000000E+00 -0.00000000000E+00 -0.40686368139E+03  0.40686368139E+03  0.00000000000E+00 0. -1.
         24    2    1    2    0    0 -0.63185963487E+02  0.16399667768E+03 -0.34160060166E+03  0.39237731630E+03  0.79884986205E+02 0.  0.
         23    2    1    2    0    0  0.82744784692E+02 -0.17429159804E+03  0.38732953575E+03  0.44213820594E+03  0.90762125102E+02 0.  0.
        -13    1    3    3    0    0 -0.29214539295E+02  0.58012614346E+02 -0.55655352285E+02  0.85536372190E+02  0.00000000000E+00 0.  1.
         14    1    3    3    0    0 -0.33971424192E+02  0.10598406333E+03 -0.28594524938E+03  0.30684094411E+03  0.00000000000E+00 0. -1.
        -13    1    4    4    0    0  0.57633804231E+02 -0.12426973289E+03  0.17324751028E+03  0.22086041230E+03  0.00000000000E+00 0.  1.
         13    1    4    4    0    0  0.25110980461E+02 -0.50021865148E+02  0.21408202546E+03  0.22127779364E+03  0.00000000000E+00 0. -1.
         21    1    1    2  503  502  0.13319451167E+02 -0.24419428811E+02  0.66562784268E+02  0.72140976791E+02  0.00000000000E+00 0.  1.
          1    1    1    2  501    0 -0.32878272371E+02  0.34714349168E+02  0.49351817785E+02  0.68714399881E+02  0.00000000000E+00 0. -1.
<scales pt_clust_5="13000.00000" pt_clust_6="13000.00000" pt_clust_7="13000.00000" pt_clust_8="13000.00000" pt_clust_9="27.81576" pt_clust_10="44.64076"></scales>
<clustering>
<clus scale="   27.816">  1  9  2 -1</clus>
<clus scale="   44.641">  1 10  2 -1</clus>
<clus scale="   79.885">  5  6 -1 -1</clus>
<clus scale="   90.762">  7  8 -1 -1</clus>
<clus scale="  193.928">  2  5  1 -1</clus>
<clus scale="   27.816">  1  5  2 -1</clus>
</clustering>
</event>
<event>
10    4  0.1493441E-004  0.2852358E+03  0.7546771E-02  0.1141011E+00
         21   -1    0    0  501  502  0.00000000000E+00  0.00000000000E+00  0.91632730542E+02  0.91632730542E+02  0.00000000000E+00 0. -1.
          2   -1    0    0  503    0 -0.00000000000E+00 -0.00000000000E+00 -0.18637833008E+04  0.18637833008E+04  0.00000000000E+00 0. -1.
         24    2    1    2    0    0  0.27383369565E+02 -0.16975574824E+01 -0.34410477424E+03  0.35457464008E+03  0.81008327357E+02 0.  0.
         23    2    1    2    0    0 -0.34928151672E+01  0.25079399895E+03 -0.20659635094E+03  0.33755645145E+03  0.91391881632E+02 0.  0.
        -13    1    3    3    0    0  0.38487537636E+02 -0.75770450439E+01 -0.70472522401E+02  0.80654067340E+02  0.00000000000E+00 0.  1.
         14    1    3    3    0    0 -0.11104168071E+02  0.58794875615E+01 -0.27363225184E+03  0.27392057274E+03  0.00000000000E+00 0. -1.
        -13    1    4    4    0    0 -0.23349091904E+02  0.16798229049E+02 -0.41499604831E+02  0.50493344046E+02  0.00000000000E+00 0.  1.
         13    1    4    4    0    0  0.19856276736E+02  0.23399576990E+03 -0.16509674611E+03  0.28706310740E+03  0.00000000000E+00 0. -1.
         21    1    1    2  503  502 -0.31118699969E+02  0.24782870660E+02 -0.79096066891E+02  0.88536726636E+02  0.00000000000E+00 0.  1.
          1    1    1    2  501    0  0.72281455703E+01 -0.27387931213E+03 -0.11423533782E+04  0.11747482132E+04  0.00000000000E+00 0. -1.
<scales pt_clust_5="13000.00000" pt_clust_6="13000.00000" pt_clust_7="13000.00000" pt_clust_8="13000.00000" pt_clust_9="39.78146" pt_clust_10="270.19814"></scales>
<clustering>
<clus scale="   39.781">  1  9  2 -1</clus>
<clus scale="   81.008">  5  6 -1 -1</clus>
<clus scale="   84.930">  2  5  1 -1</clus>
<clus scale="   91.392">  7  8 -1 -1</clus>
<clus scale="  270.198">  1 10  2 -1</clus>
<clus scale="   39.781">  1  5  2 -1</clus>
</clustering>
</event>
<event>
10    4  0.7697601E-005  0.9372747E+02  0.7546771E-02  0.1300313E+00
          2   -1    0    0  502    0 -0.00000000000E+00  0.00000000000E+00  0.54569934397E+03  0.54569934397E+03  0.00000000000E+00 0. -1.
         21   -1    0    0  503  502  0.00000000000E+00 -0.00000000000E+00 -0.15409892464E+03  0.15409892464E+03  0.00000000000E+00 0. -1.
         24    2    1    2    0    0  0.10783393008E+02  0.22904793912E+02  0.46245629607E+03  0.47002824358E+03  0.80123734512E+02 0.  0.
         23    2    1    2    0    0 -0.24892109051E+02  0.49280865561E+02 -0.91308021222E+02  0.14006789722E+03  0.90739408680E+02 0.  0.
        -11    1    3    3    0    0 -0.25701331583E+02 -0.12683659874E+02  0.10069927761E+03  0.10469851090E+03  0.00000000000E+00 0.  1.
         12    1    3    3    0    0  0.36484724592E+02  0.35588453786E+02  0.36175701846E+03  0.36532973268E+03  0.00000000000E+00 0. -1.
        -11    1    4    4    0    0 -0.16589002853E+02 -0.25311828817E+02 -0.18320049610E+02  0.35376657720E+02  0.00000000000E+00 0.  1.
         11    1    4    4    0    0 -0.83031061977E+01  0.74592694378E+02 -0.72987971611E+02  0.10469123950E+03  0.00000000000E+00 0. -1.
         21    1    1    2  503  501  0.14905414872E+02 -0.25221732021E+02 -0.12984937744E+02  0.32045526472E+02  0.00000000000E+00 0. -1.
          1    1    1    2  501    0 -0.79669882921E+00 -0.46963927452E+02  0.33437082219E+02  0.57656601340E+02  0.00000000000E+00 0. -1.
<scales pt_clust_5="13000.00000" pt_clust_6="13000.00000" pt_clust_7="13000.00000" pt_clust_8="13000.00000" pt_clust_9="29.29688" pt_clust_10="49.28848"></scales>
<clustering>
<clus scale="   29.297">  2  9  1 -1</clus>
<clus scale="   49.288">  2 10  1 -1</clus>
<clus scale="   80.124">  5  6 -1 -1</clus>
<clus scale="   83.493">  1  5  2 -1</clus>
<clus scale="   90.739">  7  8 -1 -1</clus>
<clus scale="   29.297">  2  5  1 -1</clus>
</clustering>
</event>
<event>
10    4  0.7697601E-005  0.1088679E+03  0.7546771E-02  0.1271111E+00
         21   -1    0    0  501  502  0.00000000000E+00  0.00000000000E+00  0.47635645438E+02  0.47635645438E+02  0.00000000000E+00 0.  1.
          2   -1    0    0  503    0 -0.00000000000E+00 -0.00000000000E+00 -0.58808318711E+03  0.58808318711E+03  0.00000000000E+00 0. -1.
         24    2    1    2    0    0  0.10578329847E+02 -0.54649155130E+02 -0.37960941629E+03  0.39003817185E+03  0.70199966849E+02 0.  0.
         23    2    1    2    0    0 -0.26523495611E+02  0.77001821513E+02 -0.12834608042E+03  0.17704644067E+03  0.90774167369E+02 0.  0.
        -13    1    3    3    0    0  0.17996829632E+02 -0.19236580205E+02 -0.36428100760E+02  0.44954848679E+02  0.00000000000E+00 0.  1.
         14    1    3    3    0    0 -0.74184997844E+01 -0.35412574925E+02 -0.34318131553E+03  0.34508332318E+03  0.00000000000E+00 0. -1.
        -11    1    4    4    0    0 -0.26651290182E+02  0.40733141922E+02 -0.13190805868E+03  0.14060304429E+03  0.00000000000E+00 0. -1.
         11    1    4    4    0    0  0.12779457060E+00  0.36268679591E+02  0.35619782651E+01  0.36443396383E+02  0.00000000000E+00 0.  1.
         21    1    1    2  503  502 -0.42532961930E+01 -0.27420208643E+02  0.25567386472E+01  0.27865664949E+02  0.00000000000E+00 0.  1.
          1    1    1    2  501    0  0.20198461957E+02  0.50675422601E+01 -0.35048783613E+02  0.40768555073E+02  0.00000000000E+00 0. -1.
<scales pt_clust_5="13000.00000" pt_clust_6="13000.00000" pt_clust_7="13000.00000" pt_clust_8="13000.00000" pt_clust_9="25.83071" pt_clust_10="20.82446"></scales>
<clustering>
<clus scale="   20.824">  1 10  2 -1</clus>
<clus scale="   25.831">  1  9  2 -1</clus>
<clus scale="   70.200">  5  6 -1 -1</clus>
<clus scale="   90.774">  7  8 -1 -1</clus>
<clus scale="   92.414">  2  5  1 -1</clus>
<clus scale="   20.824">  1  5  2 -1</clus>
</clustering>
</event>
<event>
10    4  0.7697601E-005  0.1420381E+03  0.7546771E-02  0.1212948E+00
         21   -1    0    0  501  502  0.00000000000E+00  0.00000000000E+00  0.80845400396E+02  0.80845400396E+02  0.00000000000E+00 0. -1.
          2   -1    0    0  503    0 -0.00000000000E+00 -0.00000000000E+00 -0.65096420802E+03  0.65096420802E+03  0.00000000000E+00 0. -1.
         24    2    1    2    0    0  0.48637068315E+02  0.11799085058E+03 -0.45019844171E+03  0.47480929582E+03  0.80484937994E+02 0.  0.
         23    2    1    2    0    0 -0.43144072425E+02 -0.21051676231E+02 -0.11433736365E+02  0.10403182463E+03  0.91582237091E+02 0.  0.
        -11    1    3    3    0    0  0.60570938975E+02  0.75826028202E+02 -0.21966837708E+03  0.24015124628E+03  0.00000000000E+00 0.  1.
         12    1    3    3    0    0 -0.11933870660E+02  0.42164822383E+02 -0.23053006464E+03  0.23465804955E+03  0.00000000000E+00 0. -1.
        -13    1    4    4    0    0 -0.38026314232E+02  0.20739697426E+02  0.23539569324E+02  0.49297534901E+02  0.00000000000E+00 0. -1.
         13    1    4    4    0    0 -0.51177581929E+01 -0.41791373657E+02 -0.34973305689E+02  0.54734289727E+02  0.00000000000E+00 0.  1.
         21    1    1    2  503  502 -0.33633237811E+01 -0.62627833099E+02 -0.34963413749E+02  0.71805276453E+02  0.00000000000E+00 0. -1.
          1    1    1    2  501    0 -0.21296721088E+01 -0.34311341254E+02 -0.73523215796E+02  0.81163211512E+02  0.00000000000E+00 0. -1.
<scales pt_clust_5="13000.00000" pt_clust_6="13000.00000" pt_clust_7="13000.00000" pt_clust_8="13000.00000" pt_clust_9="70.93931" pt_clust_10="34.37739"></scales>
<clustering>
<clus scale="   34.377">  1 10  2 -1</clus>
<clus scale="   70.939">  1  9  2 -1</clus>
<clus scale="   80.485">  5  6 -1 -1</clus>
<clus scale="   91.582">  7  8 -1 -1</clus>
<clus scale="  135.149">  2  5  1 -1</clus>
<clus scale="   34.377">  1  5  2 -1</clus>
</clustering>
</event>
<event>
10    4  0.7697601E-005  0.4524842E+03  0.7546771E-02  0.1053497E+00
          2   -1    0    0  502    0 -0.00000000000E+00  0.00000000000E+00  0.33846171228E+04  0.33846171228E+04  0.00000000000E+00 0. -1.
         21   -1    0    0  503  502  0.00000000000E+00 -0.00000000000E+00 -0.11897898729E+03  0.11897898729E+03  0.00000000000E+00 0. -1.
         24    2    1    2    0    0 -0.13359207510E+03  0.13266187287E+03  0.69341081698E+03  0.72290211733E+03  0.79516634115E+02 0.  0.
         23    2    1    2    0    0  0.23696987121E+03 -0.52994173116E+03  0.17717247531E+04  0.18667978209E+04  0.94512143711E+02 0.  0.
        -13    1    3    3    0    0 -0.84011082589E+02  0.12725792236E+03  0.56282373994E+03  0.58311491410E+03  0.00000000000E+00 0.  1.
         14    1    3    3    0    0 -0.49580992512E+02  0.54039505055E+01  0.13058707703E+03  0.13978720323E+03  0.00000000000E+00 0. -1.
        -13    1    4    4    0    0  0.33837744469E+02 -0.42116957648E+02  0.10162576140E+03  0.11509398964E+03  0.00000000000E+00 0.  1.
         13    1    4    4    0    0  0.20313212674E+03 -0.48782477351E+03  0.16700989917E+04  0.17517038313E+04  0.00000000000E+00 0. -1.
         21    1    1    2  503  501 -0.21000480986E+01  0.49459494851E+02  0.19947818932E+02  0.53371971231E+02  0.00000000000E+00 0. -1.
          1    1    1    2  501    0 -0.10127774801E+03  0.34782036344E+03  0.78055474653E+03  0.86052420059E+03  0.00000000000E+00 0. -1.
<scales pt_clust_5="13000.00000" pt_clust_6="13000.00000" pt_clust_7="13000.00000" pt_clust_8="13000.00000" pt_clust_9="49.50406" pt_clust_10="442.50356"></scales>
<clustering>
<clus scale="   49.504">  2  9  1 -1</clus>
<clus scale="   79.517">  5  6 -1 -1</clus>
<clus scale="   94.512">  7  8 -1 -1</clus>
<clus scale="  209.268">  1  5  2 -1</clus>
<clus scale="  442.504">  2 10  1 -1</clus>
<clus scale="   49.504">  2  5  1 -1</clus>
</clustering>
</event>
<event>
10    4  0.7697601E-005  0.1021264E+03  0.7546771E-02  0.1281972E+00
         21   -1    0    0  503  502  0.00000000000E+00  0.00000000000E+00  0.13770744121E+03  0.13770744121E+03  0.00000000000E+00 0.  1.
         -3   -1    0    0    0  501 -0.00000000000E+00 -0.00000000000E+00 -0.42861802371E+03  0.42861802371E+03  0.00000000000E+00 0.  1.
         23    2    1    2    0    0  0.18373315257E+02 -0.67247628780E+02 -0.32307483277E+03  0.34253412486E+03  0.89958083787E+02 0.  0.
         24    2    1    2    0    0 -0.17263551859E+02 -0.23145565377E+02 -0.27831764550E+02  0.86840127503E+02  0.77025016763E+02 0.  0.
        -13    1    4    4    0    0 -0.90078516764E+01 -0.43200337181E+02 -0.42010827170E+02  0.60928811936E+02  0.00000000000E+00 0.  1.
         14    1    4    4    0    0 -0.82557001829E+01  0.20054771804E+02  0.14179062620E+02  0.25911315567E+02  0.00000000000E+00 0. -1.
        -13    1    3    3    0    0 -0.26329779637E+02 -0.16797424100E+02 -0.36034212602E+02  0.47685167819E+02  0.00000000000E+00 0. -1.
         13    1    3    3    0    0  0.44703094894E+02 -0.50450204680E+02 -0.28704062016E+03  0.29484895704E+03  0.00000000000E+00 0.  1.
         21    1    1    2  503  501 -0.36734682421E+02  0.57683768927E+02  0.13191595842E+02  0.69648203789E+02  0.00000000000E+00 0.  1.
         -4    1    1    2    0  502  0.35624919023E+02  0.32709425231E+02  0.46804418976E+02  0.67303008773E+02  0.00000000000E+00 0.  1.
<scales pt_clust_5="13000.00000" pt_clust_6="13000.00000" pt_clust_7="13000.00000" pt_clust_8="13000.00000" pt_clust_9="76.73035" pt_clust_10="48.36364"></scales>
<clustering>
<clus scale="   48.364">  1 10  2 -1</clus>
<clus scale="   76.730">  1  9  2 -1</clus>
<clus scale="   77.025">  5  6 -1 -1</clus>
<clus scale="   89.958">  7  8 -1 -1</clus>
<clus scale="   90.941">  1  5  2 -1</clus>
<clus scale="   48.364">  1  5  2 -1</clus>
</clustering>
</event>
<event>
10    4  0.7697601E-005  0.1166915E+03  0.7546771E-02  0.1253099E+00
         21   -1    0    0  501  502  0.00000000000E+00  0.00000000000E+00  0.12552135296E+03  0.12552135296E+03  0.00000000000E+00 0. -1.
         -1   -1    0    0    0  501 -0.00000000000E+00 -0.00000000000E+00 -0.44118952796E+03  0.44118952796E+03  0.00000000000E+00 0.  1.
         23    2    1    2    0    0 -0.20871345555E+02  0.66778201597E+02 -0.31392500851E+03  0.33458762114E+03  0.92222686901E+02 0.  0.
         24    2    1    2    0    0 -0.55218033190E+02 -0.94112246942E+02 -0.18602391833E+02  0.13618248292E+03  0.79331415332E+02 0.  0.
        -11    1    4    4    0    0 -0.51965312653E+02 -0.67964620246E+02 -0.46859138810E+02  0.97546718111E+02  0.00000000000E+00 0.  1.
         12    1    4    4    0    0 -0.32527205378E+01 -0.26147626697E+02  0.28256746976E+02  0.38635764810E+02  0.00000000000E+00 0. -1.
        -13    1    3    3    0    0 -0.52213409031E+02  0.20031025969E+02 -0.19762024007E+03  0.20538072297E+03  0.00000000000E+00 0.  1.
         13    1    3    3    0    0  0.31342063477E+02  0.46747175628E+02 -0.11630476845E+03  0.12920689817E+03  0.00000000000E+00 0. -1.
         21    1    1    2  503  502  0.19030110249E+02  0.14944520963E+02  0.27457558315E+02  0.36597832061E+02  0.00000000000E+00 0. -1.
         -2    1    1    2    0  503  0.57059268496E+02  0.12389524382E+02 -0.10598332970E+02  0.59342944799E+02  0.00000000000E+00 0.  1.
<scales pt_clust_5="13000.00000" pt_clust_6="13000.00000" pt_clust_7="13000.00000" pt_clust_8="13000.00000" pt_clust_9="24.19677" pt_clust_10="64.12259"></scales>
<clustering>
<clus scale="   24.197">  1  9  2 -1</clus>
<clus scale="   64.123">  1 10  2 -1</clus>
<clus scale="   79.331">  5  6 -1 -1</clus>
<clus scale="   92.223">  7  8 -1 -1</clus>
<clus scale="  106.796">  1  5  2 -1</clus>
<clus scale="   24.197">  1  5  2 -1</clus>
</clustering>
</event>
<event>
10    4  0.7697601E-005  0.2647611E+03  0.7546771E-02  0.1134362E+00
         21   -1    0    0  503  502  0.00000000000E+00  0.00000000000E+00  0.75506497481E+02  0.75506497481E+02  0.00000000000E+00 0. -1.
          2   -1    0    0  502    0 -0.00000000000E+00 -0.00000000000E+00 -0.19996219233E+04  0.19996219233E+04  0.00000000000E+00 0. -1.
         24    2    1    2    0    0 -0.31209571211E+02  0.94177303546E+02 -0.17482405407E+03  0.21688285043E+03  0.81432911579E+02 0.  0.
         23    2    1    2    0    0  0.27182098310E+03 -0.81561793552E+02 -0.62100462427E+03  0.68892271027E+03  0.91808411100E+02 0.  0.
        -11    1    3    3    0    0 -0.26998902565E+02  0.10806254705E+03 -0.13826046913E+03  0.17754552132E+03  0.00000000000E+00 0.  1.
         12    1    3    3    0    0 -0.42106686462E+01 -0.13885243508E+02 -0.36563584939E+02  0.39337329108E+02  0.00000000000E+00 0. -1.
        -13    1    4    4    0    0  0.14031068787E+03 -0.89438840709E+02 -0.33620869414E+03  0.37513021922E+03  0.00000000000E+00 0.  1.
         13    1    4    4    0    0  0.13151029524E+03  0.78770471576E+01 -0.28479593013E+03  0.31379249106E+03  0.00000000000E+00 0. -1.
         21    1    1    2  503  501 -0.34220846721E+02 -0.29776165763E+02 -0.36942372679E+02  0.58501498245E+02  0.00000000000E+00 0. -1.
          1    1    1    2  501    0 -0.20639056517E+03  0.17160655769E+02 -0.10913443748E+04  0.11108213618E+04  0.00000000000E+00 0. -1.
<scales pt_clust_5="13000.00000" pt_clust_6="13000.00000" pt_clust_7="13000.00000" pt_clust_8="13000.00000" pt_clust_9="45.36173" pt_clust_10="248.33383"></scales>
<clustering>
<clus scale="   45.362">  1  9  2 -1</clus>
<clus scale="   81.433">  5  6 -1 -1</clus>
<clus scale="   91.808">  7  8 -1 -1</clus>
<clus scale="  124.755">  2  5  1 -1</clus>
<clus scale="  248.334">  1 10  2 -1</clus>
<clus scale="   45.362">  1  5  2 -1</clus>
</clustering>
</event>
<event>
10    4  0.7697601E-005  0.1597405E+03  0.7546771E-02  0.1190589E+00
         21   -1    0    0  501  502  0.00000000000E+00  0.00000000000E+00  0.74479739845E+02  0.74479739845E+02  0.00000000000E+00 0. -1.
          2   -1    0    0  503    0 -0.00000000000E+00 -0.00000000000E+00 -0.70009811339E+03  0.70009811339E+03  0.00000000000E+00 0. -1.
         23    2    1    2    0    0  0.66151294920E+02 -0.11178090184E+03 -0.37391172650E+03  0.40197599475E+03  0.70026832755E+02 0.  0.
         24    2    1    2    0    0 -0.90016075633E+02  0.13728508466E+03 -0.11815356953E+03  0.21807134490E+03  0.81515379722E+02 0.  0.
        -11    1    4    4    0    0 -0.34708793768E+02  0.94995873253E+01 -0.83446393556E+00  0.35994983737E+02  0.00000000000E+00 0.  1.
         12    1    4    4    0    0 -0.55307281865E+02  0.12778549734E+03 -0.11731910560E+03  0.18207636117E+03  0.00000000000E+00 0. -1.
        -13    1    3    3    0    0  0.34953479255E+02 -0.43108366446E+02 -0.25641696766E+03  0.26235422290E+03  0.00000000000E+00 0.  1.
         13    1    3    3    0    0  0.31197815664E+02 -0.68672535396E+02 -0.11749475884E+03  0.13962177185E+03  0.00000000000E+00 0. -1.
         21    1    1    2  503  502  0.21476076811E+02  0.94076266109E+00 -0.34819599799E+01  0.21776844465E+02  0.00000000000E+00 0. -1.
          1    1    1    2  501    0  0.23887039031E+01 -0.26444945482E+02 -0.13007111753E+03  0.13275366911E+03  0.00000000000E+00 0. -1.
<scales pt_clust_5="13000.00000" pt_clust_6="13000.00000" pt_clust_7="13000.00000" pt_clust_8="13000.00000" pt_clust_9="21.49667" pt_clust_10="26.57671"></scales>
<clustering>
<clus scale="   21.497">  1  9  2 -1</clus>
<clus scale="   26.577">  1 10  2 -1</clus>
<clus scale="   70.027">  7  8 -1 -1</clus>
<clus scale="   81.515">  5  6 -1 -1</clus>
<clus scale="  154.195">  2  7  1 -1</clus>
<clus scale="   21.497">  1  5  2 -1</clus>
</clustering>
</event>
<event>
10    4  0.7697601E-005  0.9126003E+02  0.7546771E-02  0.1305337E+00
         21   -1    0    0  503  502  0.00000000000E+00  0.00000000000E+00  0.28323569746E+03  0.28323569746E+03  0.00000000000E+00 0. -1.
          2   -1    0    0  502    0 -0.00000000000E+00 -0.00000000000E+00 -0.21431257645E+03  0.21431257645E+03  0.00000000000E+00 0. -1.
         23    2    1    2    0    0  0.12456377301E+02 -0.46238025048E+02 -0.12217838754E+03  0.15905804980E+03  0.89882081232E+02 0.  0.
         24    2    1    2    0    0  0.12549841041E+02 -0.40339576659E+02 -0.29238031811E+02  0.95882056666E+02  0.80955088358E+02 0.  0.
        -13    1    4    4    0    0 -0.20055974025E+02 -0.37815619280E+02  0.10838176513E+02  0.44155738310E+02  0.00000000000E+00 0.  1.
         14    1    4    4    0    0  0.32605815066E+02 -0.25239573797E+01 -0.40076208324E+02  0.51726318356E+02  0.00000000000E+00 0. -1.
        -13    1    3    3    0    0  0.18565239092E+02  0.24095815873E+02 -0.46468810273E+02  0.55539416394E+02  0.00000000000E+00 0. -1.
         13    1    3    3    0    0 -0.61088617908E+01 -0.70333840922E+02 -0.75709577270E+02  0.10351863340E+03  0.00000000000E+00 0.  1.
         21    1    1    2  503  501 -0.12167922523E+02  0.34592465537E+02  0.14877914088E+03  0.15323162132E+03  0.00000000000E+00 0. -1.
          1    1    1    2  501    0 -0.12838295819E+02  0.51985136171E+02  0.71560399487E+02  0.89376546124E+02  0.00000000000E+00 0. -1.
<scales pt_clust_5="13000.00000" pt_clust_6="13000.00000" pt_clust_7="13000.00000" pt_clust_8="13000.00000" pt_clust_9="36.67011" pt_clust_10="75.78973"></scales>
<clustering>
<clus scale="   36.670">  1  9  2 -1</clus>
<clus scale="   75.790">  1 10  2 -1</clus>
<clus scale="   80.955">  5  6 -1 -1</clus>
<clus scale="   82.482">  1  5  2 -1</clus>
<clus scale="   89.882">  7  8 -1 -1</clus>
<clus scale="   36.670">  1  5  2 -1</clus>
</clustering>
</event>
<event>
10    4  0.7697601E-005  0.2480780E+03  0.7546771E-02  0.1140400E+00
         21   -1    0    0  501  502  0.00000000000E+00  0.00000000000E+00  0.51880021981E+03  0.51880021981E+03  0.00000000000E+00 0.  1.
         -1   -1    0    0    0  501 -0.00000000000E+00 -0.00000000000E+00 -0.60724150406E+03  0.60724150406E+03  0.00000000000E+00 0.  1.
         23    2    1    2    0    0 -0.68040543771E+02  0.62698362557E+02 -0.93524246707E+02  0.16096784366E+03  0.92753769239E+02 0.  0.
         24    2    1    2    0    0 -0.21025558623E+03 -0.23137995452E+03 -0.52497344875E+02  0.32706251597E+03  0.80435211461E+02 0.  0.
        -13    1    4    4    0    0 -0.13050516235E+03 -0.16487300794E+03  0.94428225235E+00  0.21027505277E+03  0.00000000000E+00 0.  1.
         14    1    4    4    0    0 -0.79750423884E+02 -0.66506946573E+02 -0.53441627127E+02  0.11678746321E+03  0.00000000000E+00 0. -1.
        -11    1    3    3    0    0 -0.81585992930E+02  0.43373447838E+02 -0.36668373311E+02  0.99408751230E+02  0.00000000000E+00 0.  1.
         11    1    3    3    0    0  0.13545449159E+02  0.19324914718E+02 -0.56855873396E+02  0.61559092435E+02  0.00000000000E+00 0. -1.
         21    1    1    2  503  502  0.16267220593E+03  0.10013055980E+02  0.29067776826E+03  0.33325076569E+03  0.00000000000E+00 0.  1.
         -2    1    1    2    0  503  0.11562392408E+03  0.15866853598E+03 -0.23309746093E+03  0.30476059854E+03  0.00000000000E+00 0.  1.
<scales pt_clust_5="13000.00000" pt_clust_6="13000.00000" pt_clust_7="13000.00000" pt_clust_8="13000.00000" pt_clust_9="160.16656" pt_clust_10="234.67620"></scales>
<clustering>
<clus scale="   80.435">  5  6 -1 -1</clus>
<clus scale="   92.754">  7  8 -1 -1</clus>
<clus scale="  131.011">  2  7  1 -1</clus>
<clus scale="  160.167">  1  9  2 -1</clus>
<clus scale="  234.676">  1 10  2 -1</clus>
<clus scale="  160.167">  1  5  2 -1</clus>
</clustering>
</event>
<event>
10    4  0.7697601E-005  0.2203450E+03  0.7546771E-02  0.1134409E+00
         21   -1    0    0  503  502  0.00000000000E+00  0.00000000000E+00  0.12078402820E+03  0.12078402820E+03  0.00000000000E+00 0. -1.
          2   -1    0    0  502    0 -0.00000000000E+00 -0.00000000000E+00 -0.74029019736E+03  0.74029019736E+03  0.00000000000E+00 0. -1.
         23    2    1    2    0    0  0.16598238094E+03  0.14012354200E+03 -0.37787514243E+03  0.44514659724E+03  0.90449499491E+02 0.  0.
         24    2    1    2    0    0 -0.12083635399E+03 -0.11413811465E+03 -0.45953004254E+02  0.19000934662E+03  0.79768035842E+02 0.  0.
        -11    1    4    4    0    0 -0.26777741896E+02 -0.60265083815E+02 -0.48049738046E+02  0.81594761563E+02  0.00000000000E+00 0.  1.
         12    1    4    4    0    0 -0.94058612098E+02 -0.53873030831E+02  0.20967337921E+01  0.10841458506E+03  0.00000000000E+00 0. -1.
        -11    1    3    3    0    0  0.55484527040E+02  0.70715464558E+01 -0.14231271550E+03  0.15290993592E+03  0.00000000000E+00 0.  1.
         11    1    3    3    0    0  0.11049785390E+03  0.13305199555E+03 -0.23556242693E+03  0.29223666131E+03  0.00000000000E+00 0. -1.
         21    1    1    2  503  501  0.13692277815E+02  0.15375694560E+02 -0.37106252047E+01  0.20920305790E+02  0.00000000000E+00 0. -1.
          1    1    1    2  501    0 -0.58838304757E+02 -0.41361121916E+02 -0.19196739727E+03  0.20499797591E+03  0.00000000000E+00 0. -1.
<scales pt_clust_5="13000.00000" pt_clust_6="13000.00000" pt_clust_7="13000.00000" pt_clust_8="13000.00000" pt_clust_9="20.58860" pt_clust_10="70.75783"></scales>
<clustering>
<clus scale="   20.589">  1  9  2 -1</clus>
<clus scale="   70.758">  1 10  2 -1</clus>
<clus scale="   79.768">  5  6 -1 -1</clus>
<clus scale="   90.449">  7  8 -1 -1</clus>
<clus scale="  216.180">  1  5  2 -1</clus>
<clus scale="   20.589">  1  5  2 -1</clus>
</clustering>
</event>
<event>
10    4  0.7697601E-005  0.1320154E+03  0.7546771E-02  0.1227032E+00
         -1   -1    0    0    0  501 -0.00000000000E+00  0.00000000000E+00  0.43277167398E+03  0.43277167398E+03  0.00000000000E+00 0.  1.
         21   -1    0    0  501  502  0.00000000000E+00 -0.00000000000E+00 -0.29027045260E+03  0.29027045260E+03  0.00000000000E+00 0. -1.
         23    2    1    2    0    0 -0.50577049221E+02  0.73377850672E+02  0.33073774735E+03  0.35428359853E+03  0.90482394889E+02 0.  0.
         24    2    1    2    0    0  0.91135351648E+02 -0.11728109399E+03 -0.63764335024E+01  0.16894835474E+03  0.80264440052E+02 0.  0.
        -11    1    4    4    0    0  0.74836897201E+02 -0.33020538713E+02  0.69698404393E+01  0.82094432426E+02  0.00000000000E+00 0.  1.
         12    1    4    4    0    0  0.16298454447E+02 -0.84260555275E+02 -0.13346273942E+02  0.86853922311E+02  0.00000000000E+00 0. -1.
        -13    1    3    3    0    0  0.29342449873E+01  0.73405169280E+02  0.19491880697E+03  0.20830331246E+03  0.00000000000E+00 0. -1.
         13    1    3    3    0    0 -0.53511294209E+02 -0.27318608448E-01  0.13581894038E+03  0.14598028607E+03  0.00000000000E+00 0.  1.
         21    1    1    2  503  502 -0.15941723978E+02  0.19768893542E+02 -0.15228633712E+03  0.15438936553E+03  0.00000000000E+00 0. -1.
         -2    1    1    2    0  503 -0.24616578449E+02  0.24134349774E+02 -0.29573755356E+02  0.45420807780E+02  0.00000000000E+00 0.  1.
<scales pt_clust_5="13000.00000" pt_clust_6="13000.00000" pt_clust_7="13000.00000" pt_clust_8="13000.00000" pt_clust_9="25.39582" pt_clust_10="41.38878"></scales>
<clustering>
<clus scale="   25.396">  2  9  1 -1</clus>
<clus scale="   41.389">  2 10  1 -1</clus>
<clus scale="   80.264">  5  6 -1 -1</clus>
<clus scale="   90.482">  7  8 -1 -1</clus>
<clus scale="  125.233">  2  5  1 -1</clus>
<clus scale="   25.396">  2  5  1 -1</clus>
</clustering>
</event>
<event>
10    4  0.9290609E-005  0.3465535E+03  0.7546771E-02  0.1100528E+00
         21   -1    0    0  503  502  0.00000000000E+00  0.00000000000E+00  0.97390507773E+03  0.97390507773E+03  0.00000000000E+00 0. -1.
          2   -1    0    0  502    0 -0.00000000000E+00 -0.00000000000E+00 -0.20850222588E+03  0.20850222588E+03  0.00000000000E+00 0. -1.
         23    2    1    2    0    0  0.27225777836E+02  0.88435703053E+02  0.35863406529E+02  0.13427935671E+03  0.90457974540E+02 0.  0.
         24    2    1    2    0    0 -0.55447149137E+02 -0.37878275003E+03  0.55580049572E+03  0.67923057444E+03  0.76741280618E+02 0.  0.
        -11    1    4    4    0    0 -0.27570156632E+02 -0.49243378738E+02  0.11559638595E+03  0.12863727427E+03  0.00000000000E+00 0.  1.
         12    1    4    4    0    0 -0.27876992505E+02 -0.32953937129E+03  0.44020410977E+03  0.55059330017E+03  0.00000000000E+00 0. -1.
        -13    1    3    3    0    0  0.53677264617E+02  0.22465470280E+02  0.13074670892E+02  0.59639694086E+02  0.00000000000E+00 0.  1.
         13    1    3    3    0    0 -0.26451486782E+02  0.65970232772E+02  0.22788735637E+02  0.74639662626E+02  0.00000000000E+00 0. -1.
         21    1    1    2  503  501 -0.15421718920E+02  0.16862530657E+02  0.69206103136E+02  0.72881129697E+02  0.00000000000E+00 0.  1.
          1    1    1    2  501    0  0.43643090221E+02  0.27348451632E+03  0.10453284647E+03  0.29601624276E+03  0.00000000000E+00 0. -1.
<scales pt_clust_5="13000.00000" pt_clust_6="13000.00000" pt_clust_7="13000.00000" pt_clust_8="13000.00000" pt_clust_9="22.85113" pt_clust_10="337.95002"></scales>
<clustering>
<clus scale="   22.851">  1  9  2 -1</clus>
<clus scale="   76.741">  5  6 -1 -1</clus>
<clus scale="   90.458">  7  8 -1 -1</clus>
<clus scale="  130.197">  2  7  1 -1</clus>
<clus scale="  337.950">  1 10  2 -1</clus>
<clus scale="   22.851">  1  5  2 -1</clus>
</clustering>
</event>
<event>
10    4  0.7697601E-005  0.1573310E+03  0.7546771E-02  0.1193485E+00
          2   -1    0    0  502    0 -0.00000000000E+00  0.00000000000E+00  0.82060444921E+03  0.82060444921E+03  0.00000000000E+00 0. -1.
         21   -1    0    0  503  502  0.00000000000E+00 -0.00000000000E+00 -0.50518320688E+02  0.50518320688E+02  0.00000000000E+00 0. -1.
         23    2    1    2    0    0  0.32282241559E+02  0.13139903175E+03  0.48524257647E+03  0.51206755491E+03  0.91896540273E+02 0.  0.
         24    2    1    2    0    0 -0.60366972423E+02 -0.98024591720E+02  0.14067886717E+03  0.19915518465E+03  0.81358785422E+02 0.  0.
        -13    1    4    4    0    0 -0.24573265825E+02 -0.50466418599E+02  0.12586887098E+03  0.13781755143E+03  0.00000000000E+00 0.  1.
         14    1    4    4    0    0 -0.35793706599E+02 -0.47558173121E+02  0.14809996187E+02  0.61337633225E+02  0.00000000000E+00 0. -1.
        -11    1    3    3    0    0  0.53038318620E+02  0.12105578420E+03  0.45587964614E+03  0.47465125923E+03  0.00000000000E+00 0. -1.
         11    1    3    3    0    0 -0.20756077061E+02  0.10343247548E+02  0.29362930331E+02  0.37416295680E+02  0.00000000000E+00 0.  1.
         21    1    1    2  503  501  0.23199315909E+02 -0.10049866806E+01  0.17509490327E+02  0.29082649611E+02  0.00000000000E+00 0. -1.
          1    1    1    2  501    0  0.48854149555E+01 -0.32369453348E+02  0.12665519456E+03  0.13081738072E+03  0.00000000000E+00 0. -1.
<scales pt_clust_5="13000.00000" pt_clust_6="13000.00000" pt_clust_7="13000.00000" pt_clust_8="13000.00000" pt_clust_9="23.22107" pt_clust_10="32.96043"></scales>
<clustering>
<clus scale="   23.221">  2  9  1 -1</clus>
<clus scale="   32.960">  2 10  1 -1</clus>
<clus scale="   81.359">  5  6 -1 -1</clus>
<clus scale="   91.897">  7  8 -1 -1</clus>
<clus scale="  151.418">  2  5  1 -1</clus>
<clus scale="   23.221">  2  5  1 -1</clus>
</clustering>
</event>
<event>
10    4  0.7697601E-005  0.1489789E+03  0.7546771E-02  0.1220348E+00
          2   -1    0    0  503    0 -0.00000000000E+00  0.00000000000E+00  0.51221693521E+03  0.51221693521E+03  0.00000000000E+00 0. -1.
         21   -1    0    0  501  502  0.00000000000E+00 -0.00000000000E+00 -0.13418861891E+03  0.13418861891E+03  0.00000000000E+00 0. -1.
         23    2    1    2    0    0  0.38646022797E+02 -0.20360185448E+02 -0.17845212129E+02  0.10244231752E+03  0.90928128728E+02 0.  0.
         24    2    1    2    0    0  0.56334553461E+02  0.89861594299E+02  0.33258505148E+03  0.35845605869E+03  0.81420154119E+02 0.  0.
        -13    1    4    4    0    0 -0.16037602192E+02  0.32828819099E+02  0.55458210174E+02  0.66411965211E+02  0.00000000000E+00 0.  1.
         14    1    4    4    0    0  0.72372155653E+02  0.57032775200E+02  0.27712684131E+03  0.29204409348E+03  0.00000000000E+00 0. -1.
        -11    1    3    3    0    0  0.59265647842E+02 -0.40389289292E+02 -0.16883814567E+02  0.73680220535E+02  0.00000000000E+00 0. -1.
         11    1    3    3    0    0 -0.20619625046E+02  0.20029103845E+02 -0.96139756138E+00  0.28762096987E+02  0.00000000000E+00 0.  1.
         21    1    1    2  503  502  0.54256146666E+01  0.25730129402E+02 -0.10928636045E+02  0.28476515577E+02  0.00000000000E+00 0. -1.
          1    1    1    2  501    0 -0.10040619092E+03 -0.95231538253E+02  0.74217112990E+02  0.15703066234E+03  0.00000000000E+00 0. -1.
<scales pt_clust_5="13000.00000" pt_clust_6="13000.00000" pt_clust_7="13000.00000" pt_clust_8="13000.00000" pt_clust_9="26.29595" pt_clust_10="124.76163"></scales>
<clustering>
<clus scale="   26.296">  2  9  1 -1</clus>
<clus scale="   81.420">  5  6 -1 -1</clus>
<clus scale="   90.928">  7  8 -1 -1</clus>
<clus scale="  100.183">  1  7  2 -1</clus>
<clus scale="  124.762">  2 10  1 -1</clus>
<clus scale="   26.296">  2  5  1 -1</clus>
</clustering>
</event>
<event>
10    4  0.7697601E-005  0.1509942E+03  0.7546771E-02  0.1201336E+00
          2   -1    0    0  502    0 -0.00000000000E+00  0.00000000000E+00  0.16148047748E+03  0.16148047748E+03  0.00000000000E+00 0. -1.
         21   -1    0    0  503  502  0.00000000000E+00 -0.00000000000E+00 -0.30328042278E+03  0.30328042278E+03  0.00000000000E+00 0. -1.
         24    2    1    2    0    0  0.79057585368E+02 -0.10471088352E+03  0.75585776699E+02  0.17111028598E+03  0.79693471501E+02 0.  0.
         23    2    1    2    0    0 -0.64398500909E+02  0.56715509837E+02 -0.13328726419E+03  0.18288915955E+03  0.91209286320E+02 0.  0.
        -11    1    3    3    0    0  0.21091584781E+01 -0.36622372150E+02 -0.92885791438E+01  0.37840776867E+02  0.00000000000E+00 0.  1.
         12    1    3    3    0    0  0.76948426890E+02 -0.68088511365E+02  0.84874355843E+02  0.13326950912E+03  0.00000000000E+00 0. -1.
        -11    1    4    4    0    0 -0.36244054024E+02  0.68216400568E+02 -0.13139225047E+03  0.15241729640E+03  0.00000000000E+00 0.  1.
         11    1    4    4    0    0 -0.28154446885E+02 -0.11500890731E+02 -0.18950137215E+01  0.30471863153E+02  0.00000000000E+00 0. -1.
         21    1    1    2  503  501  0.18238081143E+02  0.84378268732E+01 -0.17826820133E+02  0.26862986471E+02  0.00000000000E+00 0. -1.
          1    1    1    2  501    0 -0.32897165601E+02  0.39557546805E+02 -0.66271637682E+02  0.83898468251E+02  0.00000000000E+00 0. -1.
<scales pt_clust_5="13000.00000" pt_clust_6="13000.00000" pt_clust_7="13000.00000" pt_clust_8="13000.00000" pt_clust_9="20.09539" pt_clust_10="50.33463"></scales>
<clustering>
<clus scale="   20.095">  2  9  1 -1</clus>
<clus scale="   50.335">  2 10  1 -1</clus>
<clus scale="   79.693">  5  6 -1 -1</clus>
<clus scale="   91.209">  7  8 -1 -1</clus>
<clus scale="  144.330">  1  5  2 -1</clus>
<clus scale="   20.095">  2  5  1 -1</clus>
</clustering>
</event>
<event>
10    4  0.7697601E-005  0.9636008E+02  0.7546771E-02  0.1293485E+00
         21   -1    0    0  501  502  0.00000000000E+00  0.00000000000E+00  0.64480362473E+02  0.64480362473E+02  0.00000000000E+00 0.  1.
          4   -1    0    0  503    0 -0.00000000000E+00 -0.00000000000E+00 -0.93483582224E+03  0.93483582224E+03  0.00000000000E+00 0. -1.
         24    2    1    2    0    0  0.22122829263E+02  0.17738881439E+02 -0.52028293823E+03  0.52774274481E+03  0.83749515793E+02 0.  0.
         23    2    1    2    0    0  0.44521012372E+02 -0.42090842804E+02 -0.22203294942E+03  0.24849256722E+03  0.93253234480E+02 0.  0.
        -13    1    3    3    0    0 -0.22151003551E+02  0.17186157667E+02 -0.71803312298E+02  0.77082725890E+02  0.00000000000E+00 0.  1.
         14    1    3    3    0    0  0.44273832814E+02  0.55272377207E+00 -0.44847962593E+03  0.45066001892E+03  0.00000000000E+00 0. -1.
        -13    1    4    4    0    0  0.36741261351E+02  0.24613434756E+02 -0.80980527183E+02  0.92269102299E+02  0.00000000000E+00 0. -1.
         13    1    4    4    0    0  0.77797510211E+01 -0.66704277559E+02 -0.14105242224E+03  0.15622346492E+03  0.00000000000E+00 0.  1.
         21    1    1    2  503  502 -0.38752451020E+02  0.94185890900E+01  0.37381757138E+02  0.54661303015E+02  0.00000000000E+00 0.  1.
          3    1    1    2  501    0 -0.27891390615E+02  0.14933372275E+02 -0.16542132925E+03  0.16841956968E+03  0.00000000000E+00 0. -1.
<scales pt_clust_5="13000.00000" pt_clust_6="13000.00000" pt_clust_7="13000.00000" pt_clust_8="13000.00000" pt_clust_9="62.53056" pt_clust_10="31.63758"></scales>
<clustering>
<clus scale="   31.638">  1 10  2 -1</clus>
<clus scale="   62.531">  1  9  2 -1</clus>
<clus scale="   83.750">  5  6 -1 -1</clus>
<clus scale="   87.196">  2  5  1 -1</clus>
<clus scale="   93.253">  7  8 -1 -1</clus>
<clus scale="   31.638">  1  5  2 -1</clus>
</clustering>
</event>
<event>
10    4  0.7697601E-005  0.1646582E+03  0.7546771E-02  0.1185213E+00
          2   -1    0    0  503    0 -0.00000000000E+00  0.00000000000E+00  0.14483389773E+04  0.14483389773E+04  0.00000000000E+00 0. -1.
         21   -1    0    0  501  502  0.00000000000E+00 -0.00000000000E+00 -0.14031818193E+03  0.14031818193E+03  0.00000000000E+00 0. -1.
         24    2    1    2    0    0  0.99912167962E+02  0.10649921657E+03  0.10860759684E+04  0.10987436077E+04  0.79699323033E+02 0.  0.
         23    2    1    2    0    0 -0.64059810580E+02  0.19507328614E+01 -0.20563311885E+02  0.11330016162E+03  0.91140617388E+02 0.  0.
        -13    1    3    3    0    0  0.37361773537E+02  0.67238923813E+01  0.12959685269E+03  0.13504242695E+03  0.00000000000E+00 0.  1.
         14    1    3    3    0    0  0.62550394425E+02  0.99775324192E+02  0.95647911566E+03  0.96370118079E+03  0.00000000000E+00 0. -1.
        -13    1    4    4    0    0 -0.49063353238E+02 -0.12960736527E+02  0.29679214302E+02  0.58788171292E+02  0.00000000000E+00 0.  1.
         13    1    4    4    0    0 -0.14996457341E+02  0.14911469388E+02 -0.50242526187E+02  0.54511990330E+02  0.00000000000E+00 0. -1.
         21    1    1    2  503  502 -0.67162308175E+02  0.30054739446E+02 -0.21657261121E+02  0.76701368709E+02  0.00000000000E+00 0. -1.
          1    1    1    2  501    0  0.31309950793E+02 -0.13850468888E+03  0.26416540000E+03  0.29991202113E+03  0.00000000000E+00 0. -1.
<scales pt_clust_5="13000.00000" pt_clust_6="13000.00000" pt_clust_7="13000.00000" pt_clust_8="13000.00000" pt_clust_9="73.58032" pt_clust_10="133.84540"></scales>
<clustering>
<clus scale="   73.580">  2  9  1 -1</clus>
<clus scale="   79.699">  5  6 -1 -1</clus>
<clus scale="   91.141">  7  8 -1 -1</clus>
<clus scale="  133.845">  2 10  1 -1</clus>
<clus scale="  158.612">  1  5  2 -1</clus>
<clus scale="   73.580">  2  5  1 -1</clus>
</clustering>
</event>
<event>
10    4  0.7697601E-005  0.1191399E+03  0.7546771E-02  0.1253906E+00
         21   -1    0    0  501  502  0.00000000000E+00  0.00000000000E+00  0.12152841231E+03  0.12152841231E+03  0.00000000000E+00 0. -1.
          2   -1    0    0  503    0 -0.00000000000E+00 -0.00000000000E+00 -0.56365708600E+03  0.56365708600E+03  0.00000000000E+00 0. -1.
         24    2    1    2    0    0 -0.45704155051E+02  0.55394985505E+02 -0.15382683124E+03  0.18727994037E+03  0.79079756246E+02 0.  0.
         23    2    1    2    0    0 -0.48846360831E+02  0.86315943914E+02 -0.62683795457E+02  0.14788930209E+03  0.90030985334E+02 0.  0.
        -13    1    3    3    0    0 -0.66600127810E+02  0.27710751759E+02 -0.10447724313E+03  0.12696045494E+03  0.00000000000E+00 0.  1.
         14    1    3    3    0    0  0.20895972759E+02  0.27684233746E+02 -0.49349588108E+02  0.60319485426E+02  0.00000000000E+00 0. -1.
        -11    1    4    4    0    0  0.22581879599E+02  0.47190998897E+02 -0.28382273662E+02  0.59518779569E+02  0.00000000000E+00 0.  1.
         11    1    4    4    0    0 -0.71428240431E+02  0.39124945018E+02 -0.34301521794E+02  0.88370522523E+02  0.00000000000E+00 0. -1.
         21    1    1    2  503  502  0.91604251513E+01 -0.65893855867E+02  0.27766321881E+02  0.72089404636E+02  0.00000000000E+00 0. -1.
          1    1    1    2  501    0  0.85390090731E+02 -0.75817073553E+02 -0.25338436888E+03  0.27792685122E+03  0.00000000000E+00 0. -1.
<scales pt_clust_5="13000.00000" pt_clust_6="13000.00000" pt_clust_7="13000.00000" pt_clust_8="13000.00000" pt_clust_9="66.52754" pt_clust_10="78.03036"></scales>
<clustering>
<clus scale="   66.528">  1  9  2 -1</clus>
<clus scale="   79.080">  5  6 -1 -1</clus>
<clus scale="   90.031">  7  8 -1 -1</clus>
<clus scale="   98.750">  2  5  1 -1</clus>
<clus scale="   78.030">  1 10  2 -1</clus>
<clus scale="   66.528">  1  5  2 -1</clus>
</clustering>
</event>
<event>
10    4  0.7697601E-005  0.1089145E+03  0.7546771E-02  0.1266580E+00
         21   -1    0    0  501  502  0.00000000000E+00  0.00000000000E+00  0.71907593469E+03  0.71907593469E+03  0.00000000000E+00 0. -1.
          2   -1    0    0  503    0 -0.00000000000E+00 -0.00000000000E+00 -0.43126392925E+03  0.43126392925E+03  0.00000000000E+00 0. -1.
         24    2    1    2    0    0  0.24622021740E+02 -0.13225405783E+02 -0.25717286913E+03  0.27109861805E+03  0.81088968302E+02 0.  0.
         23    2    1    2    0    0 -0.57463284804E+02  0.10554819576E+03 -0.11261728978E+03  0.18817407563E+03  0.91018558831E+02 0.  0.
        -11    1    3    3    0    0  0.18053122219E+02 -0.45478328778E+02 -0.11167559599E+03  0.12192469951E+03  0.00000000000E+00 0.  1.
         12    1    3    3    0    0  0.65688995217E+01  0.32252922995E+02 -0.14549727314E+03  0.14917391855E+03  0.00000000000E+00 0. -1.
        -13    1    4    4    0    0 -0.27381878903E+02 -0.10702033511E+01  0.35741691908E+01  0.27634893032E+02  0.00000000000E+00 0.  1.
         13    1    4    4    0    0 -0.30081405901E+02  0.10661839911E+03 -0.11619145897E+03  0.16053918260E+03  0.00000000000E+00 0. -1.
         21    1    1    2  503  502  0.24432791724E+02 -0.42172936642E+01 -0.26263672315E+01  0.24932803334E+02  0.00000000000E+00 0. -1.
          1    1    1    2  501    0  0.84084713393E+01 -0.88105496315E+02  0.66022853159E+03  0.66613436692E+03  0.00000000000E+00 0. -1.
<scales pt_clust_5="13000.00000" pt_clust_6="13000.00000" pt_clust_7="13000.00000" pt_clust_8="13000.00000" pt_clust_9="24.79409" pt_clust_10="88.55210"></scales>
<clustering>
<clus scale="   24.794">  2  9  1 -1</clus>
<clus scale="   81.089">  5  6 -1 -1</clus>
<clus scale="   88.552">  1 10  2 -1</clus>
<clus scale="   91.019">  7  8 -1 -1</clus>
<clus scale="  100.764">  2  5  1 -1</clus>
<clus scale="   88.552">  1  5  2 -1</clus>
</clustering>
</event>
<event>
10    4  0.7697601E-005  0.9781191E+02  0.7546771E-02  0.1295285E+00
         21   -1    0    0  501  502  0.00000000000E+00  0.00000000000E+00  0.55570673156E+02  0.55570673156E+02  0.00000000000E+00 0.  1.
         -1   -1    0    0    0  501 -0.00000000000E+00 -0.00000000000E+00 -0.45219397720E+03  0.45219397720E+03  0.00000000000E+00 0.  1.
         23    2    1    2    0    0 -0.95443243691E+01 -0.34205829271E+02 -0.19177990987E+03  0.21475603622E+03  0.89885974319E+02 0.  0.
         24    2    1    2    0    0 -0.24964897169E+02  0.50993247688E+02 -0.30143943861E+02  0.95628232502E+02  0.70799322734E+02 0.  0.
        -11    1    4    4    0    0 -0.11307391067E+02  0.67776954675E+02 -0.19017597479E+02  0.71296856113E+02  0.00000000000E+00 0.  1.
         12    1    4    4    0    0 -0.13657506102E+02 -0.16783706987E+02 -0.11126346382E+02  0.24331376389E+02  0.00000000000E+00 0. -1.
        -11    1    3    3    0    0  0.25442902269E+02 -0.14792944374E+02 -0.14113671186E+02  0.32639978455E+02  0.00000000000E+00 0.  1.
         11    1    3    3    0    0 -0.34987226639E+02 -0.19412884897E+02 -0.17766623868E+03  0.18211605777E+03  0.00000000000E+00 0. -1.
         21    1    1    2  503  502 -0.21199324884E+02 -0.20590014404E+01 -0.11284643418E+02  0.24103817945E+02  0.00000000000E+00 0.  1.
         -2    1    1    2    0  503  0.55708546423E+02 -0.14728416976E+02 -0.16341480689E+03  0.17327656369E+03  0.00000000000E+00 0.  1.
<scales pt_clust_5="13000.00000" pt_clust_6="13000.00000" pt_clust_7="13000.00000" pt_clust_8="13000.00000" pt_clust_9="21.29908" pt_clust_10="55.62475"></scales>
<clustering>
<clus scale="   21.299">  1  9  2 -1</clus>
<clus scale="   55.625">  1 10  2 -1</clus>
<clus scale="   70.799">  5  6 -1 -1</clus>
<clus scale="   80.624">  1  5  2 -1</clus>
<clus scale="   89.886">  7  8 -1 -1</clus>
<clus scale="   21.299">  1  5  2 -1</clus>
</clustering>
</event>
<event>
10    4  0.7697601E-005  0.1723967E+03  0.7546771E-02  0.1192162E+00
         -1   -1    0    0    0  501 -0.00000000000E+00  0.00000000000E+00  0.17058025101E+03  0.17058025101E+03  0.00000000000E+00 0.  1.
         21   -1    0    0  503  502  0.00000000000E+00 -0.00000000000E+00 -0.67660330553E+03  0.67660330553E+03  0.00000000000E+00 0.  1.
         24    2    1    2    0    0 -0.81579930003E+02 -0.40594897351E+02 -0.23400849713E+03  0.26566846735E+03  0.86697907370E+02 0.  0.
         23    2    1    2    0    0  0.13106808273E+03  0.16275403219E+03  0.25817208617E+02  0.23108862017E+03  0.95224496880E+02 0.  0.
        -13    1    3    3    0    0  0.17006051479E+02 -0.12454901863E+02 -0.23810724284E+02  0.31800643991E+02  0.00000000000E+00 0.  1.
         14    1    3    3    0    0 -0.98585981483E+02 -0.28139995489E+02 -0.21019777285E+03  0.23386782336E+03  0.00000000000E+00 0. -1.
        -11    1    4    4    0    0  0.10506432433E+03  0.15166892018E+03 -0.10810739602E+02  0.18482111808E+03  0.00000000000E+00 0.  1.
         11    1    4    4    0    0  0.26003758400E+02  0.11085112008E+02  0.36627948219E+02  0.46267502093E+02  0.00000000000E+00 0. -1.
         21    1    1    2  503  501  0.41668319946E+02 -0.21736722478E+02 -0.10093028081E+03  0.11133577850E+03  0.00000000000E+00 0.  1.
         -2    1    1    2    0  502 -0.91156472674E+02 -0.10042241236E+03 -0.19690148520E+03  0.23909069051E+03  0.00000000000E+00 0.  1.
<scales pt_clust_5="13000.00000" pt_clust_6="13000.00000" pt_clust_7="13000.00000" pt_clust_8="13000.00000" pt_clust_9="46.99717" pt_clust_10="143.71124"></scales>
<clustering>
<clus scale="   46.997">  2  9  1 -1</clus>
<clus scale="   86.698">  5  6 -1 -1</clus>
<clus scale="   95.224">  7  8 -1 -1</clus>
<clus scale="  118.486">  1  5  2 -1</clus>
<clus scale="  143.711">  2 10  1 -1</clus>
<clus scale="   46.997">  2  5  1 -1</clus>
</clustering>
</event>
<event>
10    4  0.7697601E-005  0.1282379E+03  0.7546771E-02  0.1248393E+00
          4   -1    0    0  503    0 -0.00000000000E+00  0.00000000000E+00  0.55563483265E+03  0.55563483265E+03  0.00000000000E+00 0. -1.
         21   -1    0    0  501  502  0.00000000000E+00 -0.00000000000E+00 -0.51917307141E+02  0.51917307141E+02  0.00000000000E+00 0. -1.
         24    2    1    2    0    0  0.30194545181E+02 -0.46355807868E+01  0.77506146192E+02  0.11559512992E+03  0.80136335047E+02 0.  0.
         23    2    1    2    0    0  0.18476430761E+02  0.72067781509E+02  0.23972512194E+03  0.26750040114E+03  0.92483441219E+02 0.  0.
        -13    1    3    3    0    0 -0.39553640968E+00 -0.20029116793E+02  0.78819053745E+02  0.81325058880E+02  0.00000000000E+00 0.  1.
         14    1    3    3    0    0  0.30590081591E+02  0.15393536006E+02 -0.13129075537E+01  0.34270071035E+02  0.00000000000E+00 0. -1.
        -13    1    4    4    0    0  0.46889032725E+02  0.86923837082E+01  0.76968893495E+02  0.90544737507E+02  0.00000000000E+00 0. -1.
         13    1    4    4    0    0 -0.28412601964E+02  0.63375397801E+02  0.16275622844E+03  0.17695566364E+03  0.00000000000E+00 0.  1.
         21    1    1    2  503  502  0.17926016716E+02  0.11471218942E+02  0.25636445904E+02  0.33319038070E+02  0.00000000000E+00 0. -1.
          3    1    1    2  501    0 -0.66596992658E+02 -0.78903419664E+02  0.16084981147E+03  0.19113757066E+03  0.00000000000E+00 0. -1.
<scales pt_clust_5="13000.00000" pt_clust_6="13000.00000" pt_clust_7="13000.00000" pt_clust_8="13000.00000" pt_clust_9="21.28217" pt_clust_10="88.83560"></scales>
<clustering>
<clus scale="   21.282">  2  9  1 -1</clus>
<clus scale="   80.136">  5  6 -1 -1</clus>
<clus scale="   88.390">  1  5  2 -1</clus>
<clus scale="   88.836">  2 10  1 -1</clus>
<clus scale="   92.483">  7  8 -1 -1</clus>
<clus scale="   21.282">  2  5  1 -1</clus>
</clustering>
</event>
<event>
10    4  0.7697601E-005  0.9596844E+02  0.7546771E-02  0.1294696E+00
         21   -1    0    0  501  502  0.00000000000E+00  0.00000000000E+00  0.12683538095E+03  0.12683538095E+03  0.00000000000E+00 0.  1.
         -3   -1    0    0    0  501 -0.00000000000E+00 -0.00000000000E+00 -0.37314198264E+03  0.37314198264E+03  0.00000000000E+00 0.  1.
         24    2    1    2    0    0  0.29659128678E+02  0.37375051614E+02 -0.16954170386E+03  0.19321589413E+03  0.79444534114E+02 0.  0.
         23    2    1    2    0    0  0.24157055833E+02 -0.24919919311E+02 -0.10552142071E+03  0.14287434764E+03  0.89854010822E+02 0.  0.
        -11    1    3    3    0    0  0.15510079025E+02  0.57321077033E+02 -0.75545232602E+02  0.96090325176E+02  0.00000000000E+00 0.  1.
         12    1    3    3    0    0  0.14149049653E+02 -0.19946025419E+02 -0.93996471260E+02  0.97125568958E+02  0.00000000000E+00 0. -1.
        -13    1    4    4    0    0  0.76151915405E+01 -0.42011319177E+02 -0.11059795784E+03  0.11855315415E+03  0.00000000000E+00 0.  1.
         13    1    4    4    0    0  0.16541864292E+02  0.17091399866E+02  0.50765371283E+01  0.24321193492E+02  0.00000000000E+00 0. -1.
         21    1    1    2  503  502 -0.13204241752E+02 -0.28751223175E+02  0.86114548013E+02  0.91742575796E+02  0.00000000000E+00 0.  1.
         -4    1    1    2    0  503 -0.40611942759E+02  0.16296090872E+02 -0.57358025130E+02  0.72144546011E+02  0.00000000000E+00 0.  1.
<scales pt_clust_5="13000.00000" pt_clust_6="13000.00000" pt_clust_7="13000.00000" pt_clust_8="13000.00000" pt_clust_9="31.63834" pt_clust_10="44.49027"></scales>
<clustering>
<clus scale="   31.638">  1  9  2 -1</clus>
<clus scale="   44.490">  1 10  2 -1</clus>
<clus scale="   79.445">  5  6 -1 -1</clus>
<clus scale="   86.300">  2  5  1 -1</clus>
<clus scale="   89.854">  7  8 -1 -1</clus>
<clus scale="   31.638">  1  5  2 -1</clus>
</clustering>
</event>
<event>
10    4  0.7697601E-005  0.2302224E+03  0.7546771E-02  0.1127004E+00
          2   -1    0    0  503    0 -0.00000000000E+00  0.00000000000E+00  0.15591890754E+04  0.15591890754E+04  0.00000000000E+00 0. -1.
         21   -1    0    0  501  502  0.00000000000E+00 -0.00000000000E+00 -0.14044476716E+03  0.14044476716E+03  0.00000000000E+00 0. -1.
         24    2    1    2    0    0  0.19098469785E+03 -0.42409445836E+02  0.93526710699E+03  0.95913527241E+03  0.83319826270E+02 0.  0.
         23    2    1    2    0    0 -0.31616856501E+03 -0.10004765499E+02  0.29678114282E+03  0.44320381377E+03  0.91037997458E+02 0.  0.
        -13    1    3    3    0    0  0.13647836551E+03 -0.29891909165E+02  0.46446784785E+03  0.48502603247E+03  0.00000000000E+00 0.  1.
         14    1    3    3    0    0  0.54506332347E+02 -0.12517536671E+02  0.47079925914E+03  0.47410923994E+03  0.00000000000E+00 0. -1.
        -11    1    4    4    0    0 -0.58533297713E+02  0.34054418467E+02  0.64858146840E+02  0.93767955986E+02  0.00000000000E+00 0.  1.
         11    1    4    4    0    0 -0.25763526729E+03 -0.44059183966E+02  0.23192299598E+03  0.34943585779E+03  0.00000000000E+00 0. -1.
         21    1    1    2  503  502  0.35760405332E+02  0.84742017821E+02  0.48712214041E+01  0.92107247119E+02  0.00000000000E+00 0.  1.
          1    1    1    2  501    0  0.89423461820E+02 -0.32327806486E+02  0.18182483708E+03  0.20518750930E+03  0.00000000000E+00 0. -1.
<scales pt_clust_5="13000.00000" pt_clust_6="13000.00000" pt_clust_7="13000.00000" pt_clust_8="13000.00000" pt_clust_9="91.97835" pt_clust_10="96.30868"></scales>
<clustering>
<clus scale="   83.320">  5  6 -1 -1</clus>
<clus scale="   91.038">  7  8 -1 -1</clus>
<clus scale="   91.978">  2  9  1 -1</clus>
<clus scale="   96.309">  2 10  1 -1</clus>
<clus scale="  227.281">  1  5  2 -1</clus>
<clus scale="   91.978">  2  5  1 -1</clus>
</clustering>
</event>
<event>
10    4  0.7697601E-005  0.9291428E+02  0.7546771E-02  0.1300906E+00
         21   -1    0    0  501  502  0.00000000000E+00  0.00000000000E+00  0.56162254705E+02  0.56162254705E+02  0.00000000000E+00 0.  1.
          2   -1    0    0  503    0 -0.00000000000E+00 -0.00000000000E+00 -0.67376438911E+03  0.67376438911E+03  0.00000000000E+00 0. -1.
         24    2    1    2    0    0  0.14942309649E+02  0.15305118711E+02 -0.52806577283E+03  0.53486506274E+03  0.82277917075E+02 0.  0.
         23    2    1    2    0    0 -0.25423633068E+02  0.90476229987E+01 -0.60406180952E+02  0.11222009458E+03  0.90643379953E+02 0.  0.
        -13    1    3    3    0    0 -0.28375486692E+02 -0.11652513939E+02 -0.13148411313E+03  0.13501489300E+03  0.00000000000E+00 0.  1.
         14    1    3    3    0    0  0.43317796341E+02  0.26957632650E+02 -0.39658165969E+03  0.39985016974E+03  0.00000000000E+00 0. -1.
        -13    1    4    4    0    0 -0.43017425524E+02 -0.25597361759E+02 -0.14578547262E+02  0.52136914638E+02  0.00000000000E+00 0.  1.
         13    1    4    4    0    0  0.17593792455E+02  0.34644984758E+02 -0.45827633690E+02  0.60083179938E+02  0.00000000000E+00 0. -1.
         21    1    1    2  503  502  0.28028547907E+02  0.16298595003E+02 -0.18411453334E+02  0.37285725294E+02  0.00000000000E+00 0. -1.
          1    1    1    2  501    0 -0.17547224488E+02 -0.40651336714E+02 -0.10718727295E+02  0.45555761201E+02  0.00000000000E+00 0. -1.
<scales pt_clust_5="13000.00000" pt_clust_6="13000.00000" pt_clust_7="13000.00000" pt_clust_8="13000.00000" pt_clust_9="32.42289" pt_clust_10="35.29660"></scales>
<clustering>
<clus scale="   32.423">  1  9  2 -1</clus>
<clus scale="   35.297">  1 10  2 -1</clus>
<clus scale="   82.278">  5  6 -1 -1</clus>
<clus scale="   84.773">  2  5  1 -1</clus>
<clus scale="   90.643">  7  8 -1 -1</clus>
<clus scale="   32.423">  1  5  2 -1</clus>
</clustering>
</event>
<event>
10    4  0.7697601E-005  0.4149647E+03  0.7546771E-02  0.1094498E+00
         21   -1    0    0  501  502  0.00000000000E+00  0.00000000000E+00  0.11704775446E+03  0.11704775446E+03  0.00000000000E+00 0. -1.
          2   -1    0    0  503    0 -0.00000000000E+00 -0.00000000000E+00 -0.25776533958E+04  0.25776533958E+04  0.00000000000E+00 0. -1.
         24    2    1    2    0    0 -0.39978696194E+02 -0.74269054747E+00 -0.17171249101E+03  0.19351069888E+03  0.79764423615E+02 0.  0.
         23    2    1    2    0    0 -0.33412283467E+03  0.18977028668E+03 -0.17953153276E+04  0.18382731870E+04  0.91871400402E+02 0.  0.
        -11    1    3    3    0    0 -0.25339146988E+02 -0.23720718614E+02 -0.16022708178E+03  0.16394347379E+03  0.00000000000E+00 0.  1.
         12    1    3    3    0    0 -0.14639549206E+02  0.22978028066E+02 -0.11485409232E+02  0.29567225098E+02  0.00000000000E+00 0. -1.
        -11    1    4    4    0    0 -0.32230294432E+03  0.16204278128E+03 -0.17139893759E+04  0.17515412161E+04  0.00000000000E+00 0. -1.
         11    1    4    4    0    0 -0.11819890355E+02  0.27727505399E+02 -0.81325951645E+02  0.86731970892E+02  0.00000000000E+00 0.  1.
         21    1    1    2  503  502  0.11166736609E+02 -0.19807358532E+02  0.51543268214E+01  0.23315114058E+02  0.00000000000E+00 0.  1.
          1    1    1    2  501    0  0.36293479426E+03 -0.16922023760E+03 -0.49873214961E+03  0.63960215036E+03  0.00000000000E+00 0. -1.
<scales pt_clust_5="13000.00000" pt_clust_6="13000.00000" pt_clust_7="13000.00000" pt_clust_8="13000.00000" pt_clust_9="22.73824" pt_clust_10="404.66694"></scales>
<clustering>
<clus scale="   22.738">  1  9  2 -1</clus>
<clus scale="   79.764">  5  6 -1 -1</clus>
<clus scale="   88.744">  2  5  1 -1</clus>
<clus scale="   91.871">  7  8 -1 -1</clus>
<clus scale="  404.667">  1 10  2 -1</clus>
<clus scale="   22.738">  1  5  2 -1</clus>
</clustering>
</event>
<event>
10    4  0.7697601E-005  0.1793026E+03  0.7546771E-02  0.1190504E+00
          2   -1    0    0  502    0 -0.00000000000E+00  0.00000000000E+00  0.11048899449E+03  0.11048899449E+03  0.00000000000E+00 0. -1.
         21   -1    0    0  503  502  0.00000000000E+00 -0.00000000000E+00 -0.80523394369E+03  0.80523394369E+03  0.00000000000E+00 0.  1.
         23    2    1    2    0    0 -0.48792236048E+02 -0.23271588024E+02 -0.11176404610E+03  0.15628126253E+03  0.94923031497E+02 0.  0.
         24    2    1    2    0    0  0.11694148570E+03 -0.17570998851E+01 -0.27372247895E+03  0.30941815914E+03  0.84481969945E+02 0.  0.
        -13    1    4    4    0    0  0.11902105663E+03  0.14923082780E+02 -0.26406321745E+03  0.29003119337E+03  0.00000000000E+00 0.  1.
         14    1    4    4    0    0 -0.20795709238E+01 -0.16680182665E+02 -0.96592615012E+01  0.19386965768E+02  0.00000000000E+00 0. -1.
        -13    1    3    3    0    0 -0.10584862073E+02 -0.55483353159E+02 -0.76608664814E+02  0.95180509073E+02  0.00000000000E+00 0.  1.
         13    1    3    3    0    0 -0.38207373975E+02  0.32211765135E+02 -0.35155381287E+02  0.61100753454E+02  0.00000000000E+00 0. -1.
         21    1    1    2  503  501  0.85394783346E+02 -0.72997106733E+02 -0.22031072173E+03  0.24730074954E+03  0.00000000000E+00 0.  1.
          1    1    1    2  501    0 -0.15354403300E+03  0.98025794642E+02 -0.88947702422E+02  0.20272276698E+03  0.00000000000E+00 0. -1.
<scales pt_clust_5="13000.00000" pt_clust_6="13000.00000" pt_clust_7="13000.00000" pt_clust_8="13000.00000" pt_clust_9="109.24416" pt_clust_10="158.15262"></scales>
<clustering>
<clus scale="   84.482">  5  6 -1 -1</clus>
<clus scale="   94.923">  7  8 -1 -1</clus>
<clus scale="  109.237">  1  7  2 -1</clus>
<clus scale="  109.244">  2  9  1 -1</clus>
<clus scale="  158.153">  2 10  1 -1</clus>
<clus scale="  109.244">  2  5  1 -1</clus>
</clustering>
</event>
<event>
10    4  0.7697601E-005  0.1514541E+03  0.7546771E-02  0.1226146E+00
          2   -1    0    0  503    0 -0.00000000000E+00  0.00000000000E+00  0.44696610064E+03  0.44696610064E+03  0.00000000000E+00 0. -1.
         21   -1    0    0  501  502  0.00000000000E+00 -0.00000000000E+00 -0.11563200890E+03  0.11563200890E+03  0.00000000000E+00 0. -1.
         24    2    1    2    0    0 -0.43795683450E+02 -0.62114820813E+01  0.17366332285E+03  0.19548980040E+03  0.78106772802E+02 0.  0.
         23    2    1    2    0    0 -0.12868344668E+02 -0.11088242579E+03  0.13795227724E+03  0.19866157166E+03  0.89303318040E+02 0.  0.
        -11    1    3    3    0    0 -0.93300384558E+01  0.21999984850E+02  0.10052611109E+02  0.25924967523E+02  0.00000000000E+00 0.  1.
         12    1    3    3    0    0 -0.34465644995E+02 -0.28211466931E+02  0.16361071174E+03  0.16956483287E+03  0.00000000000E+00 0. -1.
        -13    1    4    4    0    0  0.27839449397E+02 -0.93129885922E+02  0.10682313850E+03  0.14442781420E+03  0.00000000000E+00 0.  1.
         13    1    4    4    0    0 -0.40707794065E+02 -0.17752539872E+02  0.31129138740E+02  0.54233757460E+02  0.00000000000E+00 0. -1.
         21    1    1    2  503  502  0.28651717388E+02 -0.59556280638E+01  0.29901417565E+02  0.41838800022E+02  0.00000000000E+00 0. -1.
          1    1    1    2  501    0  0.28012310731E+02  0.12304953594E+03 -0.10182925921E+02  0.12660793746E+03  0.00000000000E+00 0. -1.
<scales pt_clust_5="13000.00000" pt_clust_6="13000.00000" pt_clust_7="13000.00000" pt_clust_8="13000.00000" pt_clust_9="29.26415" pt_clust_10="122.32442"></scales>
<clustering>
<clus scale="   29.264">  1  9  2 -1</clus>
<clus scale="   78.107">  5  6 -1 -1</clus>
<clus scale="   84.477">  1  5  2 -1</clus>
<clus scale="   89.303">  7  8 -1 -1</clus>
<clus scale="  122.324">  2 10  1 -1</clus>
<clus scale="  122.324">  2  5  1 -1</clus>
</clustering>
</event>
<event>
10    4  0.7697601E-005  0.2831094E+03  0.7546771E-02  0.1140881E+00
          2   -1    0    0  503    0 -0.00000000000E+00  0.00000000000E+00  0.36780349196E+03  0.36780349196E+03  0.00000000000E+00 0. -1.
         21   -1    0    0  501  502  0.00000000000E+00 -0.00000000000E+00 -0.78580392553E+03  0.78580392553E+03  0.00000000000E+00 0. -1.
         24    2    1    2    0    0  0.53019671752E+02  0.20372874242E+02 -0.25005947910E+03  0.26633010069E+03  0.71943309959E+02 0.  0.
         23    2    1    2    0    0  0.13278598525E+03 -0.24692703908E+03 -0.35322125490E+03  0.46021014218E+03  0.91777118834E+02 0.  0.
        -13    1    3    3    0    0  0.35479645715E+02  0.42090909065E+02 -0.21260577699E+03  0.21961709017E+03  0.00000000000E+00 0.  1.
         14    1    3    3    0    0  0.17540026037E+02 -0.21718034823E+02 -0.37453702114E+02  0.46713010522E+02  0.00000000000E+00 0. -1.
        -11    1    4    4    0    0 -0.10217924793E+02 -0.49294163792E+02 -0.73102371392E+02  0.88759660174E+02  0.00000000000E+00 0.  1.
         11    1    4    4    0    0  0.14300391005E+03 -0.19763287529E+03 -0.28011888351E+03  0.37145048200E+03  0.00000000000E+00 0. -1.
         21    1    1    2  503  502 -0.28298902505E+02  0.99955907378E+01 -0.57982810640E+02  0.65289708583E+02  0.00000000000E+00 0. -1.
          1    1    1    2  501    0 -0.15750675450E+03  0.21655857410E+03  0.24326311106E+03  0.36177746604E+03  0.00000000000E+00 0. -1.
<scales pt_clust_5="13000.00000" pt_clust_6="13000.00000" pt_clust_7="13000.00000" pt_clust_8="13000.00000" pt_clust_9="30.01233" pt_clust_10="267.82082"></scales>
<clustering>
<clus scale="   30.012">  2  9  1 -1</clus>
<clus scale="   71.943">  5  6 -1 -1</clus>
<clus scale="   87.131">  1  5  2 -1</clus>
<clus scale="   91.777">  7  8 -1 -1</clus>
<clus scale="  267.821">  2 10  1 -1</clus>
<clus scale="   30.012">  2  5  1 -1</clus>
</clustering>
</event>
<event>
10    4  0.7697601E-005  0.2684454E+03  0.7546771E-02  0.1151131E+00
         21   -1    0    0  503  502  0.00000000000E+00  0.00000000000E+00  0.75218213091E+02  0.75218213091E+02  0.00000000000E+00 0. -1.
          2   -1    0    0  502    0 -0.00000000000E+00 -0.00000000000E+00 -0.28520026473E+04  0.28520026473E+04  0.00000000000E+00 0. -1.
         24    2    1    2    0    0  0.16291534842E+02 -0.20173391620E+01 -0.11388888208E+03  0.13919440782E+03  0.78325742534E+02 0.  0.
         23    2    1    2    0    0  0.24559638510E+03 -0.11091616404E+03 -0.76580958705E+03  0.81679395187E+03  0.89822360105E+02 0.  0.
        -13    1    3    3    0    0  0.26691052569E+02  0.67089663996E+01 -0.12084577936E+03  0.12394000527E+03  0.00000000000E+00 0.  1.
         14    1    3    3    0    0 -0.10399517727E+02 -0.87263055616E+01  0.69568972760E+01  0.15254402558E+02  0.00000000000E+00 0. -1.
        -11    1    4    4    0    0  0.71495107174E+02 -0.79751313701E+02 -0.29835850510E+03  0.31700097784E+03  0.00000000000E+00 0.  1.
         11    1    4    4    0    0  0.17410127793E+03 -0.31164850334E+02 -0.46745108195E+03  0.49979297403E+03  0.00000000000E+00 0. -1.
         21    1    1    2  503  501 -0.70958706938E+01  0.83199405272E+02 -0.33332623842E+02  0.89908599315E+02  0.00000000000E+00 0. -1.
          1    1    1    2  501    0 -0.25479204925E+03  0.29734097925E+02 -0.18637533412E+04  0.18813239014E+04  0.00000000000E+00 0. -1.
<scales pt_clust_5="13000.00000" pt_clust_6="13000.00000" pt_clust_7="13000.00000" pt_clust_8="13000.00000" pt_clust_9="83.42550" pt_clust_10="252.97217"></scales>
<clustering>
<clus scale="   78.326">  5  6 -1 -1</clus>
<clus scale="   80.028">  2  5  1 -1</clus>
<clus scale="   83.425">  1  9  2 -1</clus>
<clus scale="   89.822">  7  8 -1 -1</clus>
<clus scale="  252.972">  1 10  2 -1</clus>
<clus scale="   83.425">  1  5  2 -1</clus>
</clustering>
</event>
<event>
10    4  0.7697601E-005  0.1518001E+03  0.7546771E-02  0.1216259E+00
         -1   -1    0    0    0  501 -0.00000000000E+00  0.00000000000E+00  0.28129658791E+03  0.28129658791E+03  0.00000000000E+00 0.  1.
         21   -1    0    0  503  502  0.00000000000E+00 -0.00000000000E+00 -0.30468113561E+03  0.30468113561E+03  0.00000000000E+00 0.  1.
         24    2    1    2    0    0 -0.60914229897E+02 -0.83397513832E+01 -0.19291306752E+01  0.10019767357E+03  0.79093346026E+02 0.  0.
         23    2    1    2    0    0  0.87394946512E+02 -0.89002437463E+02  0.16964297882E+03  0.23687694805E+03  0.10850178665E+03 0.  0.
        -11    1    3    3    0    0 -0.12694619338E+02  0.33237491672E+02 -0.72353618313E+01  0.36307501616E+02  0.00000000000E+00 0.  1.
         12    1    3    3    0    0 -0.48219610559E+02 -0.41577243055E+02  0.53062311561E+01  0.63890171949E+02  0.00000000000E+00 0. -1.
        -13    1    4    4    0    0  0.68764518140E+02 -0.10468680510E+03  0.91737022093E+02  0.15525323616E+03  0.00000000000E+00 0. -1.
         13    1    4    4    0    0  0.18630428371E+02  0.15684367634E+02  0.77905956723E+02  0.81623711888E+02  0.00000000000E+00 0.  1.
         21    1    1    2  503  501 -0.23108462626E+02 -0.22594362153E+02 -0.14551599102E+02  0.35443691716E+02  0.00000000000E+00 0.  1.
         -2    1    1    2    0  502 -0.33722539890E+01  0.11993655100E+03 -0.17654679674E+03  0.21345941020E+03  0.00000000000E+00 0.  1.
<scales pt_clust_5="13000.00000" pt_clust_6="13000.00000" pt_clust_7="13000.00000" pt_clust_8="13000.00000" pt_clust_9="32.31882" pt_clust_10="106.16319"></scales>
<clustering>
<clus scale="   32.319">  2  9  1 -1</clus>
<clus scale="   79.093">  5  6 -1 -1</clus>
<clus scale="  103.216">  1  5  2 -1</clus>
<clus scale="  106.163">  2 10  1 -1</clus>
<clus scale="  108.502">  7  8 -1 -1</clus>
<clus scale="   32.319">  2  5  1 -1</clus>
</clustering>
</event>
<event>
10    4  0.7697601E-005  0.1607674E+03  0.7546771E-02  0.1214968E+00
         21   -1    0    0  503  502  0.00000000000E+00  0.00000000000E+00  0.21553519336E+03  0.21553519336E+03  0.00000000000E+00 0. -1.
          2   -1    0    0  502    0 -0.00000000000E+00 -0.00000000000E+00 -0.20021656632E+03  0.20021656632E+03  0.00000000000E+00 0. -1.
         24    2    1    2    0    0 -0.66199201046E+01  0.29964944227E+02 -0.24535008597E+02  0.90937606244E+02  0.82011952530E+02 0.  0.
         23    2    1    2    0    0 -0.44547373755E+02  0.58715706794E+02 -0.28546557895E+02  0.14752260544E+03  0.12456327876E+03 0.  0.
        -11    1    3    3    0    0 -0.38557453210E+02  0.46270502825E+01 -0.30962111770E+02  0.49666277872E+02  0.00000000000E+00 0.  1.
         12    1    3    3    0    0  0.31937533106E+02  0.25337893944E+02  0.64271031729E+01  0.41271328372E+02  0.00000000000E+00 0. -1.
        -13    1    4    4    0    0 -0.83214671305E+02  0.55971992020E+02 -0.15778257299E+01  0.10029972555E+03  0.00000000000E+00 0. -1.
         13    1    4    4    0    0  0.38667297550E+02  0.27437147741E+01 -0.26968732166E+02  0.47222879891E+02  0.00000000000E+00 0.  1.
         21    1    1    2  503  501  0.83094806733E+01  0.24845417553E+02  0.47376209517E+02  0.54137302026E+02  0.00000000000E+00 0. -1.
          1    1    1    2  501    0  0.42857813186E+02 -0.11352606857E+03  0.21023984021E+02  0.12315424597E+03  0.00000000000E+00 0. -1.
<scales pt_clust_5="13000.00000" pt_clust_6="13000.00000" pt_clust_7="13000.00000" pt_clust_8="13000.00000" pt_clust_9="26.19813" pt_clust_10="101.63725"></scales>
<clustering>
<clus scale="   26.198">  1  9  2 -1</clus>
<clus scale="   82.012">  5  6 -1 -1</clus>
<clus scale="   89.294">  2  5  1 -1</clus>
<clus scale="  101.637">  1 10  2 -1</clus>
<clus scale="  124.563">  7  8 -1 -1</clus>
<clus scale="   26.198">  1  5  2 -1</clus>
</clustering>
</event>
<event>
10    4  0.7697601E-005  0.1499423E+03  0.7546771E-02  0.1219898E+00
         21   -1    0    0  503  502  0.00000000000E+00  0.00000000000E+00  0.20402158420E+03  0.20402158420E+03  0.00000000000E+00 0. -1.
          2   -1    0    0  502    0 -0.00000000000E+00 -0.00000000000E+00 -0.26318427736E+03  0.26318427736E+03  0.00000000000E+00 0. -1.
         24    2    1    2    0    0  0.54333943963E+02  0.15918338299E+02 -0.87602996074E+02  0.13093376766E+03  0.79144144640E+02 0.  0.
         23    2    1    2    0    0 -0.10810413029E+03 -0.10826804020E+03 -0.36845738751E+01  0.17841283019E+03  0.91701092567E+02 0.  0.
        -13    1    3    3    0    0  0.54643072597E+02  0.31786667043E+02 -0.27796675550E+02  0.69057315008E+02  0.00000000000E+00 0.  1.
         14    1    3    3    0    0 -0.30912863352E+00 -0.15868328745E+02 -0.59806320525E+02  0.61876452648E+02  0.00000000000E+00 0. -1.
        -11    1    4    4    0    0 -0.67518212037E+02 -0.24067735641E+02 -0.35088381122E+02  0.79807013133E+02  0.00000000000E+00 0.  1.
         11    1    4    4    0    0 -0.40585918251E+02 -0.84200304556E+02  0.31403807247E+02  0.98605817056E+02  0.00000000000E+00 0. -1.
         21    1    1    2  503  501  0.24396992858E+02 -0.45098542836E+01  0.49305683203E+02  0.55196036473E+02  0.00000000000E+00 0. -1.
          1    1    1    2  501    0  0.29373193467E+02  0.96859556182E+02 -0.17180806416E+02  0.10266322724E+03  0.00000000000E+00 0. -1.
<scales pt_clust_5="13000.00000" pt_clust_6="13000.00000" pt_clust_7="13000.00000" pt_clust_8="13000.00000" pt_clust_9="24.81032" pt_clust_10="118.63226"></scales>
<clustering>
<clus scale="   24.810">  1  9  2 -1</clus>
<clus scale="   79.144">  5  6 -1 -1</clus>
<clus scale="   91.701">  7  8 -1 -1</clus>
<clus scale="   99.196">  2  5  1 -1</clus>
<clus scale="  118.632">  1 10  2 -1</clus>
<clus scale="   24.810">  1  5  2 -1</clus>
</clustering>
</event>
<event>
10    4  0.7697601E-005  0.4962277E+03  0.7546771E-02  0.1044914E+00
         21   -1    0    0  501  502  0.00000000000E+00  0.00000000000E+00  0.41112078640E+03  0.41112078640E+03  0.00000000000E+00 0.  1.
          2   -1    0    0  503    0 -0.00000000000E+00 -0.00000000000E+00 -0.34226205022E+04  0.34226205022E+04  0.00000000000E+00 0. -1.
         23    2    1    2    0    0  0.42410840881E+02 -0.18666360018E+03 -0.11471985395E+03  0.24149225936E+03  0.92281565789E+02 0.  0.
         24    2    1    2    0    0  0.39847075697E+03 -0.18366713209E+03 -0.17238985310E+04  0.17807599938E+04  0.82264518019E+02 0.  0.
        -11    1    4    4    0    0  0.34340194286E+03 -0.18738208994E+03 -0.15059722337E+04  0.15559528626E+04  0.00000000000E+00 0.  1.
         12    1    4    4    0    0  0.55068814110E+02  0.37149578465E+01 -0.21792629722E+03  0.22480713116E+03  0.00000000000E+00 0. -1.
        -13    1    3    3    0    0  0.26279886374E+02 -0.15217387787E+01 -0.18858554731E+02  0.32381988871E+02  0.00000000000E+00 0.  1.
         13    1    3    3    0    0  0.16130954508E+02 -0.18514186140E+03 -0.95861299216E+02  0.20911027049E+03  0.00000000000E+00 0. -1.
         21    1    1    2  503  502 -0.32647530119E+02  0.18301268993E+02  0.26928372327E+03  0.27187225178E+03  0.00000000000E+00 0.  1.
          1    1    1    2  501    0 -0.40823406773E+03  0.35202946328E+03 -0.14421650541E+04  0.15396167836E+04  0.00000000000E+00 0. -1.
<scales pt_clust_5="13000.00000" pt_clust_6="13000.00000" pt_clust_7="13000.00000" pt_clust_8="13000.00000" pt_clust_9="37.42723" pt_clust_10="489.36133"></scales>
<clustering>
<clus scale="   37.427">  1  9  2 -1</clus>
<clus scale="   82.265">  5  6 -1 -1</clus>
<clus scale="   92.282">  7  8 -1 -1</clus>
<clus scale="  202.762">  2  7  1 -1</clus>
<clus scale="  489.361">  1 10  2 -1</clus>
<clus scale="   37.427">  1  5  2 -1</clus>
</clustering>
</event>
<event>
10    4  0.7697601E-005  0.1377767E+03  0.7546771E-02  0.1218740E+00
         21   -1    0    0  503  502  0.00000000000E+00  0.00000000000E+00  0.13474646126E+03  0.13474646126E+03  0.00000000000E+00 0.  1.
         -1   -1    0    0    0  501 -0.00000000000E+00 -0.00000000000E+00 -0.58463381427E+03  0.58463381427E+03  0.00000000000E+00 0.  1.
         23    2    1    2    0    0 -0.11471156607E+03 -0.19871355071E+02 -0.24121350432E+03  0.28243735863E+03  0.89628637942E+02 0.  0.
         24    2    1    2    0    0  0.64737865636E+02 -0.51912072387E+01  0.36572151214E+02  0.10849201345E+03  0.78835619225E+02 0.  0.
        -11    1    4    4    0    0  0.77692125149E+02  0.11188970381E+02  0.17969034421E+02  0.80524192429E+02  0.00000000000E+00 0.  1.
         12    1    4    4    0    0 -0.12954259512E+02 -0.16380177620E+02  0.18603116793E+02  0.27967821023E+02  0.00000000000E+00 0. -1.
        -11    1    3    3    0    0 -0.10890701742E+03  0.52591343389E+01 -0.13706876711E+03  0.17514634982E+03  0.00000000000E+00 0.  1.
         11    1    3    3    0    0 -0.58045486517E+01 -0.25130489409E+02 -0.10414473721E+03  0.10729100881E+03  0.00000000000E+00 0. -1.
         21    1    1    2  503  501  0.10694887688E+02  0.20517946132E+02  0.36896401964E+02  0.43551248134E+02  0.00000000000E+00 0.  1.
         -2    1    1    2    0  502  0.39278812747E+02  0.45446161774E+01 -0.28214240187E+03  0.28489965531E+03  0.00000000000E+00 0.  1.
<scales pt_clust_5="13000.00000" pt_clust_6="13000.00000" pt_clust_7="13000.00000" pt_clust_8="13000.00000" pt_clust_9="23.13799" pt_clust_10="39.73120"></scales>
<clustering>
<clus scale="   23.138">  1  9  2 -1</clus>
<clus scale="   39.731">  1 10  2 -1</clus>
<clus scale="   78.836">  5  6 -1 -1</clus>
<clus scale="   89.629">  7  8 -1 -1</clus>
<clus scale="  131.012">  1  5  2 -1</clus>
<clus scale="   23.138">  1  5  2 -1</clus>
</clustering>
</event>
<event>
10    4  0.7697601E-005  0.1605664E+03  0.7546771E-02  0.1208155E+00
         -1   -1    0    0    0  501 -0.00000000000E+00  0.00000000000E+00  0.17295790981E+04  0.17295790981E+04  0.00000000000E+00 0.  1.
         21   -1    0    0  503  502  0.00000000000E+00 -0.00000000000E+00 -0.54014506233E+02  0.54014506233E+02  0.00000000000E+00 0.  1.
         24    2    1    2    0    0 -0.99167860017E+01  0.64289469836E+02  0.30349134183E+03  0.32069500765E+03  0.80664829940E+02 0.  0.
         23    2    1    2    0    0 -0.73031241342E+02  0.67384606163E+02  0.15380879771E+03  0.20517391312E+03  0.92546966521E+02 0.  0.
        -11    1    3    3    0    0 -0.40678166980E+02  0.44913704386E+02  0.24000220405E+03  0.24753386043E+03  0.00000000000E+00 0.  1.
         12    1    3    3    0    0  0.30761380978E+02  0.19375765450E+02  0.63489137778E+02  0.73161147218E+02  0.00000000000E+00 0. -1.
        -13    1    4    4    0    0 -0.24145911953E+02  0.40649169217E+02  0.65561855479E+01  0.47732207061E+02  0.00000000000E+00 0.  1.
         13    1    4    4    0    0 -0.48885329389E+02  0.26735436946E+02  0.14725261216E+03  0.15744170606E+03  0.00000000000E+00 0. -1.
         21    1    1    2  503  501  0.16154686903E+03 -0.36982902024E+01  0.58634829894E+03  0.60820670492E+03  0.00000000000E+00 0.  1.
         -2    1    1    2    0  502 -0.78598841685E+02 -0.12797578580E+03  0.63191615340E+03  0.64951797866E+03  0.00000000000E+00 0.  1.
<scales pt_clust_5="13000.00000" pt_clust_6="13000.00000" pt_clust_7="13000.00000" pt_clust_8="13000.00000" pt_clust_9="131.21209" pt_clust_10="129.17803"></scales>
<clustering>
<clus scale="   80.665">  5  6 -1 -1</clus>
<clus scale="   92.547">  7  8 -1 -1</clus>
<clus scale="  103.626">  1  5  2 -1</clus>
<clus scale="  129.178">  2 10  1 -1</clus>
<clus scale="  131.212">  1  9  2 -1</clus>
<clus scale="  129.178">  2  5  1 -1</clus>
</clustering>
</event>
<event>
10    4  0.7697601E-005  0.1285655E+03  0.7546771E-02  0.1251601E+00
         21   -1    0    0  503  502  0.00000000000E+00  0.00000000000E+00  0.65774147172E+02  0.65774147172E+02  0.00000000000E+00 0.  1.
          2   -1    0    0  502    0 -0.00000000000E+00 -0.00000000000E+00 -0.48751707976E+03  0.48751707976E+03  0.00000000000E+00 0. -1.
         24    2    1    2    0    0  0.26124920430E+02  0.87292758218E+01 -0.11217035880E+03  0.14072500215E+03  0.80390454106E+02 0.  0.
         23    2    1    2    0    0  0.59677210016E+02 -0.74158363264E+02 -0.17355278806E+03  0.21844070466E+03  0.92384733425E+02 0.  0.
        -13    1    3    3    0    0 -0.21947684733E+02  0.25807137844E+02 -0.47860301821E+02  0.58637170116E+02  0.00000000000E+00 0.  1.
         14    1    3    3    0    0  0.48072605163E+02 -0.17077862023E+02 -0.64310056981E+02  0.82087832030E+02  0.00000000000E+00 0. -1.
        -11    1    4    4    0    0  0.44331735700E+02 -0.43381593447E+02 -0.26551629284E+02  0.67470396900E+02  0.00000000000E+00 0.  1.
         11    1    4    4    0    0  0.15345474316E+02 -0.30776769816E+02 -0.14700115878E+03  0.15097030776E+03  0.00000000000E+00 0. -1.
         21    1    1    2  503  501 -0.35502777895E+02 -0.51729240558E+01 -0.38772679367E+01  0.36086556890E+02  0.00000000000E+00 0.  1.
          1    1    1    2  501    0 -0.50299352551E+02  0.70602011498E+02 -0.13214251779E+03  0.15803896324E+03  0.00000000000E+00 0. -1.
<scales pt_clust_5="13000.00000" pt_clust_6="13000.00000" pt_clust_7="13000.00000" pt_clust_8="13000.00000" pt_clust_9="35.87766" pt_clust_10="89.41001"></scales>
<clustering>
<clus scale="   35.878">  1  9  2 -1</clus>
<clus scale="   80.390">  5  6 -1 -1</clus>
<clus scale="   82.271">  2  5  1 -1</clus>
<clus scale="   89.410">  1 10  2 -1</clus>
<clus scale="   92.385">  7  8 -1 -1</clus>
<clus scale="   35.878">  1  5  2 -1</clus>
</clustering>
</event>
<event>
10    4  0.7697601E-005  0.1332340E+03  0.7546771E-02  0.1228553E+00
          2   -1    0    0  503    0 -0.00000000000E+00  0.00000000000E+00  0.95190809726E+03  0.95190809726E+03  0.00000000000E+00 0. -1.
         21   -1    0    0  501  502  0.00000000000E+00 -0.00000000000E+00 -0.45571088359E+02  0.45571088359E+02  0.00000000000E+00 0. -1.
         23    2    1    2    0    0  0.79373775316E+02 -0.58341633048E+02  0.66728587573E+03  0.68147909531E+03  0.97156446240E+02 0.  0.
         24    2    1    2    0    0 -0.74639523504E+02  0.23104481193E+02  0.17119444151E+03  0.20257248113E+03  0.74987984287E+02 0.  0.
        -11    1    4    4    0    0 -0.29573474028E+02 -0.24579534795E+02  0.92112420286E+02  0.99817041971E+02  0.00000000000E+00 0.  1.
         12    1    4    4    0    0 -0.45066049476E+02  0.47684015988E+02  0.79082021227E+02  0.10275543916E+03  0.00000000000E+00 0. -1.
        -13    1    3    3    0    0  0.18760461666E+02 -0.72691570672E+02  0.40490995680E+03  0.41181074839E+03  0.00000000000E+00 0. -1.
         13    1    3    3    0    0  0.60613313650E+02  0.14349937624E+02  0.26237591893E+03  0.26966834693E+03  0.00000000000E+00 0.  1.
         21    1    1    2  503  502 -0.24968892333E+02  0.37401539280E+02  0.25708489834E+01  0.45043645383E+02  0.00000000000E+00 0. -1.
          1    1    1    2  501    0  0.20234640521E+02 -0.21643874250E+01  0.65285842675E+02  0.68383963790E+02  0.00000000000E+00 0. -1.
<scales pt_clust_5="13000.00000" pt_clust_6="13000.00000" pt_clust_7="13000.00000" pt_clust_8="13000.00000" pt_clust_9="39.40983" pt_clust_10="20.35008"></scales>
<clustering>
<clus scale="   20.350">  2 10  1 -1</clus>
<clus scale="   39.410">  2  9  1 -1</clus>
<clus scale="   74.988">  5  6 -1 -1</clus>
<clus scale="   97.156">  7  8 -1 -1</clus>
<clus scale="  118.047">  2  5  1 -1</clus>
<clus scale="   20.350">  2  5  1 -1</clus>
</clustering>
</event>
<event>
10    4  0.7697601E-005  0.2549125E+03  0.7546771E-02  0.1154953E+00
          2   -1    0    0  502    0 -0.00000000000E+00  0.00000000000E+00  0.90863081735E+03  0.90863081735E+03  0.00000000000E+00 0. -1.
         21   -1    0    0  503  502  0.00000000000E+00 -0.00000000000E+00 -0.18821129341E+03  0.18821129341E+03  0.00000000000E+00 0. -1.
         24    2    1    2    0    0 -0.20150438538E+02 -0.48658789747E+01 -0.47378457625E+02  0.95333633884E+02  0.80087867690E+02 0.  0.
         23    2    1    2    0    0 -0.21438094497E+03 -0.44201261143E+01  0.62686077055E+03  0.66845032055E+03  0.88840746850E+02 0.  0.
        -11    1    3    3    0    0  0.26028728980E+02 -0.88385136044E+01  0.20605450366E+01  0.27565556423E+02  0.00000000000E+00 0.  1.
         12    1    3    3    0    0 -0.46179167518E+02  0.39726346297E+01 -0.49439002662E+02  0.67768077461E+02  0.00000000000E+00 0. -1.
        -11    1    4    4    0    0 -0.59649017513E+02  0.12986944328E+02  0.84925619544E+02  0.10458980289E+03  0.00000000000E+00 0.  1.
         11    1    4    4    0    0 -0.15473192746E+03 -0.17407070443E+02  0.54193515101E+03  0.56386051766E+03  0.00000000000E+00 0. -1.
         21    1    1    2  503  501 -0.20060729840E+02 -0.33582196482E+01 -0.22442091480E+02  0.30287918234E+02  0.00000000000E+00 0.  1.
          1    1    1    2  501    0  0.25459211335E+03  0.12644224737E+02  0.16337930249E+03  0.30277023810E+03  0.00000000000E+00 0. -1.
<scales pt_clust_5="13000.00000" pt_clust_6="13000.00000" pt_clust_7="13000.00000" pt_clust_8="13000.00000" pt_clust_9="20.33988" pt_clust_10="238.93033"></scales>
<clustering>
<clus scale="   20.340">  2  9  1 -1</clus>
<clus scale="   80.088">  5  6 -1 -1</clus>
<clus scale="   85.411">  1  5  2 -1</clus>
<clus scale="   88.841">  7  8 -1 -1</clus>
<clus scale="  238.930">  2 10  1 -1</clus>
<clus scale="   20.340">  2  5  1 -1</clus>
</clustering>
</event>
<event>
10    4  0.7697601E-005  0.3795824E+03  0.7546771E-02  0.1051348E+00
         21   -1    0    0  501  502  0.00000000000E+00  0.00000000000E+00  0.30611945252E+03  0.30611945252E+03  0.00000000000E+00 0. -1.
          2   -1    0    0  503    0 -0.00000000000E+00 -0.00000000000E+00 -0.10028965938E+04  0.10028965938E+04  0.00000000000E+00 0. -1.
         23    2    1    2    0    0  0.25619398760E+03 -0.29916316269E+03 -0.54059169495E+03  0.67554560018E+03  0.94807806018E+02 0.  0.
         24    2    1    2    0    0 -0.88470888503E+02  0.30418474051E+03  0.42937880116E+02  0.33026222715E+03  0.82909725983E+02 0.  0.
        -11    1    4    4    0    0 -0.15131329944E+02  0.87856822518E+02 -0.23833920858E+02  0.92281277583E+02  0.00000000000E+00 0.  1.
         12    1    4    4    0    0 -0.73339558559E+02  0.21632791799E+03  0.66771800974E+02  0.23798094957E+03  0.00000000000E+00 0. -1.
        -11    1    3    3    0    0  0.60526711882E+02 -0.10112298674E+03 -0.23006052869E+03  0.25849020902E+03  0.00000000000E+00 0.  1.
         11    1    3    3    0    0  0.19566727572E+03 -0.19804017595E+03 -0.31053116626E+03  0.41705539116E+03  0.00000000000E+00 0. -1.
         21    1    1    2  503  502 -0.25276219057E+02  0.31002808510E+02  0.15676130067E+02  0.42962802972E+02  0.00000000000E+00 0. -1.
          1    1    1    2  501    0 -0.14244688004E+03 -0.36024386325E+02 -0.21479945656E+03  0.26024541606E+03  0.00000000000E+00 0. -1.
<scales pt_clust_5="13000.00000" pt_clust_6="13000.00000" pt_clust_7="13000.00000" pt_clust_8="13000.00000" pt_clust_9="40.00077" pt_clust_10="148.34908"></scales>
<clustering>
<clus scale="   40.001">  1  9  2 -1</clus>
<clus scale="   82.910">  5  6 -1 -1</clus>
<clus scale="   94.808">  7  8 -1 -1</clus>
<clus scale="  148.349">  1 10  2 -1</clus>
<clus scale="  376.787">  1  5  2 -1</clus>
<clus scale="   40.001">  1  5  2 -1</clus>
</clustering>
</event>
<event>
10    4  0.7697601E-005  0.1936284E+03  0.7546771E-02  0.1159407E+00
         21   -1    0    0  503  502  0.00000000000E+00  0.00000000000E+00  0.14888654523E+03  0.14888654523E+03  0.00000000000E+00 0. -1.
          2   -1    0    0  502    0 -0.00000000000E+00 -0.00000000000E+00 -0.10129129909E+04  0.10129129909E+04  0.00000000000E+00 0. -1.
         24    2    1    2    0    0  0.87351332851E+02  0.13084064103E+03 -0.52516603463E+03  0.55411934929E+03  0.80618612222E+02 0.  0.
         23    2    1    2    0    0  0.97665815508E+02 -0.12041841004E+03  0.11444117024E+02  0.18087111771E+03  0.92434779229E+02 0.  0.
        -13    1    3    3    0    0  0.54828279329E+02  0.11085321917E+03 -0.28132373189E+03  0.30730704277E+03  0.00000000000E+00 0.  1.
         14    1    3    3    0    0  0.32523053522E+02  0.19987421856E+02 -0.24384230274E+03  0.24681230652E+03  0.00000000000E+00 0. -1.
        -13    1    4    4    0    0  0.55820394863E+02 -0.48786607955E+02 -0.39011942706E+02  0.83773392387E+02  0.00000000000E+00 0.  1.
         13    1    4    4    0    0  0.41845420645E+02 -0.71631802088E+02  0.50456059730E+02  0.97097725322E+02  0.00000000000E+00 0. -1.
         21    1    1    2  503  501  0.17648316032E+02 -0.27405351990E+02 -0.18072408753E+02  0.37271011987E+02  0.00000000000E+00 0. -1.
          1    1    1    2  501    0 -0.20266546439E+03  0.16983121002E+02 -0.33223211927E+03  0.38953805710E+03  0.00000000000E+00 0. -1.
<scales pt_clust_5="13000.00000" pt_clust_6="13000.00000" pt_clust_7="13000.00000" pt_clust_8="13000.00000" pt_clust_9="32.59626" pt_clust_10="170.14048"></scales>
<clustering>
<clus scale="   32.596">  1  9  2 -1</clus>
<clus scale="   80.619">  5  6 -1 -1</clus>
<clus scale="   92.435">  7  8 -1 -1</clus>
<clus scale="  175.600">  2  5  1 -1</clus>
<clus scale="  170.140">  1 10  2 -1</clus>
<clus scale="   32.596">  1  5  2 -1</clus>
</clustering>
</event>
<event>
10    4  0.7697601E-005  0.1531034E+03  0.7546771E-02  0.1198692E+00
         21   -1    0    0  501  502  0.00000000000E+00  0.00000000000E+00  0.39339537603E+03  0.39339537603E+03  0.00000000000E+00 0. -1.
          2   -1    0    0  503    0 -0.00000000000E+00 -0.00000000000E+00 -0.21556343822E+03  0.21556343822E+03  0.00000000000E+00 0. -1.
         23    2    1    2    0    0  0.11078551482E+03 -0.51367829546E+02 -0.59341409299E+02  0.16392098879E+03  0.91850985311E+02 0.  0.
         24    2    1    2    0    0 -0.15174453850E+03  0.94811651756E+02  0.27032916278E+03  0.33405049825E+03  0.80599161639E+02 0.  0.
        -11    1    4    4    0    0 -0.76345553565E+02  0.51758271185E+02  0.70243378231E+02  0.11593832141E+03  0.00000000000E+00 0.  1.
         12    1    4    4    0    0 -0.75398984936E+02  0.43053380571E+02  0.20008578455E+03  0.21811217684E+03  0.00000000000E+00 0. -1.
        -13    1    3    3    0    0 -0.15981586928E+02 -0.12081112921E+02 -0.92619615132E+01  0.22071437226E+02  0.00000000000E+00 0.  1.
         13    1    3    3    0    0  0.12676710175E+03 -0.39286716625E+02 -0.50079447785E+02  0.14184955156E+03  0.00000000000E+00 0. -1.
         21    1    1    2  503  502 -0.11965411030E+02  0.17739436576E+02  0.43228928530E+01  0.21829935267E+02  0.00000000000E+00 0.  1.
          1    1    1    2  501    0  0.52924434713E+02 -0.61183258786E+02 -0.37478708529E+02  0.89157391945E+02  0.00000000000E+00 0. -1.
<scales pt_clust_5="13000.00000" pt_clust_6="13000.00000" pt_clust_7="13000.00000" pt_clust_8="13000.00000" pt_clust_9="21.39763" pt_clust_10="74.39723"></scales>
<clustering>
<clus scale="   21.398">  2  9  1 -1</clus>
<clus scale="   74.397">  1 10  2 -1</clus>
<clus scale="   80.599">  5  6 -1 -1</clus>
<clus scale="   91.851">  7  8 -1 -1</clus>
<clus scale="  146.630">  1  5  2 -1</clus>
<clus scale="   74.397">  1  5  2 -1</clus>
</clustering>
</event>
<event>
10    4  0.7697601E-005  0.1251102E+03  0.7546771E-02  0.1249482E+00
         -3   -1    0    0    0  501 -0.00000000000E+00  0.00000000000E+00  0.51577307830E+03  0.51577307830E+03  0.00000000000E+00 0.  1.
         21   -1    0    0  501  502  0.00000000000E+00 -0.00000000000E+00 -0.64540306494E+02  0.64540306494E+02  0.00000000000E+00 0.  1.
         24    2    1    2    0    0  0.55306586834E+01  0.33672742486E+02  0.20047229143E+02  0.95267027364E+02  0.86657217441E+02 0.  0.
         23    2    1    2    0    0 -0.13053402739E+02  0.63656780086E+02  0.25834239841E+03  0.28203732053E+03  0.92637348744E+02 0.  0.
        -13    1    3    3    0    0  0.12626136681E+02  0.49629167907E+02  0.42691619421E+02  0.66671193205E+02  0.00000000000E+00 0.  1.
         14    1    3    3    0    0 -0.70954779980E+01 -0.15956425421E+02 -0.22644390277E+02  0.28595834159E+02  0.00000000000E+00 0. -1.
        -13    1    4    4    0    0  0.22826249602E+02 -0.14367995214E+02  0.53273033830E+02  0.59711750023E+02  0.00000000000E+00 0. -1.
         13    1    4    4    0    0 -0.35879652341E+02  0.78024775299E+02  0.20506936458E+03  0.22232557051E+03  0.00000000000E+00 0.  1.
         21    1    1    2  503  502 -0.16003159579E+02 -0.44621647452E+02  0.62089047765E+02  0.78116850872E+02  0.00000000000E+00 0. -1.
         -4    1    1    2    0  503  0.23525903635E+02 -0.52707875120E+02  0.11075409648E+03  0.12489218602E+03  0.00000000000E+00 0.  1.
<scales pt_clust_5="13000.00000" pt_clust_6="13000.00000" pt_clust_7="13000.00000" pt_clust_8="13000.00000" pt_clust_9="38.53729" pt_clust_10="94.22930"></scales>
<clustering>
<clus scale="   38.537">  9 10 -1 -1</clus>
<clus scale="   86.657">  5  6 -1 -1</clus>
<clus scale="   92.637">  7  8 -1 -1</clus>
<clus scale="   93.134">  1  5  2 -1</clus>
<clus scale="   94.229">  2  9  1 -1</clus>
<clus scale="   94.229">  2  5  1 -1</clus>
</clustering>
</event>
<event>
10    4  0.7697601E-005  0.1639092E+03  0.7546771E-02  0.1209770E+00
         21   -1    0    0  503  502  0.00000000000E+00  0.00000000000E+00  0.37457662626E+03  0.37457662626E+03  0.00000000000E+00 0. -1.
          2   -1    0    0  502    0 -0.00000000000E+00 -0.00000000000E+00 -0.21380706582E+03  0.21380706582E+03  0.00000000000E+00 0. -1.
         23    2    1    2    0    0  0.14259118495E+02  0.40111411798E+02  0.10130863431E+03  0.14363858359E+03  0.92500570229E+02 0.  0.
         24    2    1    2    0    0  0.63857988962E+02 -0.12944155136E+03 -0.75872308189E+02  0.18149784105E+03  0.79698815448E+02 0.  0.
        -13    1    4    4    0    0 -0.74812113113E+01 -0.37553118708E+02 -0.48852545089E+02  0.62070737140E+02  0.00000000000E+00 0.  1.
         14    1    4    4    0    0  0.71339200273E+02 -0.91888432650E+02 -0.27019763100E+02  0.11942710391E+03  0.00000000000E+00 0. -1.
        -13    1    3    3    0    0  0.47384549497E+02 -0.16747260180E+01  0.37288829784E+02  0.60320453123E+02  0.00000000000E+00 0. -1.
         13    1    3    3    0    0 -0.33125431002E+02  0.41786137816E+02  0.64019804525E+02  0.83318130464E+02  0.00000000000E+00 0.  1.
         21    1    1    2  503  501 -0.19489224792E+02 -0.57626391629E+02  0.68159813236E+02  0.91358584903E+02  0.00000000000E+00 0. -1.
          1    1    1    2  501    0 -0.58627882665E+02  0.14695653119E+03  0.67173421085E+02  0.17188868254E+03  0.00000000000E+00 0. -1.
<scales pt_clust_5="13000.00000" pt_clust_6="13000.00000" pt_clust_7="13000.00000" pt_clust_8="13000.00000" pt_clust_9="60.83281" pt_clust_10="143.22826"></scales>
<clustering>
<clus scale="   60.833">  1  9  2 -1</clus>
<clus scale="   79.699">  5  6 -1 -1</clus>
<clus scale="   92.501">  7  8 -1 -1</clus>
<clus scale="   94.106">  2  7  1 -1</clus>
<clus scale="  143.228">  1 10  2 -1</clus>
<clus scale="   60.833">  1  5  2 -1</clus>
</clustering>
</event>
<event>
10    4  0.7697601E-005  0.1239951E+03  0.7546771E-02  0.1239696E+00
          2   -1    0    0  503    0 -0.00000000000E+00  0.00000000000E+00  0.74914981314E+03  0.74914981314E+03  0.00000000000E+00 0. -1.
         21   -1    0    0  501  502  0.00000000000E+00 -0.00000000000E+00 -0.10299447307E+03  0.10299447307E+03  0.00000000000E+00 0. -1.
         24    2    1    2    0    0 -0.12238124750E+03  0.33337830578E+02  0.35340556493E+03  0.38365743214E+03  0.78796898606E+02 0.  0.
         23    2    1    2    0    0  0.22504086028E+02 -0.45592148739E+02  0.13092466530E+03  0.16652511266E+03  0.89466570570E+02 0.  0.
        -13    1    3    3    0    0 -0.27347430540E+02  0.44923797643E+02  0.14713185002E+03  0.15624919469E+03  0.00000000000E+00 0.  1.
         14    1    3    3    0    0 -0.95033816958E+02 -0.11585967065E+02  0.20627371491E+03  0.22740823745E+03  0.00000000000E+00 0. -1.
        -11    1    4    4    0    0  0.14146623381E+02 -0.67752111950E+02  0.59488485204E+02  0.91265302819E+02  0.00000000000E+00 0. -1.
         11    1    4    4    0    0  0.83574626471E+01  0.22159963211E+02  0.71436180093E+02  0.75259809844E+02  0.00000000000E+00 0.  1.
         21    1    1    2  503  502  0.90309824238E+01  0.24924150220E+02 -0.57997800419E+02  0.63769246202E+02  0.00000000000E+00 0. -1.
          1    1    1    2  501    0  0.90846179047E+02 -0.12669832060E+02  0.21982291027E+03  0.23819249520E+03  0.00000000000E+00 0. -1.
<scales pt_clust_5="13000.00000" pt_clust_6="13000.00000" pt_clust_7="13000.00000" pt_clust_8="13000.00000" pt_clust_9="26.50985" pt_clust_10="93.09742"></scales>
<clustering>
<clus scale="   26.510">  2  9  1 -1</clus>
<clus scale="   78.797">  5  6 -1 -1</clus>
<clus scale="   89.467">  7  8 -1 -1</clus>
<clus scale="   93.097">  2 10  1 -1</clus>
<clus scale="  116.531">  1  5  2 -1</clus>
<clus scale="   26.510">  2  5  1 -1</clus>
</clustering>
</event>
<event>
10    4  0.7697601E-005  0.3096675E+03  0.7546771E-02  0.1126601E+00
          2   -1    0    0  502    0 -0.00000000000E+00  0.00000000000E+00  0.51652568346E+03  0.51652568346E+03  0.00000000000E+00 0. -1.
         21   -1    0    0  503  502  0.00000000000E+00 -0.00000000000E+00 -0.58487855710E+03  0.58487855710E+03  0.00000000000E+00 0.  1.
         24    2    1    2    0    0  0.29192954969E+02  0.53697170650E+02  0.11340053096E+03  0.14770432852E+03  0.72258380046E+02 0.  0.
         23    2    1    2    0    0 -0.39469564057E+01  0.26886631175E+03 -0.15578520123E+02  0.28561831966E+03  0.95028743975E+02 0.  0.
        -11    1    3    3    0    0  0.36409779006E+02  0.92090919919E+01  0.16871227479E+02  0.41171807092E+02  0.00000000000E+00 0.  1.
         12    1    3    3    0    0 -0.72168240373E+01  0.44488078658E+02  0.96529303483E+02  0.10653252143E+03  0.00000000000E+00 0. -1.
        -13    1    4    4    0    0  0.21690263420E+02  0.25077754958E+03 -0.24753708565E+02  0.25292803915E+03  0.00000000000E+00 0.  1.
         13    1    4    4    0    0 -0.25637219826E+02  0.18088762167E+02  0.91751884426E+01  0.32690280514E+02  0.00000000000E+00 0. -1.
         21    1    1    2  503  501 -0.36824200699E+02  0.10213146684E+02 -0.30495523019E+03  0.30734023906E+03  0.00000000000E+00 0.  1.
          1    1    1    2  501    0  0.11578202136E+02 -0.33277662908E+03  0.13878034571E+03  0.36074135330E+03  0.00000000000E+00 0. -1.
<scales pt_clust_5="13000.00000" pt_clust_6="13000.00000" pt_clust_7="13000.00000" pt_clust_8="13000.00000" pt_clust_9="38.21427" pt_clust_10="294.72634"></scales>
<clustering>
<clus scale="   38.214">  2  9  1 -1</clus>
<clus scale="   72.258">  5  6 -1 -1</clus>
<clus scale="   94.327">  1  5  2 -1</clus>
<clus scale="   95.029">  7  8 -1 -1</clus>
<clus scale="  294.726">  2 10  1 -1</clus>
<clus scale="   38.214">  2  5  1 -1</clus>
</clustering>
</event>
<event>
10    4  0.7697601E-005  0.1273731E+03  0.7546771E-02  0.1235815E+00
          2   -1    0    0  502    0 -0.00000000000E+00  0.00000000000E+00  0.12185305491E+04  0.12185305491E+04  0.00000000000E+00 0. -1.
         21   -1    0    0  503  502  0.00000000000E+00 -0.00000000000E+00 -0.36908879612E+02  0.36908879612E+02  0.00000000000E+00 0. -1.
         24    2    1    2    0    0  0.71308533589E+02  0.37301461035E+02  0.61611991309E+03  0.62611950923E+03  0.77107629825E+02 0.  0.
         23    2    1    2    0    0 -0.11144963357E+03 -0.36556477701E+00  0.42005123785E+03  0.44440451444E+03  0.92904120316E+02 0.  0.
        -13    1    3    3    0    0  0.59531600379E+02 -0.79765926998E+01  0.25481916427E+03  0.26180229937E+03  0.00000000000E+00 0.  1.
         14    1    3    3    0    0  0.11776933210E+02  0.45278053735E+02  0.36130074882E+03  0.36431720986E+03  0.00000000000E+00 0. -1.
        -13    1    4    4    0    0 -0.31835123303E+02 -0.33246346351E+02  0.24525299638E+03  0.24953522167E+03  0.00000000000E+00 0.  1.
         13    1    4    4    0    0 -0.79614510264E+02  0.32880781574E+02  0.17479824147E+03  0.19486929277E+03  0.00000000000E+00 0. -1.
         21    1    1    2  503  501  0.20987599797E+02 -0.29396373113E+01 -0.10856506834E+02  0.23811437449E+02  0.00000000000E+00 0. -1.
          1    1    1    2  501    0  0.19153500180E+02 -0.33996258947E+02  0.15630702543E+03  0.16110396764E+03  0.00000000000E+00 0. -1.
<scales pt_clust_5="13000.00000" pt_clust_6="13000.00000" pt_clust_7="13000.00000" pt_clust_8="13000.00000" pt_clust_9="21.19247" pt_clust_10="40.64905"></scales>
<clustering>
<clus scale="   21.192">  2  9  1 -1</clus>
<clus scale="   40.649">  2 10  1 -1</clus>
<clus scale="   77.108">  5  6 -1 -1</clus>
<clus scale="   92.904">  7  8 -1 -1</clus>
<clus scale="  116.354">  1  5  2 -1</clus>
<clus scale="   21.192">  2  5  1 -1</clus>
</clustering>
</event>
<event>
10    4  0.7697601E-005  0.3048457E+03  0.7546771E-02  0.1082843E+00
          2   -1    0    0  503    0 -0.00000000000E+00  0.00000000000E+00  0.94304363977E+03  0.94304363977E+03  0.00000000000E+00 0. -1.
         21   -1    0    0  501  502  0.00000000000E+00 -0.00000000000E+00 -0.26698021227E+03  0.26698021227E+03  0.00000000000E+00 0.  1.
         24    2    1    2    0    0 -0.27060366603E+02  0.11147046458E+03 -0.51715918216E+01  0.14028472830E+03  0.80592380017E+02 0.  0.
         23    2    1    2    0    0 -0.90961683960E+01  0.14376209932E+03 -0.80713615887E+02  0.18711650621E+03  0.88020552304E+02 0.  0.
        -11    1    3    3    0    0 -0.43883495679E+02  0.10271341026E+03 -0.23242908863E+02  0.11408785497E+03  0.00000000000E+00 0.  1.
         12    1    3    3    0    0  0.16823129076E+02  0.87570543224E+01  0.18071317042E+02  0.26196873324E+02  0.00000000000E+00 0. -1.
        -11    1    4    4    0    0  0.12301892958E+02  0.11515573363E+03 -0.93839840422E+02  0.14905735543E+03  0.00000000000E+00 0.  1.
         11    1    4    4    0    0 -0.21398061354E+02  0.28606365687E+02  0.13126224534E+02  0.38059150779E+02  0.00000000000E+00 0. -1.
         21    1    1    2  503  502  0.26867310441E+02 -0.12438416106E+02 -0.37090822043E+02  0.47458356961E+02  0.00000000000E+00 0.  1.
          1    1    1    2  501    0  0.92892245582E+01 -0.24279414779E+03  0.79903945725E+03  0.83516426057E+03  0.00000000000E+00 0. -1.
<scales pt_clust_5="13000.00000" pt_clust_6="13000.00000" pt_clust_7="13000.00000" pt_clust_8="13000.00000" pt_clust_9="29.60687" pt_clust_10="244.06278"></scales>
<clustering>
<clus scale="   29.607">  2  9  1 -1</clus>
<clus scale="   80.592">  5  6 -1 -1</clus>
<clus scale="   88.021">  7  8 -1 -1</clus>
<clus scale="  102.577">  5  7 -1 -1</clus>
<clus scale="  244.063">  2 10  1 -1</clus>
<clus scale="   29.607">  2  5  1 -1</clus>
</clustering>
</event>
<event>
10    4  0.7697601E-005  0.1395438E+03  0.7546771E-02  0.1215816E+00
          2   -1    0    0  502    0 -0.00000000000E+00  0.00000000000E+00  0.64287236745E+03  0.64287236745E+03  0.00000000000E+00 0. -1.
         21   -1    0    0  503  502  0.00000000000E+00 -0.00000000000E+00 -0.99025393989E+02  0.99025393989E+02  0.00000000000E+00 0.  1.
         23    2    1    2    0    0 -0.62360059236E+02  0.90111226278E+02  0.11787990113E+03  0.18408147867E+03  0.89339294883E+02 0.  0.
         24    2    1    2    0    0  0.10845142881E+03 -0.41207774053E+02  0.26845396108E+02  0.14379776500E+03  0.80606010159E+02 0.  0.
        -13    1    4    4    0    0  0.46325655140E+02  0.16162137900E+02 -0.12347181277E+02  0.50593812973E+02  0.00000000000E+00 0.  1.
         14    1    4    4    0    0  0.62125773668E+02 -0.57369911953E+02  0.39192577385E+02  0.93203952026E+02  0.00000000000E+00 0. -1.
        -11    1    3    3    0    0  0.48546432572E+00  0.53668475733E+02  0.92845063315E+02  0.10724153461E+03  0.00000000000E+00 0. -1.
         11    1    3    3    0    0 -0.62845523562E+02  0.36442750545E+02  0.25034837811E+02  0.76839944061E+02  0.00000000000E+00 0.  1.
         21    1    1    2  503  501  0.10963312518E+02 -0.17959989227E+02  0.18858726745E+02  0.28256096843E+02  0.00000000000E+00 0. -1.
          1    1    1    2  501    0 -0.57054682090E+02 -0.30943462998E+02  0.38026294948E+03  0.38576242093E+03  0.00000000000E+00 0. -1.
<scales pt_clust_5="13000.00000" pt_clust_6="13000.00000" pt_clust_7="13000.00000" pt_clust_8="13000.00000" pt_clust_9="21.04175" pt_clust_10="64.87717"></scales>
<clustering>
<clus scale="   21.042">  2  9  1 -1</clus>
<clus scale="   64.877">  2 10  1 -1</clus>
<clus scale="   80.606">  5  6 -1 -1</clus>
<clus scale="   89.339">  7  8 -1 -1</clus>
<clus scale="  134.120">  2  5  1 -1</clus>
<clus scale="   21.042">  2  5  1 -1</clus>
</clustering>
</event>
<event>
10    4  0.7697601E-005  0.1831903E+03  0.7546771E-02  0.1166168E+00
         21   -1    0    0  503  502  0.00000000000E+00  0.00000000000E+00  0.30907137869E+03  0.30907137869E+03  0.00000000000E+00 0.  1.
          2   -1    0    0  502    0 -0.00000000000E+00 -0.00000000000E+00 -0.11069823636E+04  0.11069823636E+04  0.00000000000E+00 0. -1.
         24    2    1    2    0    0 -0.59608310201E+02 -0.13827133221E+03 -0.48015330422E+03  0.50952453054E+03  0.79974619198E+02 0.  0.
         23    2    1    2    0    0  0.32071156104E+02  0.16994301554E+03 -0.38555788825E+03  0.43253131556E+03  0.92299870875E+02 0.  0.
        -13    1    3    3    0    0 -0.34008107324E+02 -0.87209930907E+02 -0.40181039961E+03  0.41256965550E+03  0.00000000000E+00 0.  1.
         14    1    3    3    0    0 -0.25600202878E+02 -0.51061401299E+02 -0.78342904612E+02  0.96954875035E+02  0.00000000000E+00 0. -1.
        -13    1    4    4    0    0 -0.13537779415E+02  0.16898373324E+02 -0.88862090987E+01  0.23404939748E+02  0.00000000000E+00 0.  1.
         13    1    4    4    0    0  0.45608935519E+02  0.15304464221E+03 -0.37667167915E+03  0.40912637581E+03  0.00000000000E+00 0. -1.
         21    1    1    2  503  501  0.41250974820E+02  0.23847954354E+02  0.26470353239E+03  0.26895785527E+03  0.00000000000E+00 0.  1.
          1    1    1    2  501    0 -0.13713820723E+02 -0.55519637687E+02 -0.19690332483E+03  0.20504004091E+03  0.00000000000E+00 0. -1.
<scales pt_clust_5="13000.00000" pt_clust_6="13000.00000" pt_clust_7="13000.00000" pt_clust_8="13000.00000" pt_clust_9="47.64838" pt_clust_10="54.10681"></scales>
<clustering>
<clus scale="   47.648">  1  9  2 -1</clus>
<clus scale="   54.107">  1 10  2 -1</clus>
<clus scale="   79.975">  5  6 -1 -1</clus>
<clus scale="   92.300">  7  8 -1 -1</clus>
<clus scale="  177.300">  2  5  1 -1</clus>
<clus scale="   47.648">  1  5  2 -1</clus>
</clustering>
</event>
<event>
10    4  0.7697601E-005  0.2372179E+03  0.7546771E-02  0.1166121E+00
          2   -1    0    0  502    0 -0.00000000000E+00  0.00000000000E+00  0.18462272043E+04  0.18462272043E+04  0.00000000000E+00 0. -1.
         21   -1    0    0  503  502  0.00000000000E+00 -0.00000000000E+00 -0.66765323509E+02  0.66765323509E+02  0.00000000000E+00 0. -1.
         24    2    1    2    0    0  0.26662389879E+02 -0.97091857780E+01  0.90119749988E+02  0.12417063286E+03  0.80570623705E+02 0.  0.
         23    2    1    2    0    0 -0.12447111944E+03  0.17901604766E+03  0.98317641430E+03  0.10112428778E+04  0.91850375425E+02 0.  0.
        -13    1    3    3    0    0  0.10316357437E+02 -0.17270466477E+02  0.10109679858E+03  0.10307889661E+03  0.00000000000E+00 0.  1.
         14    1    3    3    0    0  0.16346032442E+02  0.75612806991E+01 -0.10977048589E+02  0.21091736252E+02  0.00000000000E+00 0. -1.
        -13    1    4    4    0    0 -0.20320860116E+02  0.64826512619E+02  0.16232342822E+03  0.17596678506E+03  0.00000000000E+00 0.  1.
         13    1    4    4    0    0 -0.10415025932E+03  0.11418953504E+03  0.82085298608E+03  0.83527609279E+03  0.00000000000E+00 0. -1.
         21    1    1    2  503  501 -0.43489321156E+02  0.59385720486E+01  0.87825324898E+01  0.44762937454E+02  0.00000000000E+00 0. -1.
          1    1    1    2  501    0  0.14129805072E+03 -0.17524543393E+03  0.69738318405E+03  0.73281607968E+03  0.00000000000E+00 0. -1.
<scales pt_clust_5="13000.00000" pt_clust_6="13000.00000" pt_clust_7="13000.00000" pt_clust_8="13000.00000" pt_clust_9="43.89291" pt_clust_10="218.71406"></scales>
<clustering>
<clus scale="   43.893">  2  9  1 -1</clus>
<clus scale="   80.571">  5  6 -1 -1</clus>
<clus scale="   81.742">  1  5  2 -1</clus>
<clus scale="   91.850">  7  8 -1 -1</clus>
<clus scale="  218.714">  2 10  1 -1</clus>
<clus scale="   43.893">  2  5  1 -1</clus>
</clustering>
</event>
<event>
10    4  0.7697601E-005  0.2781939E+03  0.7546771E-02  0.1154777E+00
         21   -1    0    0  501  502  0.00000000000E+00  0.00000000000E+00  0.53451223351E+03  0.53451223351E+03  0.00000000000E+00 0.  1.
          2   -1    0    0  503    0 -0.00000000000E+00 -0.00000000000E+00 -0.10141085695E+04  0.10141085695E+04  0.00000000000E+00 0. -1.
         24    2    1    2    0    0  0.72959450782E+01 -0.13394853146E+02 -0.75812479405E+01  0.66418776846E+02  0.64197552072E+02 0.  0.
         23    2    1    2    0    0 -0.13297511455E+03  0.23668284206E+03 -0.17084489504E+03  0.33335496023E+03  0.90754628165E+02 0.  0.
        -11    1    3    3    0    0  0.18652140026E+01 -0.38448202124E+02 -0.12179825603E+02  0.40374390665E+02  0.00000000000E+00 0.  1.
         12    1    3    3    0    0  0.54307310756E+01  0.25053348978E+02  0.45985776620E+01  0.26044386181E+02  0.00000000000E+00 0. -1.
        -11    1    4    4    0    0 -0.31082868025E+02  0.70189372160E+02 -0.99181779898E+02  0.12541817298E+03  0.00000000000E+00 0.  1.
         11    1    4    4    0    0 -0.10189224653E+03  0.16649346990E+03 -0.71663115138E+02  0.20793678725E+03  0.00000000000E+00 0. -1.
         21    1    1    2  503  502 -0.11561069582E+03 -0.31563144017E+03  0.32741197114E+03  0.46924155598E+03  0.00000000000E+00 0.  1.
          1    1    1    2  501    0  0.24128986529E+03  0.92343451253E+02 -0.62858216417E+03  0.67960550998E+03  0.00000000000E+00 0. -1.
<scales pt_clust_5="13000.00000" pt_clust_6="13000.00000" pt_clust_7="13000.00000" pt_clust_8="13000.00000" pt_clust_9="262.97421" pt_clust_10="259.91024"></scales>
<clustering>
<clus scale="   64.198">  5  6 -1 -1</clus>
<clus scale="   65.985">  2  5  1 -1</clus>
<clus scale="   90.755">  7  8 -1 -1</clus>
<clus scale="  259.910">  1 10  2 -1</clus>
<clus scale="  262.974">  1  9  2 -1</clus>
<clus scale="  259.910">  1  5  2 -1</clus>
</clustering>
</event>
<event>
10    4  0.7697601E-005  0.3134713E+03  0.7546771E-02  0.1078694E+00
         21   -1    0    0  501  502  0.00000000000E+00  0.00000000000E+00  0.85210072616E+02  0.85210072616E+02  0.00000000000E+00 0. -1.
          2   -1    0    0  503    0 -0.00000000000E+00 -0.00000000000E+00 -0.16242620310E+04  0.16242620310E+04  0.00000000000E+00 0. -1.
         24    2    1    2    0    0  0.18614407537E+00  0.12482318431E+03 -0.46438161813E+03  0.48702259622E+03  0.77200129377E+02 0.  0.
         23    2    1    2    0    0  0.52401480559E+02  0.10514867845E+03 -0.80888098705E+03  0.82319868622E+03  0.97803200557E+02 0.  0.
        -11    1    3    3    0    0  0.29068142491E+02  0.17854536621E+02 -0.79501008098E+02  0.86510991640E+02  0.00000000000E+00 0.  1.
         12    1    3    3    0    0 -0.28881998416E+02  0.10696864769E+03 -0.38488061004E+03  0.40051160458E+03  0.00000000000E+00 0. -1.
        -11    1    4    4    0    0 -0.98437056309E+01  0.87233333691E+02 -0.43949038157E+03  0.44817223089E+03  0.00000000000E+00 0.  1.
         11    1    4    4    0    0  0.62245186190E+02  0.17915344761E+02 -0.36939060548E+03  0.37502645533E+03  0.00000000000E+00 0. -1.
         21    1    1    2  503  502 -0.77473051438E+01  0.24434227663E+02  0.37528856903E+01  0.25906299803E+02  0.00000000000E+00 0.  1.
          1    1    1    2  501    0 -0.44840319491E+02 -0.25440609042E+03 -0.26954223891E+03  0.37334452139E+03  0.00000000000E+00 0. -1.
<scales pt_clust_5="13000.00000" pt_clust_6="13000.00000" pt_clust_7="13000.00000" pt_clust_8="13000.00000" pt_clust_9="25.63303" pt_clust_10="241.73261"></scales>
<clustering>
<clus scale="   25.633">  1  9  2 -1</clus>
<clus scale="   77.200">  5  6 -1 -1</clus>
<clus scale="   97.803">  7  8 -1 -1</clus>
<clus scale="  134.481">  5  7 -1 -1</clus>
<clus scale="  241.733">  1 10  2 -1</clus>
<clus scale="   25.633">  1  5  2 -1</clus>
</clustering>
</event>
<event>
10    4  0.7697601E-005  0.1832636E+03  0.7546771E-02  0.1177478E+00
         21   -1    0    0  503  502  0.00000000000E+00  0.00000000000E+00  0.57851264062E+02  0.57851264062E+02  0.00000000000E+00 0. -1.
          2   -1    0    0  502    0 -0.00000000000E+00 -0.00000000000E+00 -0.16909696200E+04  0.16909696200E+04  0.00000000000E+00 0. -1.
         23    2    1    2    0    0 -0.72097178384E+02 -0.65491735339E+02 -0.65980680976E+03  0.67356193781E+03  0.94092971724E+02 0.  0.
         24    2    1    2    0    0  0.10590335815E+03 -0.11434753176E+03 -0.76184555575E+03  0.78177497617E+03  0.80452366401E+02 0.  0.
        -13    1    4    4    0    0  0.18663287224E+02 -0.15885350481E+02 -0.32741724952E+02  0.40898449882E+02  0.00000000000E+00 0.  1.
         14    1    4    4    0    0  0.87240070930E+02 -0.98462181279E+02 -0.72910383080E+03  0.74087652629E+03  0.00000000000E+00 0. -1.
        -13    1    3    3    0    0  0.22846372245E+02 -0.18841406105E+02 -0.15014463348E+03  0.15303714017E+03  0.00000000000E+00 0. -1.
         13    1    3    3    0    0 -0.94943550629E+02 -0.46650329234E+02 -0.50966217628E+03  0.52052479764E+03  0.00000000000E+00 0.  1.
         21    1    1    2  503  501 -0.28008670226E+02  0.11591620340E+02 -0.12332090462E+02  0.32725093202E+02  0.00000000000E+00 0. -1.
          1    1    1    2  501    0 -0.57975095444E+01  0.16824764676E+03 -0.19913389996E+03  0.26075887688E+03  0.00000000000E+00 0. -1.
<scales pt_clust_5="13000.00000" pt_clust_6="13000.00000" pt_clust_7="13000.00000" pt_clust_8="13000.00000" pt_clust_9="30.31256" pt_clust_10="164.66018"></scales>
<clustering>
<clus scale="   30.313">  1  9  2 -1</clus>
<clus scale="   80.452">  5  6 -1 -1</clus>
<clus scale="   94.093">  7  8 -1 -1</clus>
<clus scale="  136.834">  2  7  1 -1</clus>
<clus scale="  164.660">  1 10  2 -1</clus>
<clus scale="   30.313">  1  5  2 -1</clus>
</clustering>
</event>
<event>
10    4  0.7697601E-005  0.1453886E+03  0.7546771E-02  0.1209907E+00
          2   -1    0    0  503    0 -0.00000000000E+00  0.00000000000E+00  0.96348443326E+02  0.96348443326E+02  0.00000000000E+00 0. -1.
         21   -1    0    0  501  502  0.00000000000E+00 -0.00000000000E+00 -0.43618878953E+03  0.43618878953E+03  0.00000000000E+00 0.  1.
         24    2    1    2    0    0  0.88625699158E+02 -0.43818490784E+02 -0.84772295303E+01  0.12803628069E+03  0.80912613766E+02 0.  0.
         23    2    1    2    0    0 -0.12422140297E+03  0.73163588839E+02 -0.26666895286E+03  0.31859633314E+03  0.98017474883E+02 0.  0.
        -13    1    3    3    0    0 -0.57303424665E+01 -0.30124624705E+02  0.69740299620E+01  0.31447844637E+02  0.00000000000E+00 0.  1.
         14    1    3    3    0    0  0.94356041625E+02 -0.13693866080E+02 -0.15451259492E+02  0.96588436053E+02  0.00000000000E+00 0. -1.
        -13    1    4    4    0    0 -0.94816744923E+02  0.11687745393E+02 -0.20714696458E+03  0.22811550461E+03  0.00000000000E+00 0.  1.
         13    1    4    4    0    0 -0.29404658049E+02  0.61475843446E+02 -0.59521988287E+02  0.90480828533E+02  0.00000000000E+00 0. -1.
         21    1    1    2  503  502  0.74957773502E+01 -0.24077787130E+02 -0.43629543129E+02  0.50393090248E+02  0.00000000000E+00 0.  1.
          1    1    1    2  501    0  0.28099926464E+02 -0.52673109248E+01 -0.21064620685E+02  0.35511528779E+02  0.00000000000E+00 0. -1.
<scales pt_clust_5="13000.00000" pt_clust_6="13000.00000" pt_clust_7="13000.00000" pt_clust_8="13000.00000" pt_clust_9="25.21758" pt_clust_10="29.49184"></scales>
<clustering>
<clus scale="   25.218">  2  9  1 -1</clus>
<clus scale="   29.492">  2 10  1 -1</clus>
<clus scale="   80.913">  5  6 -1 -1</clus>
<clus scale="   98.017">  7  8 -1 -1</clus>
<clus scale="  134.452">  1  5  2 -1</clus>
<clus scale="   25.218">  2  5  1 -1</clus>
</clustering>
</event>
<event>
10    4  0.7697601E-005  0.1134819E+03  0.7546771E-02  0.1257874E+00
         21   -1    0    0  503  502  0.00000000000E+00  0.00000000000E+00  0.48637581262E+02  0.48637581262E+02  0.00000000000E+00 0. -1.
          2   -1    0    0  502    0 -0.00000000000E+00 -0.00000000000E+00 -0.71686685117E+03  0.71686685117E+03  0.00000000000E+00 0. -1.
         23    2    1    2    0    0  0.17216444944E+01 -0.72861820753E+02 -0.40267647400E+03  0.41909371598E+03  0.90439986081E+02 0.  0.
         24    2    1    2    0    0  0.56041571050E+02  0.49422535205E+02 -0.76782605606E+02  0.13394038643E+03  0.80381676522E+02 0.  0.
        -11    1    4    4    0    0  0.52406460357E+02  0.67755900883E+02 -0.77101632752E+02  0.11524739027E+03  0.00000000000E+00 0.  1.
         12    1    4    4    0    0  0.36351106926E+01 -0.18333365679E+02  0.31902714576E+00  0.18692996153E+02  0.00000000000E+00 0. -1.
        -13    1    3    3    0    0  0.44323540359E+02 -0.44602978717E+02 -0.18143207078E+03  0.19201978608E+03  0.00000000000E+00 0. -1.
         13    1    3    3    0    0 -0.42601895865E+02 -0.28258842036E+02 -0.22124440322E+03  0.22707392990E+03  0.00000000000E+00 0.  1.
         21    1    1    2  503  501 -0.22802797340E+02  0.64753204244E+00 -0.41430529707E+01  0.23185162328E+02  0.00000000000E+00 0.  1.
          1    1    1    2  501    0 -0.34960418204E+02  0.22791753506E+02 -0.18462713733E+03  0.18928516769E+03  0.00000000000E+00 0. -1.
<scales pt_clust_5="13000.00000" pt_clust_6="13000.00000" pt_clust_7="13000.00000" pt_clust_8="13000.00000" pt_clust_9="22.81199" pt_clust_10="42.89790"></scales>
<clustering>
<clus scale="   22.812">  1  9  2 -1</clus>
<clus scale="   42.898">  1 10  2 -1</clus>
<clus scale="   80.382">  5  6 -1 -1</clus>
<clus scale="   90.440">  7  8 -1 -1</clus>
<clus scale="  105.641">  1  5  2 -1</clus>
<clus scale="   22.812">  1  5  2 -1</clus>
</clustering>
</event>
<event>
10    4  0.7697601E-005  0.8923516E+02  0.7546771E-02  0.1314407E+00
          2   -1    0    0  503    0 -0.00000000000E+00  0.00000000000E+00  0.48558922821E+03  0.48558922821E+03  0.00000000000E+00 0. -1.
         21   -1    0    0  501  502  0.00000000000E+00 -0.00000000000E+00 -0.13524279495E+03  0.13524279495E+03  0.00000000000E+00 0.  1.
         23    2    1    2    0    0 -0.24881798634E+02 -0.25909890961E+01  0.33515804477E+03  0.34751899870E+03  0.88389605490E+02 0.  0.
         24    2    1    2    0    0 -0.52451620881E+02 -0.47092889723E+02  0.72982108570E+02  0.12547896532E+03  0.73821878677E+02 0.  0.
        -13    1    4    4    0    0  0.34348728583E+01 -0.44416494022E+02  0.21578464026E+02  0.49500034369E+02  0.00000000000E+00 0.  1.
         14    1    4    4    0    0 -0.55886493739E+02 -0.26763957010E+01  0.51403644544E+02  0.75978930953E+02  0.00000000000E+00 0. -1.
        -13    1    3    3    0    0 -0.39599387820E+02 -0.37143321176E+02  0.19532159120E+03  0.20272706236E+03  0.00000000000E+00 0.  1.
         13    1    3    3    0    0  0.14717589186E+02  0.34552332080E+02  0.13983645356E+03  0.14479193634E+03  0.00000000000E+00 0. -1.
         21    1    1    2  503  502  0.91694850735E+02  0.20823471913E+02 -0.16530445943E+02  0.95471557424E+02  0.00000000000E+00 0.  1.
          1    1    1    2  501    0 -0.14361431220E+02  0.28860406906E+02 -0.41263274132E+02  0.52362501712E+02  0.00000000000E+00 0. -1.
<scales pt_clust_5="13000.00000" pt_clust_6="13000.00000" pt_clust_7="13000.00000" pt_clust_8="13000.00000" pt_clust_9="91.38704" pt_clust_10="32.23622"></scales>
<clustering>
<clus scale="   32.236">  2 10  1 -1</clus>
<clus scale="   73.822">  5  6 -1 -1</clus>
<clus scale="   88.390">  7  8 -1 -1</clus>
<clus scale="   91.387">  2  9  1 -1</clus>
<clus scale="   74.832">  2  5  1 -1</clus>
<clus scale="   32.236">  2  5  1 -1</clus>
</clustering>
</event>
<event>
10    4  0.7697601E-005  0.2725056E+03  0.7546771E-02  0.1116555E+00
         21   -1    0    0  503  502  0.00000000000E+00  0.00000000000E+00  0.39667907615E+03  0.39667907615E+03  0.00000000000E+00 0. -1.
          2   -1    0    0  502    0 -0.00000000000E+00 -0.00000000000E+00 -0.55494323289E+03  0.55494323289E+03  0.00000000000E+00 0. -1.
         24    2    1    2    0    0  0.18151601356E+02 -0.16383159199E+03  0.70313450327E+02  0.19691076737E+03  0.81606359088E+02 0.  0.
         23    2    1    2    0    0 -0.20810566582E+03  0.28360754975E+03 -0.30208751644E+03  0.47228045117E+03  0.89725952471E+02 0.  0.
        -13    1    3    3    0    0  0.26708248460E+02 -0.76735085907E+02  0.73180476685E+02  0.10934800461E+03  0.00000000000E+00 0.  1.
         14    1    3    3    0    0 -0.85566471041E+01 -0.87096506084E+02 -0.28670263575E+01  0.87562762758E+02  0.00000000000E+00 0. -1.
        -11    1    4    4    0    0 -0.45048595862E+02  0.32660122960E+02 -0.88766868285E+02  0.10476457668E+03  0.00000000000E+00 0.  1.
         11    1    4    4    0    0 -0.16305706995E+03  0.25094742679E+03 -0.21332064815E+03  0.36751587449E+03  0.00000000000E+00 0. -1.
         21    1    1    2  503  501 -0.16549461563E+02  0.17999628461E+02  0.65475389842E+01  0.25312873593E+02  0.00000000000E+00 0. -1.
          1    1    1    2  501    0  0.20650352602E+03 -0.13777558622E+03  0.66962370384E+02  0.25711821691E+03  0.00000000000E+00 0. -1.
<scales pt_clust_5="13000.00000" pt_clust_6="13000.00000" pt_clust_7="13000.00000" pt_clust_8="13000.00000" pt_clust_9="24.45141" pt_clust_10="257.31028"></scales>
<clustering>
<clus scale="   24.451">  1  9  2 -1</clus>
<clus scale="   81.606">  5  6 -1 -1</clus>
<clus scale="   89.726">  7  8 -1 -1</clus>
<clus scale="  177.829">  2  5  1 -1</clus>
<clus scale="  257.310">  1 10  2 -1</clus>
<clus scale="   24.451">  1  5  2 -1</clus>
</clustering>
</event>
<event>
10    4  0.7697601E-005  0.1012377E+03  0.7546771E-02  0.1283229E+00
         21   -1    0    0  501  502  0.00000000000E+00  0.00000000000E+00  0.27251611688E+03  0.27251611688E+03  0.00000000000E+00 0. -1.
         -1   -1    0    0    0  501 -0.00000000000E+00 -0.00000000000E+00 -0.10067701373E+03  0.10067701373E+03  0.00000000000E+00 0.  1.
         23    2    1    2    0    0  0.31819699223E+02  0.21126507294E+02  0.15473585210E+02  0.10054954068E+03  0.91716714527E+02 0.  0.
         24    2    1    2    0    0 -0.38290439323E+02 -0.42209114275E+02  0.14640431055E+03  0.17650760995E+03  0.80454627901E+02 0.  0.
        -13    1    4    4    0    0  0.24367898696E+02 -0.40311296913E+01  0.29371790309E+02  0.38376380228E+02  0.00000000000E+00 0.  1.
         14    1    4    4    0    0 -0.62658338019E+02 -0.38177984583E+02  0.11703252024E+03  0.13813122972E+03  0.00000000000E+00 0. -1.
        -13    1    3    3    0    0 -0.26718535900E+01 -0.33862474798E+02  0.68270931291E+00  0.33974580101E+02  0.00000000000E+00 0.  1.
         13    1    3    3    0    0  0.34491552813E+02  0.54988982091E+02  0.14790875897E+02  0.66574960584E+02  0.00000000000E+00 0. -1.
         21    1    1    2  503  502  0.22347541583E+02 -0.26255831676E+02  0.26556400824E+02  0.43520383001E+02  0.00000000000E+00 0. -1.
         -2    1    1    2    0  503 -0.15876801483E+02  0.47338438657E+02 -0.16595193435E+02  0.52615596974E+02  0.00000000000E+00 0.  1.
<scales pt_clust_5="13000.00000" pt_clust_6="13000.00000" pt_clust_7="13000.00000" pt_clust_8="13000.00000" pt_clust_9="34.47871" pt_clust_10="47.51316"></scales>
<clustering>
<clus scale="   34.479">  1  9  2 -1</clus>
<clus scale="   47.513">  1 10  2 -1</clus>
<clus scale="   80.455">  5  6 -1 -1</clus>
<clus scale="   91.160">  1  5  2 -1</clus>
<clus scale="   91.717">  7  8 -1 -1</clus>
<clus scale="   34.479">  1  5  2 -1</clus>
</clustering>
</event>
<event>
10    4  0.7697601E-005  0.1018997E+03  0.7546771E-02  0.1281685E+00
         21   -1    0    0  503  502  0.00000000000E+00  0.00000000000E+00  0.26681641796E+03  0.26681641796E+03  0.00000000000E+00 0.  1.
         -1   -1    0    0    0  501 -0.00000000000E+00 -0.00000000000E+00 -0.11073165658E+03  0.11073165658E+03  0.00000000000E+00 0.  1.
         24    2    1    2    0    0  0.28129954425E+02  0.42812535954E+02 -0.51327576580E+02  0.10783875600E+03  0.79815221656E+02 0.  0.
         23    2    1    2    0    0 -0.14200158193E+02 -0.31459047112E+00  0.18700416095E+03  0.20845466156E+03  0.91000254151E+02 0.  0.
        -11    1    3    3    0    0  0.33183509266E+01  0.30772223912E+02 -0.68626887595E+02  0.75283404004E+02  0.00000000000E+00 0.  1.
         12    1    3    3    0    0  0.24811603498E+02  0.12040312042E+02  0.17299311015E+02  0.32555352000E+02  0.00000000000E+00 0. -1.
        -13    1    4    4    0    0 -0.43380456300E+02  0.24416972005E+02  0.74285031266E+02  0.89422135855E+02  0.00000000000E+00 0.  1.
         13    1    4    4    0    0  0.29180298107E+02 -0.24731562476E+02  0.11271912968E+03  0.11903252571E+03  0.00000000000E+00 0. -1.
         21    1    1    2  503  501 -0.13237247167E+02 -0.21534391933E+02  0.29103917089E+02  0.38548576347E+02  0.00000000000E+00 0.  1.
         -2    1    1    2    0  502 -0.69254906459E+00 -0.20963553551E+02 -0.86957400784E+01  0.22706080621E+02  0.00000000000E+00 0.  1.
<scales pt_clust_5="13000.00000" pt_clust_6="13000.00000" pt_clust_7="13000.00000" pt_clust_8="13000.00000" pt_clust_9="27.68302" pt_clust_10="20.97500"></scales>
<clustering>
<clus scale="   20.975">  1 10  2 -1</clus>
<clus scale="   27.683">  1  9  2 -1</clus>
<clus scale="   79.815">  5  6 -1 -1</clus>
<clus scale="   91.000">  7  8 -1 -1</clus>
<clus scale="   92.049">  2  5  1 -1</clus>
<clus scale="   20.975">  1  5  2 -1</clus>
</clustering>
</event>
<event>
10    4  0.7697601E-005  0.1661440E+03  0.7546771E-02  0.1183838E+00
          2   -1    0    0  503    0 -0.00000000000E+00  0.00000000000E+00  0.27088948047E+03  0.27088948047E+03  0.00000000000E+00 0. -1.
         21   -1    0    0  501  502  0.00000000000E+00 -0.00000000000E+00 -0.27641926107E+03  0.27641926107E+03  0.00000000000E+00 0. -1.
         24    2    1    2    0    0  0.14359550237E+03  0.82524294565E+02  0.71826983136E+02  0.19732793037E+03  0.79682301064E+02 0.  0.
         23    2    1    2    0    0 -0.58159733602E+02 -0.80310771745E+02 -0.56497815162E+02  0.14708063621E+03  0.92781117473E+02 0.  0.
        -13    1    3    3    0    0  0.53080172142E+01  0.24826600687E+02 -0.91736442265E+01  0.26994275260E+02  0.00000000000E+00 0.  1.
         14    1    3    3    0    0  0.13828748516E+03  0.57697693878E+02  0.81000627362E+02  0.17033365511E+03  0.00000000000E+00 0. -1.
        -11    1    4    4    0    0 -0.22432292780E+02 -0.63874242578E+02 -0.77165971810E+02  0.10265336736E+03  0.00000000000E+00 0. -1.
         11    1    4    4    0    0 -0.35727440823E+02 -0.16436529168E+02  0.20668156647E+02  0.44427268856E+02  0.00000000000E+00 0.  1.
         21    1    1    2  503  502 -0.28062438603E+02  0.50772023665E+02 -0.84266065153E+02  0.10230380532E+03  0.00000000000E+00 0. -1.
          1    1    1    2  501    0 -0.57373330167E+02 -0.52985546485E+02  0.63407116583E+02  0.10059636964E+03  0.00000000000E+00 0. -1.
<scales pt_clust_5="13000.00000" pt_clust_6="13000.00000" pt_clust_7="13000.00000" pt_clust_8="13000.00000" pt_clust_9="58.01120" pt_clust_10="76.90592"></scales>
<clustering>
<clus scale="   58.011">  2  9  1 -1</clus>
<clus scale="   76.906">  2 10  1 -1</clus>
<clus scale="   79.682">  5  6 -1 -1</clus>
<clus scale="   92.781">  7  8 -1 -1</clus>
<clus scale="  159.200">  1  5  2 -1</clus>
<clus scale="   58.011">  2  5  1 -1</clus>
</clustering>
</event>
<event>
10    4  0.7697601E-005  0.1483495E+03  0.7546771E-02  0.1203903E+00
         21   -1    0    0  503  502  0.00000000000E+00  0.00000000000E+00  0.10192451457E+03  0.10192451457E+03  0.00000000000E+00 0. -1.
          2   -1    0    0  502    0 -0.00000000000E+00 -0.00000000000E+00 -0.14321618970E+04  0.14321618970E+04  0.00000000000E+00 0. -1.
         24    2    1    2    0    0  0.89917655708E+02  0.52342384103E+02 -0.55247607106E+03  0.56824821080E+03  0.82772640436E+02 0.  0.
         23    2    1    2    0    0 -0.10981741047E+03 -0.13863631821E+03 -0.31024820840E+03  0.36832763927E+03  0.90174312677E+02 0.  0.
        -11    1    3    3    0    0 -0.23308118432E+01  0.39527940501E+02 -0.18017834981E+03  0.18447798921E+03  0.00000000000E+00 0.  1.
         12    1    3    3    0    0  0.92248467551E+02  0.12814443602E+02 -0.37229772125E+03  0.38377022159E+03  0.00000000000E+00 0. -1.
        -13    1    4    4    0    0  0.81749984312E+01 -0.30881825462E+02 -0.22118713026E+02  0.38855568573E+02  0.00000000000E+00 0.  1.
         13    1    4    4    0    0 -0.11799240890E+03 -0.10775449275E+03 -0.28812949537E+03  0.32947207070E+03  0.00000000000E+00 0. -1.
         21    1    1    2  503  501 -0.17357562302E+02  0.12139729615E+02  0.59938124728E+02  0.63570722822E+02  0.00000000000E+00 0. -1.
          1    1    1    2  501    0  0.37257317065E+02  0.74154204492E+02 -0.52745122769E+03  0.53393983867E+03  0.00000000000E+00 0. -1.
<scales pt_clust_5="13000.00000" pt_clust_6="13000.00000" pt_clust_7="13000.00000" pt_clust_8="13000.00000" pt_clust_9="21.18155" pt_clust_10="83.25165"></scales>
<clustering>
<clus scale="   21.182">  1  9  2 -1</clus>
<clus scale="   82.773">  5  6 -1 -1</clus>
<clus scale="   83.252">  1 10  2 -1</clus>
<clus scale="   90.174">  7  8 -1 -1</clus>
<clus scale="  143.970">  2  5  1 -1</clus>
<clus scale="   21.182">  1  5  2 -1</clus>
</clustering>
</event>
<event>
10    4  0.7697601E-005  0.5128450E+03  0.7546771E-02  0.1073379E+00
         21   -1    0    0  503  502  0.00000000000E+00  0.00000000000E+00  0.79706275759E+03  0.79706275759E+03  0.00000000000E+00 0. -1.
          2   -1    0    0  502    0 -0.00000000000E+00 -0.00000000000E+00 -0.47452606401E+03  0.47452606401E+03  0.00000000000E+00 0. -1.
         24    2    1    2    0    0 -0.14353053195E+02  0.11926878917E+02 -0.34304748983E+02  0.88931432218E+02  0.79898205591E+02 0.  0.
         23    2    1    2    0    0  0.11099057978E+03  0.46244304876E+03  0.15834511001E+03  0.50914856765E+03  0.89367823761E+02 0.  0.
        -13    1    3    3    0    0  0.24747900114E+02 -0.19800123369E+02 -0.13022997229E+02  0.34265170397E+02  0.00000000000E+00 0.  1.
         14    1    3    3    0    0 -0.39100953309E+02  0.31727002286E+02 -0.21281751755E+02  0.54666261821E+02  0.00000000000E+00 0. -1.
        -13    1    4    4    0    0  0.12534318887E+03  0.41356244552E+03  0.13233383012E+03  0.45194806553E+03  0.00000000000E+00 0. -1.
         13    1    4    4    0    0 -0.14352609090E+02  0.48880603240E+02  0.26011279892E+02  0.57200502117E+02  0.00000000000E+00 0.  1.
         21    1    1    2  503  501 -0.37178387458E+02  0.57626874321E+02  0.11189656298E+03  0.13123997084E+03  0.00000000000E+00 0. -1.
          1    1    1    2  501    0 -0.59459139124E+02 -0.53199680200E+03  0.86599769575E+02  0.54226885090E+03  0.00000000000E+00 0. -1.
<scales pt_clust_5="13000.00000" pt_clust_6="13000.00000" pt_clust_7="13000.00000" pt_clust_8="13000.00000" pt_clust_9="68.57907" pt_clust_10="504.99870"></scales>
<clustering>
<clus scale="   68.579">  1  9  2 -1</clus>
<clus scale="   79.898">  5  6 -1 -1</clus>
<clus scale="   82.695">  2  5  1 -1</clus>
<clus scale="   89.368">  7  8 -1 -1</clus>
<clus scale="  504.999">  1 10  2 -1</clus>
<clus scale="   68.579">  1  5  2 -1</clus>
</clustering>
</event>
<event>
10    4  0.7697601E-005  0.1804902E+03  0.7546771E-02  0.1201228E+00
          2   -1    0    0  502    0 -0.00000000000E+00  0.00000000000E+00  0.17680304246E+03  0.17680304246E+03  0.00000000000E+00 0. -1.
         21   -1    0    0  503  502  0.00000000000E+00 -0.00000000000E+00 -0.85412781379E+03  0.85412781379E+03  0.00000000000E+00 0. -1.
         24    2    1    2    0    0 -0.20991958209E+02  0.18084874690E+02  0.67442640406E+02  0.10733180767E+03  0.78764726814E+02 0.  0.
         23    2    1    2    0    0 -0.71586822692E+02 -0.16686184549E+03 -0.90683084009E+02  0.22301840105E+03  0.92445858847E+02 0.  0.
        -13    1    3    3    0    0 -0.43857656781E+02  0.29611368478E+02  0.26856901202E+02  0.59343241769E+02  0.00000000000E+00 0.  1.
         14    1    3    3    0    0  0.22865698572E+02 -0.11526493788E+02  0.40585739204E+02  0.47988565898E+02  0.00000000000E+00 0. -1.
        -11    1    4    4    0    0 -0.35576306614E+02 -0.75899011573E+01 -0.29341751348E+00  0.36378101733E+02  0.00000000000E+00 0.  1.
         11    1    4    4    0    0 -0.36010516078E+02 -0.15927194434E+03 -0.90389666495E+02  0.18664029932E+03  0.00000000000E+00 0. -1.
         21    1    1    2  503  501 -0.23894856099E+02  0.79529290055E+02 -0.43592433361E+03  0.44376333418E+03  0.00000000000E+00 0. -1.
          1    1    1    2  501    0  0.11647363700E+03  0.69247680750E+02 -0.21815999412E+03  0.25681731336E+03  0.00000000000E+00 0. -1.
<scales pt_clust_5="13000.00000" pt_clust_6="13000.00000" pt_clust_7="13000.00000" pt_clust_8="13000.00000" pt_clust_9="83.04139" pt_clust_10="155.01763"></scales>
<clustering>
<clus scale="   78.765">  5  6 -1 -1</clus>
<clus scale="   83.041">  2  9  1 -1</clus>
<clus scale="   84.702">  1  5  2 -1</clus>
<clus scale="   92.446">  7  8 -1 -1</clus>
<clus scale="  155.018">  2 10  1 -1</clus>
<clus scale="   83.041">  2  5  1 -1</clus>
</clustering>
</event>
<event>
10    4  0.7697601E-005  0.8826527E+02  0.7546771E-02  0.1310916E+00
         21   -1    0    0  503  502  0.00000000000E+00  0.00000000000E+00  0.61014643906E+02  0.61014643906E+02  0.00000000000E+00 0.  1.
          2   -1    0    0  502    0 -0.00000000000E+00 -0.00000000000E+00 -0.53468980939E+03  0.53468980939E+03  0.00000000000E+00 0. -1.
         23    2    1    2    0    0 -0.21274895322E+02 -0.23602683258E+02 -0.21705306952E+03  0.23486500628E+03  0.83903685011E+02 0.  0.
         24    2    1    2    0    0  0.30394305581E+02 -0.19268700462E+02 -0.21173230389E+02  0.88181565275E+02  0.77669724733E+02 0.  0.
        -11    1    4    4    0    0  0.40794629720E+02 -0.43070656854E+02 -0.11280711184E+02  0.60386569207E+02  0.00000000000E+00 0.  1.
         12    1    4    4    0    0 -0.10400324138E+02  0.23801956391E+02 -0.98925192052E+01  0.27794996069E+02  0.00000000000E+00 0. -1.
        -11    1    3    3    0    0  0.30727826647E+02 -0.52559670830E+01 -0.49768996156E+02  0.58726293079E+02  0.00000000000E+00 0.  1.
         11    1    3    3    0    0 -0.52002721969E+02 -0.18346716175E+02 -0.16728407336E+03  0.17613871320E+03  0.00000000000E+00 0. -1.
         21    1    1    2  503  501  0.30175322372E+02  0.84645113120E+01  0.14871959145E+00  0.31340391662E+02  0.00000000000E+00 0.  1.
          1    1    1    2  501    0 -0.39294732632E+02  0.34406872409E+02 -0.23559758517E+03  0.24131749008E+03  0.00000000000E+00 0. -1.
<scales pt_clust_5="13000.00000" pt_clust_6="13000.00000" pt_clust_7="13000.00000" pt_clust_8="13000.00000" pt_clust_9="31.34004" pt_clust_10="51.17433"></scales>
<clustering>
<clus scale="   31.340">  1  9  2 -1</clus>
<clus scale="   51.174">  1 10  2 -1</clus>
<clus scale="   77.670">  5  6 -1 -1</clus>
<clus scale="   82.362">  1  5  2 -1</clus>
<clus scale="   83.904">  7  8 -1 -1</clus>
<clus scale="   31.340">  1  5  2 -1</clus>
</clustering>
</event>
<event>
10    4  0.7697601E-005  0.3274313E+03  0.7546771E-02  0.1082088E+00
         21   -1    0    0  503  502  0.00000000000E+00  0.00000000000E+00  0.14985058256E+03  0.14985058256E+03  0.00000000000E+00 0.  1.
          2   -1    0    0  502    0 -0.00000000000E+00 -0.00000000000E+00 -0.27815481387E+04  0.27815481387E+04  0.00000000000E+00 0. -1.
         24    2    1    2    0    0 -0.17391957015E+02 -0.22918794105E+03 -0.42618120190E+03  0.49082108516E+03  0.80282801956E+02 0.  0.
         23    2    1    2    0    0  0.26513911773E+03 -0.10847245496E+03 -0.19348494520E+03  0.35778645788E+03  0.92248036185E+02 0.  0.
        -13    1    3    3    0    0 -0.21480576043E+02 -0.23499387694E+03 -0.41782206373E+03  0.47985290901E+03  0.00000000000E+00 0.  1.
         14    1    3    3    0    0  0.40886190281E+01  0.58059358861E+01 -0.83591381716E+01  0.10968176149E+02  0.00000000000E+00 0. -1.
        -13    1    4    4    0    0  0.57264208594E+02 -0.42727057746E+02 -0.94173583105E+02  0.11820936851E+03  0.00000000000E+00 0. -1.
         13    1    4    4    0    0  0.20787490914E+03 -0.65745397219E+02 -0.99311362099E+02  0.23957708936E+03  0.00000000000E+00 0.  1.
         21    1    1    2  503  501  0.96460129769E+01 -0.35459484627E+02 -0.24360174889E+02  0.44088986573E+02  0.00000000000E+00 0. -1.
          1    1    1    2  501    0 -0.25739317370E+03  0.37311988064E+03 -0.19876712341E+04  0.20387021916E+04  0.00000000000E+00 0. -1.
<scales pt_clust_5="13000.00000" pt_clust_6="13000.00000" pt_clust_7="13000.00000" pt_clust_8="13000.00000" pt_clust_9="36.74807" pt_clust_10="314.16816"></scales>
<clustering>
<clus scale="   36.748">  1  9  2 -1</clus>
<clus scale="   80.283">  5  6 -1 -1</clus>
<clus scale="   92.248">  7  8 -1 -1</clus>
<clus scale="  251.042">  2  5  1 -1</clus>
<clus scale="  314.168">  1 10  2 -1</clus>
<clus scale="   36.748">  1  5  2 -1</clus>
</clustering>
</event>
<event>
10    4  0.7697601E-005  0.1131524E+03  0.7546771E-02  0.1264561E+00
         -1   -1    0    0    0  501 -0.00000000000E+00  0.00000000000E+00  0.29978466899E+03  0.29978466899E+03  0.00000000000E+00 0.  1.
         21   -1    0    0  501  502  0.00000000000E+00 -0.00000000000E+00 -0.10256549447E+03  0.10256549447E+03  0.00000000000E+00 0.  1.
         24    2    1    2    0    0 -0.22787973752E+02  0.60223099654E+02  0.12915831703E+03  0.16609630369E+03  0.82219205542E+02 0.  0.
         23    2    1    2    0    0 -0.25504834284E+02 -0.70316673756E+01  0.28796168854E+02  0.11116115481E+03  0.10405595649E+03 0.  0.
        -11    1    3    3    0    0 -0.43469664524E+02  0.89520635002E+01  0.82809305202E+02  0.93952819025E+02  0.00000000000E+00 0.  1.
         12    1    3    3    0    0  0.20681690772E+02  0.51271036154E+02  0.46349011831E+02  0.72143484662E+02  0.00000000000E+00 0. -1.
        -11    1    4    4    0    0  0.88550248076E+01  0.33735102083E+02 -0.18860753286E+02  0.39650934307E+02  0.00000000000E+00 0.  1.
         11    1    4    4    0    0 -0.34359859092E+02 -0.40766769459E+02  0.47656922140E+02  0.71510220506E+02  0.00000000000E+00 0. -1.
         21    1    1    2  503  502 -0.12610783201E+02  0.18699406769E+02 -0.11194288362E+01  0.22582134252E+02  0.00000000000E+00 0. -1.
         -2    1    1    2    0  503  0.60903591238E+02 -0.71890839047E+02  0.40384117464E+02  0.10251057071E+03  0.00000000000E+00 0.  1.
<scales pt_clust_5="13000.00000" pt_clust_6="13000.00000" pt_clust_7="13000.00000" pt_clust_8="13000.00000" pt_clust_9="22.55437" pt_clust_10="86.54784"></scales>
<clustering>
<clus scale="   22.554">  2  9  1 -1</clus>
<clus scale="   82.219">  5  6 -1 -1</clus>
<clus scale="   86.548">  2 10  1 -1</clus>
<clus scale="   93.466">  1  5  2 -1</clus>
<clus scale="  104.056">  7  8 -1 -1</clus>
<clus scale="   22.554">  2  5  1 -1</clus>
</clustering>
</event>
<event>
10    4  0.7697601E-005  0.1106585E+03  0.7546771E-02  0.1262320E+00
         21   -1    0    0  503  502  0.00000000000E+00  0.00000000000E+00  0.17964473608E+03  0.17964473608E+03  0.00000000000E+00 0. -1.
         -1   -1    0    0    0  501 -0.00000000000E+00 -0.00000000000E+00 -0.22046817689E+03  0.22046817689E+03  0.00000000000E+00 0.  1.
         23    2    1    2    0    0  0.44975248905E+02  0.35284637510E+02 -0.85746350714E+02  0.13607197831E+03  0.88855883110E+02 0.  0.
         24    2    1    2    0    0 -0.43282715998E+02 -0.66107986835E+02 -0.69263028054E+02  0.13263093931E+03  0.80931697002E+02 0.  0.
        -11    1    4    4    0    0  0.50694526564E+01 -0.42807188348E+02  0.23101930513E+01  0.43168179443E+02  0.00000000000E+00 0.  1.
         12    1    4    4    0    0 -0.48352168654E+02 -0.23300798487E+02 -0.71573221106E+02  0.89462759868E+02  0.00000000000E+00 0. -1.
        -13    1    3    3    0    0 -0.15591877624E+01  0.36613152567E+02  0.20427708228E+01  0.36703227651E+02  0.00000000000E+00 0. -1.
         13    1    3    3    0    0  0.46534436667E+02 -0.13285150566E+01 -0.87789121537E+02  0.99368750663E+02  0.00000000000E+00 0.  1.
         21    1    1    2  503  501 -0.22210817582E+02  0.28681477062E+02  0.99991991829E+02  0.10636891451E+03  0.00000000000E+00 0. -1.
         -2    1    1    2    0  502  0.20518284675E+02  0.21418722628E+01  0.14193946125E+02  0.25041080836E+02  0.00000000000E+00 0.  1.
<scales pt_clust_5="13000.00000" pt_clust_6="13000.00000" pt_clust_7="13000.00000" pt_clust_8="13000.00000" pt_clust_9="31.37541" pt_clust_10="20.62978"></scales>
<clustering>
<clus scale="   20.630">  1 10  2 -1</clus>
<clus scale="   31.375">  1  9  2 -1</clus>
<clus scale="   80.932">  5  6 -1 -1</clus>
<clus scale="   88.856">  7  8 -1 -1</clus>
<clus scale="  104.402">  1  5  2 -1</clus>
<clus scale="   20.630">  1  5  2 -1</clus>
</clustering>
</event>
<event>
10    4  0.7697601E-005  0.2715931E+03  0.7546771E-02  0.1141904E+00
          2   -1    0    0  503    0 -0.00000000000E+00  0.00000000000E+00  0.17209538088E+04  0.17209538088E+04  0.00000000000E+00 0. -1.
         21   -1    0    0  501  502  0.00000000000E+00 -0.00000000000E+00 -0.16780436142E+03  0.16780436142E+03  0.00000000000E+00 0. -1.
         24    2    1    2    0    0  0.14412103611E+02 -0.44687985684E+02  0.13873288728E+03  0.16793799803E+03  0.82168317326E+02 0.  0.
         23    2    1    2    0    0  0.23122928260E+03  0.13673129947E+03  0.15154559497E+03  0.32167025041E+03  0.91341410413E+02 0.  0.
        -11    1    3    3    0    0  0.77880597861E+01 -0.61716634034E+02  0.57617454006E+02  0.84790139744E+02  0.00000000000E+00 0.  1.
         12    1    3    3    0    0  0.66240438252E+01  0.17028648350E+02  0.81115433276E+02  0.83147858282E+02  0.00000000000E+00 0. -1.
        -11    1    4    4    0    0  0.13384380595E+03  0.98575662621E+02  0.44656415107E+02  0.17212065844E+03  0.00000000000E+00 0. -1.
         11    1    4    4    0    0  0.97385476653E+02  0.38155636853E+02  0.10688917986E+03  0.14954959197E+03  0.00000000000E+00 0.  1.
         21    1    1    2  503  502 -0.26948628459E+01 -0.26799453883E+02 -0.52999176674E+02  0.59450700099E+02  0.00000000000E+00 0. -1.
          1    1    1    2  501    0 -0.24294652337E+03 -0.65243859907E+02  0.13158701418E+04  0.13396992216E+04  0.00000000000E+00 0. -1.
<scales pt_clust_5="13000.00000" pt_clust_6="13000.00000" pt_clust_7="13000.00000" pt_clust_8="13000.00000" pt_clust_9="26.93461" pt_clust_10="255.77261"></scales>
<clustering>
<clus scale="   26.935">  2  9  1 -1</clus>
<clus scale="   82.168">  5  6 -1 -1</clus>
<clus scale="   91.341">  7  8 -1 -1</clus>
<clus scale="   96.292">  1  5  2 -1</clus>
<clus scale="  255.773">  2 10  1 -1</clus>
<clus scale="   26.935">  2  5  1 -1</clus>
</clustering>
</event>
<event>
10    4  0.7697601E-005  0.5103580E+03  0.7546771E-02  0.1011110E+00
         -1   -1    0    0    0  501 -0.00000000000E+00  0.00000000000E+00  0.36312877490E+03  0.36312877490E+03  0.00000000000E+00 0.  1.
         21   -1    0    0  501  502  0.00000000000E+00 -0.00000000000E+00 -0.81826665115E+03  0.81826665115E+03  0.00000000000E+00 0.  1.
         24    2    1    2    0    0 -0.53822626458E+02  0.17328257698E+03 -0.15712394757E+03  0.25347600425E+03  0.81476519504E+02 0.  0.
         23    2    1    2    0    0 -0.16047100131E+03  0.23714901106E+03 -0.18616576282E+03  0.35358880349E+03  0.91524614192E+02 0.  0.
        -13    1    3    3    0    0 -0.24935285736E+02  0.76601042307E+02 -0.12285448721E+03  0.14691056186E+03  0.00000000000E+00 0.  1.
         14    1    3    3    0    0 -0.28887340723E+02  0.96681534671E+02 -0.34269460357E+02  0.10656544240E+03  0.00000000000E+00 0. -1.
        -13    1    4    4    0    0 -0.75106160132E+02  0.68431941821E+02 -0.10998679810E+03  0.14973630724E+03  0.00000000000E+00 0. -1.
         13    1    4    4    0    0 -0.85364841180E+02  0.16871706924E+03 -0.76178964720E+02  0.20385249625E+03  0.00000000000E+00 0.  1.
         21    1    1    2  503  502 -0.27582161518E+02  0.31881925756E+01 -0.90545192273E+02  0.94706768764E+02  0.00000000000E+00 0. -1.
         -2    1    1    2    0  503  0.24187578929E+03 -0.41361978061E+03 -0.21302973588E+02  0.47962384953E+03  0.00000000000E+00 0.  1.
<scales pt_clust_5="13000.00000" pt_clust_6="13000.00000" pt_clust_7="13000.00000" pt_clust_8="13000.00000" pt_clust_9="27.76581" pt_clust_10="473.45697"></scales>
<clustering>
<clus scale="   27.766">  2  9  1 -1</clus>
<clus scale="   81.477">  5  6 -1 -1</clus>
<clus scale="   91.525">  7  8 -1 -1</clus>
<clus scale="  109.671">  5  7 -1 -1</clus>
<clus scale="  473.457">  2 10  1 -1</clus>
<clus scale="   27.766">  2  5  1 -1</clus>
</clustering>
</event>
<event>
10    4  0.7697601E-005  0.2421262E+03  0.7546771E-02  0.1118922E+00
         21   -1    0    0  503  502  0.00000000000E+00  0.00000000000E+00  0.19104360209E+03  0.19104360209E+03  0.00000000000E+00 0. -1.
          2   -1    0    0  502    0 -0.00000000000E+00 -0.00000000000E+00 -0.17429054850E+04  0.17429054850E+04  0.00000000000E+00 0. -1.
         23    2    1    2    0    0  0.29637567288E+02  0.25355390428E+03 -0.11017883047E+04  0.11345408532E+04  0.89874976848E+02 0.  0.
         24    2    1    2    0    0 -0.18929310361E+03 -0.12570247321E+03 -0.48025169125E+03  0.53739436658E+03  0.80734301472E+02 0.  0.
        -11    1    4    4    0    0 -0.11762429598E+03 -0.94636989795E+02 -0.22904298651E+03  0.27432157136E+03  0.00000000000E+00 0.  1.
         12    1    4    4    0    0 -0.71668807625E+02 -0.31065483410E+02 -0.25120870474E+03  0.26307279522E+03  0.00000000000E+00 0. -1.
        -11    1    3    3    0    0 -0.96890563029E+00  0.23447971024E+03 -0.94448779269E+03  0.97315921813E+03  0.00000000000E+00 0. -1.
         11    1    3    3    0    0  0.30606472919E+02  0.19074194034E+02 -0.15730051200E+03  0.16138163507E+03  0.00000000000E+00 0.  1.
         21    1    1    2  503  501 -0.15325054379E+02 -0.29308891668E+02  0.50287763680E+02  0.60189098668E+02  0.00000000000E+00 0.  1.
          1    1    1    2  501    0  0.17498059070E+03 -0.98542539402E+02 -0.20109650668E+02  0.20182476866E+03  0.00000000000E+00 0. -1.
<scales pt_clust_5="13000.00000" pt_clust_6="13000.00000" pt_clust_7="13000.00000" pt_clust_8="13000.00000" pt_clust_9="33.07368" pt_clust_10="202.71871"></scales>
<clustering>
<clus scale="   33.074">  1  9  2 -1</clus>
<clus scale="   80.734">  5  6 -1 -1</clus>
<clus scale="   89.875">  7  8 -1 -1</clus>
<clus scale="  202.719">  1 10  2 -1</clus>
<clus scale="  238.884">  1  5  2 -1</clus>
<clus scale="   33.074">  1  5  2 -1</clus>
</clustering>
</event>
<event>
10    4  0.7697601E-005  0.1616033E+03  0.7546771E-02  0.1211651E+00
         21   -1    0    0  503  502  0.00000000000E+00  0.00000000000E+00  0.41002854466E+03  0.41002854466E+03  0.00000000000E+00 0.  1.
         -1   -1    0    0    0  501 -0.00000000000E+00 -0.00000000000E+00 -0.14627571473E+03  0.14627571473E+03  0.00000000000E+00 0.  1.
         23    2    1    2    0    0  0.16645249004E+02 -0.17268787985E+02  0.41805627113E+02  0.10279524763E+03  0.90795799042E+02 0.  0.
         24    2    1    2    0    0 -0.12705509448E+03  0.51099019166E+02  0.50935617203E+02  0.16637268998E+03  0.79569642940E+02 0.  0.
        -13    1    4    4    0    0 -0.86796889288E+02  0.70841553656E+02  0.46542359393E+02  0.12131948291E+03  0.00000000000E+00 0.  1.
         14    1    4    4    0    0 -0.40258205196E+02 -0.19742534490E+02  0.43932578101E+01  0.45053207077E+02  0.00000000000E+00 0. -1.
        -13    1    3    3    0    0  0.43131585114E+02  0.12450891803E+02  0.44086748775E+02  0.62920582949E+02  0.00000000000E+00 0. -1.
         13    1    3    3    0    0 -0.26486336110E+02 -0.29719679788E+02 -0.22811216616E+01  0.39874664679E+02  0.00000000000E+00 0.  1.
         21    1    1    2  503  501 -0.40347245668E+02 -0.29803212040E+02  0.11638934661E+03  0.12673835917E+03  0.00000000000E+00 0.  1.
         -2    1    1    2    0  502  0.15075709115E+03 -0.40270191405E+01  0.54622239003E+02  0.16039796261E+03  0.00000000000E+00 0.  1.
<scales pt_clust_5="13000.00000" pt_clust_6="13000.00000" pt_clust_7="13000.00000" pt_clust_8="13000.00000" pt_clust_9="50.16106" pt_clust_10="140.65666"></scales>
<clustering>
<clus scale="   50.161">  1  9  2 -1</clus>
<clus scale="   79.570">  5  6 -1 -1</clus>
<clus scale="   90.796">  7  8 -1 -1</clus>
<clus scale="   94.332">  2  7  1 -1</clus>
<clus scale="  140.657">  1 10  2 -1</clus>
<clus scale="   50.161">  1  5  2 -1</clus>
</clustering>
</event>
<event>
10    4  0.7697601E-005  0.1478984E+03  0.7546771E-02  0.1204543E+00
         21   -1    0    0  501  502  0.00000000000E+00  0.00000000000E+00  0.64532480437E+03  0.64532480437E+03  0.00000000000E+00 0. -1.
          4   -1    0    0  503    0 -0.00000000000E+00 -0.00000000000E+00 -0.79496379344E+02  0.79496379344E+02  0.00000000000E+00 0. -1.
         24    2    1    2    0    0  0.55035420963E+02  0.11694316754E+03  0.21717740583E+03  0.26703746162E+03  0.86246033606E+02 0.  0.
         23    2    1    2    0    0 -0.47121992300E+02 -0.83271817786E+02  0.29510096529E+03  0.32406245614E+03  0.93686807855E+02 0.  0.
        -13    1    3    3    0    0  0.36348803117E+01  0.10109165585E+03  0.13210339935E+03  0.16638522578E+03  0.00000000000E+00 0.  1.
         14    1    3    3    0    0  0.51400540652E+02  0.15851511687E+02  0.85074006478E+02  0.10065223584E+03  0.00000000000E+00 0. -1.
        -11    1    4    4    0    0  0.27744431764E+02 -0.19546494827E+02  0.55216443445E+02  0.64812611278E+02  0.00000000000E+00 0.  1.
         11    1    4    4    0    0 -0.74866424064E+02 -0.63725322958E+02  0.23988452185E+03  0.25924984486E+03  0.00000000000E+00 0. -1.
         21    1    1    2  503  502 -0.19742657359E+02 -0.16471689429E+02  0.88968287619E+02  0.92609099305E+02  0.00000000000E+00 0.  1.
          3    1    1    2  501    0  0.11829228695E+02 -0.17199660323E+02 -0.35418233716E+02  0.41112166646E+02  0.00000000000E+00 0. -1.
<scales pt_clust_5="13000.00000" pt_clust_6="13000.00000" pt_clust_7="13000.00000" pt_clust_8="13000.00000" pt_clust_9="26.15064" pt_clust_10="20.87485"></scales>
<clustering>
<clus scale="   20.875">  1 10  2 -1</clus>
<clus scale="   26.151">  1  9  2 -1</clus>
<clus scale="   86.246">  5  6 -1 -1</clus>
<clus scale="   93.687">  7  8 -1 -1</clus>
<clus scale="  143.301">  2  5  1 -1</clus>
<clus scale="   20.875">  1  5  2 -1</clus>
</clustering>
</event>
<event>
10    4  0.7697601E-005  0.3898206E+03  0.7546771E-02  0.1047519E+00
         21   -1    0    0  501  502  0.00000000000E+00  0.00000000000E+00  0.69775986216E+03  0.69775986216E+03  0.00000000000E+00 0. -1.
          2   -1    0    0  503    0 -0.00000000000E+00 -0.00000000000E+00 -0.82463498755E+03  0.82463498755E+03  0.00000000000E+00 0. -1.
         24    2    1    2    0    0  0.17237180961E+03  0.34870693012E+03 -0.65711429817E+03  0.76802389157E+03  0.82176233191E+02 0.  0.
         23    2    1    2    0    0 -0.12876878723E+03 -0.25381442199E+03  0.49953091436E+03  0.58193250291E+03  0.90061879624E+02 0.  0.
        -11    1    3    3    0    0  0.47358302254E+02  0.46681108575E+02 -0.73598534819E+02  0.99190115524E+02  0.00000000000E+00 0.  1.
         12    1    3    3    0    0  0.12501350736E+03  0.30202582155E+03 -0.58351576335E+03  0.66883377605E+03  0.00000000000E+00 0. -1.
        -13    1    4    4    0    0 -0.10654896637E+03 -0.11065299114E+03  0.25279758871E+03  0.29580971509E+03  0.00000000000E+00 0. -1.
         13    1    4    4    0    0 -0.22219820862E+02 -0.14316143085E+03  0.24673332565E+03  0.28612278782E+03  0.00000000000E+00 0.  1.
         21    1    1    2  503  502 -0.57372544053E+02  0.65389828105E+01  0.39094896388E+02  0.69733621955E+02  0.00000000000E+00 0.  1.
          1    1    1    2  501    0  0.13769521674E+02 -0.10143149094E+03 -0.83866379686E+01  0.10270483327E+03  0.00000000000E+00 0. -1.
<scales pt_clust_5="13000.00000" pt_clust_6="13000.00000" pt_clust_7="13000.00000" pt_clust_8="13000.00000" pt_clust_9="57.74398" pt_clust_10="101.40418"></scales>
<clustering>
<clus scale="   57.744">  1  9  2 -1</clus>
<clus scale="   82.176">  5  6 -1 -1</clus>
<clus scale="   90.062">  7  8 -1 -1</clus>
<clus scale="  101.404">  1 10  2 -1</clus>
<clus scale="  388.075">  2  5  1 -1</clus>
<clus scale="   57.744">  1  5  2 -1</clus>
</clustering>
</event>
<event>
10    4  0.7697601E-005  0.2420607E+03  0.7546771E-02  0.1127177E+00
         21   -1    0    0  501  502  0.00000000000E+00  0.00000000000E+00  0.17949336849E+03  0.17949336849E+03  0.00000000000E+00 0.  1.
          2   -1    0    0  503    0 -0.00000000000E+00 -0.00000000000E+00 -0.25123902247E+04  0.25123902247E+04  0.00000000000E+00 0. -1.
         24    2    1    2    0    0 -0.43942716004E+01 -0.23879764570E+03 -0.10455172018E+04  0.10755251949E+04  0.81268693260E+02 0.  0.
         23    2    1    2    0    0 -0.74938121315E+02  0.22596336074E+03 -0.54186565947E+01  0.25481016735E+03  0.90684602470E+02 0.  0.
        -11    1    3    3    0    0  0.19646322978E+02 -0.22097343244E+03 -0.94187788225E+03  0.96765137365E+03  0.00000000000E+00 0.  1.
         12    1    3    3    0    0 -0.24040594579E+02 -0.17824213253E+02 -0.10363931953E+03  0.10787382128E+03  0.00000000000E+00 0. -1.
        -13    1    4    4    0    0 -0.58164146319E+02  0.94222359417E+02  0.34766835935E+02  0.11605883772E+03  0.00000000000E+00 0.  1.
         13    1    4    4    0    0 -0.16773974996E+02  0.13174100132E+03 -0.40185492530E+02  0.13875132964E+03  0.00000000000E+00 0. -1.
         21    1    1    2  503  502  0.44703982552E+02  0.20443597348E+03 -0.33662818602E+03  0.39637236146E+03  0.00000000000E+00 0.  1.
          1    1    1    2  501    0  0.34628410363E+02 -0.19160168852E+03 -0.94533281185E+03  0.96517586947E+03  0.00000000000E+00 0. -1.
<scales pt_clust_5="13000.00000" pt_clust_6="13000.00000" pt_clust_7="13000.00000" pt_clust_8="13000.00000" pt_clust_9="228.01053" pt_clust_10="194.70586"></scales>
<clustering>
<clus scale="   81.269">  5  6 -1 -1</clus>
<clus scale="   90.685">  7  8 -1 -1</clus>
<clus scale="  194.706">  1 10  2 -1</clus>
<clus scale="  194.706">  1  7  2 -1</clus>
<clus scale="  228.011">  1  9  2 -1</clus>
<clus scale="  194.706">  1  5  2 -1</clus>
</clustering>
</event>
<event>
10    4  0.7697601E-005  0.1080715E+03  0.7546771E-02  0.1271782E+00
         21   -1    0    0  501  502  0.00000000000E+00  0.00000000000E+00  0.86969712029E+02  0.86969712029E+02  0.00000000000E+00 0.  1.
         -3   -1    0    0    0  501 -0.00000000000E+00 -0.00000000000E+00 -0.70174753061E+03  0.70174753061E+03  0.00000000000E+00 0.  1.
         24    2    1    2    0    0  0.11598241279E+01  0.54761064491E+02 -0.18703874272E+03  0.20861098892E+03  0.74397137347E+02 0.  0.
         23    2    1    2    0    0  0.30015900854E+02 -0.57797096011E+02 -0.97835593962E+02  0.14943426363E+03  0.92289420247E+02 0.  0.
        -11    1    3    3    0    0  0.25098040193E+02  0.29259647285E+02 -0.15950538028E+03  0.16409754696E+03  0.00000000000E+00 0.  1.
         12    1    3    3    0    0 -0.23938216065E+02  0.25501417206E+02 -0.27533362436E+02  0.44513441958E+02  0.00000000000E+00 0. -1.
        -11    1    4    4    0    0  0.33484473977E+02 -0.81815993936E+02 -0.72265000219E+02  0.11418098405E+03  0.00000000000E+00 0. -1.
         11    1    4    4    0    0 -0.34685731235E+01  0.24018897925E+02 -0.25570593743E+02  0.35253279584E+02  0.00000000000E+00 0.  1.
         21    1    1    2  503  502  0.28432314655E+02  0.12196423949E+02  0.42972341047E+02  0.52950650316E+02  0.00000000000E+00 0.  1.
         -4    1    1    2    0  503 -0.59608039637E+02 -0.91603924294E+01 -0.37287582295E+03  0.37772133977E+03  0.00000000000E+00 0.  1.
<scales pt_clust_5="13000.00000" pt_clust_6="13000.00000" pt_clust_7="13000.00000" pt_clust_8="13000.00000" pt_clust_9="30.93783" pt_clust_10="58.44934"></scales>
<clustering>
<clus scale="   30.938">  1  9  2 -1</clus>
<clus scale="   58.449">  1 10  2 -1</clus>
<clus scale="   74.397">  5  6 -1 -1</clus>
<clus scale="   92.289">  7  8 -1 -1</clus>
<clus scale="   93.258">  2  5  1 -1</clus>
<clus scale="   30.938">  1  5  2 -1</clus>
</clustering>
</event>
<event>
10    4  0.7697601E-005  0.1090606E+03  0.7546771E-02  0.1264211E+00
         21   -1    0    0  503  502  0.00000000000E+00  0.00000000000E+00  0.59921487401E+03  0.59921487401E+03  0.00000000000E+00 0.  1.
         -1   -1    0    0    0  501 -0.00000000000E+00 -0.00000000000E+00 -0.69266671784E+02  0.69266671784E+02  0.00000000000E+00 0.  1.
         23    2    1    2    0    0 -0.55249503398E+02  0.32064709708E+02  0.15994452786E+02  0.10843151575E+03  0.86144749428E+02 0.  0.
         24    2    1    2    0    0  0.27858744558E+02 -0.10124828761E+03  0.29418152388E+03  0.32271169999E+03  0.81072479462E+02 0.  0.
        -13    1    4    4    0    0 -0.16538826418E+02 -0.21925857560E+02  0.14833420514E+03  0.15085526979E+03  0.00000000000E+00 0.  1.
         14    1    4    4    0    0  0.44397570976E+02 -0.79322430045E+02  0.14584731874E+03  0.17185643019E+03  0.00000000000E+00 0. -1.
        -11    1    3    3    0    0 -0.18747790549E+02  0.47812990812E+02  0.37162924751E+02  0.63392781268E+02  0.00000000000E+00 0.  1.
         11    1    3    3    0    0 -0.36501712848E+02 -0.15748281104E+02 -0.21168471965E+02  0.45038734484E+02  0.00000000000E+00 0. -1.
         21    1    1    2  503  501  0.39786281951E+02  0.34317580322E+02  0.13329513182E+03  0.14327678360E+03  0.00000000000E+00 0. -1.
         -2    1    1    2    0  502 -0.12395523112E+02  0.34865997576E+02  0.86477093740E+02  0.94061546457E+02  0.00000000000E+00 0.  1.
<scales pt_clust_5="13000.00000" pt_clust_6="13000.00000" pt_clust_7="13000.00000" pt_clust_8="13000.00000" pt_clust_9="56.95566" pt_clust_10="37.00388"></scales>
<clustering>
<clus scale="   37.004">  1 10  2 -1</clus>
<clus scale="   56.956">  1  9  2 -1</clus>
<clus scale="   81.072">  5  6 -1 -1</clus>
<clus scale="   86.145">  7  8 -1 -1</clus>
<clus scale="  105.100">  1  5  2 -1</clus>
<clus scale="   37.004">  1  5  2 -1</clus>
</clustering>
</event>
<event>
10    4  0.7697601E-005  0.1284851E+03  0.7546771E-02  0.1250741E+00
         21   -1    0    0  501  502  0.00000000000E+00  0.00000000000E+00  0.55860473117E+03  0.55860473117E+03  0.00000000000E+00 0.  1.
         -3   -1    0    0    0  501 -0.00000000000E+00 -0.00000000000E+00 -0.14941106134E+03  0.14941106134E+03  0.00000000000E+00 0.  1.
         24    2    1    2    0    0 -0.23675599766E+02 -0.20750162840E+02  0.84926756182E+02  0.12119153882E+03  0.80521623706E+02 0.  0.
         23    2    1    2    0    0 -0.75876865463E+02 -0.27534120626E+02 -0.27108096278E+02  0.12727454343E+03  0.94596691333E+02 0.  0.
        -11    1    3    3    0    0 -0.41866039537E+02 -0.84483923226E+01  0.89128674776E+02  0.98833502754E+02  0.00000000000E+00 0.  1.
         12    1    3    3    0    0  0.18190439771E+02 -0.12301770517E+02 -0.42019185944E+01  0.22358036067E+02  0.00000000000E+00 0. -1.
        -13    1    4    4    0    0 -0.52725897864E+02  0.21180173871E+02 -0.42761049565E+02  0.71113482763E+02  0.00000000000E+00 0.  1.
         13    1    4    4    0    0 -0.23150967599E+02 -0.48714294496E+02  0.15652953287E+02  0.56161060671E+02  0.00000000000E+00 0. -1.
         21    1    1    2  503  502  0.53246183747E+01  0.59734109912E+02  0.35932617462E+03  0.36429632885E+03  0.00000000000E+00 0.  1.
         -4    1    1    2    0  503  0.94227846854E+02 -0.11449826446E+02 -0.79511646934E+01  0.95253381401E+02  0.00000000000E+00 0.  1.
<scales pt_clust_5="13000.00000" pt_clust_6="13000.00000" pt_clust_7="13000.00000" pt_clust_8="13000.00000" pt_clust_9="59.97096" pt_clust_10="86.94758"></scales>
<clustering>
<clus scale="   59.971">  1  9  2 -1</clus>
<clus scale="   80.522">  5  6 -1 -1</clus>
<clus scale="   83.851">  2  5  1 -1</clus>
<clus scale="   86.948">  1 10  2 -1</clus>
<clus scale="   94.597">  7  8 -1 -1</clus>
<clus scale="   59.971">  1  5  2 -1</clus>
</clustering>
</event>
<event>
10    4  0.7697601E-005  0.9489629E+02  0.7546771E-02  0.1298788E+00
         21   -1    0    0  503  502  0.00000000000E+00  0.00000000000E+00  0.92176348478E+02  0.92176348478E+02  0.00000000000E+00 0. -1.
         -1   -1    0    0    0  501 -0.00000000000E+00 -0.00000000000E+00 -0.19118561616E+03  0.19118561616E+03  0.00000000000E+00 0.  1.
         24    2    1    2    0    0 -0.64911358733E+01 -0.21455015731E+02 -0.32724311358E+02  0.87837218951E+02  0.78371193268E+02 0.  0.
         23    2    1    2    0    0 -0.28728053842E+02  0.30686262248E+02 -0.25297200260E+02  0.10348143437E+03  0.91112628922E+02 0.  0.
        -11    1    3    3    0    0 -0.30423150067E+02 -0.13783474894E+02 -0.47962983989E+02  0.58446557411E+02  0.00000000000E+00 0.  1.
         12    1    3    3    0    0  0.23932014193E+02 -0.76715408374E+01  0.15238672631E+02  0.29390661539E+02  0.00000000000E+00 0. -1.
        -11    1    4    4    0    0 -0.18100457115E+02  0.50222596460E+02 -0.47934545182E+02  0.71747169733E+02  0.00000000000E+00 0.  1.
         11    1    4    4    0    0 -0.10627596728E+02 -0.19536334212E+02  0.22637344922E+02  0.31734264632E+02  0.00000000000E+00 0. -1.
         21    1    1    2  503  501  0.12459269587E+02 -0.22890463999E+02  0.15008459751E+02  0.30074251526E+02  0.00000000000E+00 0.  1.
         -2    1    1    2    0  502  0.22759920128E+02  0.13659217481E+02 -0.55996215811E+02  0.61969059793E+02  0.00000000000E+00 0.  1.
<scales pt_clust_5="13000.00000" pt_clust_6="13000.00000" pt_clust_7="13000.00000" pt_clust_8="13000.00000" pt_clust_9="26.06160" pt_clust_10="26.52061"></scales>
<clustering>
<clus scale="   26.062">  1  9  2 -1</clus>
<clus scale="   26.521">  1 10  2 -1</clus>
<clus scale="   78.371">  5  6 -1 -1</clus>
<clus scale="   82.740">  2  5  1 -1</clus>
<clus scale="   91.113">  7  8 -1 -1</clus>
<clus scale="   26.062">  1  5  2 -1</clus>
</clustering>
</event>
<event>
10    4  0.7697601E-005  0.1029562E+03  0.7546771E-02  0.1279188E+00
         21   -1    0    0  501  502  0.00000000000E+00  0.00000000000E+00  0.72501719416E+02  0.72501719416E+02  0.00000000000E+00 0. -1.
          2   -1    0    0  503    0 -0.00000000000E+00 -0.00000000000E+00 -0.74416307019E+03  0.74416307019E+03  0.00000000000E+00 0. -1.
         24    2    1    2    0    0 -0.45602495049E+02  0.41185646000E+01 -0.46332965472E+03  0.47256093379E+03  0.80888299936E+02 0.  0.
         23    2    1    2    0    0  0.56875190836E+02 -0.11015267789E+02 -0.38164263479E+02  0.11488047837E+03  0.91569044149E+02 0.  0.
        -13    1    3    3    0    0  0.42749708099E+01  0.34186971120E+02 -0.15561012845E+03  0.15937859470E+03  0.00000000000E+00 0.  1.
         14    1    3    3    0    0 -0.49877465859E+02 -0.30068406520E+02 -0.30771952627E+03  0.31318233909E+03  0.00000000000E+00 0. -1.
        -13    1    4    4    0    0  0.51929306311E+02 -0.47129100431E+02 -0.34764993016E+02  0.78271384942E+02  0.00000000000E+00 0. -1.
         13    1    4    4    0    0  0.49458845245E+01  0.36113832642E+02 -0.33992704636E+01  0.36609093427E+02  0.00000000000E+00 0.  1.
         21    1    1    2  503  502 -0.34799983816E+02 -0.31202147391E+02  0.63008640170E+01  0.47162630999E+02  0.00000000000E+00 0. -1.
          1    1    1    2  501    0  0.23527288029E+02  0.38098850580E+02 -0.17646829659E+03  0.18206074645E+03  0.00000000000E+00 0. -1.
<scales pt_clust_5="13000.00000" pt_clust_6="13000.00000" pt_clust_7="13000.00000" pt_clust_8="13000.00000" pt_clust_9="30.65531" pt_clust_10="44.77787"></scales>
<clustering>
<clus scale="   44.778">  1 10  2 -1</clus>
<clus scale="   30.655">  1  9  2 -1</clus>
<clus scale="   80.888">  5  6 -1 -1</clus>
<clus scale="   91.569">  7  8 -1 -1</clus>
<clus scale="   93.584">  2  5  1 -1</clus>
<clus scale="   44.778">  1  5  2 -1</clus>
</clustering>
</event>
<event>
10    4  0.7697601E-005  0.1408449E+03  0.7546771E-02  0.1213638E+00
          2   -1    0    0  503    0 -0.00000000000E+00  0.00000000000E+00  0.22860021323E+03  0.22860021323E+03  0.00000000000E+00 0. -1.
         21   -1    0    0  501  502  0.00000000000E+00 -0.00000000000E+00 -0.32773007422E+03  0.32773007422E+03  0.00000000000E+00 0. -1.
         24    2    1    2    0    0  0.32532053806E+02  0.10693633919E+03  0.11739479295E+03  0.18111780922E+03  0.80798565824E+02 0.  0.
         23    2    1    2    0    0 -0.11364730577E+03 -0.62995801818E+02 -0.21721435174E+03  0.26790568148E+03  0.87790651057E+02 0.  0.
        -11    1    3    3    0    0 -0.78257351238E+01  0.62522919687E+02  0.18905335965E+02  0.65785783756E+02  0.00000000000E+00 0.  1.
         12    1    3    3    0    0  0.40357788930E+02  0.44413419503E+02  0.98489456990E+02  0.11533202546E+03  0.00000000000E+00 0. -1.
        -13    1    4    4    0    0 -0.71563372171E+02 -0.33245334825E+02 -0.51171517052E+02  0.94048352891E+02  0.00000000000E+00 0. -1.
         13    1    4    4    0    0 -0.42083933594E+02 -0.29750466993E+02 -0.16604283468E+03  0.17385732859E+03  0.00000000000E+00 0.  1.
         21    1    1    2  503  502  0.37528971256E+02 -0.24167004267E+01 -0.21296257022E+02  0.43217990323E+02  0.00000000000E+00 0.  1.
          1    1    1    2  501    0  0.43586280704E+02 -0.41523836946E+02  0.21985954819E+02  0.64088806430E+02  0.00000000000E+00 0. -1.
<scales pt_clust_5="13000.00000" pt_clust_6="13000.00000" pt_clust_7="13000.00000" pt_clust_8="13000.00000" pt_clust_9="37.60670" pt_clust_10="62.27807"></scales>
<clustering>
<clus scale="   37.607">  2  9  1 -1</clus>
<clus scale="   62.278">  2 10  1 -1</clus>
<clus scale="   80.799">  5  6 -1 -1</clus>
<clus scale="   87.791">  7  8 -1 -1</clus>
<clus scale="  136.596">  1  5  2 -1</clus>
<clus scale="   37.607">  2  5  1 -1</clus>
</clustering>
</event>
<event>
10    4  0.7697601E-005  0.1319390E+03  0.7546771E-02  0.1228453E+00
          2   -1    0    0  503    0 -0.00000000000E+00  0.00000000000E+00  0.40922166252E+03  0.40922166252E+03  0.00000000000E+00 0. -1.
         21   -1    0    0  501  502  0.00000000000E+00 -0.00000000000E+00 -0.14725772421E+03  0.14725772421E+03  0.00000000000E+00 0.  1.
         24    2    1    2    0    0 -0.92650023100E+02  0.50085593374E+01  0.28734833476E+03  0.31269676309E+03  0.81247078184E+02 0.  0.
         23    2    1    2    0    0  0.78124323866E+02 -0.48612286534E+02  0.39911705580E+02  0.13867479089E+03  0.95766325003E+02 0.  0.
        -11    1    3    3    0    0 -0.59011339543E+02 -0.34732141053E+02  0.12958385891E+03  0.14656273846E+03  0.00000000000E+00 0.  1.
         12    1    3    3    0    0 -0.33638683558E+02  0.39740700390E+02  0.15776447585E+03  0.16613402463E+03  0.00000000000E+00 0. -1.
        -13    1    4    4    0    0 -0.18201200954E+02 -0.28704357557E+02  0.52873630527E+01  0.34397384596E+02  0.00000000000E+00 0. -1.
         13    1    4    4    0    0  0.96325524821E+02 -0.19907928977E+02  0.34624342527E+02  0.10427740629E+03  0.00000000000E+00 0.  1.
         21    1    1    2  503  502 -0.16071416227E+02  0.36030890117E+02 -0.88131107580E+01  0.40425071223E+02  0.00000000000E+00 0.  1.
          1    1    1    2  501    0  0.30597115461E+02  0.75728370793E+01 -0.56482991272E+02  0.64682761529E+02  0.00000000000E+00 0. -1.
<scales pt_clust_5="13000.00000" pt_clust_6="13000.00000" pt_clust_7="13000.00000" pt_clust_8="13000.00000" pt_clust_9="38.88868" pt_clust_10="31.52033"></scales>
<clustering>
<clus scale="   31.520">  2 10  1 -1</clus>
<clus scale="   38.889">  2  9  1 -1</clus>
<clus scale="   81.247">  5  6 -1 -1</clus>
<clus scale="   95.766">  7  8 -1 -1</clus>
<clus scale="  121.810">  1  5  2 -1</clus>
<clus scale="   31.520">  2  5  1 -1</clus>
</clustering>
</event>
<event>
10    4  0.7697601E-005  0.8966341E+02  0.7546771E-02  0.1306039E+00
         21   -1    0    0  503  502  0.00000000000E+00  0.00000000000E+00  0.10704904337E+03  0.10704904337E+03  0.00000000000E+00 0.  1.
         -1   -1    0    0    0  501 -0.00000000000E+00 -0.00000000000E+00 -0.32596539768E+03  0.32596539768E+03  0.00000000000E+00 0.  1.
         24    2    1    2    0    0  0.13702432263E+02 -0.47415711856E+02 -0.14565806637E+03  0.17375195264E+03  0.80854575419E+02 0.  0.
         23    2    1    2    0    0  0.20927502979E+02 -0.28860380834E+02 -0.76072043814E+01  0.92380689236E+02  0.84884864507E+02 0.  0.
        -11    1    3    3    0    0  0.79320422555E+01  0.19756994267E+02 -0.13001285843E+02  0.24945732108E+02  0.00000000000E+00 0.  1.
         12    1    3    3    0    0  0.57703900076E+01 -0.67172706124E+02 -0.13265678053E+03  0.14880622053E+03  0.00000000000E+00 0. -1.
        -13    1    4    4    0    0 -0.24705454813E+02  0.14793194127E+02 -0.19414250140E+00  0.28796454318E+02  0.00000000000E+00 0. -1.
         13    1    4    4    0    0  0.45632957792E+02 -0.43653574961E+02 -0.74130618800E+01  0.63584234919E+02  0.00000000000E+00 0.  1.
         21    1    1    2  503  501 -0.33623373209E+02  0.27923896503E+01  0.30758972875E+02  0.45655701486E+02  0.00000000000E+00 0.  1.
         -2    1    1    2    0  502 -0.10065620333E+01  0.73483703040E+02 -0.96410056437E+02  0.12122609769E+03  0.00000000000E+00 0.  1.
<scales pt_clust_5="13000.00000" pt_clust_6="13000.00000" pt_clust_7="13000.00000" pt_clust_8="13000.00000" pt_clust_9="33.73913" pt_clust_10="74.32377"></scales>
<clustering>
<clus scale="   33.739">  1  9  2 -1</clus>
<clus scale="   74.324">  1 10  2 -1</clus>
<clus scale="   80.855">  5  6 -1 -1</clus>
<clus scale="   84.885">  7  8 -1 -1</clus>
<clus scale="   85.858">  2  5  1 -1</clus>
<clus scale="   33.739">  1  5  2 -1</clus>
</clustering>
</event>
<event>
10    4  0.7697601E-005  0.1356899E+03  0.7546771E-02  0.1231279E+00
          2   -1    0    0  503    0 -0.00000000000E+00  0.00000000000E+00  0.61990829576E+03  0.61990829576E+03  0.00000000000E+00 0. -1.
         21   -1    0    0  501  502  0.00000000000E+00 -0.00000000000E+00 -0.27934031695E+03  0.27934031695E+03  0.00000000000E+00 0.  1.
         23    2    1    2    0    0 -0.23272202143E+02 -0.42071651058E+02  0.39689254223E+03  0.41039977919E+03  0.92696652932E+02 0.  0.
         24    2    1    2    0    0 -0.34722509390E+02 -0.36459727362E+02 -0.16358606854E+02  0.96925482905E+02  0.81191014531E+02 0.  0.
        -13    1    4    4    0    0 -0.48130030807E+02 -0.24190274717E+02 -0.40008112081E+02  0.67099316604E+02  0.00000000000E+00 0.  1.
         14    1    4    4    0    0  0.13407521418E+02 -0.12269452646E+02  0.23649505227E+02  0.29826166302E+02  0.00000000000E+00 0. -1.
        -11    1    3    3    0    0  0.42544027369E+00  0.28560748292E+02  0.82659874587E+02  0.87456001561E+02  0.00000000000E+00 0. -1.
         11    1    3    3    0    0 -0.23697642416E+02 -0.70632399349E+02  0.31423266764E+03  0.32294377762E+03  0.00000000000E+00 0.  1.
         21    1    1    2  503  502 -0.94016982900E+02  0.11436230088E+02 -0.16069877625E+03  0.18653170540E+03  0.00000000000E+00 0.  1.
          1    1    1    2  501    0  0.15201169443E+03  0.67095148332E+02  0.12073281968E+03  0.20539164521E+03  0.00000000000E+00 0. -1.
<scales pt_clust_5="13000.00000" pt_clust_6="13000.00000" pt_clust_7="13000.00000" pt_clust_8="13000.00000" pt_clust_9="94.70998" pt_clust_10="108.71887"></scales>
<clustering>
<clus scale="   81.191">  5  6 -1 -1</clus>
<clus scale="   92.697">  7  8 -1 -1</clus>
<clus scale="   94.710">  2  9  1 -1</clus>
<clus scale="  105.636">  1  7  2 -1</clus>
<clus scale="  108.719">  2 10  1 -1</clus>
<clus scale="   94.710">  2  5  1 -1</clus>
</clustering>
</event>
<event>
10    4  0.7697601E-005  0.3269362E+03  0.7546771E-02  0.1125483E+00
          2   -1    0    0  502    0 -0.00000000000E+00  0.00000000000E+00  0.93737106375E+03  0.93737106375E+03  0.00000000000E+00 0. -1.
         21   -1    0    0  503  502  0.00000000000E+00 -0.00000000000E+00 -0.26120385715E+03  0.26120385715E+03  0.00000000000E+00 0.  1.
         24    2    1    2    0    0  0.66453321136E+00 -0.84305484533E+01  0.50208330774E+02  0.95643657782E+02  0.80964912420E+02 0.  0.
         23    2    1    2    0    0  0.25774163806E+03  0.22651290840E+03  0.28501596749E+03  0.45521303077E+03  0.90807224377E+02 0.  0.
        -11    1    3    3    0    0  0.20874093396E+02 -0.14751290471E+02 -0.13218209064E+02  0.28775847451E+02  0.00000000000E+00 0.  1.
         12    1    3    3    0    0 -0.20209560185E+02  0.63207420178E+01  0.63426539838E+02  0.66867810330E+02  0.00000000000E+00 0. -1.
        -13    1    4    4    0    0  0.12073188483E+02  0.17595666699E+02  0.55294773749E+02  0.59269565298E+02  0.00000000000E+00 0. -1.
         13    1    4    4    0    0  0.24566844958E+03  0.20891724170E+03  0.22972119374E+03  0.39594346547E+03  0.00000000000E+00 0.  1.
         21    1    1    2  503  501 -0.19879324856E+02 -0.45059608190E+02 -0.10340927134E+03  0.11453834837E+03  0.00000000000E+00 0.  1.
          1    1    1    2  501    0 -0.23852684642E+03 -0.17302275175E+03  0.44435217969E+03  0.53317988398E+03  0.00000000000E+00 0. -1.
<scales pt_clust_5="13000.00000" pt_clust_6="13000.00000" pt_clust_7="13000.00000" pt_clust_8="13000.00000" pt_clust_9="49.24993" pt_clust_10="314.07232"></scales>
<clustering>
<clus scale="   49.250">  2  9  1 -1</clus>
<clus scale="   80.965">  5  6 -1 -1</clus>
<clus scale="   82.403">  1  5  2 -1</clus>
<clus scale="   90.807">  7  8 -1 -1</clus>
<clus scale="  314.072">  2 10  1 -1</clus>
<clus scale="   49.250">  2  5  1 -1</clus>
</clustering>
</event>
<event>
10    4  0.7697601E-005  0.1562070E+03  0.7546771E-02  0.1195653E+00
         21   -1    0    0  501  502  0.00000000000E+00  0.00000000000E+00  0.61321970494E+02  0.61321970494E+02  0.00000000000E+00 0. -1.
          2   -1    0    0  503    0 -0.00000000000E+00 -0.00000000000E+00 -0.10217534652E+04  0.10217534652E+04  0.00000000000E+00 0. -1.
         24    2    1    2    0    0  0.49774126764E+02  0.12934806070E+03 -0.35801458981E+03  0.39251847700E+03  0.81779727101E+02 0.  0.
         23    2    1    2    0    0  0.29226628241E+02 -0.10630640459E+03 -0.14761423258E+03  0.20801149975E+03  0.96558660489E+02 0.  0.
        -11    1    3    3    0    0  0.10267202750E+02  0.57088167959E+02 -0.25027334149E+03  0.25690702566E+03  0.00000000000E+00 0.  1.
         12    1    3    3    0    0  0.39506924014E+02  0.72259892743E+02 -0.10774124833E+03  0.13561145134E+03  0.00000000000E+00 0. -1.
        -13    1    4    4    0    0 -0.33410525160E+02 -0.51802933266E+02 -0.79617848243E+02  0.10069165231E+03  0.00000000000E+00 0. -1.
         13    1    4    4    0    0  0.62637153401E+02 -0.54503471319E+02 -0.67996384333E+02  0.10731984744E+03  0.00000000000E+00 0.  1.
         21    1    1    2  503  502  0.18015036922E+02 -0.39631242036E+02 -0.51635389052E+02  0.67538065586E+02  0.00000000000E+00 0. -1.
          1    1    1    2  501    0 -0.97015791926E+02  0.16589585920E+02 -0.40316728324E+03  0.41500739333E+03  0.00000000000E+00 0. -1.
<scales pt_clust_5="13000.00000" pt_clust_6="13000.00000" pt_clust_7="13000.00000" pt_clust_8="13000.00000" pt_clust_9="43.53363" pt_clust_10="95.79675"></scales>
<clustering>
<clus scale="   43.534">  1  9  2 -1</clus>
<clus scale="   81.780">  5  6 -1 -1</clus>
<clus scale="   95.797">  1 10  2 -1</clus>
<clus scale="   96.559">  7  8 -1 -1</clus>
<clus scale="  147.530">  2  5  1 -1</clus>
<clus scale="   43.534">  1  5  2 -1</clus>
</clustering>
</event>
<event>
10    4  0.7697601E-005  0.1054852E+03  0.7546771E-02  0.1276609E+00
         21   -1    0    0  501  502  0.00000000000E+00  0.00000000000E+00  0.32045526312E+03  0.32045526312E+03  0.00000000000E+00 0.  1.
          2   -1    0    0  503    0 -0.00000000000E+00 -0.00000000000E+00 -0.13597376685E+03  0.13597376685E+03  0.00000000000E+00 0. -1.
         24    2    1    2    0    0 -0.50266401707E+02 -0.28893184436E+02 -0.56691115081E+02  0.11349200350E+03  0.79404188056E+02 0.  0.
         23    2    1    2    0    0 -0.13953817248E+02  0.19435128183E+02  0.12949552955E+03  0.16253769411E+03  0.95273168362E+02 0.  0.
        -11    1    3    3    0    0 -0.34557667355E+02  0.23909462977E+02 -0.15841255317E+02  0.44909243625E+02  0.00000000000E+00 0.  1.
         12    1    3    3    0    0 -0.15708734352E+02 -0.52802647413E+02 -0.40849859763E+02  0.68582759871E+02  0.00000000000E+00 0. -1.
        -13    1    4    4    0    0 -0.30046515950E+02  0.40597104587E+02  0.12597153775E+03  0.13571936614E+03  0.00000000000E+00 0.  1.
         13    1    4    4    0    0  0.16092698702E+02 -0.21161976404E+02  0.35239917962E+01  0.26818327969E+02  0.00000000000E+00 0. -1.
         21    1    1    2  503  502 -0.16945055234E+02  0.36498467108E+02  0.66326681036E+00  0.40245657169E+02  0.00000000000E+00 0.  1.
          1    1    1    2  501    0  0.81165274188E+02 -0.27040410855E+02  0.11101381499E+03  0.14015367520E+03  0.00000000000E+00 0. -1.
<scales pt_clust_5="13000.00000" pt_clust_6="13000.00000" pt_clust_7="13000.00000" pt_clust_8="13000.00000" pt_clust_9="40.24019" pt_clust_10="82.17034"></scales>
<clustering>
<clus scale="   40.240">  2  9  1 -1</clus>
<clus scale="   79.404">  5  6 -1 -1</clus>
<clus scale="   82.170">  1 10  2 -1</clus>
<clus scale="   91.407">  2  5  1 -1</clus>
<clus scale="   95.273">  7  8 -1 -1</clus>
<clus scale="   82.170">  1  5  2 -1</clus>
</clustering>
</event>
<event>
10    4  0.7697601E-005  0.4045070E+03  0.7546771E-02  0.1042451E+00
         21   -1    0    0  503  502  0.00000000000E+00  0.00000000000E+00  0.27799938818E+04  0.27799938818E+04  0.00000000000E+00 0. -1.
         -3   -1    0    0    0  501 -0.00000000000E+00 -0.00000000000E+00 -0.10859887332E+03  0.10859887332E+03  0.00000000000E+00 0.  1.
         23    2    1    2    0    0  0.16064489317E+03 -0.39151260576E+03  0.75262191023E+03  0.86834620356E+03  0.92176392284E+02 0.  0.
         24    2    1    2    0    0 -0.21675752387E+03  0.29426775775E+03  0.92383865553E+03  0.99673041763E+03  0.80101976071E+02 0.  0.
        -11    1    4    4    0    0 -0.65493065060E+02  0.15580263514E+03  0.40718935050E+03  0.44087069515E+03  0.00000000000E+00 0.  1.
         12    1    4    4    0    0 -0.15126445881E+03  0.13846512260E+03  0.51664930503E+03  0.55585972247E+03  0.00000000000E+00 0. -1.
        -11    1    3    3    0    0  0.63230213199E+02 -0.17279204020E+03  0.23869137080E+03  0.30137803422E+03  0.00000000000E+00 0.  1.
         11    1    3    3    0    0  0.97414679972E+02 -0.21872056556E+03  0.51393053944E+03  0.56696816933E+03  0.00000000000E+00 0. -1.
         21    1    1    2  503  501  0.32134118119E+02  0.14562716491E+03  0.91486527149E+03  0.92694030967E+03  0.00000000000E+00 0. -1.
         -4    1    1    2    0  502  0.23978512581E+02 -0.48382316891E+02  0.80069171237E+02  0.96575824283E+02  0.00000000000E+00 0.  1.
<scales pt_clust_5="13000.00000" pt_clust_6="13000.00000" pt_clust_7="13000.00000" pt_clust_8="13000.00000" pt_clust_9="135.23043" pt_clust_10="53.99834"></scales>
<clustering>
<clus scale="   53.998">  1 10  2 -1</clus>
<clus scale="   80.102">  5  6 -1 -1</clus>
<clus scale="   92.176">  7  8 -1 -1</clus>
<clus scale="  135.230">  1  9  2 -1</clus>
<clus scale="  401.928">  1  5  2 -1</clus>
<clus scale="   53.998">  1  5  2 -1</clus>
</clustering>
</event>
<event>
10    4  0.7697601E-005  0.2125565E+03  0.7546771E-02  0.1164421E+00
         21   -1    0    0  501  502  0.00000000000E+00  0.00000000000E+00  0.97108742693E+02  0.97108742693E+02  0.00000000000E+00 0. -1.
          2   -1    0    0  503    0 -0.00000000000E+00 -0.00000000000E+00 -0.12890273466E+04  0.12890273466E+04  0.00000000000E+00 0. -1.
         23    2    1    2    0    0  0.49364489691E+02 -0.62742924706E+02 -0.26185910856E+03  0.28873777761E+03  0.91792069600E+02 0.  0.
         24    2    1    2    0    0  0.17331952286E+03 -0.10867181949E+03 -0.16466167369E+03  0.27500820484E+03  0.81650625177E+02 0.  0.
        -13    1    4    4    0    0  0.14039089443E+03 -0.45131482522E+02 -0.12417054563E+03  0.19278168574E+03  0.00000000000E+00 0.  1.
         14    1    4    4    0    0  0.32928628431E+02 -0.63540336969E+02 -0.40491128054E+02  0.82226519102E+02  0.00000000000E+00 0. -1.
        -13    1    3    3    0    0  0.73712106565E+02 -0.63496310411E+02 -0.20852980913E+03  0.23010853393E+03  0.00000000000E+00 0. -1.
         13    1    3    3    0    0 -0.24347616874E+02  0.75338570520E+00 -0.53329299428E+02  0.58629243683E+02  0.00000000000E+00 0.  1.
         21    1    1    2  503  502 -0.28174308148E+02  0.23273168235E+02 -0.29582483948E+02  0.47016543427E+02  0.00000000000E+00 0. -1.
          1    1    1    2  501    0 -0.19450970440E+03  0.14814157596E+03 -0.73581533774E+03  0.77537356345E+03  0.00000000000E+00 0. -1.
<scales pt_clust_5="13000.00000" pt_clust_6="13000.00000" pt_clust_7="13000.00000" pt_clust_8="13000.00000" pt_clust_9="36.54356" pt_clust_10="196.24853"></scales>
<clustering>
<clus scale="   36.544">  1  9  2 -1</clus>
<clus scale="   81.651">  5  6 -1 -1</clus>
<clus scale="   91.792">  7  8 -1 -1</clus>
<clus scale="  118.166">  2  7  1 -1</clus>
<clus scale="  196.249">  1 10  2 -1</clus>
<clus scale="   36.544">  1  5  2 -1</clus>
</clustering>
</event>
<event>
10    4  0.7697601E-005  0.1188570E+03  0.7546771E-02  0.1249083E+00
          2   -1    0    0  502    0 -0.00000000000E+00  0.00000000000E+00  0.41219783294E+03  0.41219783294E+03  0.00000000000E+00 0. -1.
         21   -1    0    0  503  502  0.00000000000E+00 -0.00000000000E+00 -0.38172702660E+03  0.38172702660E+03  0.00000000000E+00 0. -1.
         24    2    1    2    0    0  0.67307165400E+02  0.69406128225E+02  0.30298653458E+03  0.32783037488E+03  0.79526406987E+02 0.  0.
         23    2    1    2    0    0 -0.31525722503E+02 -0.65342246610E+01  0.57620041497E+02  0.11322428506E+03  0.91995120928E+02 0.  0.
        -13    1    3    3    0    0  0.14126159714E+02  0.69093866208E+02  0.14732122017E+03  0.16333111353E+03  0.00000000000E+00 0.  1.
         14    1    3    3    0    0  0.53181005686E+02  0.31226201672E+00  0.15566531441E+03  0.16449926134E+03  0.00000000000E+00 0. -1.
        -13    1    4    4    0    0 -0.29886128099E+02  0.40344999480E+02  0.34571416307E+02  0.60959678979E+02  0.00000000000E+00 0. -1.
         13    1    4    4    0    0 -0.16395944038E+01 -0.46879224141E+02  0.23048625190E+02  0.52264606083E+02  0.00000000000E+00 0.  1.
         21    1    1    2  503  501 -0.32414767033E+02  0.22316570637E+02 -0.10351346457E+03  0.11074196943E+03  0.00000000000E+00 0.  1.
          1    1    1    2  501    0 -0.33666758640E+01 -0.85188474201E+02 -0.22662230517E+03  0.24212823016E+03  0.00000000000E+00 0. -1.
<scales pt_clust_5="13000.00000" pt_clust_6="13000.00000" pt_clust_7="13000.00000" pt_clust_8="13000.00000" pt_clust_9="39.35412" pt_clust_10="73.05943"></scales>
<clustering>
<clus scale="   39.354">  2  9  1 -1</clus>
<clus scale="   73.059">  2 10  1 -1</clus>
<clus scale="   79.526">  5  6 -1 -1</clus>
<clus scale="   91.995">  7  8 -1 -1</clus>
<clus scale="  109.491">  1  5  2 -1</clus>
<clus scale="   39.354">  2  5  1 -1</clus>
</clustering>
</event>
<event>
10    4  0.7697601E-005  0.1009617E+03  0.7546771E-02  0.1282596E+00
         21   -1    0    0  503  502  0.00000000000E+00  0.00000000000E+00  0.15000101024E+03  0.15000101024E+03  0.00000000000E+00 0. -1.
         -1   -1    0    0    0  501 -0.00000000000E+00 -0.00000000000E+00 -0.24237267591E+03  0.24237267591E+03  0.00000000000E+00 0.  1.
         23    2    1    2    0    0  0.20336222553E+02 -0.38564465380E+02 -0.12346512051E+03  0.15929981540E+03  0.90730453913E+02 0.  0.
         24    2    1    2    0    0 -0.49858042956E+02  0.19436074748E+02 -0.42348522380E+02  0.10652655736E+03  0.81798072267E+02 0.  0.
        -13    1    4    4    0    0  0.13075080914E+02 -0.15754615239E+02  0.39321478030E+01  0.20847719985E+02  0.00000000000E+00 0.  1.
         14    1    4    4    0    0 -0.62933123870E+02  0.35190689987E+02 -0.46280670183E+02  0.85678837377E+02  0.00000000000E+00 0. -1.
        -11    1    3    3    0    0  0.44501530738E+02 -0.54805166658E+01 -0.22141471832E+02  0.50006670313E+02  0.00000000000E+00 0. -1.
         11    1    3    3    0    0 -0.24165308186E+02 -0.33083948714E+02 -0.10132364867E+03  0.10929314509E+03  0.00000000000E+00 0.  1.
         21    1    1    2  503  501 -0.27010117239E+02 -0.13256975349E+02  0.47904897266E+02  0.56570071688E+02  0.00000000000E+00 0. -1.
         -2    1    1    2    0  502  0.56531937642E+02  0.32385365981E+02  0.25537079952E+02  0.69977241699E+02  0.00000000000E+00 0.  1.
<scales pt_clust_5="13000.00000" pt_clust_6="13000.00000" pt_clust_7="13000.00000" pt_clust_8="13000.00000" pt_clust_9="30.08810" pt_clust_10="50.49200"></scales>
<clustering>
<clus scale="   30.088">  1  9  2 -1</clus>
<clus scale="   50.492">  1 10  2 -1</clus>
<clus scale="   81.798">  5  6 -1 -1</clus>
<clus scale="   90.730">  7  8 -1 -1</clus>
<clus scale="   93.017">  1  5  2 -1</clus>
<clus scale="   30.088">  1  5  2 -1</clus>
</clustering>
</event>
<event>
10    4  0.7697601E-005  0.1462879E+03  0.7546771E-02  0.1212880E+00
          2   -1    0    0  503    0 -0.00000000000E+00  0.00000000000E+00  0.64536085227E+03  0.64536085227E+03  0.00000000000E+00 0. -1.
         21   -1    0    0  501  502  0.00000000000E+00 -0.00000000000E+00 -0.17694157509E+03  0.17694157509E+03  0.00000000000E+00 0. -1.
         23    2    1    2    0    0 -0.80135374911E+02  0.37123107434E+02  0.39548656754E+03  0.42184611638E+03  0.11723786668E+03 0.  0.
         24    2    1    2    0    0  0.63000204063E+02 -0.63789121816E+02  0.12744126572E+03  0.17880812767E+03  0.87709706060E+02 0.  0.
        -13    1    4    4    0    0  0.19725297840E+02 -0.10621466475E+02 -0.10522485611E+02  0.24751275288E+02  0.00000000000E+00 0.  1.
         14    1    4    4    0    0  0.43274906223E+02 -0.53167655341E+02  0.13796375133E+03  0.15405685238E+03  0.00000000000E+00 0. -1.
        -13    1    3    3    0    0 -0.56380464226E+02  0.78057095086E+02  0.22122279488E+03  0.24126995630E+03  0.00000000000E+00 0. -1.
         13    1    3    3    0    0 -0.23754910685E+02 -0.40933987652E+02  0.17426377266E+03  0.18057616008E+03  0.00000000000E+00 0.  1.
         21    1    1    2  503  502 -0.35244150286E+02 -0.40885856377E+01 -0.12421939283E+03  0.12918716739E+03  0.00000000000E+00 0. -1.
          1    1    1    2  501    0  0.52379321134E+02  0.30754600020E+02  0.69710836755E+02  0.92461015925E+02  0.00000000000E+00 0. -1.
<scales pt_clust_5="13000.00000" pt_clust_6="13000.00000" pt_clust_7="13000.00000" pt_clust_8="13000.00000" pt_clust_9="35.48051" pt_clust_10="53.48882"></scales>
<clustering>
<clus scale="   35.481">  2  9  1 -1</clus>
<clus scale="   53.489">  2 10  1 -1</clus>
<clus scale="   87.710">  5  6 -1 -1</clus>
<clus scale="  117.238">  7  8 -1 -1</clus>
<clus scale="  123.889">  2  5  1 -1</clus>
<clus scale="   35.481">  2  5  1 -1</clus>
</clustering>
</event>
<event>
10    4  0.7697601E-005  0.1114355E+03  0.7546771E-02  0.1269008E+00
         21   -1    0    0  501  502  0.00000000000E+00  0.00000000000E+00  0.62881111242E+02  0.62881111242E+02  0.00000000000E+00 0. -1.
          2   -1    0    0  503    0 -0.00000000000E+00 -0.00000000000E+00 -0.41687794871E+03  0.41687794871E+03  0.00000000000E+00 0. -1.
         24    2    1    2    0    0 -0.23104460393E+02  0.12098971691E+02 -0.26076134133E+03  0.27436450644E+03  0.81235485206E+02 0.  0.
         23    2    1    2    0    0  0.13704723034E+02 -0.19926787578E+02 -0.12715223599E+02  0.10820643627E+03  0.10469985503E+03 0.  0.
        -11    1    3    3    0    0  0.15114956217E+02 -0.25582229413E+02 -0.12247775579E+03  0.12603060354E+03  0.00000000000E+00 0.  1.
         12    1    3    3    0    0 -0.38219416610E+02  0.37681201104E+02 -0.13828358554E+03  0.14833390291E+03  0.00000000000E+00 0. -1.
        -11    1    4    4    0    0 -0.37876063158E+02 -0.23385526602E+02  0.18065566451E+02  0.48040021919E+02  0.00000000000E+00 0.  1.
         11    1    4    4    0    0  0.51580786191E+02  0.34587390241E+01 -0.30780790049E+02  0.60166414351E+02  0.00000000000E+00 0. -1.
         21    1    1    2  503  502 -0.18596029976E+02  0.15632188615E+02 -0.27260065596E+02  0.36514227748E+02  0.00000000000E+00 0.  1.
          1    1    1    2  501    0  0.27995767335E+02 -0.78043727271E+01 -0.53260206938E+02  0.60673889486E+02  0.00000000000E+00 0. -1.
<scales pt_clust_5="13000.00000" pt_clust_6="13000.00000" pt_clust_7="13000.00000" pt_clust_8="13000.00000" pt_clust_9="24.29357" pt_clust_10="25.83448"></scales>
<clustering>
<clus scale="   24.294">  2  9  1 -1</clus>
<clus scale="   25.834">  1 10  2 -1</clus>
<clus scale="   81.235">  5  6 -1 -1</clus>
<clus scale="   89.750">  2  5  1 -1</clus>
<clus scale="  104.700">  7  8 -1 -1</clus>
<clus scale="   25.834">  1  5  2 -1</clus>
</clustering>
</event>
<event>
10    4  0.7697601E-005  0.9514795E+02  0.7546771E-02  0.1296511E+00
          2   -1    0    0  503    0 -0.00000000000E+00  0.00000000000E+00  0.10859996569E+03  0.10859996569E+03  0.00000000000E+00 0. -1.
         21   -1    0    0  501  502  0.00000000000E+00 -0.00000000000E+00 -0.78653217322E+03  0.78653217322E+03  0.00000000000E+00 0.  1.
         24    2    1    2    0    0  0.28353462453E+02 -0.10121807984E+02  0.29411613139E+02  0.89984957973E+02  0.79535399942E+02 0.  0.
         23    2    1    2    0    0 -0.32518927702E+02  0.81895390940E+02 -0.56395004560E+03  0.57779973404E+03  0.89713672358E+02 0.  0.
        -11    1    3    3    0    0 -0.26955411597E+02  0.44567368149E+01  0.14237294840E+02  0.30808396287E+02  0.00000000000E+00 0.  1.
         12    1    3    3    0    0  0.55308874050E+02 -0.14578544799E+02  0.15174318299E+02  0.59176561686E+02  0.00000000000E+00 0. -1.
        -13    1    4    4    0    0 -0.58795512300E+02  0.73465449218E+02 -0.48806462572E+03  0.49705247547E+03  0.00000000000E+00 0.  1.
         13    1    4    4    0    0  0.26276584598E+02  0.84299417219E+01 -0.75885419881E+02  0.80747258567E+02  0.00000000000E+00 0. -1.
         21    1    1    2  503  502 -0.46733724381E+02 -0.21581576850E+02 -0.14702025184E+03  0.15577149901E+03  0.00000000000E+00 0.  1.
          1    1    1    2  501    0  0.50899189630E+02 -0.50192006106E+02  0.36264767676E+01  0.71575947885E+02  0.00000000000E+00 0. -1.
<scales pt_clust_5="13000.00000" pt_clust_6="13000.00000" pt_clust_7="13000.00000" pt_clust_8="13000.00000" pt_clust_9="51.47626" pt_clust_10="70.56172"></scales>
<clustering>
<clus scale="   51.476">  2  9  1 -1</clus>
<clus scale="   70.562">  2 10  1 -1</clus>
<clus scale="   79.535">  5  6 -1 -1</clus>
<clus scale="   85.618">  1  5  2 -1</clus>
<clus scale="   89.714">  7  8 -1 -1</clus>
<clus scale="   51.476">  2  5  1 -1</clus>
</clustering>
</event>
<event>
10    4  0.7697601E-005  0.1040291E+03  0.7546771E-02  0.1278729E+00
         21   -1    0    0  501  502  0.00000000000E+00  0.00000000000E+00  0.96892858238E+02  0.96892858238E+02  0.00000000000E+00 0. -1.
          2   -1    0    0  503    0 -0.00000000000E+00 -0.00000000000E+00 -0.53860853800E+03  0.53860853800E+03  0.00000000000E+00 0. -1.
         24    2    1    2    0    0  0.16162455092E+02  0.13104504703E+02 -0.33244829896E+03  0.34832541912E+03  0.10186153901E+03 0.  0.
         23    2    1    2    0    0  0.32775539727E+02 -0.47409943314E+02 -0.63577050350E+02  0.12366420534E+03  0.89044121766E+02 0.  0.
        -11    1    3    3    0    0  0.30319794704E+02  0.45643574186E+02 -0.27789802118E+03  0.28324889407E+03  0.00000000000E+00 0.  1.
         12    1    3    3    0    0 -0.14157339612E+02 -0.32539069483E+02 -0.54550277779E+02  0.65076525057E+02  0.00000000000E+00 0. -1.
        -11    1    4    4    0    0  0.58780427231E+02 -0.26933670407E+02 -0.17595275813E+02  0.67008618536E+02  0.00000000000E+00 0. -1.
         11    1    4    4    0    0 -0.26004887505E+02 -0.20476272907E+02 -0.45981774538E+02  0.56655586802E+02  0.00000000000E+00 0.  1.
         21    1    1    2  503  502 -0.19267281226E+02  0.16684645237E+02  0.53082495783E+02  0.58884266754E+02  0.00000000000E+00 0. -1.
          1    1    1    2  501    0 -0.29670713593E+02  0.17620793374E+02 -0.98772826233E+02  0.10462750502E+03  0.00000000000E+00 0. -1.
<scales pt_clust_5="13000.00000" pt_clust_6="13000.00000" pt_clust_7="13000.00000" pt_clust_8="13000.00000" pt_clust_9="25.48736" pt_clust_10="36.30509"></scales>
<clustering>
<clus scale="   25.487">  1  9  2 -1</clus>
<clus scale="   36.305">  1 10  2 -1</clus>
<clus scale="   89.044">  7  8 -1 -1</clus>
<clus scale="   91.516">  1  7  2 -1</clus>
<clus scale="  101.862">  5  6 -1 -1</clus>
<clus scale="   25.487">  1  5  2 -1</clus>
</clustering>
</event>
<event>
10    4  0.7697601E-005  0.1367170E+03  0.7546771E-02  0.1220344E+00
         21   -1    0    0  501  502  0.00000000000E+00  0.00000000000E+00  0.71340275943E+02  0.71340275943E+02  0.00000000000E+00 0. -1.
          2   -1    0    0  503    0 -0.00000000000E+00 -0.00000000000E+00 -0.61346105799E+03  0.61346105799E+03  0.00000000000E+00 0. -1.
         23    2    1    2    0    0  0.66456511530E+02 -0.44532157750E+02 -0.17597615440E+03  0.21396028128E+03  0.91715942173E+02 0.  0.
         24    2    1    2    0    0 -0.14938976739E+03  0.19198030404E+02 -0.16350695178E+03  0.23653040969E+03  0.80785174739E+02 0.  0.
        -11    1    4    4    0    0 -0.12791821547E+02 -0.20853209703E+02 -0.45370327313E+02  0.51545646314E+02  0.00000000000E+00 0.  1.
         12    1    4    4    0    0 -0.13659794584E+03  0.40051240108E+02 -0.11813662447E+03  0.18498476338E+03  0.00000000000E+00 0. -1.
        -13    1    3    3    0    0  0.49503509458E+02 -0.20891606397E+02 -0.23348616235E+02  0.58585105160E+02  0.00000000000E+00 0. -1.
         13    1    3    3    0    0  0.16953002072E+02 -0.23640551353E+02 -0.15262753817E+03  0.15537517612E+03  0.00000000000E+00 0.  1.
         21    1    1    2  503  502  0.33436952505E+02 -0.16645706643E+02 -0.24375179272E+02  0.44601106568E+02  0.00000000000E+00 0. -1.
          1    1    1    2  501    0  0.49496303350E+02  0.41979833989E+02 -0.17826249659E+03  0.18970953639E+03  0.00000000000E+00 0. -1.
<scales pt_clust_5="13000.00000" pt_clust_6="13000.00000" pt_clust_7="13000.00000" pt_clust_8="13000.00000" pt_clust_9="37.35116" pt_clust_10="66.35632"></scales>
<clustering>
<clus scale="   37.351">  1  9  2 -1</clus>
<clus scale="   66.356">  1 10  2 -1</clus>
<clus scale="   80.785">  5  6 -1 -1</clus>
<clus scale="   91.716">  7  8 -1 -1</clus>
<clus scale="  129.638">  1  5  2 -1</clus>
<clus scale="   37.351">  1  5  2 -1</clus>
</clustering>
</event>
<event>
10    4  0.7697601E-005  0.1042318E+03  0.7546771E-02  0.1276619E+00
         -1   -1    0    0    0  501 -0.00000000000E+00  0.00000000000E+00  0.20420209400E+03  0.20420209400E+03  0.00000000000E+00 0.  1.
         21   -1    0    0  501  502  0.00000000000E+00 -0.00000000000E+00 -0.27460293313E+03  0.27460293313E+03  0.00000000000E+00 0.  1.
         23    2    1    2    0    0 -0.28439502665E+02 -0.38003463028E+02  0.15008732655E+03  0.18208825617E+03  0.91525181949E+02 0.  0.
         24    2    1    2    0    0  0.35213772756E+02  0.54421562570E+02 -0.71399914259E+02  0.12563844527E+03  0.80531701268E+02 0.  0.
        -11    1    4    4    0    0  0.53653085092E+02  0.55074310320E+02 -0.34276397261E+02  0.84182567117E+02  0.00000000000E+00 0.  1.
         12    1    4    4    0    0 -0.18439312337E+02 -0.65274774988E+00 -0.37123516999E+02  0.41455878153E+02  0.00000000000E+00 0. -1.
        -11    1    3    3    0    0 -0.25686352116E+02  0.21671978827E+02  0.95217884299E+02  0.10097479310E+03  0.00000000000E+00 0.  1.
         11    1    3    3    0    0 -0.27531505482E+01 -0.59675441855E+02  0.54869442252E+02  0.81113463073E+02  0.00000000000E+00 0. -1.
         21    1    1    2  503  502  0.10070140595E+02  0.29853101375E+02 -0.82109053012E+02  0.87946074272E+02  0.00000000000E+00 0.  1.
         -2    1    1    2    0  503 -0.16844410686E+02 -0.46271200916E+02 -0.66979198415E+02  0.83132251418E+02  0.00000000000E+00 0.  1.
<scales pt_clust_5="13000.00000" pt_clust_6="13000.00000" pt_clust_7="13000.00000" pt_clust_8="13000.00000" pt_clust_9="31.50580" pt_clust_10="36.77294"></scales>
<clustering>
<clus scale="   31.506">  2  9  1 -1</clus>
<clus scale="   36.773">  2 10  1 -1</clus>
<clus scale="   80.532">  5  6 -1 -1</clus>
<clus scale="   91.525">  7  8 -1 -1</clus>
<clus scale="   94.725">  2  5  1 -1</clus>
<clus scale="   31.506">  2  5  1 -1</clus>
</clustering>
</event>
<event>
10    4  0.7697601E-005  0.1356764E+03  0.7546771E-02  0.1220903E+00
         21   -1    0    0  503  502  0.00000000000E+00  0.00000000000E+00  0.48025995274E+03  0.48025995274E+03  0.00000000000E+00 0.  1.
          2   -1    0    0  502    0 -0.00000000000E+00 -0.00000000000E+00 -0.75078812460E+03  0.75078812460E+03  0.00000000000E+00 0. -1.
         23    2    1    2    0    0 -0.49405088900E+02 -0.73250122855E+02 -0.25634632547E+03  0.28573167732E+03  0.90126075783E+02 0.  0.
         24    2    1    2    0    0 -0.31047030895E+01  0.16312571628E+03 -0.12792250184E+03  0.22335032732E+03  0.83075650741E+02 0.  0.
        -11    1    4    4    0    0 -0.98760040649E+01  0.94392645982E+02 -0.12122895539E+03  0.15396092587E+03  0.00000000000E+00 0.  1.
         12    1    4    4    0    0  0.67713009755E+01  0.68733070299E+02 -0.66935464508E+01  0.69389401451E+02  0.00000000000E+00 0. -1.
        -11    1    3    3    0    0 -0.73927970424E+01 -0.56054476742E+02 -0.53402179462E+02  0.77772428162E+02  0.00000000000E+00 0.  1.
         11    1    3    3    0    0 -0.42012291858E+02 -0.17195646114E+02 -0.20294414601E+03  0.20795924916E+03  0.00000000000E+00 0. -1.
         21    1    1    2  503  501 -0.79894269382E+02 -0.28028789271E+02  0.39555494364E+03  0.40451504390E+03  0.00000000000E+00 0.  1.
          1    1    1    2  501    0  0.13240406137E+03 -0.61846804155E+02 -0.28181428818E+03  0.31745102879E+03  0.00000000000E+00 0. -1.
<scales pt_clust_5="13000.00000" pt_clust_6="13000.00000" pt_clust_7="13000.00000" pt_clust_8="13000.00000" pt_clust_9="84.66822" pt_clust_10="133.34374"></scales>
<clustering>
<clus scale="   83.076">  5  6 -1 -1</clus>
<clus scale="   84.668">  1  9  2 -1</clus>
<clus scale="   90.126">  7  8 -1 -1</clus>
<clus scale="  133.344">  1 10  2 -1</clus>
<clus scale="  131.099">  1  5  2 -1</clus>
<clus scale="   84.668">  1  5  2 -1</clus>
</clustering>
</event>
<event>
10    4  0.7697601E-005  0.1307937E+03  0.7546771E-02  0.1244855E+00
         21   -1    0    0  503  502  0.00000000000E+00  0.00000000000E+00  0.52180871765E+02  0.52180871765E+02  0.00000000000E+00 0. -1.
          4   -1    0    0  502    0 -0.00000000000E+00 -0.00000000000E+00 -0.95086946025E+03  0.95086946025E+03  0.00000000000E+00 0. -1.
         24    2    1    2    0    0 -0.51747597365E+01  0.47761678339E+02 -0.17643536333E+03  0.19686334928E+03  0.72923143088E+02 0.  0.
         23    2    1    2    0    0 -0.12305229568E+02  0.66717192188E+02 -0.20923679509E+03  0.23926668155E+03  0.94158940474E+02 0.  0.
        -13    1    3    3    0    0  0.29766582396E+02  0.23483329605E+02 -0.12210048086E+03  0.12785164693E+03  0.00000000000E+00 0.  1.
         14    1    3    3    0    0 -0.34941342133E+02  0.24278348734E+02 -0.54334882478E+02  0.69011702349E+02  0.00000000000E+00 0. -1.
        -11    1    4    4    0    0 -0.62233040918E+00  0.33864772118E+02 -0.76984765419E+01  0.34734372411E+02  0.00000000000E+00 0. -1.
         11    1    4    4    0    0 -0.11682899159E+02  0.32852420070E+02 -0.20153831855E+03  0.20453230914E+03  0.00000000000E+00 0.  1.
         21    1    1    2  503  501 -0.20635770035E+02  0.88227176014E+01  0.12568210430E+02  0.25722271755E+02  0.00000000000E+00 0. -1.
          3    1    1    2  501    0  0.38115759340E+02 -0.12330158813E+03 -0.52558464048E+03  0.54119802943E+03  0.00000000000E+00 0. -1.
<scales pt_clust_5="13000.00000" pt_clust_6="13000.00000" pt_clust_7="13000.00000" pt_clust_8="13000.00000" pt_clust_9="22.44271" pt_clust_10="90.78041"></scales>
<clustering>
<clus scale="   22.443">  1  9  2 -1</clus>
<clus scale="   72.923">  5  6 -1 -1</clus>
<clus scale="   89.446">  2  5  1 -1</clus>
<clus scale="   90.780">  1 10  2 -1</clus>
<clus scale="   94.159">  7  8 -1 -1</clus>
<clus scale="   22.443">  1  5  2 -1</clus>
</clustering>
</event>
<event>
10    4  0.7697601E-005  0.2761410E+03  0.7546771E-02  0.1145026E+00
          2   -1    0    0  503    0 -0.00000000000E+00  0.00000000000E+00  0.77911094223E+03  0.77911094223E+03  0.00000000000E+00 0. -1.
         21   -1    0    0  501  502  0.00000000000E+00 -0.00000000000E+00 -0.24542995789E+03  0.24542995789E+03  0.00000000000E+00 0. -1.
         24    2    1    2    0    0  0.22867335790E+01 -0.21525547206E+02 -0.54002987261E+02  0.99172668302E+02  0.80313866625E+02 0.  0.
         23    2    1    2    0    0  0.26119620675E+03 -0.75200104263E+02  0.11066464717E+03  0.30731257547E+03  0.91191232052E+02 0.  0.
        -11    1    3    3    0    0 -0.31358004827E+01  0.21951675363E+02  0.77199355602E+01  0.23479921230E+02  0.00000000000E+00 0.  1.
         12    1    3    3    0    0  0.54225340617E+01 -0.43477222568E+02 -0.61722922821E+02  0.75692747073E+02  0.00000000000E+00 0. -1.
        -13    1    4    4    0    0  0.13679489941E+03  0.67060941267E+01  0.41619167003E+02  0.14314318448E+03  0.00000000000E+00 0. -1.
         13    1    4    4    0    0  0.12440130735E+03 -0.81906198389E+02  0.69045480169E+02  0.16416939098E+03  0.00000000000E+00 0.  1.
         21    1    1    2  503  502 -0.28973643679E+02 -0.13451115110E+02 -0.33041532842E+02  0.45958105034E+02  0.00000000000E+00 0. -1.
          1    1    1    2  501    0 -0.23450929665E+03  0.11017676658E+03  0.51006085726E+03  0.57209755132E+03  0.00000000000E+00 0. -1.
<scales pt_clust_5="13000.00000" pt_clust_6="13000.00000" pt_clust_7="13000.00000" pt_clust_8="13000.00000" pt_clust_9="31.94377" pt_clust_10="260.64939"></scales>
<clustering>
<clus scale="   31.944">  2  9  1 -1</clus>
<clus scale="   80.314">  5  6 -1 -1</clus>
<clus scale="   85.007">  1  5  2 -1</clus>
<clus scale="   91.191">  7  8 -1 -1</clus>
<clus scale="  260.649">  2 10  1 -1</clus>
<clus scale="   31.944">  2  5  1 -1</clus>
</clustering>
</event>
<event>
10    4  0.7697601E-005  0.1715088E+03  0.7546771E-02  0.1204565E+00
          2   -1    0    0  503    0 -0.00000000000E+00  0.00000000000E+00  0.31517375467E+03  0.31517375467E+03  0.00000000000E+00 0. -1.
         21   -1    0    0  501  502  0.00000000000E+00 -0.00000000000E+00 -0.46691138327E+03  0.46691138327E+03  0.00000000000E+00 0.  1.
         24    2    1    2    0    0  0.34590532830E+02 -0.34740483557E+02 -0.10693415697E+03  0.14379780236E+03  0.82701196350E+02 0.  0.
         23    2    1    2    0    0  0.13826542563E+03 -0.66822442381E+02 -0.24741504666E+03  0.30659592893E+03  0.95938999323E+02 0.  0.
        -11    1    3    3    0    0  0.45345506330E+02 -0.51891418642E+02 -0.55367099262E+02  0.88399377564E+02  0.00000000000E+00 0.  1.
         12    1    3    3    0    0 -0.10754973499E+02  0.17150935085E+02 -0.51567057712E+02  0.55398424800E+02  0.00000000000E+00 0. -1.
        -13    1    4    4    0    0  0.10053788747E+03 -0.39721984611E+02 -0.23475659040E+03  0.25844991703E+03  0.00000000000E+00 0.  1.
         13    1    4    4    0    0  0.37727538160E+02 -0.27100457770E+02 -0.12658456269E+02  0.48146011902E+02  0.00000000000E+00 0. -1.
         21    1    1    2  503  502 -0.12430923299E+02  0.32738393104E+02 -0.26313318785E+02  0.43803207447E+02  0.00000000000E+00 0.  1.
          1    1    1    2  501    0 -0.16042503516E+03  0.68824532834E+02  0.22892489382E+03  0.28788819920E+03  0.00000000000E+00 0. -1.
<scales pt_clust_5="13000.00000" pt_clust_6="13000.00000" pt_clust_7="13000.00000" pt_clust_8="13000.00000" pt_clust_9="35.01900" pt_clust_10="142.16539"></scales>
<clustering>
<clus scale="   35.019">  2  9  1 -1</clus>
<clus scale="   82.701">  5  6 -1 -1</clus>
<clus scale="   91.849">  1  5  2 -1</clus>
<clus scale="   95.939">  7  8 -1 -1</clus>
<clus scale="  142.165">  2 10  1 -1</clus>
<clus scale="   35.019">  2  5  1 -1</clus>
</clustering>
</event>
<event>
10    4  0.7697601E-005  0.1398177E+03  0.7546771E-02  0.1233963E+00
          2   -1    0    0  503    0 -0.00000000000E+00  0.00000000000E+00  0.29666926267E+03  0.29666926267E+03  0.00000000000E+00 0. -1.
         21   -1    0    0  501  502  0.00000000000E+00 -0.00000000000E+00 -0.22155899901E+03  0.22155899901E+03  0.00000000000E+00 0. -1.
         24    2    1    2    0    0 -0.18322058839E+02 -0.39598439267E+02  0.17685462612E+03  0.19867467334E+03  0.79311618405E+02 0.  0.
         23    2    1    2    0    0  0.79133061712E+01 -0.69736779890E+02 -0.81373350716E+01  0.11586997159E+03  0.91835696813E+02 0.  0.
        -11    1    3    3    0    0  0.25867530043E+02  0.58225627185E+01  0.41939940041E+02  0.49618443323E+02  0.00000000000E+00 0.  1.
         12    1    3    3    0    0 -0.44189588882E+02 -0.45421001985E+02  0.13491468608E+03  0.14905623001E+03  0.00000000000E+00 0. -1.
        -11    1    4    4    0    0 -0.31949862716E+02 -0.12172533229E+02  0.20895870492E+02  0.40069960025E+02  0.00000000000E+00 0. -1.
         11    1    4    4    0    0  0.39863168887E+02 -0.57564246661E+02 -0.29033205564E+02  0.75800011561E+02  0.00000000000E+00 0.  1.
         21    1    1    2  503  502 -0.20950100876E+00 -0.29029148591E+02 -0.50713479439E+02  0.58434513392E+02  0.00000000000E+00 0. -1.
          1    1    1    2  501    0  0.10618253677E+02  0.13836436775E+03 -0.42893547943E+02  0.14524910337E+03  0.00000000000E+00 0. -1.
<scales pt_clust_5="13000.00000" pt_clust_6="13000.00000" pt_clust_7="13000.00000" pt_clust_8="13000.00000" pt_clust_9="29.02990" pt_clust_10="105.42858"></scales>
<clustering>
<clus scale="   29.030">  2  9  1 -1</clus>
<clus scale="   79.312">  5  6 -1 -1</clus>
<clus scale="   91.369">  1  5  2 -1</clus>
<clus scale="   91.836">  7  8 -1 -1</clus>
<clus scale="  105.429">  2 10  1 -1</clus>
<clus scale="   29.030">  2  5  1 -1</clus>
</clustering>
</event>
<event>
10    4  0.7697601E-005  0.1739264E+03  0.7546771E-02  0.1176632E+00
          2   -1    0    0  503    0 -0.00000000000E+00  0.00000000000E+00  0.13852746258E+04  0.13852746258E+04  0.00000000000E+00 0. -1.
         21   -1    0    0  501  502  0.00000000000E+00 -0.00000000000E+00 -0.60677936437E+02  0.60677936437E+02  0.00000000000E+00 0. -1.
         23    2    1    2    0    0 -0.13341855995E+03 -0.61109387954E+02  0.62282948298E+03  0.64610701643E+03  0.89458607057E+02 0.  0.
         24    2    1    2    0    0  0.17114602455E+03 -0.49857987143E+02  0.47419712678E+03  0.51089619206E+03  0.66145471650E+02 0.  0.
        -11    1    4    4    0    0  0.27272905694E+02  0.12164499930E+02  0.45092613599E+02  0.54084473232E+02  0.00000000000E+00 0.  1.
         12    1    4    4    0    0  0.14387311885E+03 -0.62022487073E+02  0.42910451318E+03  0.45681171883E+03  0.00000000000E+00 0. -1.
        -11    1    3    3    0    0 -0.64188990302E+02 -0.66287565019E+02  0.24186196941E+03  0.25886575671E+03  0.00000000000E+00 0.  1.
         11    1    3    3    0    0 -0.69229569648E+02  0.51781770647E+01  0.38096751357E+03  0.38724125971E+03  0.00000000000E+00 0. -1.
         21    1    1    2  503  502  0.29470529746E+02  0.19458054993E+02  0.77344008292E+00  0.35323168561E+02  0.00000000000E+00 0. -1.
          1    1    1    2  501    0 -0.67197994345E+02  0.91509320105E+02  0.22679663951E+03  0.25362618517E+03  0.00000000000E+00 0. -1.
<scales pt_clust_5="13000.00000" pt_clust_6="13000.00000" pt_clust_7="13000.00000" pt_clust_8="13000.00000" pt_clust_9="35.31470" pt_clust_10="113.51288"></scales>
<clustering>
<clus scale="   35.315">  2  9  1 -1</clus>
<clus scale="   66.145">  5  6 -1 -1</clus>
<clus scale="   89.459">  7  8 -1 -1</clus>
<clus scale="  113.513">  2 10  1 -1</clus>
<clus scale="  163.165">  2  5  1 -1</clus>
<clus scale="   35.315">  2  5  1 -1</clus>
</clustering>
</event>
<event>
10    4  0.7697601E-005  0.1475977E+03  0.7546771E-02  0.1218374E+00
         21   -1    0    0  501  502  0.00000000000E+00  0.00000000000E+00  0.79701543459E+03  0.79701543459E+03  0.00000000000E+00 0. -1.
          2   -1    0    0  503    0 -0.00000000000E+00 -0.00000000000E+00 -0.36116891286E+03  0.36116891286E+03  0.00000000000E+00 0. -1.
         23    2    1    2    0    0 -0.48127051106E+02 -0.35008595974E+02  0.14038040310E+02  0.11126180360E+03  0.92953254509E+02 0.  0.
         24    2    1    2    0    0 -0.29244774598E+02 -0.75676191474E+02 -0.27208900652E+03  0.29474688016E+03  0.79127448440E+02 0.  0.
        -11    1    4    4    0    0  0.16876860060E+02 -0.51053790234E+02 -0.18966251224E+03  0.19713748110E+03  0.00000000000E+00 0.  1.
         12    1    4    4    0    0 -0.46121634658E+02 -0.24622401240E+02 -0.82426494276E+02  0.97609399061E+02  0.00000000000E+00 0. -1.
        -11    1    3    3    0    0 -0.23644659523E+02  0.60601004885E+01  0.47156647865E+02  0.53099380220E+02  0.00000000000E+00 0.  1.
         11    1    3    3    0    0 -0.24482391582E+02 -0.41068696462E+02 -0.33118607555E+02  0.58162423377E+02  0.00000000000E+00 0. -1.
         21    1    1    2  503  502  0.46770905430E+01  0.93728397303E+02  0.66585536556E+03  0.67243606052E+03  0.00000000000E+00 0. -1.
          1    1    1    2  501    0  0.72694735160E+02  0.16956390145E+02  0.28042122371E+02  0.79739603171E+02  0.00000000000E+00 0. -1.
<scales pt_clust_5="13000.00000" pt_clust_6="13000.00000" pt_clust_7="13000.00000" pt_clust_8="13000.00000" pt_clust_9="124.59505" pt_clust_10="74.64616"></scales>
<clustering>
<clus scale="   74.646">  1 10  2 -1</clus>
<clus scale="   79.127">  5  6 -1 -1</clus>
<clus scale="   92.953">  7  8 -1 -1</clus>
<clus scale="  107.386">  2  7  1 -1</clus>
<clus scale="  124.595">  1  9  2 -1</clus>
<clus scale="   74.646">  1  5  2 -1</clus>
</clustering>
</event>
<event>
10    4  0.7697601E-005  0.2181507E+03  0.7546771E-02  0.1155925E+00
          4   -1    0    0  502    0 -0.00000000000E+00  0.00000000000E+00  0.48438280366E+03  0.48438280366E+03  0.00000000000E+00 0. -1.
         21   -1    0    0  503  502  0.00000000000E+00 -0.00000000000E+00 -0.11281750824E+04  0.11281750824E+04  0.00000000000E+00 0.  1.
         24    2    1    2    0    0  0.25362524186E+02 -0.10295063709E+03  0.16413340697E+03  0.21138314204E+03  0.80628569032E+02 0.  0.
         23    2    1    2    0    0 -0.42933324204E+02  0.15346447269E+03  0.65939455429E+02  0.19496745021E+03  0.90937781765E+02 0.  0.
        -13    1    3    3    0    0  0.40673716363E+02 -0.34580859796E+02  0.11192978890E+03  0.12400993795E+03  0.00000000000E+00 0.  1.
         14    1    3    3    0    0 -0.15311192178E+02 -0.68369777293E+02  0.52203618070E+02  0.87373204088E+02  0.00000000000E+00 0. -1.
        -11    1    4    4    0    0 -0.75704224043E+01  0.50355867328E+02  0.69197443618E+02  0.85914555652E+02  0.00000000000E+00 0. -1.
         11    1    4    4    0    0 -0.35362901800E+02  0.10310860537E+03 -0.32579881886E+01  0.10905289456E+03  0.00000000000E+00 0.  1.
         21    1    1    2  503  501  0.18425811785E+03  0.11505677067E+03 -0.93787233751E+03  0.96270121841E+03  0.00000000000E+00 0.  1.
          3    1    1    2  501    0 -0.16668731783E+03 -0.16557060627E+03  0.64007196336E+02  0.24350607542E+03  0.00000000000E+00 0. -1.
<scales pt_clust_5="13000.00000" pt_clust_6="13000.00000" pt_clust_7="13000.00000" pt_clust_8="13000.00000" pt_clust_9="218.15073" pt_clust_10="13000.00000"></scales>
<clustering>
<clus scale="   80.629">  5  6 -1 -1</clus>
<clus scale="   90.938">  7  8 -1 -1</clus>
<clus scale="  133.203">  1  5  2 -1</clus>
<clus scale="  144.859">  1  7  2 -1</clus>
<clus scale="  218.151">  2  9  1 -1</clus>
<clus scale="  218.151">  2  5  1 -1</clus>
</clustering>
</event>
<event>
10    4  0.7697601E-005  0.1556260E+03  0.7546771E-02  0.1194849E+00
         21   -1    0    0  501  502  0.00000000000E+00  0.00000000000E+00  0.77668003159E+03  0.77668003159E+03  0.00000000000E+00 0.  1.
          4   -1    0    0  503    0 -0.00000000000E+00 -0.00000000000E+00 -0.98989440827E+02  0.98989440827E+02  0.00000000000E+00 0. -1.
         24    2    1    2    0    0 -0.89020891227E+02  0.96169646681E+02  0.31164535863E+02  0.15978688162E+03  0.85949399208E+02 0.  0.
         23    2    1    2    0    0  0.73884033756E+02 -0.87827000045E+02  0.13847677132E+03  0.20223766164E+03  0.92476068307E+02 0.  0.
        -13    1    3    3    0    0 -0.89457774678E+02  0.39060099685E+02  0.72868072949E+01  0.97885046858E+02  0.00000000000E+00 0.  1.
         14    1    3    3    0    0  0.43688345090E+00  0.57109546996E+02  0.23877728568E+02  0.61901834761E+02  0.00000000000E+00 0. -1.
        -11    1    4    4    0    0  0.49413445617E+02 -0.13939027348E+02  0.10430314215E+02  0.52390615054E+02  0.00000000000E+00 0. -1.
         11    1    4    4    0    0  0.24470588139E+02 -0.73887972698E+02  0.12804645711E+03  0.14984704659E+03  0.00000000000E+00 0.  1.
         21    1    1    2  503  502 -0.29419751767E+02 -0.24748942915E+01  0.15940130848E+03  0.16211238090E+03  0.00000000000E+00 0.  1.
          3    1    1    2  501    0  0.44556609238E+02 -0.58677523436E+01  0.34864797510E+03  0.35153254826E+03  0.00000000000E+00 0. -1.
<scales pt_clust_5="13000.00000" pt_clust_6="13000.00000" pt_clust_7="13000.00000" pt_clust_8="13000.00000" pt_clust_9="29.52367" pt_clust_10="28.76933"></scales>
<clustering>
<clus scale="   29.524">  1  9  2 -1</clus>
<clus scale="   28.769">  1 10  2 -1</clus>
<clus scale="   85.949">  5  6 -1 -1</clus>
<clus scale="   92.476">  7  8 -1 -1</clus>
<clus scale="  151.838">  2  5  1 -1</clus>
<clus scale="   29.524">  1  5  2 -1</clus>
</clustering>
</event>
<event>
10    4  0.7697601E-005  0.1359034E+03  0.7546771E-02  0.1221439E+00
          2   -1    0    0  502    0 -0.00000000000E+00  0.00000000000E+00  0.93081612662E+02  0.93081612662E+02  0.00000000000E+00 0. -1.
         21   -1    0    0  503  502  0.00000000000E+00 -0.00000000000E+00 -0.45702985501E+03  0.45702985501E+03  0.00000000000E+00 0.  1.
         24    2    1    2    0    0 -0.75876429364E+02 -0.21726520425E+01 -0.69915865632E+02  0.13068785556E+03  0.80181883082E+02 0.  0.
         23    2    1    2    0    0  0.16196302585E+03  0.19126008905E+02 -0.21092685416E+03  0.28169015334E+03  0.90892126849E+02 0.  0.
        -13    1    3    3    0    0 -0.38460457159E+02  0.37180677652E+02 -0.20564054140E+02  0.57310469185E+02  0.00000000000E+00 0.  1.
         14    1    3    3    0    0 -0.37415972205E+02 -0.39353329695E+02 -0.49351811492E+02  0.73377386378E+02  0.00000000000E+00 0. -1.
        -13    1    4    4    0    0  0.51159705817E+02 -0.13364755132E+02 -0.13096789141E+03  0.14123923237E+03  0.00000000000E+00 0.  1.
         13    1    4    4    0    0  0.11080332003E+03  0.32490764036E+02 -0.79958962747E+02  0.14045092097E+03  0.00000000000E+00 0. -1.
         21    1    1    2  503  501 -0.37921287830E+02 -0.18341875165E+02 -0.78804487625E+02  0.89356565093E+02  0.00000000000E+00 0.  1.
          1    1    1    2  501    0 -0.48165308651E+02  0.13885183027E+01 -0.43010349301E+01  0.48376893679E+02  0.00000000000E+00 0. -1.
<scales pt_clust_5="13000.00000" pt_clust_6="13000.00000" pt_clust_7="13000.00000" pt_clust_8="13000.00000" pt_clust_9="42.12420" pt_clust_10="50.84355"></scales>
<clustering>
<clus scale="   42.124">  2  9  1 -1</clus>
<clus scale="   50.844">  2 10  1 -1</clus>
<clus scale="   80.182">  5  6 -1 -1</clus>
<clus scale="   90.892">  7  8 -1 -1</clus>
<clus scale="  128.986">  1  5  2 -1</clus>
<clus scale="   42.124">  2  5  1 -1</clus>
</clustering>
</event>
<event>
10    4  0.7697601E-005  0.1527694E+03  0.7546771E-02  0.1200414E+00
          4   -1    0    0  503    0 -0.00000000000E+00  0.00000000000E+00  0.16904761801E+03  0.16904761801E+03  0.00000000000E+00 0. -1.
         21   -1    0    0  501  502  0.00000000000E+00 -0.00000000000E+00 -0.78181657464E+03  0.78181657464E+03  0.00000000000E+00 0. -1.
         23    2    1    2    0    0  0.42148255922E+02 -0.12858563559E+03 -0.65182792932E+02  0.17613232980E+03  0.91994890885E+02 0.  0.
         24    2    1    2    0    0 -0.60256753915E+02  0.76692708382E+02 -0.24667626511E+03  0.27513425236E+03  0.73054973418E+02 0.  0.
        -13    1    4    4    0    0 -0.28220273420E+02  0.48986319323E+01 -0.19268359163E+02  0.34520285218E+02  0.00000000000E+00 0.  1.
         14    1    4    4    0    0 -0.32036480495E+02  0.71794076450E+02 -0.22740790595E+03  0.24061396714E+03  0.00000000000E+00 0. -1.
        -11    1    3    3    0    0 -0.27154986003E+02 -0.26358132492E+02 -0.32882840679E+01  0.37986276803E+02  0.00000000000E+00 0.  1.
         11    1    3    3    0    0  0.69303241925E+02 -0.10222750310E+03 -0.61894508864E+02  0.13814605300E+03  0.00000000000E+00 0. -1.
         21    1    1    2  503  502 -0.33255265387E+02 -0.48430868114E+02 -0.36516460298E+03  0.36986031003E+03  0.00000000000E+00 0. -1.
          3    1    1    2  501    0  0.51363763380E+02  0.10032379532E+03  0.64254704398E+02  0.12973730047E+03  0.00000000000E+00 0. -1.
<scales pt_clust_5="13000.00000" pt_clust_6="13000.00000" pt_clust_7="13000.00000" pt_clust_8="13000.00000" pt_clust_9="58.74914" pt_clust_10="108.10524"></scales>
<clustering>
<clus scale="   58.749">  2  9  1 -1</clus>
<clus scale="   73.055">  5  6 -1 -1</clus>
<clus scale="   91.995">  7  8 -1 -1</clus>
<clus scale="  108.105">  2 10  1 -1</clus>
<clus scale="  142.171">  2  5  1 -1</clus>
<clus scale="   58.749">  2  5  1 -1</clus>
</clustering>
</event>
<event>
10    4  0.7697601E-005  0.1926312E+03  0.7546771E-02  0.1191182E+00
         21   -1    0    0  503  502  0.00000000000E+00  0.00000000000E+00  0.48751309565E+02  0.48751309565E+02  0.00000000000E+00 0. -1.
          2   -1    0    0  502    0 -0.00000000000E+00 -0.00000000000E+00 -0.12544221409E+04  0.12544221409E+04  0.00000000000E+00 0. -1.
         24    2    1    2    0    0  0.29697778062E+02 -0.19461835341E+02 -0.25860969870E+03  0.27339973230E+03  0.81287860737E+02 0.  0.
         23    2    1    2    0    0  0.65713625168E+02 -0.14805520012E+03 -0.52433470794E+03  0.55605961815E+03  0.89648146467E+02 0.  0.
        -13    1    3    3    0    0  0.54807994016E+02  0.26017454321E+01 -0.17312827448E+03  0.18161521057E+03  0.00000000000E+00 0.  1.
         14    1    3    3    0    0 -0.25110215954E+02 -0.22063580773E+02 -0.85481424221E+02  0.91784521727E+02  0.00000000000E+00 0. -1.
        -11    1    4    4    0    0  0.37741724364E+02 -0.17638322815E+02 -0.60707767558E+02  0.73627313081E+02  0.00000000000E+00 0.  1.
         11    1    4    4    0    0  0.27971900805E+02 -0.13041687731E+03 -0.46362694038E+03  0.48243230507E+03  0.00000000000E+00 0. -1.
         21    1    1    2  503  501 -0.34279716092E+02  0.26949535715E+01 -0.41400659012E+02  0.53817992128E+02  0.00000000000E+00 0. -1.
          1    1    1    2  501    0 -0.61131687138E+02  0.16482208189E+03 -0.38132576573E+03  0.41989610794E+03  0.00000000000E+00 0. -1.
<scales pt_clust_5="13000.00000" pt_clust_6="13000.00000" pt_clust_7="13000.00000" pt_clust_8="13000.00000" pt_clust_9="34.38549" pt_clust_10="170.49921"></scales>
<clustering>
<clus scale="   34.385">  1  9  2 -1</clus>
<clus scale="   81.288">  5  6 -1 -1</clus>
<clus scale="   86.787">  2  5  1 -1</clus>
<clus scale="   89.648">  7  8 -1 -1</clus>
<clus scale="  170.499">  1 10  2 -1</clus>
<clus scale="   34.385">  1  5  2 -1</clus>
</clustering>
</event>
<event>
10    4  0.7697601E-005  0.1152842E+03  0.7546771E-02  0.1255176E+00
         21   -1    0    0  501  502  0.00000000000E+00  0.00000000000E+00  0.22122187491E+03  0.22122187491E+03  0.00000000000E+00 0. -1.
          2   -1    0    0  503    0 -0.00000000000E+00 -0.00000000000E+00 -0.21070835172E+03  0.21070835172E+03  0.00000000000E+00 0. -1.
         23    2    1    2    0    0  0.42610607995E+02 -0.63439653873E+02 -0.10069991186E+03  0.15660941776E+03  0.92443409092E+02 0.  0.
         24    2    1    2    0    0 -0.38453338435E+02  0.14132053287E+02  0.11376014305E+03  0.14550301016E+03  0.80940605708E+02 0.  0.
        -11    1    4    4    0    0 -0.13489961981E+02  0.46036773499E+02  0.77439325118E+02  0.91094525978E+02  0.00000000000E+00 0.  1.
         12    1    4    4    0    0 -0.24963376455E+02 -0.31904720212E+02  0.36320817930E+02  0.54408484182E+02  0.00000000000E+00 0. -1.
        -13    1    3    3    0    0 -0.32373202418E+01  0.21574698859E+02 -0.95950079414E+01  0.23833003391E+02  0.00000000000E+00 0.  1.
         13    1    3    3    0    0  0.45847928237E+02 -0.85014352733E+02 -0.91104903919E+02  0.13277641437E+03  0.00000000000E+00 0. -1.
         21    1    1    2  503  502 -0.43245601846E+02 -0.20120642714E+02  0.11126124566E+02  0.48977678488E+02  0.00000000000E+00 0. -1.
          1    1    1    2  501    0  0.39088332286E+02  0.69428243301E+02 -0.13672832566E+02  0.80840120232E+02  0.00000000000E+00 0. -1.
<scales pt_clust_5="13000.00000" pt_clust_6="13000.00000" pt_clust_7="13000.00000" pt_clust_8="13000.00000" pt_clust_9="47.69719" pt_clust_10="73.03193"></scales>
<clustering>
<clus scale="   47.697">  1  9  2 -1</clus>
<clus scale="   73.032">  1 10  2 -1</clus>
<clus scale="   80.941">  5  6 -1 -1</clus>
<clus scale="   92.443">  7  8 -1 -1</clus>
<clus scale="  106.283">  1  5  2 -1</clus>
<clus scale="   47.697">  1  5  2 -1</clus>
</clustering>
</event>
<event>
10    4  0.7697601E-005  0.4885895E+03  0.7546771E-02  0.1016801E+00
          2   -1    0    0  503    0 -0.00000000000E+00  0.00000000000E+00  0.25583981709E+04  0.25583981709E+04  0.00000000000E+00 0. -1.
         21   -1    0    0  501  502  0.00000000000E+00 -0.00000000000E+00 -0.10431784033E+03  0.10431784033E+03  0.00000000000E+00 0. -1.
         24    2    1    2    0    0 -0.21370619008E+03 -0.26023385000E+03  0.77446054302E+03  0.84854922890E+03  0.82792927231E+02 0.  0.
         23    2    1    2    0    0 -0.99851588837E+02 -0.84599148411E+02  0.38074882437E+03  0.41269984299E+03  0.90687030151E+02 0.  0.
        -13    1    3    3    0    0 -0.18280003058E+03 -0.24310524450E+03  0.73571401886E+03  0.79610999782E+03  0.00000000000E+00 0.  1.
         14    1    3    3    0    0 -0.30906159498E+02 -0.17128605494E+02  0.38746524169E+02  0.52439231080E+02  0.00000000000E+00 0. -1.
        -11    1    4    4    0    0 -0.44796684811E+02 -0.62112955264E+02  0.10128239112E+03  0.12697592265E+03  0.00000000000E+00 0.  1.
         11    1    4    4    0    0 -0.55054904026E+02 -0.22486193147E+02  0.27946643325E+03  0.28572392034E+03  0.00000000000E+00 0. -1.
         21    1    1    2  503  502 -0.25200367146E+02  0.71453484759E+02  0.96296138014E+02  0.12253001749E+03  0.00000000000E+00 0. -1.
          1    1    1    2  501    0  0.33875814606E+03  0.27337951365E+03  0.12025748252E+04  0.12789369219E+04  0.00000000000E+00 0. -1.
<scales pt_clust_5="13000.00000" pt_clust_6="13000.00000" pt_clust_7="13000.00000" pt_clust_8="13000.00000" pt_clust_9="75.76714" pt_clust_10="446.88656"></scales>
<clustering>
<clus scale="   75.767">  2  9  1 -1</clus>
<clus scale="   82.793">  5  6 -1 -1</clus>
<clus scale="   90.687">  7  8 -1 -1</clus>
<clus scale="   94.516">  5  7 -1 -1</clus>
<clus scale="  446.887">  2 10  1 -1</clus>
<clus scale="   75.767">  2  5  1 -1</clus>
</clustering>
</event>
<event>
10    4  0.7697601E-005  0.1716850E+03  0.7546771E-02  0.1201919E+00
         -3   -1    0    0    0  501 -0.00000000000E+00  0.00000000000E+00  0.41182905472E+03  0.41182905472E+03  0.00000000000E+00 0.  1.
         21   -1    0    0  503  502  0.00000000000E+00 -0.00000000000E+00 -0.43782057923E+03  0.43782057923E+03  0.00000000000E+00 0.  1.
         23    2    1    2    0    0 -0.44329927685E+01  0.38180281461E+02  0.22207025984E+03  0.24231149181E+03  0.89007153865E+02 0.  0.
         24    2    1    2    0    0 -0.67515134876E+02  0.10617857552E+03  0.20868338407E+02  0.15326594214E+03  0.84986929200E+02 0.  0.
        -11    1    4    4    0    0 -0.17668774167E+02  0.92455013127E+02  0.33729992949E+02  0.99989136696E+02  0.00000000000E+00 0.  1.
         12    1    4    4    0    0 -0.49846360710E+02  0.13723562395E+02 -0.12861654541E+02  0.53276805444E+02  0.00000000000E+00 0. -1.
        -13    1    3    3    0    0  0.41164098816E+02  0.12643923304E+02  0.78662399676E+02  0.89677895552E+02  0.00000000000E+00 0. -1.
         13    1    3    3    0    0 -0.45597091585E+02  0.25536358156E+02  0.14340786017E+03  0.15263359626E+03  0.00000000000E+00 0.  1.
         21    1    1    2  503  501 -0.91705401450E+02 -0.11770839032E+03 -0.13875112171E+02  0.14985881537E+03  0.00000000000E+00 0.  1.
         -4    1    1    2    0  502  0.16365352909E+03 -0.26650466663E+02 -0.25505501059E+03  0.30421338462E+03  0.00000000000E+00 0.  1.
<scales pt_clust_5="13000.00000" pt_clust_6="13000.00000" pt_clust_7="13000.00000" pt_clust_8="13000.00000" pt_clust_9="139.22114" pt_clust_10="149.17424"></scales>
<clustering>
<clus scale="   84.987">  5  6 -1 -1</clus>
<clus scale="   89.007">  7  8 -1 -1</clus>
<clus scale="   96.952">  1  7  2 -1</clus>
<clus scale="  139.221">  1  9  2 -1</clus>
<clus scale="  149.174">  2 10  1 -1</clus>
<clus scale="  149.174">  2  5  1 -1</clus>
</clustering>
</event>
<event>
10    4  0.7697601E-005  0.2878731E+03  0.7546771E-02  0.1137827E+00
         21   -1    0    0  501  502  0.00000000000E+00  0.00000000000E+00  0.28804081138E+03  0.28804081138E+03  0.00000000000E+00 0. -1.
          2   -1    0    0  503    0 -0.00000000000E+00 -0.00000000000E+00 -0.55609804751E+03  0.55609804751E+03  0.00000000000E+00 0. -1.
         23    2    1    2    0    0  0.12507038620E+02  0.99409631882E+01 -0.52630595627E+02  0.10400439706E+03  0.88270528757E+02 0.  0.
         24    2    1    2    0    0 -0.24214469913E+03  0.17631571285E+03 -0.25703711424E+03  0.40281930770E+03  0.80461361197E+02 0.  0.
        -13    1    4    4    0    0 -0.14794729333E+03  0.62325966990E+02 -0.11245111343E+03  0.19600556287E+03  0.00000000000E+00 0.  1.
         14    1    4    4    0    0 -0.94197405801E+02  0.11398974586E+03 -0.14458600081E+03  0.20681374483E+03  0.00000000000E+00 0. -1.
        -13    1    3    3    0    0 -0.23213576032E+02  0.23811287382E+02  0.61681423562E+01  0.33821494632E+02  0.00000000000E+00 0. -1.
         13    1    3    3    0    0  0.35720614653E+02 -0.13870324194E+02 -0.58798737984E+02  0.70182902426E+02  0.00000000000E+00 0.  1.
         21    1    1    2  503  502  0.41139697823E+01 -0.84457775408E+02  0.29600089451E+02  0.89589094592E+02  0.00000000000E+00 0.  1.
          1    1    1    2  501    0  0.22552369072E+03 -0.10179890063E+03  0.12010384290E+02  0.24772605955E+03  0.00000000000E+00 0. -1.
<scales pt_clust_5="13000.00000" pt_clust_6="13000.00000" pt_clust_7="13000.00000" pt_clust_8="13000.00000" pt_clust_9="84.55791" pt_clust_10="276.39988"></scales>
<clustering>
<clus scale="   80.461">  5  6 -1 -1</clus>
<clus scale="   84.558">  1  9  2 -1</clus>
<clus scale="   88.271">  7  8 -1 -1</clus>
<clus scale="   89.219">  2  7  1 -1</clus>
<clus scale="  276.400">  1 10  2 -1</clus>
<clus scale="   84.558">  1  5  2 -1</clus>
</clustering>
</event>
<event>
10    4  0.7697601E-005  0.1157655E+03  0.7546771E-02  0.1251003E+00
         -1   -1    0    0    0  501 -0.00000000000E+00  0.00000000000E+00  0.14222787028E+03  0.14222787028E+03  0.00000000000E+00 0.  1.
         21   -1    0    0  503  502  0.00000000000E+00 -0.00000000000E+00 -0.54783840793E+03  0.54783840793E+03  0.00000000000E+00 0.  1.
         24    2    1    2    0    0  0.32296056059E+02  0.63804880423E+02 -0.34133690427E+02  0.11218540279E+03  0.79412579451E+02 0.  0.
         23    2    1    2    0    0  0.24727074254E+02 -0.10171566900E+03 -0.28363364154E+02  0.13588527807E+03  0.81870769201E+02 0.  0.
        -11    1    3    3    0    0  0.14587197871E+02  0.79126748518E+02 -0.14781482466E+02  0.81806606681E+02  0.00000000000E+00 0.  1.
         12    1    3    3    0    0  0.17708858188E+02 -0.15321868095E+02 -0.19352207961E+02  0.30378796112E+02  0.00000000000E+00 0. -1.
        -11    1    4    4    0    0 -0.63541336813E+01 -0.54133795118E+02  0.23114252363E+02  0.59203981716E+02  0.00000000000E+00 0.  1.
         11    1    4    4    0    0  0.31081207936E+02 -0.47581873885E+02 -0.51477616517E+02  0.76681296359E+02  0.00000000000E+00 0. -1.
         21    1    1    2  503  501 -0.15609438587E+03  0.37727629611E+02 -0.28502208491E+03  0.32714892667E+03  0.00000000000E+00 0.  1.
         -2    1    1    2    0  502  0.99071255558E+02  0.18315896859E+00 -0.58091398155E+02  0.11484667067E+03  0.00000000000E+00 0.  1.
<scales pt_clust_5="13000.00000" pt_clust_6="13000.00000" pt_clust_7="13000.00000" pt_clust_8="13000.00000" pt_clust_9="97.97388" pt_clust_10="99.07147"></scales>
<clustering>
<clus scale="   79.413">  5  6 -1 -1</clus>
<clus scale="   81.871">  7  8 -1 -1</clus>
<clus scale="   99.071">  2 10  1 -1</clus>
<clus scale="   97.974">  2  9  1 -1</clus>
<clus scale="  114.040">  1  5  2 -1</clus>
<clus scale="   99.071">  2  5  1 -1</clus>
</clustering>
</event>
<event>
10    4  0.7697601E-005  0.1577276E+03  0.7546771E-02  0.1211259E+00
          2   -1    0    0  503    0 -0.00000000000E+00  0.00000000000E+00  0.79182622292E+03  0.79182622292E+03  0.00000000000E+00 0. -1.
         21   -1    0    0  501  502  0.00000000000E+00 -0.00000000000E+00 -0.96060541883E+02  0.96060541883E+02  0.00000000000E+00 0. -1.
         23    2    1    2    0    0 -0.82484992982E+01  0.42462296647E+02  0.35400841825E+03  0.36827382613E+03  0.91829006531E+02 0.  0.
         24    2    1    2    0    0 -0.80314108357E+02  0.68300689500E+02  0.21742246864E+03  0.25491310284E+03  0.81196181798E+02 0.  0.
        -13    1    4    4    0    0 -0.35753233607E+02 -0.10295680989E+02  0.33801041885E+02  0.50267337237E+02  0.00000000000E+00 0.  1.
         14    1    4    4    0    0 -0.44560874750E+02  0.78596370489E+02  0.18362142676E+03  0.20464576560E+03  0.00000000000E+00 0. -1.
        -13    1    3    3    0    0 -0.12849200515E+02 -0.26750006610E+02  0.72348264189E+02  0.78198057129E+02  0.00000000000E+00 0.  1.
         13    1    3    3    0    0  0.46007012170E+01  0.69212303257E+02  0.28166015406E+03  0.29007576900E+03  0.00000000000E+00 0. -1.
         21    1    1    2  503  502 -0.18550928349E+02  0.12083625861E+02 -0.31963356097E+02  0.38881963550E+02  0.00000000000E+00 0. -1.
          1    1    1    2  501    0  0.10711353600E+03 -0.12284661201E+03  0.15629815023E+03  0.22581787228E+03  0.00000000000E+00 0. -1.
<scales pt_clust_5="13000.00000" pt_clust_6="13000.00000" pt_clust_7="13000.00000" pt_clust_8="13000.00000" pt_clust_9="22.13935" pt_clust_10="135.22270"></scales>
<clustering>
<clus scale="   22.139">  2  9  1 -1</clus>
<clus scale="   81.196">  5  6 -1 -1</clus>
<clus scale="   91.829">  7  8 -1 -1</clus>
<clus scale="  102.309">  1  7  2 -1</clus>
<clus scale="  135.223">  2 10  1 -1</clus>
<clus scale="   22.139">  2  5  1 -1</clus>
</clustering>
</event>
<event>
10    4  0.7697601E-005  0.1795824E+03  0.7546771E-02  0.1178426E+00
          2   -1    0    0  503    0 -0.00000000000E+00  0.00000000000E+00  0.15253971564E+04  0.15253971564E+04  0.00000000000E+00 0. -1.
         21   -1    0    0  501  502  0.00000000000E+00 -0.00000000000E+00 -0.11324566001E+03  0.11324566001E+03  0.00000000000E+00 0.  1.
         23    2    1    2    0    0 -0.97603356819E+02  0.55210344706E+02  0.58949085358E+03  0.60698692605E+03  0.91427919760E+02 0.  0.
         24    2    1    2    0    0  0.39842527311E+02  0.15786700193E+03  0.16711298617E+02  0.18376416286E+03  0.83549881920E+02 0.  0.
        -11    1    4    4    0    0  0.52824089529E+02  0.16039817710E+03  0.10629468604E+02  0.16920681208E+03  0.00000000000E+00 0.  1.
         12    1    4    4    0    0 -0.12981562218E+02 -0.25311751713E+01  0.60818300128E+01  0.14557350778E+02  0.00000000000E+00 0. -1.
        -11    1    3    3    0    0 -0.97822202750E+02  0.89020217507E+01  0.41327232835E+03  0.42478517715E+03  0.00000000000E+00 0.  1.
         11    1    3    3    0    0  0.21884593141E+00  0.46308322955E+02  0.17621852523E+03  0.18220174890E+03  0.00000000000E+00 0. -1.
         21    1    1    2  503  502  0.31148712357E+02 -0.18607860602E+02  0.28759224598E+02  0.46298895853E+02  0.00000000000E+00 0.  1.
          1    1    1    2  501    0  0.26612117151E+02 -0.19446948603E+03  0.77719011957E+03  0.80159283164E+03  0.00000000000E+00 0. -1.
<scales pt_clust_5="13000.00000" pt_clust_6="13000.00000" pt_clust_7="13000.00000" pt_clust_8="13000.00000" pt_clust_9="36.28353" pt_clust_10="158.96312"></scales>
<clustering>
<clus scale="   36.284">  2  9  1 -1</clus>
<clus scale="   83.550">  5  6 -1 -1</clus>
<clus scale="   91.428">  7  8 -1 -1</clus>
<clus scale="  142.344">  1  7  2 -1</clus>
<clus scale="  158.963">  2 10  1 -1</clus>
<clus scale="   36.284">  2  5  1 -1</clus>
</clustering>
</event>
<event>
10    4  0.7697601E-005  0.9870804E+02  0.7546771E-02  0.1288355E+00
         -3   -1    0    0    0  501 -0.00000000000E+00  0.00000000000E+00  0.16452193688E+03  0.16452193688E+03  0.00000000000E+00 0.  1.
         21   -1    0    0  501  502  0.00000000000E+00 -0.00000000000E+00 -0.31488348097E+03  0.31488348097E+03  0.00000000000E+00 0. -1.
         23    2    1    2    0    0 -0.19427046254E+02 -0.33102804744E+02  0.11624274821E+03  0.15309110238E+03  0.91930970349E+02 0.  0.
         24    2    1    2    0    0  0.27756836378E+02  0.10148382005E+02 -0.72889284949E+02  0.11343090566E+03  0.81733046408E+02 0.  0.
        -11    1    4    4    0    0  0.17569096596E+02 -0.33382559652E+02 -0.15748625698E+02  0.40878939021E+02  0.00000000000E+00 0.  1.
         12    1    4    4    0    0  0.10187739782E+02  0.43530941656E+02 -0.57140659251E+02  0.72551966638E+02  0.00000000000E+00 0. -1.
        -13    1    3    3    0    0  0.28901666245E+02  0.11281758316E+02  0.55965609168E+02  0.63990106985E+02  0.00000000000E+00 0. -1.
         13    1    3    3    0    0 -0.48328712498E+02 -0.44384563060E+02  0.60277139042E+02  0.89100995397E+02  0.00000000000E+00 0.  1.
         21    1    1    2  503  502 -0.27558593235E+02  0.10253671135E+01 -0.17726750613E+03  0.17939982210E+03  0.00000000000E+00 0. -1.
         -4    1    1    2    0  503  0.19228803110E+02  0.21929055625E+02 -0.16447501221E+02  0.33483587712E+02  0.00000000000E+00 0.  1.
<scales pt_clust_5="13000.00000" pt_clust_6="13000.00000" pt_clust_7="13000.00000" pt_clust_8="13000.00000" pt_clust_9="27.57766" pt_clust_10="26.27743"></scales>
<clustering>
<clus scale="   27.578">  2  9  1 -1</clus>
<clus scale="   26.277">  2 10  1 -1</clus>
<clus scale="   81.733">  5  6 -1 -1</clus>
<clus scale="   89.288">  2  5  1 -1</clus>
<clus scale="   91.931">  7  8 -1 -1</clus>
<clus scale="   27.578">  2  5  1 -1</clus>
</clustering>
</event>
<event>
10    4  0.7697601E-005  0.9772911E+02  0.7546771E-02  0.1286816E+00
         21   -1    0    0  503  502  0.00000000000E+00  0.00000000000E+00  0.47663024753E+02  0.47663024753E+02  0.00000000000E+00 0.  1.
          2   -1    0    0  502    0 -0.00000000000E+00 -0.00000000000E+00 -0.71380741304E+03  0.71380741304E+03  0.00000000000E+00 0. -1.
         23    2    1    2    0    0  0.28418053484E+01 -0.39117427178E+02 -0.52560413300E+03  0.53439154593E+03  0.88183732959E+02 0.  0.
         24    2    1    2    0    0 -0.42404180865E+02  0.59529425406E+02 -0.59219987870E+02  0.12665725127E+03  0.84812648179E+02 0.  0.
        -13    1    4    4    0    0 -0.47658635678E+02  0.77968941395E+02 -0.56111379817E+02  0.10723333587E+03  0.00000000000E+00 0.  1.
         14    1    4    4    0    0  0.52544548132E+01 -0.18439515989E+02 -0.31086080526E+01  0.19423915396E+02  0.00000000000E+00 0. -1.
        -11    1    3    3    0    0  0.21807177003E+02  0.22374807972E+02 -0.13897852493E+03  0.14244723723E+03  0.00000000000E+00 0.  1.
         11    1    3    3    0    0 -0.18965371655E+02 -0.61492235150E+02 -0.38662560807E+03  0.39194430870E+03  0.00000000000E+00 0. -1.
         21    1    1    2  503  501  0.22928958238E+02  0.34842500084E+01 -0.14037698740E+02  0.27109668201E+02  0.00000000000E+00 0.  1.
          1    1    1    2  501    0  0.16633417278E+02 -0.23896248236E+02 -0.67282568671E+02  0.73311972399E+02  0.00000000000E+00 0. -1.
<scales pt_clust_5="13000.00000" pt_clust_6="13000.00000" pt_clust_7="13000.00000" pt_clust_8="13000.00000" pt_clust_9="23.19218" pt_clust_10="29.90483"></scales>
<clustering>
<clus scale="   23.192">  1  9  2 -1</clus>
<clus scale="   29.905">  1 10  2 -1</clus>
<clus scale="   84.813">  5  6 -1 -1</clus>
<clus scale="   88.184">  7  8 -1 -1</clus>
<clus scale="   94.698">  1  5  2 -1</clus>
<clus scale="   23.192">  1  5  2 -1</clus>
</clustering>
</event>
<event>
10    4  0.7697601E-005  0.2967494E+03  0.7546771E-02  0.1113379E+00
          2   -1    0    0  503    0 -0.00000000000E+00  0.00000000000E+00  0.11214222117E+04  0.11214222117E+04  0.00000000000E+00 0. -1.
         21   -1    0    0  501  502  0.00000000000E+00 -0.00000000000E+00 -0.28147836593E+03  0.28147836593E+03  0.00000000000E+00 0. -1.
         24    2    1    2    0    0 -0.63081262516E+01  0.12378185819E+03  0.29224714556E+03  0.32812975285E+03  0.83060217587E+02 0.  0.
         23    2    1    2    0    0  0.28201009118E+03  0.85245615316E+02  0.37191302830E+03  0.48340906252E+03  0.92566271664E+02 0.  0.
        -13    1    3    3    0    0  0.19166054406E+02  0.30462016103E+02  0.16165345447E+03  0.16561132633E+03  0.00000000000E+00 0.  1.
         14    1    3    3    0    0 -0.25474180657E+02  0.93319842082E+02  0.13059369109E+03  0.16251842652E+03  0.00000000000E+00 0. -1.
        -13    1    4    4    0    0  0.37939826616E+02  0.43399693028E+02  0.10161431616E+03  0.11682650833E+03  0.00000000000E+00 0.  1.
         13    1    4    4    0    0  0.24407026457E+03  0.41845922288E+02  0.27029871214E+03  0.36658255419E+03  0.00000000000E+00 0. -1.
         21    1    1    2  503  502 -0.67682195858E+02 -0.29612802887E+03 -0.26732173369E+01  0.30377596219E+03  0.00000000000E+00 0. -1.
          1    1    1    2  501    0 -0.20801976907E+03  0.87100555365E+02  0.17845688920E+03  0.28758580002E+03  0.00000000000E+00 0. -1.
<scales pt_clust_5="13000.00000" pt_clust_6="13000.00000" pt_clust_7="13000.00000" pt_clust_8="13000.00000" pt_clust_9="281.94268" pt_clust_10="243.05127"></scales>
<clustering>
<clus scale="   83.060">  5  6 -1 -1</clus>
<clus scale="   92.566">  7  8 -1 -1</clus>
<clus scale="  149.200">  1  5  2 -1</clus>
<clus scale="  243.051">  2 10  1 -1</clus>
<clus scale="  281.943">  2  9  1 -1</clus>
<clus scale="  243.051">  2  5  1 -1</clus>
</clustering>
</event>
<event>
10    4  0.7697601E-005  0.3994653E+03  0.7546771E-02  0.1086304E+00
         -3   -1    0    0    0  501 -0.00000000000E+00  0.00000000000E+00  0.58536713333E+03  0.58536713333E+03  0.00000000000E+00 0.  1.
         21   -1    0    0  503  502  0.00000000000E+00 -0.00000000000E+00 -0.85358837180E+03  0.85358837180E+03  0.00000000000E+00 0. -1.
         23    2    1    2    0    0  0.10213368357E+02 -0.80561108900E+02 -0.79796214452E+02  0.14705525877E+03  0.93077430836E+02 0.  0.
         24    2    1    2    0    0  0.38590104982E+03  0.33684876101E+03 -0.90622054699E+02  0.52659331862E+03  0.81862435677E+02 0.  0.
        -13    1    4    4    0    0  0.21688181624E+02  0.99417345806E+01 -0.21898791198E+02  0.32384755125E+02  0.00000000000E+00 0.  1.
         14    1    4    4    0    0  0.36421286819E+03  0.32690702643E+03 -0.68723263502E+02  0.49420856350E+03  0.00000000000E+00 0. -1.
        -13    1    3    3    0    0 -0.18520414143E+02 -0.27938021774E+02  0.13515380378E+02  0.36141448607E+02  0.00000000000E+00 0.  1.
         13    1    3    3    0    0  0.28733782500E+02 -0.52623087126E+02 -0.93311594830E+02  0.11091381016E+03  0.00000000000E+00 0. -1.
         21    1    1    2  503  501 -0.28655099484E+03 -0.32432222861E+02 -0.32045406397E+03  0.43110802456E+03  0.00000000000E+00 0. -1.
         -4    1    1    2    0  502 -0.10956342333E+03 -0.22385542925E+03  0.22265109466E+03  0.33419890318E+03  0.00000000000E+00 0.  1.
<scales pt_clust_5="13000.00000" pt_clust_6="13000.00000" pt_clust_7="13000.00000" pt_clust_8="13000.00000" pt_clust_9="390.98725" pt_clust_10="284.37042"></scales>
<clustering>
<clus scale="   81.862">  5  6 -1 -1</clus>
<clus scale="   93.077">  7  8 -1 -1</clus>
<clus scale="  123.523">  1  7  2 -1</clus>
<clus scale="  284.370">  2 10  1 -1</clus>
<clus scale="  390.987">  2  9  1 -1</clus>
<clus scale="  284.370">  2  5  1 -1</clus>
</clustering>
</event>
<event>
10    4  0.7697601E-005  0.4949569E+03  0.7546771E-02  0.1015104E+00
          2   -1    0    0  503    0 -0.00000000000E+00  0.00000000000E+00  0.17613718018E+04  0.17613718018E+04  0.00000000000E+00 0. -1.
         21   -1    0    0  501  502  0.00000000000E+00 -0.00000000000E+00 -0.23419776865E+03  0.23419776865E+03  0.00000000000E+00 0.  1.
         24    2    1    2    0    0  0.12718221644E+03  0.10024736812E+03  0.25386180276E+02  0.18258277542E+03  0.80418659132E+02 0.  0.
         23    2    1    2    0    0  0.21940919028E+03  0.22944797828E+03  0.30741424826E+03  0.45132421963E+03  0.91669316958E+02 0.  0.
        -11    1    3    3    0    0  0.92192276332E+02  0.76997518807E+02  0.54058425666E+02  0.13172071630E+03  0.00000000000E+00 0.  1.
         12    1    3    3    0    0  0.34989940110E+02  0.23249849317E+02 -0.28672245389E+02  0.50862059119E+02  0.00000000000E+00 0. -1.
        -11    1    4    4    0    0  0.15160577039E+02  0.67347129753E+02  0.53179583560E+02  0.87140961033E+02  0.00000000000E+00 0. -1.
         11    1    4    4    0    0  0.20424861324E+03  0.16210084853E+03  0.25423466470E+03  0.36418325860E+03  0.00000000000E+00 0.  1.
         21    1    1    2  503  502 -0.37489666872E+02 -0.51475575116E+02 -0.28677996968E+02  0.69840084950E+02  0.00000000000E+00 0.  1.
          1    1    1    2  501    0 -0.30910173985E+03 -0.27821977129E+03  0.12230516015E+04  0.12918224904E+04  0.00000000000E+00 0. -1.
<scales pt_clust_5="13000.00000" pt_clust_6="13000.00000" pt_clust_7="13000.00000" pt_clust_8="13000.00000" pt_clust_9="63.68053" pt_clust_10="427.46368"></scales>
<clustering>
<clus scale="   63.681">  2  9  1 -1</clus>
<clus scale="   80.419">  5  6 -1 -1</clus>
<clus scale="   91.669">  7  8 -1 -1</clus>
<clus scale="  153.451">  5  7 -1 -1</clus>
<clus scale="  427.464">  2 10  1 -1</clus>
<clus scale="   63.681">  2  5  1 -1</clus>
</clustering>
</event>
<event>
10    4  0.7697601E-005  0.9762190E+02  0.7546771E-02  0.1288956E+00
          2   -1    0    0  503    0 -0.00000000000E+00  0.00000000000E+00  0.41104105704E+03  0.41104105704E+03  0.00000000000E+00 0. -1.
         21   -1    0    0  501  502  0.00000000000E+00 -0.00000000000E+00 -0.12415117501E+03  0.12415117501E+03  0.00000000000E+00 0. -1.
         24    2    1    2    0    0 -0.10382543792E+02 -0.39045492612E+02  0.24939725759E+03  0.26526839464E+03  0.80845416665E+02 0.  0.
         23    2    1    2    0    0  0.10650000231E+02  0.46350785503E+02  0.97217470186E+02  0.13946126166E+03  0.87956746030E+02 0.  0.
        -11    1    3    3    0    0 -0.34970299895E+02 -0.33199938445E+02  0.22511155984E+03  0.23021809694E+03  0.00000000000E+00 0.  1.
         12    1    3    3    0    0  0.24587756103E+02 -0.58455541674E+01  0.24285697750E+02  0.35050297701E+02  0.00000000000E+00 0. -1.
        -13    1    4    4    0    0  0.24715707043E+02 -0.17136672246E+02  0.12270289456E+02  0.32482175321E+02  0.00000000000E+00 0.  1.
         13    1    4    4    0    0 -0.14065706811E+02  0.63487457748E+02  0.84947180731E+02  0.10697908634E+03  0.00000000000E+00 0. -1.
         21    1    1    2  503  502  0.29070260262E+02  0.20986671016E+02 -0.77961984490E+02  0.85811371144E+02  0.00000000000E+00 0. -1.
          1    1    1    2  501    0 -0.29337716701E+02 -0.28291963906E+02  0.18237138753E+02  0.44651204607E+02  0.00000000000E+00 0. -1.
<scales pt_clust_5="13000.00000" pt_clust_6="13000.00000" pt_clust_7="13000.00000" pt_clust_8="13000.00000" pt_clust_9="35.85415" pt_clust_10="29.70818"></scales>
<clustering>
<clus scale="   35.854">  2  9  1 -1</clus>
<clus scale="   29.708">  2 10  1 -1</clus>
<clus scale="   80.845">  5  6 -1 -1</clus>
<clus scale="   87.957">  7  8 -1 -1</clus>
<clus scale="   91.267">  1  5  2 -1</clus>
<clus scale="   35.854">  2  5  1 -1</clus>
</clustering>
</event>
<event>
10    4  0.7697601E-005  0.1022573E+03  0.7546771E-02  0.1284917E+00
          2   -1    0    0  503    0 -0.00000000000E+00  0.00000000000E+00  0.33839645381E+03  0.33839645381E+03  0.00000000000E+00 0. -1.
         21   -1    0    0  501  502  0.00000000000E+00 -0.00000000000E+00 -0.16809263582E+03  0.16809263582E+03  0.00000000000E+00 0.  1.
         23    2    1    2    0    0 -0.13853573695E+01  0.27825349155E+02  0.13411930179E+03  0.16802409738E+03  0.97303344849E+02 0.  0.
         24    2    1    2    0    0  0.19928462723E+02 -0.39555090337E+02 -0.67570840068E+01  0.91432302741E+02  0.79702314912E+02 0.  0.
        -13    1    4    4    0    0 -0.16808245676E+01 -0.59947616295E+02  0.33059734570E+01  0.60062228823E+02  0.00000000000E+00 0.  1.
         14    1    4    4    0    0  0.21609287291E+02  0.20392525958E+02 -0.10063057464E+02  0.31370073919E+02  0.00000000000E+00 0. -1.
        -13    1    3    3    0    0  0.36849548246E+02  0.78268688714E+01  0.11466018828E+03  0.12069013157E+03  0.00000000000E+00 0.  1.
         13    1    3    3    0    0 -0.38234905616E+02  0.19998480283E+02  0.19459113510E+02  0.47333965814E+02  0.00000000000E+00 0. -1.
         21    1    1    2  503  502 -0.28301457368E+02 -0.15695821137E+02 -0.97953875632E+02  0.10316149011E+03  0.00000000000E+00 0.  1.
          1    1    1    2  501    0  0.97583520146E+01  0.27425562318E+02  0.14089547584E+03  0.14387119939E+03  0.00000000000E+00 0. -1.
<scales pt_clust_5="13000.00000" pt_clust_6="13000.00000" pt_clust_7="13000.00000" pt_clust_8="13000.00000" pt_clust_9="22.42800" pt_clust_10="29.10993"></scales>
<clustering>
<clus scale="   29.110">  2 10  1 -1</clus>
<clus scale="   22.428">  2  9  1 -1</clus>
<clus scale="   79.702">  5  6 -1 -1</clus>
<clus scale="   85.680">  2  5  1 -1</clus>
<clus scale="   97.303">  7  8 -1 -1</clus>
<clus scale="   29.110">  2  5  1 -1</clus>
</clustering>
</event>
<event>
10    4  0.7697601E-005  0.1695563E+03  0.7546771E-02  0.1208292E+00
         21   -1    0    0  501  502  0.00000000000E+00  0.00000000000E+00  0.73519635279E+02  0.73519635279E+02  0.00000000000E+00 0. -1.
          2   -1    0    0  503    0 -0.00000000000E+00 -0.00000000000E+00 -0.87985450967E+03  0.87985450967E+03  0.00000000000E+00 0. -1.
         24    2    1    2    0    0 -0.44584935708E+02  0.18038418698E+02 -0.20833336410E+03  0.22910440804E+03  0.82297254788E+02 0.  0.
         23    2    1    2    0    0 -0.63800908656E+02  0.12088827661E+03 -0.17769848141E+03  0.24213416894E+03  0.91474991687E+02 0.  0.
        -13    1    3    3    0    0  0.23315348689E+02  0.32574063615E+01 -0.77019325094E+02  0.80536902217E+02  0.00000000000E+00 0.  1.
         14    1    3    3    0    0 -0.67900284398E+02  0.14781012337E+02 -0.13131403900E+03  0.14856750582E+03  0.00000000000E+00 0. -1.
        -13    1    4    4    0    0 -0.33017774901E+02 -0.59447157979E+01 -0.43514152774E+02  0.54945378304E+02  0.00000000000E+00 0.  1.
         13    1    4    4    0    0 -0.30783133756E+02  0.12683299241E+03 -0.13418432864E+03  0.18718879063E+03  0.00000000000E+00 0. -1.
         21    1    1    2  503  502  0.79464195648E+02  0.13794070778E+02 -0.13599685671E+03  0.15811381917E+03  0.00000000000E+00 0.  1.
          1    1    1    2  501    0  0.28921648717E+02 -0.15272076609E+03 -0.28430617218E+03  0.32402174880E+03  0.00000000000E+00 0. -1.
<scales pt_clust_5="13000.00000" pt_clust_6="13000.00000" pt_clust_7="13000.00000" pt_clust_8="13000.00000" pt_clust_9="80.65256" pt_clust_10="142.76441"></scales>
<clustering>
<clus scale="   80.653">  2  9  1 -1</clus>
<clus scale="   82.297">  5  6 -1 -1</clus>
<clus scale="   87.745">  2  5  1 -1</clus>
<clus scale="   91.475">  7  8 -1 -1</clus>
<clus scale="  142.764">  1 10  2 -1</clus>
<clus scale="  142.764">  1  5  2 -1</clus>
</clustering>
</event>
<event>
10    4  0.7697601E-005  0.1087436E+03  0.7546771E-02  0.1268097E+00
          2   -1    0    0  503    0 -0.00000000000E+00  0.00000000000E+00  0.16644075895E+04  0.16644075895E+04  0.00000000000E+00 0. -1.
         21   -1    0    0  501  502  0.00000000000E+00 -0.00000000000E+00 -0.88947800546E+02  0.88947800546E+02  0.00000000000E+00 0. -1.
         24    2    1    2    0    0  0.35809106234E+01  0.53926657900E+02  0.12388710834E+04  0.12427648883E+04  0.82110285453E+02 0.  0.
         23    2    1    2    0    0  0.13539430598E+02 -0.68523118502E+02  0.19188210654E+03  0.22319435994E+03  0.90101307144E+02 0.  0.
        -13    1    3    3    0    0  0.23301567058E+02  0.32896193247E+02  0.23166888518E+03  0.23515015398E+03  0.00000000000E+00 0.  1.
         14    1    3    3    0    0 -0.19720656435E+02  0.21030464653E+02  0.10072021982E+04  0.10076147343E+04  0.00000000000E+00 0. -1.
        -13    1    4    4    0    0  0.30208295045E+02 -0.80259970588E+02  0.11379746460E+03  0.14249233986E+03  0.00000000000E+00 0. -1.
         13    1    4    4    0    0 -0.16668864447E+02  0.11736852086E+02  0.78084641942E+02  0.80702020086E+02  0.00000000000E+00 0.  1.
         21    1    1    2  503  502 -0.14933045522E+02  0.12080082619E+03  0.19622306446E+02  0.12329180981E+03  0.00000000000E+00 0. -1.
          1    1    1    2  501    0 -0.21872956993E+01 -0.10620436559E+03  0.12508429260E+03  0.16410433202E+03  0.00000000000E+00 0. -1.
<scales pt_clust_5="13000.00000" pt_clust_6="13000.00000" pt_clust_7="13000.00000" pt_clust_8="13000.00000" pt_clust_9="60.88444" pt_clust_10="87.80159"></scales>
<clustering>
<clus scale="   82.110">  5  6 -1 -1</clus>
<clus scale="   90.101">  7  8 -1 -1</clus>
<clus scale="   98.301">  1  5  2 -1</clus>
<clus scale="   87.802">  2 10  1 -1</clus>
<clus scale="   60.884">  2  9  1 -1</clus>
<clus scale="   87.802">  2  5  1 -1</clus>
</clustering>
</event>
<event>
10    4  0.7697601E-005  0.9992608E+02  0.7546771E-02  0.1288220E+00
         21   -1    0    0  503  502  0.00000000000E+00  0.00000000000E+00  0.39404645673E+02  0.39404645673E+02  0.00000000000E+00 0. -1.
          2   -1    0    0  502    0 -0.00000000000E+00 -0.00000000000E+00 -0.97219182596E+03  0.97219182596E+03  0.00000000000E+00 0. -1.
         24    2    1    2    0    0  0.17549086776E+02  0.46755513113E+02 -0.32802770315E+03  0.34136664165E+03  0.80218212051E+02 0.  0.
         23    2    1    2    0    0  0.29149424914E+02  0.21770086417E+02 -0.92605039756E+02  0.13738667029E+03  0.94740583440E+02 0.  0.
        -13    1    3    3    0    0  0.31143560433E+02  0.64325206623E+02 -0.26780868117E+03  0.27718070509E+03  0.00000000000E+00 0.  1.
         14    1    3    3    0    0 -0.13594473657E+02 -0.17569693510E+02 -0.60219021978E+02  0.64185936559E+02  0.00000000000E+00 0. -1.
        -13    1    4    4    0    0  0.30570003062E+02 -0.31103369722E+00  0.10199329844E+02  0.32228064764E+02  0.00000000000E+00 0. -1.
         13    1    4    4    0    0 -0.14205781481E+01  0.22081120115E+02 -0.10280436960E+03  0.10515860553E+03  0.00000000000E+00 0.  1.
         21    1    1    2  503  501 -0.27108279578E+02 -0.12253330527E+01 -0.15467353388E+02  0.31234584735E+02  0.00000000000E+00 0. -1.
          1    1    1    2  501    0 -0.19590232112E+02 -0.67300266477E+02 -0.49668708399E+03  0.50160857495E+03  0.00000000000E+00 0. -1.
<scales pt_clust_5="13000.00000" pt_clust_6="13000.00000" pt_clust_7="13000.00000" pt_clust_8="13000.00000" pt_clust_9="27.13596" pt_clust_10="70.80528"></scales>
<clustering>
<clus scale="   27.136">  1  9  2 -1</clus>
<clus scale="   70.805">  1 10  2 -1</clus>
<clus scale="   80.218">  5  6 -1 -1</clus>
<clus scale="   86.281">  2  5  1 -1</clus>
<clus scale="   94.741">  7  8 -1 -1</clus>
<clus scale="   27.136">  1  5  2 -1</clus>
</clustering>
</event>
<event>
10    4  0.7697601E-005  0.1225628E+03  0.7546771E-02  0.1243488E+00
          2   -1    0    0  503    0 -0.00000000000E+00  0.00000000000E+00  0.28146753098E+03  0.28146753098E+03  0.00000000000E+00 0. -1.
         21   -1    0    0  501  502  0.00000000000E+00 -0.00000000000E+00 -0.10273605003E+03  0.10273605003E+03  0.00000000000E+00 0.  1.
         23    2    1    2    0    0  0.48864474305E+02  0.69491095683E+02  0.12263299446E+03  0.17482337659E+03  0.91146104928E+02 0.  0.
         24    2    1    2    0    0 -0.28211781287E+02 -0.75192194689E+02  0.94373699077E+02  0.14535696917E+03  0.75976856101E+02 0.  0.
        -11    1    4    4    0    0  0.15201036012E+02 -0.55582489018E+02  0.73376420317E+02  0.93298358184E+02  0.00000000000E+00 0.  1.
         12    1    4    4    0    0 -0.43412817299E+02 -0.19609705671E+02  0.20997278760E+02  0.52058610985E+02  0.00000000000E+00 0. -1.
        -11    1    3    3    0    0  0.46904955351E+02  0.27048569081E+02  0.10827665011E+02  0.55217191666E+02  0.00000000000E+00 0.  1.
         11    1    3    3    0    0  0.19595189541E+01  0.42442526602E+02  0.11180532945E+03  0.11960618492E+03  0.00000000000E+00 0. -1.
         21    1    1    2  503  502 -0.52774794659E+01  0.23936858636E+02 -0.86591773799E+01  0.25996275575E+02  0.00000000000E+00 0.  1.
          1    1    1    2  501    0 -0.15375213552E+02 -0.18235759631E+02 -0.29616035201E+02  0.38026959675E+02  0.00000000000E+00 0. -1.
<scales pt_clust_5="13000.00000" pt_clust_6="13000.00000" pt_clust_7="13000.00000" pt_clust_8="13000.00000" pt_clust_9="21.40303" pt_clust_10="23.85247"></scales>
<clustering>
<clus scale="   23.852">  2 10  1 -1</clus>
<clus scale="   21.403">  2  9  1 -1</clus>
<clus scale="   75.977">  5  6 -1 -1</clus>
<clus scale="   91.146">  7  8 -1 -1</clus>
<clus scale="  111.743">  2  5  1 -1</clus>
<clus scale="   23.852">  2  5  1 -1</clus>
</clustering>
</event>
<event>
10    4  0.7697601E-005  0.2506824E+03  0.7546771E-02  0.1141691E+00
          2   -1    0    0  502    0 -0.00000000000E+00  0.00000000000E+00  0.93130754740E+03  0.93130754740E+03  0.00000000000E+00 0. -1.
         21   -1    0    0  503  502  0.00000000000E+00 -0.00000000000E+00 -0.37578505787E+03  0.37578505787E+03  0.00000000000E+00 0.  1.
         23    2    1    2    0    0 -0.83641694328E+02 -0.14564220921E+02  0.14055742602E+03  0.18720907572E+03  0.89904385105E+02 0.  0.
         24    2    1    2    0    0 -0.32748049289E+02  0.26629746786E+03 -0.11621890902E+03  0.30337924047E+03  0.80903353525E+02 0.  0.
        -13    1    4    4    0    0 -0.19796316154E+02  0.26019409863E+03 -0.12185048341E+03  0.28799375584E+03  0.00000000000E+00 0.  1.
         14    1    4    4    0    0 -0.12951733135E+02  0.61033692254E+01  0.56315743855E+01  0.15385484625E+02  0.00000000000E+00 0. -1.
        -13    1    3    3    0    0 -0.46982483363E+02 -0.52515746732E+02  0.72620670958E+02  0.10118803906E+03  0.00000000000E+00 0.  1.
         13    1    3    3    0    0 -0.36659210965E+02  0.37951525812E+02  0.67936755059E+02  0.86021036660E+02  0.00000000000E+00 0. -1.
         21    1    1    2  503  501  0.16095736199E+02 -0.34979891956E+02 -0.11834810184E+03  0.12445456510E+03  0.00000000000E+00 0.  1.
          1    1    1    2  501    0  0.10029400742E+03 -0.21675335498E+03  0.64953207438E+03  0.69204972398E+03  0.00000000000E+00 0. -1.
<scales pt_clust_5="13000.00000" pt_clust_6="13000.00000" pt_clust_7="13000.00000" pt_clust_8="13000.00000" pt_clust_9="38.50540" pt_clust_10="237.26859"></scales>
<clustering>
<clus scale="   38.505">  2  9  1 -1</clus>
<clus scale="   80.903">  5  6 -1 -1</clus>
<clus scale="   89.904">  7  8 -1 -1</clus>
<clus scale="  123.085">  1  7  2 -1</clus>
<clus scale="  237.269">  2 10  1 -1</clus>
<clus scale="   38.505">  2  5  1 -1</clus>
</clustering>
</event>
<event>
10    4  0.7697601E-005  0.1858668E+03  0.7546771E-02  0.1173692E+00
         -3   -1    0    0    0  501 -0.00000000000E+00  0.00000000000E+00  0.84178316468E+03  0.84178316468E+03  0.00000000000E+00 0.  1.
         21   -1    0    0  503  502  0.00000000000E+00 -0.00000000000E+00 -0.19539997088E+03  0.19539997088E+03  0.00000000000E+00 0.  1.
         24    2    1    2    0    0 -0.94817329422E+02 -0.56662286880E+02  0.12142311650E+03  0.18298703789E+03  0.80868671941E+02 0.  0.
         23    2    1    2    0    0  0.25737815363E+02 -0.13963071823E+03  0.40592953534E+03  0.44009414218E+03  0.93514136417E+02 0.  0.
        -11    1    3    3    0    0 -0.67145620234E+02 -0.38619955117E+02  0.25522397476E+02  0.81556287451E+02  0.00000000000E+00 0.  1.
         12    1    3    3    0    0 -0.27671709188E+02 -0.18042331763E+02  0.95900719028E+02  0.10143075044E+03  0.00000000000E+00 0. -1.
        -13    1    4    4    0    0  0.48250811079E+02 -0.35279768298E+02  0.10541745417E+03  0.12118433259E+03  0.00000000000E+00 0. -1.
         13    1    4    4    0    0 -0.22512995716E+02 -0.10435094993E+03  0.30051208116E+03  0.31890980959E+03  0.00000000000E+00 0.  1.
         21    1    1    2  503  501 -0.42838643150E+02  0.44666603379E+02 -0.10467043714E+03  0.12159833558E+03  0.00000000000E+00 0.  1.
         -4    1    1    2    0  502  0.11191815721E+03  0.15162640173E+03  0.22370097910E+03  0.29250361991E+03  0.00000000000E+00 0.  1.
<scales pt_clust_5="13000.00000" pt_clust_6="13000.00000" pt_clust_7="13000.00000" pt_clust_8="13000.00000" pt_clust_9="61.88905" pt_clust_10="160.62870"></scales>
<clustering>
<clus scale="   61.889">  2  9  1 -1</clus>
<clus scale="   80.869">  5  6 -1 -1</clus>
<clus scale="   93.514">  7  8 -1 -1</clus>
<clus scale="  142.908">  1  5  2 -1</clus>
<clus scale="  160.629">  2 10  1 -1</clus>
<clus scale="   61.889">  2  5  1 -1</clus>
</clustering>
</event>
<event>
10    4  0.7697601E-005  0.1772094E+03  0.7546771E-02  0.1171971E+00
         21   -1    0    0  503  502  0.00000000000E+00  0.00000000000E+00  0.91724995843E+02  0.91724995843E+02  0.00000000000E+00 0. -1.
          2   -1    0    0  502    0 -0.00000000000E+00 -0.00000000000E+00 -0.96184215231E+03  0.96184215231E+03  0.00000000000E+00 0. -1.
         24    2    1    2    0    0 -0.13987439485E+03  0.12484267703E+03 -0.56688056260E+03  0.60236361766E+03  0.79610396825E+02 0.  0.
         23    2    1    2    0    0  0.10264607493E+03  0.10784894925E+02 -0.86770386201E+02  0.16284095108E+03  0.91299204652E+02 0.  0.
        -11    1    3    3    0    0 -0.18002828795E+02  0.37902483921E+02 -0.55847776365E+02  0.69854665248E+02  0.00000000000E+00 0.  1.
         12    1    3    3    0    0 -0.12187156606E+03  0.86940193105E+02 -0.51103278623E+03  0.53250895241E+03  0.00000000000E+00 0. -1.
        -11    1    4    4    0    0  0.62166127605E+02 -0.28437647867E+01  0.41687325760E+01  0.62370608069E+02  0.00000000000E+00 0.  1.
         11    1    4    4    0    0  0.40479947326E+02  0.13628659712E+02 -0.90939118777E+02  0.10047034301E+03  0.00000000000E+00 0. -1.
         21    1    1    2  503  501  0.44208734436E+02 -0.29120208464E+02 -0.71697772948E+01  0.53421011296E+02  0.00000000000E+00 0. -1.
          1    1    1    2  501    0 -0.69804145139E+01 -0.10650736349E+03 -0.20929643037E+03  0.23494156812E+03  0.00000000000E+00 0. -1.
<scales pt_clust_5="13000.00000" pt_clust_6="13000.00000" pt_clust_7="13000.00000" pt_clust_8="13000.00000" pt_clust_9="52.93769" pt_clust_10="111.95791"></scales>
<clustering>
<clus scale="   52.938">  1  9  2 -1</clus>
<clus scale="   79.610">  5  6 -1 -1</clus>
<clus scale="   91.299">  7  8 -1 -1</clus>
<clus scale="  111.958">  1 10  2 -1</clus>
<clus scale="  171.480">  2  5  1 -1</clus>
<clus scale="   52.938">  1  5  2 -1</clus>
</clustering>
</event>
<event>
10    4  0.7697601E-005  0.1275320E+03  0.7546771E-02  0.1239295E+00
          2   -1    0    0  503    0 -0.00000000000E+00  0.00000000000E+00  0.43551434047E+03  0.43551434047E+03  0.00000000000E+00 0. -1.
         21   -1    0    0  501  502  0.00000000000E+00 -0.00000000000E+00 -0.10979808765E+03  0.10979808765E+03  0.00000000000E+00 0. -1.
         23    2    1    2    0    0  0.70650113217E+02 -0.69109759883E+01  0.32743835323E+03  0.35071138315E+03  0.10365036912E+03 0.  0.
         24    2    1    2    0    0 -0.91581401953E+02  0.15506311061E+02 -0.73682981801E+01  0.12173899185E+03  0.78348525532E+02 0.  0.
        -13    1    4    4    0    0 -0.37743538317E+02 -0.31231477704E+02  0.54823259148E+01  0.49295393108E+02  0.00000000000E+00 0.  1.
         14    1    4    4    0    0 -0.53837863636E+02  0.46737788765E+02 -0.12850624095E+02  0.72443598745E+02  0.00000000000E+00 0. -1.
        -13    1    3    3    0    0  0.94186462351E+02  0.12447108112E+02  0.25504011975E+03  0.27216076659E+03  0.00000000000E+00 0. -1.
         13    1    3    3    0    0 -0.23536349134E+02 -0.19358084100E+02  0.72398233482E+02  0.78550616560E+02  0.00000000000E+00 0.  1.
         21    1    1    2  503  502  0.18888948830E+01  0.28225390917E+02  0.12355881211E+02  0.30869214709E+02  0.00000000000E+00 0. -1.
          1    1    1    2  501    0  0.19042393853E+02 -0.36820725990E+02 -0.67096834383E+01  0.41992838412E+02  0.00000000000E+00 0. -1.
<scales pt_clust_5="13000.00000" pt_clust_6="13000.00000" pt_clust_7="13000.00000" pt_clust_8="13000.00000" pt_clust_9="28.28852" pt_clust_10="35.76752"></scales>
<clustering>
<clus scale="   28.289">  2  9  1 -1</clus>
<clus scale="   35.768">  2 10  1 -1</clus>
<clus scale="   78.349">  5  6 -1 -1</clus>
<clus scale="  103.650">  7  8 -1 -1</clus>
<clus scale="  107.979">  2  5  1 -1</clus>
<clus scale="   28.289">  2  5  1 -1</clus>
</clustering>
</event>
<event>
10    4  0.7697601E-005  0.2312369E+03  0.7546771E-02  0.1144192E+00
          2   -1    0    0  502    0 -0.00000000000E+00  0.00000000000E+00  0.17946091816E+04  0.17946091816E+04  0.00000000000E+00 0. -1.
         21   -1    0    0  503  502  0.00000000000E+00 -0.00000000000E+00 -0.92188384541E+02  0.92188384541E+02  0.00000000000E+00 0.  1.
         23    2    1    2    0    0 -0.14605227786E+03  0.67523175654E+02  0.16541330415E+03  0.24810702029E+03  0.91131142896E+02 0.  0.
         24    2    1    2    0    0  0.15128514438E+03 -0.17979355059E+03  0.45394496929E+03  0.51738718168E+03  0.80065878377E+02 0.  0.
        -13    1    4    4    0    0  0.12911205687E+03 -0.16538172013E+03  0.33301019338E+03  0.39359474778E+03  0.00000000000E+00 0.  1.
         14    1    4    4    0    0  0.22173087501E+02 -0.14411830453E+02  0.12093477590E+03  0.12379243389E+03  0.00000000000E+00 0. -1.
        -13    1    3    3    0    0 -0.82660135083E+02 -0.11645694852E+02  0.76612280366E+02  0.11330384655E+03  0.00000000000E+00 0. -1.
         13    1    3    3    0    0 -0.63392142780E+02  0.79168870507E+02  0.88801023787E+02  0.13480317374E+03  0.00000000000E+00 0.  1.
         21    1    1    2  503  501  0.88417112092E+02 -0.16943507893E+02  0.15196794743E+03  0.17663217492E+03  0.00000000000E+00 0.  1.
          1    1    1    2  501    0 -0.93649978604E+02  0.12921388282E+03  0.93109457618E+03  0.94467118925E+03  0.00000000000E+00 0. -1.
<scales pt_clust_5="13000.00000" pt_clust_6="13000.00000" pt_clust_7="13000.00000" pt_clust_8="13000.00000" pt_clust_9="90.02593" pt_clust_10="216.93315"></scales>
<clustering>
<clus scale="   80.066">  5  6 -1 -1</clus>
<clus scale="   90.026">  2  9  1 -1</clus>
<clus scale="   91.131">  7  8 -1 -1</clus>
<clus scale="  147.686">  1  7  2 -1</clus>
<clus scale="  216.933">  2 10  1 -1</clus>
<clus scale="   90.026">  2  5  1 -1</clus>
</clustering>
</event>
<event>
10    4  0.7697601E-005  0.2435334E+03  0.7546771E-02  0.1132416E+00
         21   -1    0    0  503  502  0.00000000000E+00  0.00000000000E+00  0.29842661743E+03  0.29842661743E+03  0.00000000000E+00 0.  1.
          4   -1    0    0  502    0 -0.00000000000E+00 -0.00000000000E+00 -0.43307235429E+03  0.43307235429E+03  0.00000000000E+00 0. -1.
         23    2    1    2    0    0 -0.53034400302E+02  0.13229163749E+03 -0.15066859439E+03  0.22574157166E+03  0.89131963273E+02 0.  0.
         24    2    1    2    0    0 -0.16105522866E+03  0.74612682482E+02 -0.36697523426E+02  0.19364898602E+03  0.68171713308E+02 0.  0.
        -11    1    4    4    0    0 -0.16224764611E+03  0.57700896272E+02 -0.27573786622E+02  0.17439611752E+03  0.00000000000E+00 0.  1.
         12    1    4    4    0    0  0.11924174470E+01  0.16911786210E+02 -0.91237368044E+01  0.19252868500E+02  0.00000000000E+00 0. -1.
        -11    1    3    3    0    0 -0.77021127994E+02  0.10839852953E+03 -0.10823365615E+03  0.17145559100E+03  0.00000000000E+00 0.  1.
         11    1    3    3    0    0  0.23986727692E+02  0.23893107964E+02 -0.42434938238E+02  0.54285980666E+02  0.00000000000E+00 0. -1.
         21    1    1    2  503  501  0.31898902367E+00 -0.30393506736E+02  0.48070800689E+01  0.30772959307E+02  0.00000000000E+00 0. -1.
          3    1    1    2  501    0  0.21377063994E+03 -0.17651081324E+03  0.47913300888E+02  0.28133545473E+03  0.00000000000E+00 0. -1.
<scales pt_clust_5="13000.00000" pt_clust_6="13000.00000" pt_clust_7="13000.00000" pt_clust_8="13000.00000" pt_clust_9="25.62378" pt_clust_10="25.62378"></scales>
<clustering>
<clus scale="   25.624">  9 10 -1 -1</clus>
<clus scale="   68.172">  5  6 -1 -1</clus>
<clus scale="   89.132">  7  8 -1 -1</clus>
<clus scale="  168.102">  2  7  1 -1</clus>
<clus scale="  240.764">  2  5  1 -1</clus>
<clus scale="  243.533">  1  5  2 -1</clus>
</clustering>
</event>
<event>
10    4  0.7906985E-005  0.1569449E+03  0.7546771E-02  0.1213157E+00
         21   -1    0    0  501  502  0.00000000000E+00  0.00000000000E+00  0.27903185566E+02  0.27903185566E+02  0.00000000000E+00 0. -1.
          2   -1    0    0  503    0 -0.00000000000E+00 -0.00000000000E+00 -0.18873596204E+04  0.18873596204E+04  0.00000000000E+00 0. -1.
         24    2    1    2    0    0 -0.38910058497E+02  0.37921975499E+02 -0.36947117818E+03  0.38205397892E+03  0.80648759557E+02 0.  0.
         23    2    1    2    0    0 -0.11765294212E+03 -0.38990774260E+02 -0.43338870555E+03  0.45975612380E+03  0.90484407569E+02 0.  0.
        -11    1    3    3    0    0 -0.37404204531E+02  0.60156672772E+02 -0.22539055330E+03  0.23626002902E+03  0.00000000000E+00 0.  1.
         12    1    3    3    0    0 -0.15058539669E+01 -0.22234697274E+02 -0.14408062489E+03  0.14579394990E+03  0.00000000000E+00 0. -1.
        -11    1    4    4    0    0  0.10928510718E+02 -0.17973668135E+02 -0.91416533383E+02  0.93805477817E+02  0.00000000000E+00 0.  1.
         11    1    4    4    0    0 -0.12858145284E+03 -0.21017106124E+02 -0.34197217216E+03  0.36595064599E+03  0.00000000000E+00 0. -1.
         21    1    1    2  503  502  0.40039434350E+01  0.27884467019E+02 -0.83977759100E+02  0.88576741233E+02  0.00000000000E+00 0.  1.
          1    1    1    2  501    0  0.15255905719E+03 -0.26815668259E+02 -0.97261879200E+03  0.98487596201E+03  0.00000000000E+00 0. -1.
<scales pt_clust_5="13000.00000" pt_clust_6="13000.00000" pt_clust_7="13000.00000" pt_clust_8="13000.00000" pt_clust_9="28.17046" pt_clust_10="128.23524"></scales>
<clustering>
<clus scale="   28.170">  1  9  2 -1</clus>
<clus scale="   80.649">  5  6 -1 -1</clus>
<clus scale="   90.484">  7  8 -1 -1</clus>
<clus scale="   99.736">  2  5  1 -1</clus>
<clus scale="  128.235">  1 10  2 -1</clus>
<clus scale="   28.170">  1  5  2 -1</clus>
</clustering>
</event>
<event>
10    4  0.7697601E-005  0.2321671E+03  0.7546771E-02  0.1152399E+00
         21   -1    0    0  501  502  0.00000000000E+00  0.00000000000E+00  0.28792443344E+03  0.28792443344E+03  0.00000000000E+00 0. -1.
          2   -1    0    0  503    0 -0.00000000000E+00 -0.00000000000E+00 -0.52578343732E+03  0.52578343732E+03  0.00000000000E+00 0. -1.
         24    2    1    2    0    0  0.94521969051E+02  0.24767299856E+02 -0.31599355505E+02  0.13138256630E+03  0.81945333508E+02 0.  0.
         23    2    1    2    0    0 -0.22481477553E+03  0.10699116151E+03 -0.26367363101E+03  0.37409689808E+03  0.91847229282E+02 0.  0.
        -11    1    3    3    0    0  0.49217032708E+02  0.30055821250E+02  0.21351912927E+02  0.61494494756E+02  0.00000000000E+00 0.  1.
         12    1    3    3    0    0  0.45304936343E+02 -0.52885213943E+01 -0.52951268432E+02  0.69888071544E+02  0.00000000000E+00 0. -1.
        -11    1    4    4    0    0 -0.31247820130E+02  0.13741784209E+02 -0.21705720094E+00  0.34136637356E+02  0.00000000000E+00 0.  1.
         11    1    4    4    0    0 -0.19356695540E+03  0.93249377297E+02 -0.26345657381E+03  0.33996026072E+03  0.00000000000E+00 0. -1.
         21    1    1    2  503  502 -0.42109141095E+02  0.41124321947E-01  0.79635372907E+02  0.90083150883E+02  0.00000000000E+00 0. -1.
          1    1    1    2  501    0  0.17240194757E+03 -0.13179958568E+03 -0.22221390268E+02  0.21814525550E+03  0.00000000000E+00 0. -1.
<scales pt_clust_5="13000.00000" pt_clust_6="13000.00000" pt_clust_7="13000.00000" pt_clust_8="13000.00000" pt_clust_9="42.10916" pt_clust_10="213.22681"></scales>
<clustering>
<clus scale="   42.109">  1  9  2 -1</clus>
<clus scale="   81.945">  5  6 -1 -1</clus>
<clus scale="   91.847">  7  8 -1 -1</clus>
<clus scale="  120.061">  2  5  1 -1</clus>
<clus scale="  213.227">  1 10  2 -1</clus>
<clus scale="   42.109">  1  5  2 -1</clus>
</clustering>
</event>
<event>
10    4  0.7697601E-005  0.1060326E+03  0.7546771E-02  0.1271126E+00
         -1   -1    0    0    0  501 -0.00000000000E+00  0.00000000000E+00  0.28522673115E+03  0.28522673115E+03  0.00000000000E+00 0.  1.
         21   -1    0    0  503  502  0.00000000000E+00 -0.00000000000E+00 -0.20722558024E+03  0.20722558024E+03  0.00000000000E+00 0. -1.
         24    2    1    2    0    0  0.69731760414E+02  0.97371796583E+00  0.16294280402E+03  0.19605325499E+03  0.83803668630E+02 0.  0.
         23    2    1    2    0    0 -0.90825580389E+00 -0.49228189772E+00 -0.23175620277E+02  0.93831940693E+02  0.90918955388E+02 0.  0.
        -11    1    3    3    0    0  0.39443727541E+02  0.18078568343E+02  0.15419844051E+03  0.16018677015E+03  0.00000000000E+00 0.  1.
         12    1    3    3    0    0  0.30288032873E+02 -0.17104850377E+02  0.87443635043E+01  0.35866484841E+02  0.00000000000E+00 0. -1.
        -11    1    4    4    0    0 -0.22251018217E+01 -0.39569653337E+02 -0.35114433603E+02  0.52950278475E+02  0.00000000000E+00 0. -1.
         11    1    4    4    0    0  0.13168460178E+01  0.39077371439E+02  0.11938813326E+02  0.40881662218E+02  0.00000000000E+00 0.  1.
         21    1    1    2  503  501 -0.71305406699E+02 -0.76170482886E+02 -0.71106171868E+02  0.12626357814E+03  0.00000000000E+00 0. -1.
         -2    1    1    2    0  502  0.24819020892E+01  0.75689046818E+02  0.93401390378E+01  0.76303537555E+02  0.00000000000E+00 0.  1.
<scales pt_clust_5="13000.00000" pt_clust_6="13000.00000" pt_clust_7="13000.00000" pt_clust_8="13000.00000" pt_clust_9="77.37125" pt_clust_10="75.72973"></scales>
<clustering>
<clus scale="   75.730">  2 10  1 -1</clus>
<clus scale="   77.371">  2  9  1 -1</clus>
<clus scale="   83.804">  5  6 -1 -1</clus>
<clus scale="   90.919">  7  8 -1 -1</clus>
<clus scale="   99.999">  1  5  2 -1</clus>
<clus scale="   75.730">  2  5  1 -1</clus>
</clustering>
</event>
<event>
10    4  0.7697601E-005  0.9621595E+02  0.7546771E-02  0.1295151E+00
         21   -1    0    0  501  502  0.00000000000E+00  0.00000000000E+00  0.74089065043E+03  0.74089065043E+03  0.00000000000E+00 0. -1.
          2   -1    0    0  503    0 -0.00000000000E+00 -0.00000000000E+00 -0.68527437779E+02  0.68527437779E+02  0.00000000000E+00 0. -1.
         24    2    1    2    0    0 -0.17630308563E+02  0.24378365909E+02 -0.88478261584E+01  0.87995780443E+02  0.82218251280E+02 0.  0.
         23    2    1    2    0    0 -0.74365099303E+02  0.98432916420E+01  0.27382357736E+03  0.29902030087E+03  0.93844181643E+02 0.  0.
        -13    1    3    3    0    0  0.20732344433E+02  0.12943980854E+02  0.25447064545E+02  0.35283563312E+02  0.00000000000E+00 0.  1.
         14    1    3    3    0    0 -0.38362652996E+02  0.11434385055E+02 -0.34294890704E+02  0.52712217131E+02  0.00000000000E+00 0. -1.
        -13    1    4    4    0    0 -0.19342487190E+02 -0.16282077489E+02  0.83160323657E+01  0.26615676816E+02  0.00000000000E+00 0.  1.
         13    1    4    4    0    0 -0.55022612113E+02  0.26125369131E+02  0.26550754500E+03  0.27240462406E+03  0.00000000000E+00 0. -1.
         21    1    1    2  503  502  0.54272321465E+02 -0.82063546220E+01  0.30937497424E+03  0.31420646686E+03  0.00000000000E+00 0. -1.
          1    1    1    2  501    0  0.37723086401E+02 -0.26015302929E+02  0.98012487203E+02  0.10819554003E+03  0.00000000000E+00 0. -1.
<scales pt_clust_5="13000.00000" pt_clust_6="13000.00000" pt_clust_7="13000.00000" pt_clust_8="13000.00000" pt_clust_9="75.66451" pt_clust_10="45.82387"></scales>
<clustering>
<clus scale="   45.824">  1 10  2 -1</clus>
<clus scale="   75.665">  1  9  2 -1</clus>
<clus scale="   82.218">  5  6 -1 -1</clus>
<clus scale="   84.915">  2  5  1 -1</clus>
<clus scale="   93.844">  7  8 -1 -1</clus>
<clus scale="   45.824">  1  5  2 -1</clus>
</clustering>
</event>
<event>
10    4  0.7697601E-005  0.1535608E+03  0.7546771E-02  0.1216326E+00
          2   -1    0    0  502    0 -0.00000000000E+00  0.00000000000E+00  0.70680558581E+03  0.70680558581E+03  0.00000000000E+00 0. -1.
         21   -1    0    0  503  502  0.00000000000E+00 -0.00000000000E+00 -0.98963903525E+02  0.98963903525E+02  0.00000000000E+00 0.  1.
         23    2    1    2    0    0 -0.46016855189E+02 -0.17646498284E+02  0.29614520994E+02  0.10681634750E+03  0.90020899667E+02 0.  0.
         24    2    1    2    0    0 -0.89715343434E+02 -0.83122443612E+02  0.14371054035E+03  0.20554153114E+03  0.81464213831E+02 0.  0.
        -13    1    4    4    0    0 -0.51699088342E+02 -0.76611755801E+02  0.13866418140E+03  0.16664306786E+03  0.00000000000E+00 0.  1.
         14    1    4    4    0    0 -0.38016255091E+02 -0.65106878110E+01  0.50463589541E+01  0.38898463281E+02  0.00000000000E+00 0. -1.
        -11    1    3    3    0    0 -0.64426522426E+02 -0.38192798250E+02  0.24143570933E+02  0.78691668222E+02  0.00000000000E+00 0.  1.
         11    1    3    3    0    0  0.18409667238E+02  0.20546299966E+02  0.54709500616E+01  0.28124679281E+02  0.00000000000E+00 0. -1.
         21    1    1    2  503  501  0.19947959989E+02 -0.80314361733E+01 -0.82261780992E+01  0.23023793798E+02  0.00000000000E+00 0.  1.
          1    1    1    2  501    0  0.11578423863E+03  0.10880037807E+03  0.44274279904E+03  0.47038781690E+03  0.00000000000E+00 0. -1.
<scales pt_clust_5="13000.00000" pt_clust_6="13000.00000" pt_clust_7="13000.00000" pt_clust_8="13000.00000" pt_clust_9="21.50407" pt_clust_10="130.17109"></scales>
<clustering>
<clus scale="   21.504">  2  9  1 -1</clus>
<clus scale="   81.464">  5  6 -1 -1</clus>
<clus scale="   90.021">  7  8 -1 -1</clus>
<clus scale="   99.563">  1  7  2 -1</clus>
<clus scale="  130.171">  2 10  1 -1</clus>
<clus scale="   21.504">  2  5  1 -1</clus>
</clustering>
</event>
<event>
10    4  0.7697601E-005  0.2093901E+03  0.7546771E-02  0.1142962E+00
          2   -1    0    0  503    0 -0.00000000000E+00  0.00000000000E+00  0.66303100879E+03  0.66303100879E+03  0.00000000000E+00 0. -1.
         21   -1    0    0  501  502  0.00000000000E+00 -0.00000000000E+00 -0.16515158572E+03  0.16515158572E+03  0.00000000000E+00 0. -1.
         24    2    1    2    0    0  0.19252263182E+03 -0.11308726268E+03  0.49485779948E+03  0.54867480210E+03  0.79410981722E+02 0.  0.
         23    2    1    2    0    0 -0.94624787579E+02  0.56278450927E+02  0.21009648671E+02  0.14404079951E+03  0.90472272683E+02 0.  0.
        -13    1    3    3    0    0  0.71730707502E+02 -0.83393593153E+02  0.19216916014E+03  0.22142441574E+03  0.00000000000E+00 0.  1.
         14    1    3    3    0    0  0.12079192432E+03 -0.29693669522E+02  0.30268863934E+03  0.32725038636E+03  0.00000000000E+00 0. -1.
        -11    1    4    4    0    0 -0.10550417922E+02  0.54848780924E+02 -0.48585570845E+01  0.56065191198E+02  0.00000000000E+00 0.  1.
         11    1    4    4    0    0 -0.84074369658E+02  0.14296700035E+01  0.25868205755E+02  0.87975608316E+02  0.00000000000E+00 0. -1.
         21    1    1    2  503  502 -0.23129481497E+02  0.61053914396E+00 -0.33441323037E+02  0.40665313952E+02  0.00000000000E+00 0. -1.
          1    1    1    2  501    0 -0.74768362747E+02  0.56198272604E+02  0.15453297962E+02  0.94801678938E+02  0.00000000000E+00 0. -1.
<scales pt_clust_5="13000.00000" pt_clust_6="13000.00000" pt_clust_7="13000.00000" pt_clust_8="13000.00000" pt_clust_9="23.13754" pt_clust_10="99.46044"></scales>
<clustering>
<clus scale="   23.138">  2  9  1 -1</clus>
<clus scale="   79.411">  5  6 -1 -1</clus>
<clus scale="   90.472">  7  8 -1 -1</clus>
<clus scale="   99.460">  2 10  1 -1</clus>
<clus scale="  204.854">  1  5  2 -1</clus>
<clus scale="   23.138">  2  5  1 -1</clus>
</clustering>
</event>
<event>
10    4  0.7697601E-005  0.2365680E+03  0.7546771E-02  0.1122932E+00
         21   -1    0    0  503  502  0.00000000000E+00  0.00000000000E+00  0.38577373341E+03  0.38577373341E+03  0.00000000000E+00 0.  1.
         -3   -1    0    0    0  501 -0.00000000000E+00 -0.00000000000E+00 -0.26008010745E+03  0.26008010745E+03  0.00000000000E+00 0.  1.
         23    2    1    2    0    0  0.19649024853E+03  0.92927104350E+02  0.25357929846E+02  0.23662846128E+03  0.90034102385E+02 0.  0.
         24    2    1    2    0    0 -0.18760668924E+03 -0.11870950648E+03  0.14127186290E+03  0.27401042623E+03  0.76392130861E+02 0.  0.
        -11    1    4    4    0    0 -0.17744920910E+03 -0.79814493712E+02  0.11815061155E+03  0.22763598623E+03  0.00000000000E+00 0.  1.
         12    1    4    4    0    0 -0.10157480137E+02 -0.38895012769E+02  0.23121251360E+02  0.46374440002E+02  0.00000000000E+00 0. -1.
        -13    1    3    3    0    0  0.10221216073E+03  0.95185603511E+02  0.27255640344E+02  0.14230423341E+03  0.00000000000E+00 0. -1.
         13    1    3    3    0    0  0.94278087801E+02 -0.22584991613E+01 -0.18977104985E+01  0.94324227868E+02  0.00000000000E+00 0.  1.
         21    1    1    2  503  501 -0.29606876595E+02  0.35642607384E+02  0.33593549984E+02  0.57231889741E+02  0.00000000000E+00 0.  1.
         -4    1    1    2    0  502  0.20723317303E+02 -0.98602052521E+01 -0.74529716770E+02  0.77983063607E+02  0.00000000000E+00 0.  1.
<scales pt_clust_5="13000.00000" pt_clust_6="13000.00000" pt_clust_7="13000.00000" pt_clust_8="13000.00000" pt_clust_9="43.88747" pt_clust_10="22.94951"></scales>
<clustering>
<clus scale="   22.950">  1 10  2 -1</clus>
<clus scale="   43.887">  1  9  2 -1</clus>
<clus scale="   76.392">  5  6 -1 -1</clus>
<clus scale="   90.034">  7  8 -1 -1</clus>
<clus scale="  231.720">  1  5  2 -1</clus>
<clus scale="   22.950">  1  5  2 -1</clus>
</clustering>
</event>
<event>
10    4  0.7697601E-005  0.1853808E+03  0.7546771E-02  0.1197145E+00
         21   -1    0    0  501  502  0.00000000000E+00  0.00000000000E+00  0.30439136166E+03  0.30439136166E+03  0.00000000000E+00 0.  1.
          2   -1    0    0  503    0 -0.00000000000E+00 -0.00000000000E+00 -0.79458693976E+03  0.79458693976E+03  0.00000000000E+00 0. -1.
         24    2    1    2    0    0  0.24814634770E+02  0.24620877768E+02 -0.26193746539E+03  0.27551803117E+03  0.77955089667E+02 0.  0.
         23    2    1    2    0    0 -0.18448923279E+03 -0.24979386282E+02 -0.25607651305E+03  0.32959731586E+03  0.91645858235E+02 0.  0.
        -11    1    3    3    0    0  0.42373750176E+02 -0.10480512026E+02 -0.10425248257E+03  0.11302192690E+03  0.00000000000E+00 0.  1.
         12    1    3    3    0    0 -0.17559115406E+02  0.35101389794E+02 -0.15768498281E+03  0.16249610427E+03  0.00000000000E+00 0. -1.
        -13    1    4    4    0    0 -0.17035678577E+02 -0.13493692550E+02  0.19093374623E+01  0.21816041180E+02  0.00000000000E+00 0.  1.
         13    1    4    4    0    0 -0.16745355421E+03 -0.11485693732E+02 -0.25798585051E+03  0.30778127468E+03  0.00000000000E+00 0. -1.
         21    1    1    2  503  502  0.25313580304E+02  0.88636706860E+02  0.22281996360E+03  0.24113477421E+03  0.00000000000E+00 0.  1.
          1    1    1    2  501    0  0.13436101772E+03 -0.88278198346E+02 -0.19500156327E+03  0.25272818019E+03  0.00000000000E+00 0. -1.
<scales pt_clust_5="13000.00000" pt_clust_6="13000.00000" pt_clust_7="13000.00000" pt_clust_8="13000.00000" pt_clust_9="92.71191" pt_clust_10="161.14300"></scales>
<clustering>
<clus scale="   77.955">  5  6 -1 -1</clus>
<clus scale="   85.434">  2  5  1 -1</clus>
<clus scale="   91.646">  7  8 -1 -1</clus>
<clus scale="   92.712">  1  9  2 -1</clus>
<clus scale="  161.143">  1 10  2 -1</clus>
<clus scale="   92.712">  1  5  2 -1</clus>
</clustering>
</event>
<event>
10    4  0.7697601E-005  0.1291198E+03  0.7546771E-02  0.1231342E+00
         21   -1    0    0  503  502  0.00000000000E+00  0.00000000000E+00  0.21942532863E+03  0.21942532863E+03  0.00000000000E+00 0. -1.
         -1   -1    0    0    0  501 -0.00000000000E+00 -0.00000000000E+00 -0.93662279890E+03  0.93662279890E+03  0.00000000000E+00 0.  1.
         23    2    1    2    0    0 -0.10202474573E+03 -0.39992200563E+02 -0.58331287979E+03  0.60049043073E+03  0.91249201716E+02 0.  0.
         24    2    1    2    0    0  0.64539919071E+02  0.35625860669E+01 -0.18363197143E+03  0.21105345325E+03  0.81515434272E+02 0.  0.
        -11    1    4    4    0    0  0.17858609325E+02  0.19125582042E+02 -0.14801132013E+03  0.15030658236E+03  0.00000000000E+00 0.  1.
         12    1    4    4    0    0  0.46681309746E+02 -0.15562995975E+02 -0.35620651296E+02  0.60746870883E+02  0.00000000000E+00 0. -1.
        -11    1    3    3    0    0 -0.10865494410E+02 -0.49574148109E+02 -0.19333239014E+03  0.19988263609E+03  0.00000000000E+00 0. -1.
         11    1    3    3    0    0 -0.91159251324E+02  0.95819475456E+01 -0.38998048965E+03  0.40060779464E+03  0.00000000000E+00 0.  1.
         21    1    1    2  503  501  0.55095512217E+02  0.23229690431E+02  0.19172430328E+03  0.20083162712E+03  0.00000000000E+00 0. -1.
         -2    1    1    2    0  502 -0.17610685554E+02  0.13199924066E+02 -0.14197692233E+03  0.14367261644E+03  0.00000000000E+00 0.  1.
<scales pt_clust_5="13000.00000" pt_clust_6="13000.00000" pt_clust_7="13000.00000" pt_clust_8="13000.00000" pt_clust_9="52.66734" pt_clust_10="22.00851"></scales>
<clustering>
<clus scale="   22.009">  1 10  2 -1</clus>
<clus scale="   52.667">  1  9  2 -1</clus>
<clus scale="   81.515">  5  6 -1 -1</clus>
<clus scale="   91.249">  7  8 -1 -1</clus>
<clus scale="  122.435">  1  5  2 -1</clus>
<clus scale="   22.009">  1  5  2 -1</clus>
</clustering>
</event>
<event>
10    4  0.7697601E-005  0.1024043E+03  0.7546771E-02  0.1280868E+00
          2   -1    0    0  502    0 -0.00000000000E+00  0.00000000000E+00  0.30214822897E+03  0.30214822897E+03  0.00000000000E+00 0. -1.
         21   -1    0    0  503  502  0.00000000000E+00 -0.00000000000E+00 -0.16711176602E+03  0.16711176602E+03  0.00000000000E+00 0.  1.
         23    2    1    2    0    0  0.52768340089E+01  0.49367194690E+02  0.20777366710E+03  0.23219061611E+03  0.90981429884E+02 0.  0.
         24    2    1    2    0    0  0.34737290659E+02 -0.22568706824E+02 -0.10816430996E+03  0.14032588780E+03  0.79220016073E+02 0.  0.
        -13    1    4    4    0    0  0.85794381853E+01  0.18527992502E+02 -0.83040181998E+02  0.85513537478E+02  0.00000000000E+00 0.  1.
         14    1    4    4    0    0  0.26157852473E+02 -0.41096699326E+02 -0.25124127962E+02  0.54812350318E+02  0.00000000000E+00 0. -1.
        -13    1    3    3    0    0 -0.13631167774E+02 -0.17572285815E+02  0.10983588572E+03  0.11206478374E+03  0.00000000000E+00 0.  1.
         13    1    3    3    0    0  0.18908001783E+02  0.66939480505E+02  0.97937781380E+02  0.12012583237E+03  0.00000000000E+00 0. -1.
         21    1    1    2  503  501 -0.15088993032E+01  0.20756920561E+02 -0.73637672476E+01  0.22076041229E+02  0.00000000000E+00 0.  1.
          1    1    1    2  501    0 -0.38505225364E+02 -0.47555408427E+02  0.42790873054E+02  0.74667449854E+02  0.00000000000E+00 0. -1.
<scales pt_clust_5="13000.00000" pt_clust_6="13000.00000" pt_clust_7="13000.00000" pt_clust_8="13000.00000" pt_clust_9="20.81169" pt_clust_10="59.62035"></scales>
<clustering>
<clus scale="   20.812">  2  9  1 -1</clus>
<clus scale="   59.620">  2 10  1 -1</clus>
<clus scale="   79.220">  5  6 -1 -1</clus>
<clus scale="   90.981">  7  8 -1 -1</clus>
<clus scale="   92.113">  2  5  1 -1</clus>
<clus scale="   20.812">  2  5  1 -1</clus>
</clustering>
</event>
<event>
10    4  0.7697601E-005  0.2706644E+03  0.7546771E-02  0.1141864E+00
         21   -1    0    0  503  502  0.00000000000E+00  0.00000000000E+00  0.74703196377E+03  0.74703196377E+03  0.00000000000E+00 0.  1.
         -3   -1    0    0    0  501 -0.00000000000E+00 -0.00000000000E+00 -0.18574819320E+03  0.18574819320E+03  0.00000000000E+00 0.  1.
         24    2    1    2    0    0 -0.45988599891E+02 -0.32802315434E+02 -0.28050351593E+02  0.10202229930E+03  0.80192169895E+02 0.  0.
         23    2    1    2    0    0  0.58170874652E+02  0.25909079484E+03  0.43347070871E+03  0.51671160471E+03  0.92639821417E+02 0.  0.
        -11    1    3    3    0    0 -0.34520329274E+02 -0.35015213483E+02  0.19621319577E+02  0.52940669531E+02  0.00000000000E+00 0.  1.
         12    1    3    3    0    0 -0.11468270617E+02  0.22128980496E+01 -0.47671671170E+02  0.49081629770E+02  0.00000000000E+00 0. -1.
        -13    1    4    4    0    0  0.52087615294E+02  0.22468668065E+03  0.29812566674E+03  0.37692988380E+03  0.00000000000E+00 0.  1.
         13    1    4    4    0    0  0.60832593584E+01  0.34404114182E+02  0.13534504197E+03  0.13978172092E+03  0.00000000000E+00 0. -1.
         21    1    1    2  503  501  0.28537116269E+02 -0.56698387042E-01  0.57152245144E+02  0.63880743144E+02  0.00000000000E+00 0. -1.
         -4    1    1    2    0  502 -0.40719391030E+02 -0.22623178102E+03  0.98711168311E+02  0.25016550981E+03  0.00000000000E+00 0.  1.
<scales pt_clust_5="13000.00000" pt_clust_6="13000.00000" pt_clust_7="13000.00000" pt_clust_8="13000.00000" pt_clust_9="28.53717" pt_clust_10="254.31698"></scales>
<clustering>
<clus scale="   28.537">  1  9  2 -1</clus>
<clus scale="   80.192">  5  6 -1 -1</clus>
<clus scale="   92.640">  7  8 -1 -1</clus>
<clus scale="   97.380">  2  5  1 -1</clus>
<clus scale="  254.317">  1 10  2 -1</clus>
<clus scale="   28.537">  1  5  2 -1</clus>
</clustering>
</event>
<event>
10    4  0.7697601E-005  0.4538535E+03  0.7546771E-02  0.1026732E+00
          2   -1    0    0  502    0 -0.00000000000E+00  0.00000000000E+00  0.14875197420E+04  0.14875197420E+04  0.00000000000E+00 0. -1.
         21   -1    0    0  503  502  0.00000000000E+00 -0.00000000000E+00 -0.19248369819E+03  0.19248369819E+03  0.00000000000E+00 0. -1.
         23    2    1    2    0    0  0.43119074514E+03  0.11609689286E+03  0.93991718758E+03  0.10447193068E+04  0.92683133539E+02 0.  0.
         24    2    1    2    0    0 -0.41572712893E+03 -0.14364034254E+03  0.29458792950E+03  0.53568794836E+03  0.81963016497E+02 0.  0.
        -13    1    4    4    0    0 -0.11262945021E+03 -0.11487079720E+02  0.46865527651E+02  0.12253050125E+03  0.00000000000E+00 0.  1.
         14    1    4    4    0    0 -0.30309767872E+03 -0.13215326283E+03  0.24772240185E+03  0.41315744711E+03  0.00000000000E+00 0. -1.
        -11    1    3    3    0    0  0.52235403137E+02 -0.13492446004E+02  0.85574345281E+02  0.10116102021E+03  0.00000000000E+00 0.  1.
         11    1    3    3    0    0  0.37895534200E+03  0.12958933887E+03  0.85434284230E+03  0.94355828658E+03  0.00000000000E+00 0. -1.
         21    1    1    2  503  501 -0.12896503778E+02 -0.15294651649E+02 -0.55872103715E+01  0.20771689832E+02  0.00000000000E+00 0.  1.
          1    1    1    2  501    0 -0.25671124233E+01  0.42838101329E+02  0.66118137071E+02  0.78824495187E+02  0.00000000000E+00 0. -1.
<scales pt_clust_5="13000.00000" pt_clust_6="13000.00000" pt_clust_7="13000.00000" pt_clust_8="13000.00000" pt_clust_9="20.00615" pt_clust_10="42.40417"></scales>
<clustering>
<clus scale="   20.006">  2  9  1 -1</clus>
<clus scale="   42.404">  2 10  1 -1</clus>
<clus scale="   81.963">  5  6 -1 -1</clus>
<clus scale="   92.683">  7  8 -1 -1</clus>
<clus scale="  451.786">  2  5  1 -1</clus>
<clus scale="   20.006">  2  5  1 -1</clus>
</clustering>
</event>
<event>
10    4  0.7697601E-005  0.1978297E+03  0.7546771E-02  0.1174428E+00
          2   -1    0    0  503    0 -0.00000000000E+00  0.00000000000E+00  0.20978137208E+04  0.20978137208E+04  0.00000000000E+00 0. -1.
         21   -1    0    0  501  502  0.00000000000E+00 -0.00000000000E+00 -0.55272041966E+02  0.55272041966E+02  0.00000000000E+00 0.  1.
         24    2    1    2    0    0 -0.10854924856E+02 -0.98936160020E+02  0.28801988759E+03  0.31504050980E+03  0.79930432334E+02 0.  0.
         23    2    1    2    0    0 -0.14269661533E+03  0.11902676838E+03  0.11881236531E+04  0.12060780044E+04  0.91960001979E+02 0.  0.
        -11    1    3    3    0    0 -0.55041108952E+01 -0.11231765643E+03  0.24273940619E+03  0.26752190658E+03  0.00000000000E+00 0.  1.
         12    1    3    3    0    0 -0.53508139613E+01  0.13381496406E+02  0.45280481395E+02  0.47518603215E+02  0.00000000000E+00 0. -1.
        -11    1    4    4    0    0  0.45274446072E+01  0.37853999945E+02  0.17546317539E+03  0.17955709116E+03  0.00000000000E+00 0.  1.
         11    1    4    4    0    0 -0.14722405994E+03  0.81172768435E+02  0.10126604777E+04  0.10265209132E+04  0.00000000000E+00 0. -1.
         21    1    1    2  503  502 -0.20344550169E+02  0.44891153673E+02  0.17133484606E+02  0.52179236238E+02  0.00000000000E+00 0. -1.
          1    1    1    2  501    0  0.17389609036E+03 -0.64981762033E+02  0.54926465348E+03  0.57978801229E+03  0.00000000000E+00 0. -1.
<scales pt_clust_5="13000.00000" pt_clust_6="13000.00000" pt_clust_7="13000.00000" pt_clust_8="13000.00000" pt_clust_9="49.28607" pt_clust_10="175.15694"></scales>
<clustering>
<clus scale="   49.286">  2  9  1 -1</clus>
<clus scale="   79.930">  5  6 -1 -1</clus>
<clus scale="   91.960">  7  8 -1 -1</clus>
<clus scale="  116.556">  1  5  2 -1</clus>
<clus scale="  175.157">  2 10  1 -1</clus>
<clus scale="   49.286">  2  5  1 -1</clus>
</clustering>
</event>
<event>
10    4  0.7697601E-005  0.2342249E+03  0.7546771E-02  0.1124335E+00
         21   -1    0    0  501  502  0.00000000000E+00  0.00000000000E+00  0.88333033504E+03  0.88333033504E+03  0.00000000000E+00 0. -1.
          2   -1    0    0  503    0 -0.00000000000E+00 -0.00000000000E+00 -0.75183386758E+03  0.75183386758E+03  0.00000000000E+00 0. -1.
         24    2    1    2    0    0 -0.20344548863E+03  0.85866453721E+02 -0.66164210742E+03  0.70204494610E+03  0.79584629885E+02 0.  0.
         23    2    1    2    0    0  0.11913074300E+03 -0.13936986462E+03  0.18902648747E+03  0.27817523051E+03  0.89634551458E+02 0.  0.
        -11    1    3    3    0    0 -0.10879187080E+03  0.54139196732E+02 -0.24332965874E+03  0.27198537939E+03  0.00000000000E+00 0.  1.
         12    1    3    3    0    0 -0.94653617828E+02  0.31727256989E+02 -0.41831244868E+03  0.43005956671E+03  0.00000000000E+00 0. -1.
        -11    1    4    4    0    0  0.16018069503E+02 -0.70619285112E+02  0.10827320991E+03  0.13025647763E+03  0.00000000000E+00 0.  1.
         11    1    4    4    0    0  0.10311267349E+03 -0.68750579505E+02  0.80753277555E+02  0.14791875288E+03  0.00000000000E+00 0. -1.
         21    1    1    2  503  502  0.52257857244E+02  0.14163956979E+03  0.44879778120E+03  0.47351040093E+03  0.00000000000E+00 0. -1.
          1    1    1    2  501    0  0.32056888390E+02 -0.88136158890E+02  0.15531430621E+03  0.18143362508E+03  0.00000000000E+00 0. -1.
<scales pt_clust_5="13000.00000" pt_clust_6="13000.00000" pt_clust_7="13000.00000" pt_clust_8="13000.00000" pt_clust_9="111.84357" pt_clust_10="93.78500"></scales>
<clustering>
<clus scale="   79.585">  5  6 -1 -1</clus>
<clus scale="   89.635">  7  8 -1 -1</clus>
<clus scale="   93.785">  1 10  2 -1</clus>
<clus scale="  111.844">  1  9  2 -1</clus>
<clus scale="  230.566">  2  5  1 -1</clus>
<clus scale="   93.785">  1  5  2 -1</clus>
</clustering>
</event>
<event>
10    4  0.7697601E-005  0.1608426E+03  0.7546771E-02  0.1206579E+00
         21   -1    0    0  501  502  0.00000000000E+00  0.00000000000E+00  0.61203425784E+02  0.61203425784E+02  0.00000000000E+00 0.  1.
         -3   -1    0    0    0  501 -0.00000000000E+00 -0.00000000000E+00 -0.24839647914E+04  0.24839647914E+04  0.00000000000E+00 0.  1.
         23    2    1    2    0    0 -0.35121944561E+02  0.10084011065E+03 -0.19556616263E+03  0.24152538340E+03  0.93199291601E+02 0.  0.
         24    2    1    2    0    0  0.13246175259E+03 -0.79679579561E+01 -0.10213572662E+04  0.10328730992E+04  0.77759692168E+02 0.  0.
        -13    1    4    4    0    0  0.13068279242E+03  0.77037885530E+00 -0.74522745507E+03  0.75659932957E+03  0.00000000000E+00 0.  1.
         14    1    4    4    0    0  0.17789601676E+01 -0.87383368114E+01 -0.27612981110E+03  0.27627376967E+03  0.00000000000E+00 0. -1.
        -11    1    3    3    0    0 -0.12081469389E+01  0.89009707967E+02 -0.18294778110E+03  0.20345534729E+03  0.00000000000E+00 0.  1.
         11    1    3    3    0    0 -0.33913797622E+02  0.11830402678E+02 -0.12618381526E+02  0.38070036105E+02  0.00000000000E+00 0. -1.
         21    1    1    2  503  502  0.50006208289E+02 -0.71416993947E+02 -0.40805474590E+02  0.96260556036E+02  0.00000000000E+00 0.  1.
         -4    1    1    2    0  503 -0.14734601632E+03 -0.21455158743E+02 -0.11650324623E+04  0.11745091786E+04  0.00000000000E+00 0.  1.
<scales pt_clust_5="13000.00000" pt_clust_6="13000.00000" pt_clust_7="13000.00000" pt_clust_8="13000.00000" pt_clust_9="87.18376" pt_clust_10="140.79704"></scales>
<clustering>
<clus scale="   77.760">  5  6 -1 -1</clus>
<clus scale="   87.184">  1  9  2 -1</clus>
<clus scale="   93.199">  7  8 -1 -1</clus>
<clus scale="  106.638">  2  7  1 -1</clus>
<clus scale="  140.797">  1 10  2 -1</clus>
<clus scale="   87.184">  1  5  2 -1</clus>
</clustering>
</event>
<event>
10    4  0.7697601E-005  0.1525164E+03  0.7546771E-02  0.1216637E+00
          2   -1    0    0  502    0 -0.00000000000E+00  0.00000000000E+00  0.19347303501E+04  0.19347303501E+04  0.00000000000E+00 0. -1.
         21   -1    0    0  503  502  0.00000000000E+00 -0.00000000000E+00 -0.52970339876E+02  0.52970339876E+02  0.00000000000E+00 0.  1.
         24    2    1    2    0    0  0.43886812609E+02 -0.46712950862E+02  0.78291345395E+03  0.78959289114E+03  0.79970652563E+02 0.  0.
         23    2    1    2    0    0  0.32542617364E+02 -0.11168295196E+03  0.11774463942E+03  0.18817053044E+03  0.89511142929E+02 0.  0.
        -13    1    3    3    0    0  0.24940042755E+02  0.14992820824E+02  0.11724903398E+03  0.12080615207E+03  0.00000000000E+00 0.  1.
         14    1    3    3    0    0  0.18946769854E+02 -0.61705771686E+02  0.66566441997E+03  0.66878673908E+03  0.00000000000E+00 0. -1.
        -13    1    4    4    0    0  0.31086426099E+02 -0.43158514884E+02  0.10604908675E+03  0.11863992622E+03  0.00000000000E+00 0. -1.
         13    1    4    4    0    0  0.14561912650E+01 -0.68524437078E+02  0.11695552675E+02  0.69530604213E+02  0.00000000000E+00 0.  1.
         21    1    1    2  503  501 -0.53694733287E+02 -0.24499459700E+01  0.95742973385E+02  0.10979910551E+03  0.00000000000E+00 0.  1.
          1    1    1    2  501    0 -0.22734696686E+02  0.16084584879E+03  0.88535894350E+03  0.90013816292E+03  0.00000000000E+00 0. -1.
<scales pt_clust_5="13000.00000" pt_clust_6="13000.00000" pt_clust_7="13000.00000" pt_clust_8="13000.00000" pt_clust_9="53.75060" pt_clust_10="123.48694"></scales>
<clustering>
<clus scale="   53.751">  2  9  1 -1</clus>
<clus scale="   79.971">  5  6 -1 -1</clus>
<clus scale="   89.511">  7  8 -1 -1</clus>
<clus scale="  100.959">  1  5  2 -1</clus>
<clus scale="  123.487">  2 10  1 -1</clus>
<clus scale="   53.751">  2  5  1 -1</clus>
</clustering>
</event>
<event>
10    4  0.7697601E-005  0.1701109E+03  0.7546771E-02  0.1179759E+00
         21   -1    0    0  503  502  0.00000000000E+00  0.00000000000E+00  0.16019949987E+03  0.16019949987E+03  0.00000000000E+00 0.  1.
         -1   -1    0    0    0  501 -0.00000000000E+00 -0.00000000000E+00 -0.91401322771E+03  0.91401322771E+03  0.00000000000E+00 0.  1.
         23    2    1    2    0    0  0.28600337107E+02  0.12790032878E+03 -0.45726065954E+03  0.48471914542E+03  0.93214085827E+02 0.  0.
         24    2    1    2    0    0  0.14350499342E+03 -0.45610389823E+02  0.42188904206E+02  0.17525266758E+03  0.79117653279E+02 0.  0.
        -13    1    4    4    0    0  0.14175261227E+03 -0.58707561514E+02  0.48078975273E+02  0.16078547424E+03  0.00000000000E+00 0.  1.
         14    1    4    4    0    0  0.17523811522E+01  0.13097171691E+02 -0.58900710670E+01  0.14467193341E+02  0.00000000000E+00 0. -1.
        -13    1    3    3    0    0  0.77734194335E+01  0.39547151118E+02 -0.36818792706E+02  0.54589620877E+02  0.00000000000E+00 0. -1.
         13    1    3    3    0    0  0.20826917673E+02  0.88353177659E+02 -0.42044186683E+03  0.43012952455E+03  0.00000000000E+00 0.  1.
         21    1    1    2  503  501  0.25768156445E+01  0.22793785838E+02 -0.54955205478E+01  0.23588077450E+02  0.00000000000E+00 0.  1.
         -2    1    1    2    0  502 -0.17468214617E+03 -0.10508372479E+03 -0.33324645197E+03  0.39065283713E+03  0.00000000000E+00 0.  1.
<scales pt_clust_5="13000.00000" pt_clust_6="13000.00000" pt_clust_7="13000.00000" pt_clust_8="13000.00000" pt_clust_9="22.93898" pt_clust_10="150.59263"></scales>
<clustering>
<clus scale="   22.939">  1  9  2 -1</clus>
<clus scale="   79.118">  5  6 -1 -1</clus>
<clus scale="   93.214">  7  8 -1 -1</clus>
<clus scale="  162.520">  2  7  1 -1</clus>
<clus scale="  150.593">  1 10  2 -1</clus>
<clus scale="   22.939">  1  5  2 -1</clus>
</clustering>
</event>
<event>
10    4  0.7697601E-005  0.1789133E+03  0.7546771E-02  0.1172034E+00
         21   -1    0    0  501  502  0.00000000000E+00  0.00000000000E+00  0.14942171782E+03  0.14942171782E+03  0.00000000000E+00 0.  1.
          2   -1    0    0  503    0 -0.00000000000E+00 -0.00000000000E+00 -0.12563467229E+04  0.12563467229E+04  0.00000000000E+00 0. -1.
         23    2    1    2    0    0 -0.65463335614E+02  0.11388071092E+03 -0.41591025261E+03  0.44559264514E+03  0.91198698143E+02 0.  0.
         24    2    1    2    0    0  0.11775539413E+03  0.21736468552E+02 -0.60600328599E+02  0.16341586474E+03  0.93239144720E+02 0.  0.
        -11    1    4    4    0    0  0.11473556355E+03 -0.11220394679E+02 -0.60772389825E+02  0.13032049020E+03  0.00000000000E+00 0.  1.
         12    1    4    4    0    0  0.30198305849E+01  0.32956863232E+02  0.17206122644E+00  0.33095374539E+02  0.00000000000E+00 0. -1.
        -11    1    3    3    0    0 -0.24027054714E+02  0.39907080174E+01 -0.16868046285E+02  0.29626948783E+02  0.00000000000E+00 0. -1.
         11    1    3    3    0    0 -0.41436280900E+02  0.10989000290E+03 -0.39904220633E+03  0.41596569635E+03  0.00000000000E+00 0.  1.
         21    1    1    2  503  502  0.30530604900E+02  0.65561927062E+02  0.46340171354E+02  0.85894677348E+02  0.00000000000E+00 0.  1.
          1    1    1    2  501    0 -0.82822663420E+02 -0.20117910654E+03 -0.67675459522E+03  0.71086525350E+03  0.00000000000E+00 0. -1.
<scales pt_clust_5="13000.00000" pt_clust_6="13000.00000" pt_clust_7="13000.00000" pt_clust_8="13000.00000" pt_clust_9="72.32209" pt_clust_10="152.69721"></scales>
<clustering>
<clus scale="   72.322">  1  9  2 -1</clus>
<clus scale="   91.199">  7  8 -1 -1</clus>
<clus scale="   93.239">  5  6 -1 -1</clus>
<clus scale="  166.390">  2  7  1 -1</clus>
<clus scale="  152.697">  1 10  2 -1</clus>
<clus scale="   72.322">  1  5  2 -1</clus>
</clustering>
</event>
<event>
10    4  0.7697601E-005  0.2081652E+03  0.7546771E-02  0.1143952E+00
         -1   -1    0    0    0  501 -0.00000000000E+00  0.00000000000E+00  0.35025140169E+03  0.35025140169E+03  0.00000000000E+00 0.  1.
         21   -1    0    0  503  502  0.00000000000E+00 -0.00000000000E+00 -0.30372951351E+03  0.30372951351E+03  0.00000000000E+00 0. -1.
         23    2    1    2    0    0 -0.18075176317E+03  0.16886158414E+03  0.14384713006E+03  0.30029939432E+03  0.91116929907E+02 0.  0.
         24    2    1    2    0    0  0.33527198784E+02 -0.11343881416E+03 -0.56987940555E+02  0.15382581955E+03  0.80139377184E+02 0.  0.
        -13    1    4    4    0    0  0.26900129245E+02 -0.29254188140E+02  0.15379729937E+02  0.42614088869E+02  0.00000000000E+00 0.  1.
         14    1    4    4    0    0  0.66270695388E+01 -0.84184626022E+02 -0.72367670493E+02  0.11121173068E+03  0.00000000000E+00 0. -1.
        -11    1    3    3    0    0 -0.46337786681E+02  0.16225071133E+01  0.10057941046E+02  0.47444548496E+02  0.00000000000E+00 0. -1.
         11    1    3    3    0    0 -0.13441397649E+03  0.16723907703E+03  0.13378918902E+03  0.25285484583E+03  0.00000000000E+00 0.  1.
         21    1    1    2  503  501  0.19214657832E+02 -0.37614336617E+02 -0.55480402960E+02  0.69728878575E+02  0.00000000000E+00 0. -1.
         -2    1    1    2    0  502  0.12800990655E+03 -0.17808433361E+02  0.15143101630E+02  0.13012682276E+03  0.00000000000E+00 0.  1.
<scales pt_clust_5="13000.00000" pt_clust_6="13000.00000" pt_clust_7="13000.00000" pt_clust_8="13000.00000" pt_clust_9="42.23791" pt_clust_10="135.26808"></scales>
<clustering>
<clus scale="   42.238">  2  9  1 -1</clus>
<clus scale="   80.139">  5  6 -1 -1</clus>
<clus scale="   91.117">  7  8 -1 -1</clus>
<clus scale="  135.268">  2 10  1 -1</clus>
<clus scale="  203.600">  2  5  1 -1</clus>
<clus scale="   42.238">  2  5  1 -1</clus>
</clustering>
</event>
<event>
10    4  0.7697601E-005  0.2774301E+03  0.7546771E-02  0.1123198E+00
          4   -1    0    0  502    0 -0.00000000000E+00  0.00000000000E+00  0.11920406136E+04  0.11920406136E+04  0.00000000000E+00 0. -1.
         21   -1    0    0  503  502  0.00000000000E+00 -0.00000000000E+00 -0.13652173344E+03  0.13652173344E+03  0.00000000000E+00 0. -1.
         23    2    1    2    0    0 -0.26073610132E+02  0.98167752108E+02  0.56286343214E+02  0.15358445943E+03  0.10051513839E+03 0.  0.
         24    2    1    2    0    0 -0.26186199443E+03 -0.64317781503E+02  0.66752858644E+03  0.72427475967E+03  0.79189851860E+02 0.  0.
        -11    1    4    4    0    0 -0.17864741106E+03 -0.80991984820E+02  0.46933223058E+03  0.50867213581E+03  0.00000000000E+00 0.  1.
         12    1    4    4    0    0 -0.83214583370E+02  0.16674203316E+02  0.19819635586E+03  0.21560262387E+03  0.00000000000E+00 0. -1.
        -13    1    3    3    0    0 -0.27538977968E+02  0.27325060276E+02  0.71283803488E+02  0.81156853477E+02  0.00000000000E+00 0.  1.
         13    1    3    3    0    0  0.14653678357E+01  0.70842691833E+02 -0.14997460274E+02  0.72427605950E+02  0.00000000000E+00 0. -1.
         21    1    1    2  503  501  0.25637886385E+02  0.47993367811E+01  0.29136037842E-01  0.26083245594E+02  0.00000000000E+00 0. -1.
          3    1    1    2  501    0  0.26229771818E+03 -0.38649307386E+02  0.33167481444E+03  0.42461988231E+03  0.00000000000E+00 0. -1.
<scales pt_clust_5="13000.00000" pt_clust_6="13000.00000" pt_clust_7="13000.00000" pt_clust_8="13000.00000" pt_clust_9="26.08323" pt_clust_10="265.88797"></scales>
<clustering>
<clus scale="   26.083">  2  9  1 -1</clus>
<clus scale="   79.190">  5  6 -1 -1</clus>
<clus scale="  100.515">  7  8 -1 -1</clus>
<clus scale="  142.724">  1  7  2 -1</clus>
<clus scale="  265.888">  2 10  1 -1</clus>
<clus scale="   26.083">  2  5  1 -1</clus>
</clustering>
</event>
<event>
10    4  0.7697601E-005  0.1515516E+03  0.7546771E-02  0.1202405E+00
         21   -1    0    0  501  502  0.00000000000E+00  0.00000000000E+00  0.14191952832E+03  0.14191952832E+03  0.00000000000E+00 0. -1.
          2   -1    0    0  503    0 -0.00000000000E+00 -0.00000000000E+00 -0.56215146471E+03  0.56215146471E+03  0.00000000000E+00 0. -1.
         24    2    1    2    0    0 -0.10592626830E+03 -0.42263217130E+02 -0.35800475999E+03  0.38417489327E+03  0.80102350819E+02 0.  0.
         23    2    1    2    0    0  0.12929390204E+03 -0.24371826574E+02 -0.45814307023E+02  0.17129026903E+03  0.99651926735E+02 0.  0.
        -11    1    3    3    0    0 -0.19473372967E+02 -0.46734489908E+02 -0.16617199964E+03  0.17371372504E+03  0.00000000000E+00 0.  1.
         12    1    3    3    0    0 -0.86452895328E+02  0.44712727776E+01 -0.19183276035E+03  0.21046116823E+03  0.00000000000E+00 0. -1.
        -13    1    4    4    0    0  0.84652280575E+02 -0.54102051745E+02  0.43983335974E+00  0.10046508878E+03  0.00000000000E+00 0. -1.
         13    1    4    4    0    0  0.44641621463E+02  0.29730225171E+02 -0.46254140383E+02  0.70825180255E+02  0.00000000000E+00 0.  1.
         21    1    1    2  503  502  0.15033124601E+02  0.67333333733E+02  0.40459396017E+02  0.79979593603E+02  0.00000000000E+00 0. -1.
          1    1    1    2  501    0 -0.38400758344E+02 -0.69829002850E+00 -0.56872265389E+02  0.68626237117E+02  0.00000000000E+00 0. -1.
<scales pt_clust_5="13000.00000" pt_clust_6="13000.00000" pt_clust_7="13000.00000" pt_clust_8="13000.00000" pt_clust_9="67.05303" pt_clust_10="38.40713"></scales>
<clustering>
<clus scale="   38.407">  1 10  2 -1</clus>
<clus scale="   67.053">  1  9  2 -1</clus>
<clus scale="   80.102">  5  6 -1 -1</clus>
<clus scale="   99.652">  7  8 -1 -1</clus>
<clus scale="  139.477">  2  5  1 -1</clus>
<clus scale="   38.407">  1  5  2 -1</clus>
</clustering>
</event>
<event>
10    4  0.7697601E-005  0.1364104E+03  0.7546771E-02  0.1220854E+00
         21   -1    0    0  501  502  0.00000000000E+00  0.00000000000E+00  0.47813801363E+03  0.47813801363E+03  0.00000000000E+00 0.  1.
          2   -1    0    0  503    0 -0.00000000000E+00 -0.00000000000E+00 -0.53852274532E+03  0.53852274532E+03  0.00000000000E+00 0. -1.
         23    2    1    2    0    0  0.67811607699E+02 -0.56406426922E+01 -0.19745392286E+03  0.22807586959E+03  0.91653257688E+02 0.  0.
         24    2    1    2    0    0 -0.15245118829E+03  0.16958546993E+02 -0.28440185360E+03  0.33298562603E+03  0.80411788207E+02 0.  0.
        -11    1    4    4    0    0 -0.52171713163E+02 -0.22186844721E+02 -0.15271086579E+03  0.16289491171E+03  0.00000000000E+00 0.  1.
         12    1    4    4    0    0 -0.10027947513E+03  0.39145391714E+02 -0.13169098782E+03  0.17009071432E+03  0.00000000000E+00 0. -1.
        -11    1    3    3    0    0  0.28014136475E+02  0.19033337198E+02 -0.10666063022E+02  0.35508092989E+02  0.00000000000E+00 0.  1.
         11    1    3    3    0    0  0.39797471224E+02 -0.24673979890E+02 -0.18678785984E+03  0.19256777660E+03  0.00000000000E+00 0. -1.
         21    1    1    2  503  502  0.25245969019E+02  0.34714922310E+02  0.34755055235E+03  0.35019119238E+03  0.00000000000E+00 0.  1.
          1    1    1    2  501    0  0.59393611576E+02 -0.46032826611E+02  0.73920492423E+02  0.10540807095E+03  0.00000000000E+00 0. -1.
<scales pt_clust_5="13000.00000" pt_clust_6="13000.00000" pt_clust_7="13000.00000" pt_clust_8="13000.00000" pt_clust_9="42.92417" pt_clust_10="79.97715"></scales>
<clustering>
<clus scale="   42.924">  1  9  2 -1</clus>
<clus scale="   79.977">  1 10  2 -1</clus>
<clus scale="   80.412">  5  6 -1 -1</clus>
<clus scale="   91.653">  7  8 -1 -1</clus>
<clus scale="  129.126">  1  5  2 -1</clus>
<clus scale="   42.924">  1  5  2 -1</clus>
</clustering>
</event>
<event>
10    4  0.7697601E-005  0.2809046E+03  0.7546771E-02  0.1135048E+00
         21   -1    0    0  503  502  0.00000000000E+00  0.00000000000E+00  0.16725844741E+03  0.16725844741E+03  0.00000000000E+00 0. -1.
          2   -1    0    0  502    0 -0.00000000000E+00 -0.00000000000E+00 -0.84696914891E+03  0.84696914891E+03  0.00000000000E+00 0. -1.
         24    2    1    2    0    0  0.43971268270E+02 -0.50203581808E+02 -0.19450446803E+03  0.22064865155E+03  0.79999795549E+02 0.  0.
         23    2    1    2    0    0  0.40120596368E+02 -0.23812325462E+03 -0.27973851506E+03  0.38067184644E+03  0.91351361353E+02 0.  0.
        -13    1    3    3    0    0 -0.14252883824E+02 -0.20995098583E+02 -0.11549083878E+03  0.11824581474E+03  0.00000000000E+00 0.  1.
         14    1    3    3    0    0  0.58224152094E+02 -0.29208483225E+02 -0.79013629252E+02  0.10240283681E+03  0.00000000000E+00 0. -1.
        -11    1    4    4    0    0  0.45922149597E+02 -0.71076787238E+02 -0.56325444674E+02  0.10165288597E+03  0.00000000000E+00 0.  1.
         11    1    4    4    0    0 -0.58015532288E+01 -0.16704646738E+03 -0.22341307039E+03  0.27901896048E+03  0.00000000000E+00 0. -1.
         21    1    1    2  503  501 -0.28844694025E+02  0.58023093854E+01  0.29237369655E+02  0.41478994105E+02  0.00000000000E+00 0.  1.
          1    1    1    2  501    0 -0.55247170612E+02  0.28252452704E+03 -0.23470508806E+03  0.37142810422E+03  0.00000000000E+00 0. -1.
<scales pt_clust_5="13000.00000" pt_clust_6="13000.00000" pt_clust_7="13000.00000" pt_clust_8="13000.00000" pt_clust_9="29.42249" pt_clust_10="265.63581"></scales>
<clustering>
<clus scale="   29.422">  1  9  2 -1</clus>
<clus scale="   80.000">  5  6 -1 -1</clus>
<clus scale="   91.351">  7  8 -1 -1</clus>
<clus scale="  102.729">  2  5  1 -1</clus>
<clus scale="  265.636">  1 10  2 -1</clus>
<clus scale="   29.422">  1  5  2 -1</clus>
</clustering>
</event>
<event>
10    4  0.7697601E-005  0.2709249E+03  0.7546771E-02  0.1119240E+00
         21   -1    0    0  503  502  0.00000000000E+00  0.00000000000E+00  0.38391312676E+03  0.38391312676E+03  0.00000000000E+00 0.  1.
         -3   -1    0    0    0  501 -0.00000000000E+00 -0.00000000000E+00 -0.55698784212E+03  0.55698784212E+03  0.00000000000E+00 0.  1.
         24    2    1    2    0    0  0.36239183120E+02 -0.13820587021E+03  0.47662317687E+02  0.17087751093E+03  0.80704933312E+02 0.  0.
         23    2    1    2    0    0 -0.14996515456E+03  0.33976619824E+03 -0.29648624614E+03  0.48371358709E+03  0.90244795616E+02 0.  0.
        -11    1    3    3    0    0 -0.59915835651E+01 -0.55621052248E+02  0.54198472627E+02  0.77891430607E+02  0.00000000000E+00 0.  1.
         12    1    3    3    0    0  0.42230766685E+02 -0.82584817963E+02 -0.65361549407E+01  0.92986080325E+02  0.00000000000E+00 0. -1.
        -13    1    4    4    0    0 -0.14959254655E+03  0.24890698695E+03 -0.21101812576E+03  0.35897251640E+03  0.00000000000E+00 0.  1.
         13    1    4    4    0    0 -0.37260800187E+00  0.90859211294E+02 -0.85468120383E+02  0.12474107068E+03  0.00000000000E+00 0. -1.
         21    1    1    2  503  501 -0.13979083822E+02 -0.20891650301E+02  0.59353749734E+02  0.64457299387E+02  0.00000000000E+00 0. -1.
         -4    1    1    2    0  502  0.12770505526E+03 -0.18066867773E+03  0.16395463364E+02  0.22185257147E+03  0.00000000000E+00 0.  1.
<scales pt_clust_5="13000.00000" pt_clust_6="13000.00000" pt_clust_7="13000.00000" pt_clust_8="13000.00000" pt_clust_9="25.13714" pt_clust_10="255.45285"></scales>
<clustering>
<clus scale="   25.137">  1  9  2 -1</clus>
<clus scale="   80.705">  5  6 -1 -1</clus>
<clus scale="   90.245">  7  8 -1 -1</clus>
<clus scale="  169.163">  2  5  1 -1</clus>
<clus scale="  255.453">  1 10  2 -1</clus>
<clus scale="   25.137">  1  5  2 -1</clus>
</clustering>
</event>
<event>
10    4  0.7697601E-005  0.2799977E+03  0.7546771E-02  0.1126048E+00
          2   -1    0    0  503    0 -0.00000000000E+00  0.00000000000E+00  0.75323567563E+03  0.75323567563E+03  0.00000000000E+00 0. -1.
         21   -1    0    0  501  502  0.00000000000E+00 -0.00000000000E+00 -0.81436118101E+03  0.81436118101E+03  0.00000000000E+00 0. -1.
         23    2    1    2    0    0  0.55657467406E+02  0.73306946111E+02  0.33361398378E+02  0.13359364349E+03  0.90898936476E+02 0.  0.
         24    2    1    2    0    0 -0.22880132704E+03 -0.30185910662E+03 -0.52774037298E+03  0.65463981402E+03  0.81082780649E+02 0.  0.
        -13    1    4    4    0    0 -0.71411756330E+02 -0.14347535766E+03 -0.17621665286E+03  0.23819556239E+03  0.00000000000E+00 0.  1.
         14    1    4    4    0    0 -0.15738957071E+03 -0.15838374895E+03 -0.35152372013E+03  0.41644425163E+03  0.00000000000E+00 0. -1.
        -13    1    3    3    0    0  0.33701293952E+02  0.93011624796E+02  0.32316406598E+02  0.10407348220E+03  0.00000000000E+00 0.  1.
         13    1    3    3    0    0  0.21956173453E+02 -0.19704678685E+02  0.10449917799E+01  0.29520161290E+02  0.00000000000E+00 0. -1.
         21    1    1    2  503  502  0.18701344939E+03  0.30436996906E+02 -0.97199831013E+02  0.21295128124E+03  0.00000000000E+00 0. -1.
          1    1    1    2  501    0 -0.13869589749E+02  0.19811516360E+03  0.53045330024E+03  0.56641211790E+03  0.00000000000E+00 0. -1.
<scales pt_clust_5="13000.00000" pt_clust_6="13000.00000" pt_clust_7="13000.00000" pt_clust_8="13000.00000" pt_clust_9="195.31566" pt_clust_10="268.00072"></scales>
<clustering>
<clus scale="   81.083">  5  6 -1 -1</clus>
<clus scale="   90.899">  7  8 -1 -1</clus>
<clus scale="  129.361">  1  7  2 -1</clus>
<clus scale="  195.316">  2  9  1 -1</clus>
<clus scale="  268.001">  2 10  1 -1</clus>
<clus scale="  195.316">  2  5  1 -1</clus>
</clustering>
</event>
<event>
10    4  0.7697601E-005  0.3641735E+03  0.7546771E-02  0.1105911E+00
         -1   -1    0    0    0  501 -0.00000000000E+00  0.00000000000E+00  0.75821673333E+03  0.75821673333E+03  0.00000000000E+00 0.  1.
         21   -1    0    0  503  502  0.00000000000E+00 -0.00000000000E+00 -0.28114858734E+03  0.28114858734E+03  0.00000000000E+00 0. -1.
         24    2    1    2    0    0  0.32130989959E+02 -0.41524176341E+02 -0.22407295063E+02  0.98154214715E+02  0.79846761097E+02 0.  0.
         23    2    1    2    0    0 -0.33298348064E+03 -0.12769350023E+03  0.21371919202E+03  0.42581396418E+03  0.91967443547E+02 0.  0.
        -11    1    3    3    0    0  0.19390879787E+02  0.81368898125E+01  0.21922385877E+02  0.30377725347E+02  0.00000000000E+00 0.  1.
         12    1    3    3    0    0  0.12740110172E+02 -0.49661066153E+02 -0.44329680940E+02  0.67776489367E+02  0.00000000000E+00 0. -1.
        -11    1    4    4    0    0 -0.31615080297E+02  0.52955986768E+01  0.46271231145E+02  0.56290172314E+02  0.00000000000E+00 0.  1.
         11    1    4    4    0    0 -0.30136840034E+03 -0.13298909890E+03  0.16744796088E+03  0.36952379187E+03  0.00000000000E+00 0. -1.
         21    1    1    2  503  501  0.28531822061E+02 -0.64106554901E+02  0.41783956091E+02  0.81667706212E+02  0.00000000000E+00 0. -1.
         -2    1    1    2    0  502  0.27232066862E+03  0.23332423147E+03  0.24397229294E+03  0.43372943556E+03  0.00000000000E+00 0.  1.
<scales pt_clust_5="13000.00000" pt_clust_6="13000.00000" pt_clust_7="13000.00000" pt_clust_8="13000.00000" pt_clust_9="70.16919" pt_clust_10="352.36978"></scales>
<clustering>
<clus scale="   70.169">  1  9  2 -1</clus>
<clus scale="   79.847">  5  6 -1 -1</clus>
<clus scale="   91.967">  7  8 -1 -1</clus>
<clus scale="   97.652">  1  5  2 -1</clus>
<clus scale="  352.370">  2 10  1 -1</clus>
<clus scale="  352.370">  2  5  1 -1</clus>
</clustering>
</event>
<event>
10    4  0.7697601E-005  0.1883575E+03  0.7546771E-02  0.1191949E+00
         21   -1    0    0  501  502  0.00000000000E+00  0.00000000000E+00  0.39201790602E+03  0.39201790602E+03  0.00000000000E+00 0.  1.
          2   -1    0    0  503    0 -0.00000000000E+00 -0.00000000000E+00 -0.35356318708E+03  0.35356318708E+03  0.00000000000E+00 0. -1.
         23    2    1    2    0    0 -0.90357673504E+01 -0.86162006913E+01 -0.13402463699E+03  0.16210905684E+03  0.90337472754E+02 0.  0.
         24    2    1    2    0    0 -0.16051196554E+03 -0.16688441598E+02 -0.70041891195E+02  0.19456052669E+03  0.83098356531E+02 0.  0.
        -13    1    4    4    0    0 -0.10107774266E+03  0.20249940995E+02 -0.69957925961E+02  0.12458283018E+03  0.00000000000E+00 0.  1.
         14    1    4    4    0    0 -0.59434222884E+02 -0.36938382593E+02 -0.83965234445E-01  0.69977696508E+02  0.00000000000E+00 0. -1.
        -11    1    3    3    0    0  0.22730282767E+02  0.23356514365E+01  0.10930604625E+01  0.22876096771E+02  0.00000000000E+00 0. -1.
         11    1    3    3    0    0 -0.31766050117E+02 -0.10951852128E+02 -0.13511769745E+03  0.13923296007E+03  0.00000000000E+00 0.  1.
         21    1    1    2  503  502  0.17037661844E+03  0.46299591021E+02  0.28856956027E+03  0.33829607647E+03  0.00000000000E+00 0.  1.
          1    1    1    2  501    0 -0.82888554421E+00 -0.20994948732E+02 -0.46048313146E+02  0.50615433092E+02  0.00000000000E+00 0. -1.
<scales pt_clust_5="13000.00000" pt_clust_6="13000.00000" pt_clust_7="13000.00000" pt_clust_8="13000.00000" pt_clust_9="169.03607" pt_clust_10="21.01132"></scales>
<clustering>
<clus scale="   21.011">  1 10  2 -1</clus>
<clus scale="   83.098">  5  6 -1 -1</clus>
<clus scale="   90.337">  7  8 -1 -1</clus>
<clus scale="   91.274">  2  7  1 -1</clus>
<clus scale="  169.036">  1  9  2 -1</clus>
<clus scale="   21.011">  1  5  2 -1</clus>
</clustering>
</event>
<event>
10    4  0.7697601E-005  0.1169899E+03  0.7546771E-02  0.1251504E+00
         21   -1    0    0  501  502  0.00000000000E+00  0.00000000000E+00  0.97901332950E+02  0.97901332950E+02  0.00000000000E+00 0. -1.
          2   -1    0    0  503    0 -0.00000000000E+00 -0.00000000000E+00 -0.85016517153E+03  0.85016517153E+03  0.00000000000E+00 0. -1.
         24    2    1    2    0    0  0.70481060986E+02 -0.52699610875E+02 -0.58586971456E+03  0.59797168178E+03  0.81129407929E+02 0.  0.
         23    2    1    2    0    0 -0.28649494573E+02  0.37154115155E+02 -0.21633330004E+03  0.23937751410E+03  0.91105849083E+02 0.  0.
        -11    1    3    3    0    0  0.14934849658E+02 -0.16107336886E+02 -0.25450130439E+02  0.33618524287E+02  0.00000000000E+00 0.  1.
         12    1    3    3    0    0  0.55546211328E+02 -0.36592273988E+02 -0.56041958412E+03  0.56435315749E+03  0.00000000000E+00 0. -1.
        -11    1    4    4    0    0 -0.59200386105E+02  0.35376639264E+02 -0.17376673565E+03  0.18695205465E+03  0.00000000000E+00 0.  1.
         11    1    4    4    0    0  0.30550891532E+02  0.17774758911E+01 -0.42566564390E+02  0.52425459444E+02  0.00000000000E+00 0. -1.
         21    1    1    2  503  502  0.26257636779E+02  0.40128928188E+01  0.19750911351E+01  0.26635836443E+02  0.00000000000E+00 0. -1.
          1    1    1    2  501    0 -0.68089203192E+02  0.11532602901E+02  0.47964084886E+02  0.84081472156E+02  0.00000000000E+00 0. -1.
<scales pt_clust_5="13000.00000" pt_clust_6="13000.00000" pt_clust_7="13000.00000" pt_clust_8="13000.00000" pt_clust_9="26.56251" pt_clust_10="49.58118"></scales>
<clustering>
<clus scale="   26.563">  1  9  2 -1</clus>
<clus scale="   49.581">  1 10  2 -1</clus>
<clus scale="   81.129">  5  6 -1 -1</clus>
<clus scale="   91.106">  7  8 -1 -1</clus>
<clus scale="  109.400">  2  5  1 -1</clus>
<clus scale="   26.563">  1  5  2 -1</clus>
</clustering>
</event>
<event>
10    4  0.7697601E-005  0.1066883E+03  0.7546771E-02  0.1272187E+00
         21   -1    0    0  503  502  0.00000000000E+00  0.00000000000E+00  0.25660705726E+03  0.25660705726E+03  0.00000000000E+00 0.  1.
          2   -1    0    0  502    0 -0.00000000000E+00 -0.00000000000E+00 -0.16710079355E+03  0.16710079355E+03  0.00000000000E+00 0. -1.
         23    2    1    2    0    0  0.93299832451E+02 -0.27001901672E+01  0.73245467712E+01  0.13009972309E+03  0.90333488803E+02 0.  0.
         24    2    1    2    0    0 -0.17704753915E+02 -0.24481777679E+02  0.44574925463E+02  0.94486182618E+02  0.77639545183E+02 0.  0.
        -13    1    4    4    0    0 -0.13108860014E+02 -0.31934431520E+02  0.64258044598E+02  0.72943446744E+02  0.00000000000E+00 0.  1.
         14    1    4    4    0    0 -0.45958939005E+01  0.74526538407E+01 -0.19683119135E+02  0.21542735873E+02  0.00000000000E+00 0. -1.
        -11    1    3    3    0    0  0.28785632027E+02  0.22522705336E+02  0.39418909509E+02  0.53756258182E+02  0.00000000000E+00 0.  1.
         11    1    3    3    0    0  0.64514200424E+02 -0.25222895504E+02 -0.32094362738E+02  0.76343464904E+02  0.00000000000E+00 0. -1.
         21    1    1    2  503  501 -0.31636772585E+02 -0.98535083371E+00  0.10739725015E+03  0.11196439450E+03  0.00000000000E+00 0.  1.
          1    1    1    2  501    0 -0.43958305951E+02  0.28167318680E+02 -0.69790458679E+02  0.87157550599E+02  0.00000000000E+00 0. -1.
<scales pt_clust_5="13000.00000" pt_clust_6="13000.00000" pt_clust_7="13000.00000" pt_clust_8="13000.00000" pt_clust_9="31.65211" pt_clust_10="53.76185"></scales>
<clustering>
<clus scale="   31.652">  1  9  2 -1</clus>
<clus scale="   53.762">  1 10  2 -1</clus>
<clus scale="   77.640">  5  6 -1 -1</clus>
<clus scale="   90.333">  7  8 -1 -1</clus>
<clus scale="   96.178">  1  5  2 -1</clus>
<clus scale="   31.652">  1  5  2 -1</clus>
</clustering>
</event>
<event>
10    4  0.7697601E-005  0.1428327E+03  0.7546771E-02  0.1209694E+00
         21   -1    0    0  501  502  0.00000000000E+00  0.00000000000E+00  0.19944893752E+03  0.19944893752E+03  0.00000000000E+00 0.  1.
          2   -1    0    0  503    0 -0.00000000000E+00 -0.00000000000E+00 -0.67396357191E+03  0.67396357191E+03  0.00000000000E+00 0. -1.
         23    2    1    2    0    0  0.88072218788E+02  0.71080266626E+02 -0.40195054668E+03  0.42523857091E+03  0.80339779630E+02 0.  0.
         24    2    1    2    0    0 -0.61633946132E+02 -0.12008957981E+03 -0.21704387071E+03  0.26812854378E+03  0.81022365320E+02 0.  0.
        -13    1    4    4    0    0  0.34973321440E+01 -0.41385845891E+02 -0.12093047102E+03  0.12786398395E+03  0.00000000000E+00 0.  1.
         14    1    4    4    0    0 -0.65131278276E+02 -0.78703733919E+02 -0.96113399695E+02  0.14026455983E+03  0.00000000000E+00 0. -1.
        -13    1    3    3    0    0  0.46092915421E+02  0.35639349463E+02 -0.32788409395E+03  0.33302056866E+03  0.00000000000E+00 0. -1.
         13    1    3    3    0    0  0.41979303367E+02  0.35440917163E+02 -0.74066452728E+02  0.92218002257E+02  0.00000000000E+00 0.  1.
         21    1    1    2  503  502  0.23565345531E+01  0.44109809870E+02  0.14422256793E+03  0.15083559819E+03  0.00000000000E+00 0.  1.
          1    1    1    2  501    0 -0.28794807209E+02  0.48995033136E+01  0.25721507577E+00  0.29209796550E+02  0.00000000000E+00 0. -1.
<scales pt_clust_5="13000.00000" pt_clust_6="13000.00000" pt_clust_7="13000.00000" pt_clust_8="13000.00000" pt_clust_9="52.27114" pt_clust_10="29.20866"></scales>
<clustering>
<clus scale="   29.209">  1 10  2 -1</clus>
<clus scale="   52.271">  1  9  2 -1</clus>
<clus scale="   80.340">  7  8 -1 -1</clus>
<clus scale="   81.022">  5  6 -1 -1</clus>
<clus scale="  142.447">  2  7  1 -1</clus>
<clus scale="   29.209">  1  5  2 -1</clus>
</clustering>
</event>
<event>
10    4  0.7697601E-005  0.1809575E+03  0.7546771E-02  0.1200982E+00
         21   -1    0    0  503  502  0.00000000000E+00  0.00000000000E+00  0.55026125919E+03  0.55026125919E+03  0.00000000000E+00 0. -1.
          2   -1    0    0  502    0 -0.00000000000E+00 -0.00000000000E+00 -0.54264766254E+03  0.54264766254E+03  0.00000000000E+00 0. -1.
         24    2    1    2    0    0  0.14832697375E+02 -0.11582759867E+02 -0.50436684195E+02  0.95134966592E+02  0.78438724609E+02 0.  0.
         23    2    1    2    0    0 -0.16263516860E+03  0.11410992876E+03 -0.13787133094E+03  0.25842715663E+03  0.91130771321E+02 0.  0.
        -11    1    3    3    0    0 -0.15421082968E+02 -0.37141717796E+02 -0.32269892777E+02  0.51562224357E+02  0.00000000000E+00 0.  1.
         12    1    3    3    0    0  0.30253780344E+02  0.25558957929E+02 -0.18166791417E+02  0.43572742235E+02  0.00000000000E+00 0. -1.
        -13    1    4    4    0    0 -0.47905383828E+02 -0.10581880646E+02 -0.33790194676E+02  0.59570791953E+02  0.00000000000E+00 0.  1.
         13    1    4    4    0    0 -0.11472978477E+03  0.12469180940E+03 -0.10408113627E+03  0.19885636468E+03  0.00000000000E+00 0. -1.
         21    1    1    2  503  501  0.31421334439E+02 -0.47551112856E+02  0.45049420093E+03  0.45408527135E+03  0.00000000000E+00 0. -1.
          1    1    1    2  501    0  0.11638113678E+03 -0.54976056032E+02 -0.25457258913E+03  0.28526152715E+03  0.00000000000E+00 0. -1.
<scales pt_clust_5="13000.00000" pt_clust_6="13000.00000" pt_clust_7="13000.00000" pt_clust_8="13000.00000" pt_clust_9="56.99481" pt_clust_10="156.33561"></scales>
<clustering>
<clus scale="   56.995">  1  9  2 -1</clus>
<clus scale="   78.439">  5  6 -1 -1</clus>
<clus scale="   84.497">  2  5  1 -1</clus>
<clus scale="   91.131">  7  8 -1 -1</clus>
<clus scale="  156.336">  1 10  2 -1</clus>
<clus scale="   56.995">  1  5  2 -1</clus>
</clustering>
</event>
<event>
10    4  0.7697601E-005  0.2333168E+03  0.7546771E-02  0.1150270E+00
          2   -1    0    0  503    0 -0.00000000000E+00  0.00000000000E+00  0.16045586469E+04  0.16045586469E+04  0.00000000000E+00 0. -1.
         21   -1    0    0  501  502  0.00000000000E+00 -0.00000000000E+00 -0.15931827180E+03  0.15931827180E+03  0.00000000000E+00 0. -1.
         23    2    1    2    0    0 -0.53350059765E+02 -0.60386904906E+02  0.68067201681E+02  0.14348125529E+03  0.97267258186E+02 0.  0.
         24    2    1    2    0    0 -0.18551500830E+03  0.61389703917E+02  0.24351271939E+03  0.32172639242E+03  0.77620313221E+02 0.  0.
        -13    1    4    4    0    0 -0.77751341933E+02  0.58629774214E+02  0.80757595088E+02  0.12650893550E+03  0.00000000000E+00 0.  1.
         14    1    4    4    0    0 -0.10776366637E+03  0.27599297034E+01  0.16275512430E+03  0.19521745692E+03  0.00000000000E+00 0. -1.
        -11    1    3    3    0    0 -0.59607073415E+02 -0.36795538262E+02 -0.11793188116E+01  0.70059300810E+02  0.00000000000E+00 0. -1.
         11    1    3    3    0    0  0.62570136502E+01 -0.23591366644E+02  0.69246520492E+02  0.73421954484E+02  0.00000000000E+00 0.  1.
         21    1    1    2  503  502 -0.23662762594E+02  0.37129706032E+02 -0.60820526286E+02  0.75084471240E+02  0.00000000000E+00 0. -1.
          1    1    1    2  501    0  0.26252783066E+03 -0.38132505044E+02  0.11944809803E+04  0.12235847998E+04  0.00000000000E+00 0. -1.
<scales pt_clust_5="13000.00000" pt_clust_6="13000.00000" pt_clust_7="13000.00000" pt_clust_8="13000.00000" pt_clust_9="44.02887" pt_clust_10="220.02694"></scales>
<clustering>
<clus scale="   44.029">  2  9  1 -1</clus>
<clus scale="   77.620">  5  6 -1 -1</clus>
<clus scale="   97.267">  7  8 -1 -1</clus>
<clus scale="  124.400">  1  7  2 -1</clus>
<clus scale="  220.027">  2 10  1 -1</clus>
<clus scale="   44.029">  2  5  1 -1</clus>
</clustering>
</event>
<event>
10    4  0.7697601E-005  0.1625040E+03  0.7546771E-02  0.1208692E+00
         21   -1    0    0  501  502  0.00000000000E+00  0.00000000000E+00  0.49699336202E+02  0.49699336202E+02  0.00000000000E+00 0. -1.
          2   -1    0    0  503    0 -0.00000000000E+00 -0.00000000000E+00 -0.17017971981E+04  0.17017971981E+04  0.00000000000E+00 0. -1.
         24    2    1    2    0    0  0.56293839936E+02  0.39790011178E+02 -0.75592761487E+03  0.76251419252E+03  0.72450627847E+02 0.  0.
         23    2    1    2    0    0 -0.10414542775E+03  0.84109748550E+02 -0.67174200188E+03  0.69044989358E+03  0.86965616983E+02 0.  0.
        -13    1    3    3    0    0  0.36829638288E+02  0.48180611764E+02 -0.29862649294E+03  0.30472212898E+03  0.00000000000E+00 0.  1.
         14    1    3    3    0    0  0.19464201648E+02 -0.83906005860E+01 -0.45730112193E+03  0.45779206354E+03  0.00000000000E+00 0. -1.
        -11    1    4    4    0    0  0.97935809218E+01  0.24049247010E+02 -0.61390209833E+02  0.66656120292E+02  0.00000000000E+00 0.  1.
         11    1    4    4    0    0 -0.11393900867E+03  0.60060501540E+02 -0.61035179204E+03  0.62379377329E+03  0.00000000000E+00 0. -1.
         21    1    1    2  503  502 -0.31236784283E+02  0.91455810047E+01 -0.99428849118E+01  0.34032915018E+02  0.00000000000E+00 0. -1.
          1    1    1    2  501    0  0.79088372100E+02 -0.13304534073E+03 -0.21448536022E+03  0.26449953316E+03  0.00000000000E+00 0. -1.
<scales pt_clust_5="13000.00000" pt_clust_6="13000.00000" pt_clust_7="13000.00000" pt_clust_8="13000.00000" pt_clust_9="32.54809" pt_clust_10="137.27538"></scales>
<clustering>
<clus scale="   32.548">  1  9  2 -1</clus>
<clus scale="   72.451">  5  6 -1 -1</clus>
<clus scale="   86.966">  7  8 -1 -1</clus>
<clus scale="   98.821">  2  5  1 -1</clus>
<clus scale="  137.275">  1 10  2 -1</clus>
<clus scale="   32.548">  1  5  2 -1</clus>
</clustering>
</event>
<event>
10    4  0.7697601E-005  0.3289902E+03  0.7546771E-02  0.1071946E+00
         21   -1    0    0  501  502  0.00000000000E+00  0.00000000000E+00  0.28613220687E+03  0.28613220687E+03  0.00000000000E+00 0. -1.
          2   -1    0    0  503    0 -0.00000000000E+00 -0.00000000000E+00 -0.94752753509E+03  0.94752753509E+03  0.00000000000E+00 0. -1.
         23    2    1    2    0    0  0.22533404533E+03 -0.19984336397E+03 -0.53969388730E+03  0.62479950295E+03  0.91608541041E+02 0.  0.
         24    2    1    2    0    0 -0.31820664727E+03  0.23002834803E+03  0.30449328746E+02  0.40170345022E+03  0.79183262304E+02 0.  0.
        -11    1    4    4    0    0 -0.19120971144E+02  0.37073328677E+02  0.18348700729E+02  0.45571022099E+02  0.00000000000E+00 0.  1.
         12    1    4    4    0    0 -0.29908567613E+03  0.19295501935E+03  0.12100628017E+02  0.35613242812E+03  0.00000000000E+00 0. -1.
        -11    1    3    3    0    0  0.11072284037E+03 -0.14832251589E+03 -0.36923648764E+03  0.41303111252E+03  0.00000000000E+00 0. -1.
         11    1    3    3    0    0  0.11461120496E+03 -0.51520848070E+02 -0.17045739966E+03  0.21176839043E+03  0.00000000000E+00 0.  1.
         21    1    1    2  503  502  0.19845788096E+02 -0.12267459161E+02  0.12267986340E+02  0.26359995224E+02  0.00000000000E+00 0. -1.
          1    1    1    2  501    0  0.73026813851E+02 -0.17917524905E+02 -0.16441875600E+03  0.18079679357E+03  0.00000000000E+00 0. -1.
<scales pt_clust_5="13000.00000" pt_clust_6="13000.00000" pt_clust_7="13000.00000" pt_clust_8="13000.00000" pt_clust_9="23.33122" pt_clust_10="75.87440"></scales>
<clustering>
<clus scale="   23.331">  1  9  2 -1</clus>
<clus scale="   75.874">  1 10  2 -1</clus>
<clus scale="   79.183">  5  6 -1 -1</clus>
<clus scale="   91.609">  7  8 -1 -1</clus>
<clus scale="  325.749">  1  5  2 -1</clus>
<clus scale="   23.331">  1  5  2 -1</clus>
</clustering>
</event>
<event>
10    4  0.7697601E-005  0.9661833E+02  0.7546771E-02  0.1293037E+00
         21   -1    0    0  501  502  0.00000000000E+00  0.00000000000E+00  0.22316270389E+03  0.22316270389E+03  0.00000000000E+00 0. -1.
          2   -1    0    0  503    0 -0.00000000000E+00 -0.00000000000E+00 -0.47165815197E+03  0.47165815197E+03  0.00000000000E+00 0. -1.
         23    2    1    2    0    0 -0.23587156685E+02 -0.15191511634E+02 -0.33660944434E+03  0.34983628480E+03  0.91062462970E+02 0.  0.
         24    2    1    2    0    0  0.56335828324E+02  0.14595875130E+02 -0.29980862727E+02  0.10416603229E+03  0.81024348375E+02 0.  0.
        -13    1    4    4    0    0  0.25292969511E+02 -0.13143433976E+02  0.23112673157E+02  0.36697136453E+02  0.00000000000E+00 0.  1.
         14    1    4    4    0    0  0.31042858813E+02  0.27739309105E+02 -0.53093535884E+02  0.67468895838E+02  0.00000000000E+00 0. -1.
        -13    1    3    3    0    0  0.15374000817E+02 -0.39957169180E+02 -0.22531799707E+03  0.22934937339E+03  0.00000000000E+00 0. -1.
         13    1    3    3    0    0 -0.38961157502E+02  0.24765657546E+02 -0.11129144727E+03  0.12048691141E+03  0.00000000000E+00 0.  1.
         21    1    1    2  503  502 -0.55210295847E+02 -0.84795610161E+00  0.17293652806E+03  0.18153770554E+03  0.00000000000E+00 0. -1.
          1    1    1    2  501    0  0.22461624209E+02  0.14435926054E+01 -0.54841669074E+02  0.59280833231E+02  0.00000000000E+00 0. -1.
<scales pt_clust_5="13000.00000" pt_clust_6="13000.00000" pt_clust_7="13000.00000" pt_clust_8="13000.00000" pt_clust_9="37.19322" pt_clust_10="22.50798"></scales>
<clustering>
<clus scale="   22.508">  1 10  2 -1</clus>
<clus scale="   37.193">  1  9  2 -1</clus>
<clus scale="   81.024">  5  6 -1 -1</clus>
<clus scale="   87.222">  1  5  2 -1</clus>
<clus scale="   91.062">  7  8 -1 -1</clus>
<clus scale="   22.508">  1  5  2 -1</clus>
</clustering>
</event>
<event>
10    4  0.7697601E-005  0.1090656E+03  0.7546771E-02  0.1264786E+00
         -3   -1    0    0    0  501 -0.00000000000E+00  0.00000000000E+00  0.14796967844E+03  0.14796967844E+03  0.00000000000E+00 0.  1.
         21   -1    0    0  503  502  0.00000000000E+00 -0.00000000000E+00 -0.42391177547E+03  0.42391177547E+03  0.00000000000E+00 0. -1.
         24    2    1    2    0    0 -0.17270802548E+02  0.62446935044E+02  0.73658673746E+02  0.12669818784E+03  0.80180610294E+02 0.  0.
         23    2    1    2    0    0  0.23017436660E+02 -0.80009842624E+02 -0.33677274826E+03  0.35759363357E+03  0.86752207422E+02 0.  0.
        -13    1    3    3    0    0  0.20161610854E+02 -0.55419166436E+01  0.33037274504E+02  0.39098144444E+02  0.00000000000E+00 0.  1.
         14    1    3    3    0    0 -0.37432413401E+02  0.67988851687E+02  0.40621399242E+02  0.87600043397E+02  0.00000000000E+00 0. -1.
        -11    1    4    4    0    0  0.52683463821E+02 -0.39497483877E+02 -0.23585786307E+03  0.24487656108E+03  0.00000000000E+00 0. -1.
         11    1    4    4    0    0 -0.29666027161E+02 -0.40512358747E+02 -0.10091488519E+03  0.11271707249E+03  0.00000000000E+00 0.  1.
         21    1    1    2  503  501  0.33509074125E+02  0.25148460080E+01 -0.27123921795E+02  0.43184367920E+02  0.00000000000E+00 0.  1.
         -4    1    1    2    0  502 -0.39255708237E+02  0.15048061572E+02  0.14295899270E+02  0.44405264578E+02  0.00000000000E+00 0.  1.
<scales pt_clust_5="13000.00000" pt_clust_6="13000.00000" pt_clust_7="13000.00000" pt_clust_8="13000.00000" pt_clust_9="33.60331" pt_clust_10="40.86809"></scales>
<clustering>
<clus scale="   33.603">  2  9  1 -1</clus>
<clus scale="   40.868">  2 10  1 -1</clus>
<clus scale="   80.181">  5  6 -1 -1</clus>
<clus scale="   86.752">  7  8 -1 -1</clus>
<clus scale="  103.915">  1  5  2 -1</clus>
<clus scale="   33.603">  2  5  1 -1</clus>
</clustering>
</event>
<event>
10    4  0.7697601E-005  0.1538053E+03  0.7546771E-02  0.1197568E+00
          2   -1    0    0  503    0 -0.00000000000E+00  0.00000000000E+00  0.73426158094E+03  0.73426158094E+03  0.00000000000E+00 0. -1.
         21   -1    0    0  501  502  0.00000000000E+00 -0.00000000000E+00 -0.80646778519E+02  0.80646778519E+02  0.00000000000E+00 0.  1.
         24    2    1    2    0    0  0.11290051963E+03  0.46688347199E+02  0.39292934239E+03  0.41954050124E+03  0.81819526876E+02 0.  0.
         23    2    1    2    0    0 -0.12342523433E+03 -0.30601208962E+02  0.22011180117E+03  0.27018744027E+03  0.91552309658E+02 0.  0.
        -11    1    3    3    0    0  0.89623771023E+02  0.98449945339E+01  0.33575700244E+03  0.34765228165E+03  0.00000000000E+00 0.  1.
         12    1    3    3    0    0  0.23276748606E+02  0.36843352665E+02  0.57172339953E+02  0.71888219598E+02  0.00000000000E+00 0. -1.
        -11    1    4    4    0    0 -0.53017727485E+02 -0.21905308345E+02  0.24994777657E+02  0.62573643585E+02  0.00000000000E+00 0.  1.
         11    1    4    4    0    0 -0.70407506849E+02 -0.86959006168E+01  0.19511702351E+03  0.20761379668E+03  0.00000000000E+00 0. -1.
         21    1    1    2  503  502  0.33055890575E+02 -0.47482169455E+01 -0.33274953849E+02  0.47142974233E+02  0.00000000000E+00 0.  1.
          1    1    1    2  501    0 -0.22531175869E+02 -0.11338921292E+02  0.73848612712E+02  0.78037443715E+02  0.00000000000E+00 0. -1.
<scales pt_clust_5="13000.00000" pt_clust_6="13000.00000" pt_clust_7="13000.00000" pt_clust_8="13000.00000" pt_clust_9="23.97041" pt_clust_10="25.22351"></scales>
<clustering>
<clus scale="   25.224">  2 10  1 -1</clus>
<clus scale="   23.970">  2  9  1 -1</clus>
<clus scale="   81.820">  5  6 -1 -1</clus>
<clus scale="   91.552">  7  8 -1 -1</clus>
<clus scale="  148.218">  1  5  2 -1</clus>
<clus scale="   25.224">  2  5  1 -1</clus>
</clustering>
</event>
<event>
10    4  0.7697601E-005  0.1692007E+03  0.7546771E-02  0.1205766E+00
          2   -1    0    0  503    0 -0.00000000000E+00  0.00000000000E+00  0.60954425429E+03  0.60954425429E+03  0.00000000000E+00 0. -1.
         21   -1    0    0  501  502  0.00000000000E+00 -0.00000000000E+00 -0.43304005873E+03  0.43304005873E+03  0.00000000000E+00 0. -1.
         23    2    1    2    0    0  0.30418684573E+01  0.34600306219E+01 -0.77595373218E+02  0.12122648481E+03  0.93024695099E+02 0.  0.
         24    2    1    2    0    0  0.17510892562E+03 -0.52935002610E+02  0.50969245924E+03  0.54738014185E+03  0.79833366148E+02 0.  0.
        -11    1    4    4    0    0  0.58633101423E+02  0.69038472317E+01  0.89184231433E+02  0.10695480740E+03  0.00000000000E+00 0.  1.
         12    1    4    4    0    0  0.11647582420E+03 -0.59838849841E+02  0.42050822781E+03  0.44042533445E+03  0.00000000000E+00 0. -1.
        -13    1    3    3    0    0 -0.10067929888E+02 -0.19785727783E+02  0.13715771042E+02  0.26095222004E+02  0.00000000000E+00 0.  1.
         13    1    3    3    0    0  0.13109798346E+02  0.23245758405E+02 -0.91311144260E+02  0.95131262804E+02  0.00000000000E+00 0. -1.
         21    1    1    2  503  502 -0.30049010732E+02  0.58066754503E+02  0.13444975763E+02  0.66749220204E+02  0.00000000000E+00 0. -1.
          1    1    1    2  501    0 -0.14810178334E+03 -0.85917825155E+01 -0.26903786622E+03  0.30722846616E+03  0.00000000000E+00 0. -1.
<scales pt_clust_5="13000.00000" pt_clust_6="13000.00000" pt_clust_7="13000.00000" pt_clust_8="13000.00000" pt_clust_9="65.38112" pt_clust_10="149.18284"></scales>
<clustering>
<clus scale="   65.381">  1  9  2 -1</clus>
<clus scale="   79.833">  5  6 -1 -1</clus>
<clus scale="   93.025">  7  8 -1 -1</clus>
<clus scale="   93.217">  1  7  2 -1</clus>
<clus scale="  149.183">  2 10  1 -1</clus>
<clus scale="  149.183">  2  5  1 -1</clus>
</clustering>
</event>
<event>
10    4  0.7697601E-005  0.1953024E+03  0.7546771E-02  0.1155043E+00
          2   -1    0    0  502    0 -0.00000000000E+00  0.00000000000E+00  0.31213248015E+03  0.31213248015E+03  0.00000000000E+00 0. -1.
         21   -1    0    0  503  502  0.00000000000E+00 -0.00000000000E+00 -0.50032368824E+03  0.50032368824E+03  0.00000000000E+00 0.  1.
         23    2    1    2    0    0 -0.12614996359E+02 -0.16517446896E+03  0.15970793651E+03  0.24874120323E+03  0.94465961441E+02 0.  0.
         24    2    1    2    0    0  0.85529041204E+02  0.17531689941E+03 -0.29952517892E+02  0.21364914234E+03  0.81838686364E+02 0.  0.
        -13    1    4    4    0    0 -0.88586842271E+01  0.38389271081E+02  0.13692873560E+02  0.41709797490E+02  0.00000000000E+00 0.  1.
         14    1    4    4    0    0  0.94387725431E+02  0.13692762833E+03 -0.43645391451E+02  0.17193934485E+03  0.00000000000E+00 0. -1.
        -13    1    3    3    0    0 -0.35778055557E+02 -0.15937458029E+03  0.15331537496E+03  0.22402216476E+03  0.00000000000E+00 0.  1.
         13    1    3    3    0    0  0.23163059198E+02 -0.57998886694E+01  0.63925615496E+01  0.24719038475E+02  0.00000000000E+00 0. -1.
         21    1    1    2  503  501 -0.25556844545E+02 -0.63058968949E+02 -0.21091836168E+03  0.22162161709E+03  0.00000000000E+00 0.  1.
          1    1    1    2  501    0 -0.47357200300E+02  0.52916538504E+02 -0.10702826504E+03  0.12844420572E+03  0.00000000000E+00 0. -1.
<scales pt_clust_5="13000.00000" pt_clust_6="13000.00000" pt_clust_7="13000.00000" pt_clust_8="13000.00000" pt_clust_9="68.04106" pt_clust_10="63.83855"></scales>
<clustering>
<clus scale="   68.041">  2  9  1 -1</clus>
<clus scale="   63.839">  2 10  1 -1</clus>
<clus scale="   81.839">  5  6 -1 -1</clus>
<clus scale="   94.466">  7  8 -1 -1</clus>
<clus scale="  189.517">  2  5  1 -1</clus>
<clus scale="   68.041">  2  5  1 -1</clus>
</clustering>
</event>
<event>
10    4  0.7697601E-005  0.1828793E+03  0.7546771E-02  0.1178919E+00
         21   -1    0    0  503  502  0.00000000000E+00  0.00000000000E+00  0.28318102794E+03  0.28318102794E+03  0.00000000000E+00 0.  1.
          4   -1    0    0  502    0 -0.00000000000E+00 -0.00000000000E+00 -0.43407927949E+03  0.43407927949E+03  0.00000000000E+00 0. -1.
         23    2    1    2    0    0 -0.98626226504E+02  0.30736582851E+02 -0.12203438493E+03  0.18349441469E+03  0.90032988611E+02 0.  0.
         24    2    1    2    0    0 -0.11517579084E+03 -0.43692581520E+02  0.35547845329E+02  0.15034071825E+03  0.78512277897E+02 0.  0.
        -13    1    4    4    0    0 -0.11748807138E+03 -0.52851287036E+02  0.45492777348E+02  0.13662466193E+03  0.00000000000E+00 0.  1.
         14    1    4    4    0    0  0.23122805366E+01  0.91587055163E+01 -0.99449320196E+01  0.13716056317E+02  0.00000000000E+00 0. -1.
        -11    1    3    3    0    0  0.13024158644E+01  0.33748066998E+02 -0.49729717469E+02  0.60113834620E+02  0.00000000000E+00 0. -1.
         11    1    3    3    0    0 -0.99928642368E+02 -0.30114841475E+01 -0.72304667464E+02  0.12338058007E+03  0.00000000000E+00 0.  1.
         21    1    1    2  503  501  0.97422212229E+01 -0.93519126528E+02  0.69694356652E+02  0.11703863144E+03  0.00000000000E+00 0.  1.
          3    1    1    2  501    0  0.20405979612E+03  0.10647512520E+03 -0.13410606860E+03  0.26638654304E+03  0.00000000000E+00 0. -1.
<scales pt_clust_5="13000.00000" pt_clust_6="13000.00000" pt_clust_7="13000.00000" pt_clust_8="13000.00000" pt_clust_9="94.02520" pt_clust_10="165.16871"></scales>
<clustering>
<clus scale="   78.512">  5  6 -1 -1</clus>
<clus scale="   90.033">  7  8 -1 -1</clus>
<clus scale="   94.025">  1  9  2 -1</clus>
<clus scale="  133.296">  2  7  1 -1</clus>
<clus scale="  165.169">  1 10  2 -1</clus>
<clus scale="   94.025">  1  5  2 -1</clus>
</clustering>
</event>
<event>
10    4  0.7697601E-005  0.1500048E+03  0.7546771E-02  0.1214136E+00
         21   -1    0    0  501  502  0.00000000000E+00  0.00000000000E+00  0.59269191961E+03  0.59269191961E+03  0.00000000000E+00 0. -1.
          4   -1    0    0  503    0 -0.00000000000E+00 -0.00000000000E+00 -0.97485212491E+02  0.97485212491E+02  0.00000000000E+00 0. -1.
         23    2    1    2    0    0 -0.21958100766E+02 -0.65186518364E+02  0.29350446341E+02  0.11588850977E+03  0.88528287180E+02 0.  0.
         24    2    1    2    0    0  0.13404569831E+03 -0.20546213988E+02  0.12372509423E+03  0.20070275622E+03  0.81137545368E+02 0.  0.
        -11    1    4    4    0    0  0.36672180341E+02 -0.68213133497E+01 -0.61443548373E+01  0.37803865188E+02  0.00000000000E+00 0.  1.
         12    1    4    4    0    0  0.97373517967E+02 -0.13724900639E+02  0.12986944907E+03  0.16289889103E+03  0.00000000000E+00 0. -1.
        -11    1    3    3    0    0 -0.35438735377E+02  0.50157284012E+01  0.26159252519E+02  0.44332471044E+02  0.00000000000E+00 0.  1.
         11    1    3    3    0    0  0.13480634612E+02 -0.70202246765E+02  0.31911938223E+01  0.71556038728E+02  0.00000000000E+00 0. -1.
         21    1    1    2  503  502 -0.19013110411E+02  0.95232049262E+01  0.11105980035E+03  0.11307727027E+03  0.00000000000E+00 0. -1.
          3    1    1    2  501    0 -0.93074487130E+02  0.76209527426E+02  0.23107136620E+03  0.26050859583E+03  0.00000000000E+00 0. -1.
<scales pt_clust_5="13000.00000" pt_clust_6="13000.00000" pt_clust_7="13000.00000" pt_clust_8="13000.00000" pt_clust_9="21.26475" pt_clust_10="126.16714"></scales>
<clustering>
<clus scale="   21.265">  1  9  2 -1</clus>
<clus scale="   81.138">  5  6 -1 -1</clus>
<clus scale="   88.528">  7  8 -1 -1</clus>
<clus scale="  111.882">  2  7  1 -1</clus>
<clus scale="  126.167">  1 10  2 -1</clus>
<clus scale="   21.265">  1  5  2 -1</clus>
</clustering>
</event>
<event>
10    4  0.7697601E-005  0.9334250E+03  0.7546771E-02  0.9729394E-01
         21   -1    0    0  503  502  0.00000000000E+00  0.00000000000E+00  0.82678141759E+03  0.82678141759E+03  0.00000000000E+00 0. -1.
          2   -1    0    0  502    0 -0.00000000000E+00 -0.00000000000E+00 -0.23831586259E+04  0.23831586259E+04  0.00000000000E+00 0. -1.
         24    2    1    2    0    0  0.26763277696E+03  0.62875644576E+02 -0.54344579499E+03  0.61502173298E+03  0.85660667528E+02 0.  0.
         23    2    1    2    0    0  0.34496613608E+03 -0.81160501757E+03 -0.87826669948E+03  0.12478535496E+04  0.89898532844E+02 0.  0.
        -11    1    3    3    0    0  0.45244649759E+02 -0.82471142446E+01 -0.15623590288E+03  0.16286420900E+03  0.00000000000E+00 0.  1.
         12    1    3    3    0    0  0.22238812720E+03  0.71122758821E+02 -0.38720989211E+03  0.45215752398E+03  0.00000000000E+00 0. -1.
        -11    1    4    4    0    0  0.34636991381E+03 -0.77467014229E+03 -0.82944994706E+03  0.11866225858E+04  0.00000000000E+00 0. -1.
         11    1    4    4    0    0 -0.14037777355E+01 -0.36934875277E+02 -0.48816752427E+02  0.61230963746E+02  0.00000000000E+00 0.  1.
         21    1    1    2  503  501 -0.60680999108E+02 -0.53568352487E+02  0.27791697581E+03  0.28946432852E+03  0.00000000000E+00 0. -1.
          1    1    1    2  501    0 -0.55191791393E+03  0.80229772548E+03 -0.41258168967E+03  0.10576004324E+04  0.00000000000E+00 0. -1.
<scales pt_clust_5="13000.00000" pt_clust_6="13000.00000" pt_clust_7="13000.00000" pt_clust_8="13000.00000" pt_clust_9="80.94289" pt_clust_10="929.08585"></scales>
<clustering>
<clus scale="   80.943">  1  9  2 -1</clus>
<clus scale="   85.661">  5  6 -1 -1</clus>
<clus scale="   89.899">  7  8 -1 -1</clus>
<clus scale="  283.483">  2  5  1 -1</clus>
<clus scale="  929.086">  1 10  2 -1</clus>
<clus scale="   80.943">  1  5  2 -1</clus>
</clustering>
</event>
<event>
10    4  0.7697601E-005  0.4790366E+03  0.7546771E-02  0.1031732E+00
          2   -1    0    0  503    0 -0.00000000000E+00  0.00000000000E+00  0.11180846678E+04  0.11180846678E+04  0.00000000000E+00 0. -1.
         21   -1    0    0  501  502  0.00000000000E+00 -0.00000000000E+00 -0.65987092400E+03  0.65987092400E+03  0.00000000000E+00 0. -1.
         23    2    1    2    0    0 -0.36171647446E+03  0.23689168848E+03  0.75346562443E+02  0.44866217952E+03  0.93081506722E+02 0.  0.
         24    2    1    2    0    0  0.11110996771E+03 -0.30711052704E+03  0.39192420541E+02  0.33876321184E+03  0.81007204143E+02 0.  0.
        -13    1    4    4    0    0  0.28607304183E+02 -0.14131801142E+02  0.72281964298E+01  0.32715936174E+02  0.00000000000E+00 0.  1.
         14    1    4    4    0    0  0.82502663530E+02 -0.29297872590E+03  0.31964224111E+02  0.30604727566E+03  0.00000000000E+00 0. -1.
        -13    1    3    3    0    0 -0.30703667135E+03  0.17156300308E+03  0.87938032474E+02  0.36254445126E+03  0.00000000000E+00 0.  1.
         13    1    3    3    0    0 -0.54679803110E+02  0.65328685402E+02 -0.12591470031E+02  0.86117728268E+02  0.00000000000E+00 0. -1.
         21    1    1    2  503  502  0.52867018935E+03 -0.10963345228E+03  0.40304898739E+02  0.54142049077E+03  0.00000000000E+00 0. -1.
          1    1    1    2  501    0 -0.27806368260E+03  0.17985229084E+03  0.30336986208E+03  0.44910970967E+03  0.00000000000E+00 0. -1.
<scales pt_clust_5="13000.00000" pt_clust_6="13000.00000" pt_clust_7="13000.00000" pt_clust_8="13000.00000" pt_clust_9="469.90623" pt_clust_10="331.15913"></scales>
<clustering>
<clus scale="   81.007">  5  6 -1 -1</clus>
<clus scale="   93.082">  7  8 -1 -1</clus>
<clus scale="  331.159">  2 10  1 -1</clus>
<clus scale="  331.159">  2  5  1 -1</clus>
<clus scale="  469.906">  2  9  1 -1</clus>
<clus scale="  331.159">  2  5  1 -1</clus>
</clustering>
</event>
<event>
10    4  0.7697601E-005  0.1577375E+03  0.7546771E-02  0.1214345E+00
          2   -1    0    0  502    0 -0.00000000000E+00  0.00000000000E+00  0.23975869023E+03  0.23975869023E+03  0.00000000000E+00 0. -1.
         21   -1    0    0  503  502  0.00000000000E+00 -0.00000000000E+00 -0.31590144211E+03  0.31590144211E+03  0.00000000000E+00 0.  1.
         24    2    1    2    0    0  0.23780831800E+02  0.42940084281E+02  0.47130962940E+02  0.10535751739E+03  0.80433202125E+02 0.  0.
         23    2    1    2    0    0 -0.88239566248E+02 -0.14403106675E+03  0.20517681211E+02  0.19294905188E+03  0.90979075270E+02 0.  0.
        -11    1    3    3    0    0  0.14155703305E+02 -0.18726920451E+02  0.34419267926E+02  0.41662543011E+02  0.00000000000E+00 0.  1.
         12    1    3    3    0    0  0.96251284952E+01  0.61667004732E+02  0.12711695014E+02  0.63694974380E+02  0.00000000000E+00 0. -1.
        -13    1    4    4    0    0 -0.61572996105E+02 -0.12078587579E+03  0.52378318513E+02  0.14534080600E+03  0.00000000000E+00 0.  1.
         13    1    4    4    0    0 -0.26666570143E+02 -0.23245190965E+02 -0.31860637301E+02  0.47608245876E+02  0.00000000000E+00 0. -1.
         21    1    1    2  503  501  0.34201170056E+02 -0.13641542953E+01 -0.14654416332E+03  0.15048844724E+03  0.00000000000E+00 0.  1.
          1    1    1    2  501    0  0.30257564392E+02  0.10245513677E+03  0.27527672944E+01  0.10686511583E+03  0.00000000000E+00 0. -1.
<scales pt_clust_5="13000.00000" pt_clust_6="13000.00000" pt_clust_7="13000.00000" pt_clust_8="13000.00000" pt_clust_9="34.22836" pt_clust_10="128.85625"></scales>
<clustering>
<clus scale="   34.228">  2  9  1 -1</clus>
<clus scale="   80.433">  5  6 -1 -1</clus>
<clus scale="   90.979">  7  8 -1 -1</clus>
<clus scale="   95.796">  1  5  2 -1</clus>
<clus scale="  128.856">  2 10  1 -1</clus>
<clus scale="   34.228">  2  5  1 -1</clus>
</clustering>
</event>
<event>
10    4  0.7697601E-005  0.1119309E+03  0.7546771E-02  0.1258609E+00
          2   -1    0    0  503    0 -0.00000000000E+00  0.00000000000E+00  0.70400643354E+03  0.70400643354E+03  0.00000000000E+00 0. -1.
         21   -1    0    0  501  502  0.00000000000E+00 -0.00000000000E+00 -0.56776062122E+02  0.56776062122E+02  0.00000000000E+00 0. -1.
         24    2    1    2    0    0 -0.49008999927E+02  0.34423596760E+02  0.46181235053E+03  0.47374077272E+03  0.87021874003E+02 0.  0.
         23    2    1    2    0    0  0.79573586450E+02 -0.25754023737E+02  0.17579998165E+03  0.21500692643E+03  0.91253051819E+02 0.  0.
        -11    1    3    3    0    0 -0.68755927661E+02  0.35935894666E+02  0.27048131629E+03  0.28138747054E+03  0.00000000000E+00 0.  1.
         12    1    3    3    0    0  0.19746927734E+02 -0.15122979060E+01  0.19133103424E+03  0.19235330219E+03  0.00000000000E+00 0. -1.
        -13    1    4    4    0    0 -0.12573805384E+02 -0.28918132013E+02  0.42218071667E+02  0.52694634606E+02  0.00000000000E+00 0.  1.
         13    1    4    4    0    0  0.92147391834E+02  0.31641082767E+01  0.13358190998E+03  0.16231229182E+03  0.00000000000E+00 0. -1.
         21    1    1    2  503  502 -0.32603634976E+02  0.17968808886E+02 -0.10397896482E+02  0.38652184385E+02  0.00000000000E+00 0. -1.
          1    1    1    2  501    0  0.20390484537E+01 -0.26638381909E+02  0.20015935731E+02  0.33382612128E+02  0.00000000000E+00 0. -1.
<scales pt_clust_5="13000.00000" pt_clust_6="13000.00000" pt_clust_7="13000.00000" pt_clust_8="13000.00000" pt_clust_9="31.98704" pt_clust_10="26.71631"></scales>
<clustering>
<clus scale="   26.716">  2 10  1 -1</clus>
<clus scale="   31.987">  2  9  1 -1</clus>
<clus scale="   87.022">  5  6 -1 -1</clus>
<clus scale="   91.253">  7  8 -1 -1</clus>
<clus scale="  108.509">  1  5  2 -1</clus>
<clus scale="   26.716">  2  5  1 -1</clus>
</clustering>
</event>
<event>
10    4  0.7697601E-005  0.2108345E+03  0.7546771E-02  0.1167960E+00
         21   -1    0    0  503  502  0.00000000000E+00  0.00000000000E+00  0.53566372945E+03  0.53566372945E+03  0.00000000000E+00 0.  1.
         -1   -1    0    0    0  501 -0.00000000000E+00 -0.00000000000E+00 -0.26634558753E+03  0.26634558753E+03  0.00000000000E+00 0.  1.
         24    2    1    2    0    0 -0.73846445014E+02  0.80923174480E+01 -0.63652398056E+02  0.12654546836E+03  0.80270447499E+02 0.  0.
         23    2    1    2    0    0  0.33009667983E+02  0.15058458537E+03  0.30330640625E+03  0.35190005387E+03  0.89852747919E+02 0.  0.
        -11    1    3    3    0    0 -0.20899611792E+02  0.31471666200E+02 -0.56864034313E+02  0.68269890470E+02  0.00000000000E+00 0.  1.
         12    1    3    3    0    0 -0.52946833223E+02 -0.23379348752E+02 -0.67883637437E+01  0.58275577892E+02  0.00000000000E+00 0. -1.
        -11    1    4    4    0    0  0.59339395392E+02  0.11997175941E+03  0.26158809587E+03  0.29384131568E+03  0.00000000000E+00 0.  1.
         11    1    4    4    0    0 -0.26329727409E+02  0.30612825962E+02  0.41718310383E+02  0.58058738188E+02  0.00000000000E+00 0. -1.
         21    1    1    2  503  501 -0.40732284791E+02  0.50216542669E+02  0.70456958970E+02  0.95629510347E+02  0.00000000000E+00 0. -1.
         -2    1    1    2    0  502  0.81569061822E+02 -0.20889344549E+03 -0.40792825237E+02  0.22793428440E+03  0.00000000000E+00 0.  1.
<scales pt_clust_5="13000.00000" pt_clust_6="13000.00000" pt_clust_7="13000.00000" pt_clust_8="13000.00000" pt_clust_9="64.65926" pt_clust_10="190.72945"></scales>
<clustering>
<clus scale="   64.659">  1  9  2 -1</clus>
<clus scale="   80.270">  5  6 -1 -1</clus>
<clus scale="   89.853">  7  8 -1 -1</clus>
<clus scale="  111.610">  2  5  1 -1</clus>
<clus scale="  190.729">  1 10  2 -1</clus>
<clus scale="   64.659">  1  5  2 -1</clus>
</clustering>
</event>
<event>
10    4  0.7697601E-005  0.1667701E+03  0.7546771E-02  0.1200676E+00
         -1   -1    0    0    0  501 -0.00000000000E+00  0.00000000000E+00  0.79340853998E+03  0.79340853998E+03  0.00000000000E+00 0.  1.
         21   -1    0    0  503  502  0.00000000000E+00 -0.00000000000E+00 -0.12053009362E+03  0.12053009362E+03  0.00000000000E+00 0.  1.
         23    2    1    2    0    0 -0.10375588943E+02 -0.60329705996E+02  0.22465195352E+03  0.24967984407E+03  0.90134333307E+02 0.  0.
         24    2    1    2    0    0 -0.16168453107E+03 -0.47427409070E+02  0.26967824630E+03  0.32800715938E+03  0.80443106345E+02 0.  0.
        -11    1    4    4    0    0 -0.67372409289E+02 -0.56834790031E+02  0.97282820543E+02  0.13127521496E+03  0.00000000000E+00 0.  1.
         12    1    4    4    0    0 -0.94312121782E+02  0.94073809605E+01  0.17239542576E+03  0.19673194442E+03  0.00000000000E+00 0. -1.
        -11    1    3    3    0    0  0.17314685922E+02 -0.70580417080E+02  0.19378840110E+03  0.20696699743E+03  0.00000000000E+00 0.  1.
         11    1    3    3    0    0 -0.27690274865E+02  0.10250711084E+02  0.30863552423E+02  0.42712846639E+02  0.00000000000E+00 0. -1.
         21    1    1    2  503  501  0.75381543982E+02 -0.11466624770E+01 -0.30629644924E+02  0.81374855798E+02  0.00000000000E+00 0.  1.
         -2    1    1    2    0  502  0.96678576031E+02  0.10890377754E+03  0.20917789146E+03  0.25487677435E+03  0.00000000000E+00 0.  1.
<scales pt_clust_5="13000.00000" pt_clust_6="13000.00000" pt_clust_7="13000.00000" pt_clust_8="13000.00000" pt_clust_9="75.39026" pt_clust_10="146.08626"></scales>
<clustering>
<clus scale="   75.390">  2  9  1 -1</clus>
<clus scale="   80.443">  5  6 -1 -1</clus>
<clus scale="   90.134">  7  8 -1 -1</clus>
<clus scale="  108.668">  1  7  2 -1</clus>
<clus scale="  146.086">  2 10  1 -1</clus>
<clus scale="   75.390">  2  5  1 -1</clus>
</clustering>
</event>
<event>
10    4  0.7697601E-005  0.1201531E+03  0.7546771E-02  0.1245241E+00
          2   -1    0    0  503    0 -0.00000000000E+00  0.00000000000E+00  0.61694674657E+03  0.61694674657E+03  0.00000000000E+00 0. -1.
         21   -1    0    0  501  502  0.00000000000E+00 -0.00000000000E+00 -0.42924651305E+02  0.42924651305E+02  0.00000000000E+00 0. -1.
         23    2    1    2    0    0 -0.87966506523E+02  0.27454774335E+02  0.29776560117E+03  0.32387247953E+03  0.87961121248E+02 0.  0.
         24    2    1    2    0    0  0.71308990062E+02 -0.51173775271E+02  0.12076705678E+03  0.16939640650E+03  0.80042071393E+02 0.  0.
        -11    1    4    4    0    0 -0.14611313128E+02 -0.22406441755E+02  0.39359633328E+02  0.47589072687E+02  0.00000000000E+00 0.  1.
         12    1    4    4    0    0  0.85920303190E+02 -0.28767333516E+02  0.81407423456E+02  0.12180733382E+03  0.00000000000E+00 0. -1.
        -11    1    3    3    0    0 -0.58791388852E+02 -0.26548611969E+02  0.17730524578E+03  0.18867539951E+03  0.00000000000E+00 0.  1.
         11    1    3    3    0    0 -0.29175117671E+02  0.54003386305E+02  0.12046035540E+03  0.13519708002E+03  0.00000000000E+00 0. -1.
         21    1    1    2  503  502  0.25007256402E+02 -0.13860696946E+01  0.11854346135E+03  0.12116037426E+03  0.00000000000E+00 0. -1.
          1    1    1    2  501    0 -0.83497399413E+01  0.25105070630E+02  0.36945975951E+02  0.45442137575E+02  0.00000000000E+00 0. -1.
<scales pt_clust_5="13000.00000" pt_clust_6="13000.00000" pt_clust_7="13000.00000" pt_clust_8="13000.00000" pt_clust_9="25.04564" pt_clust_10="25.76657"></scales>
<clustering>
<clus scale="   25.046">  1  9  2 -1</clus>
<clus scale="   25.767">  2 10  1 -1</clus>
<clus scale="   80.042">  5  6 -1 -1</clus>
<clus scale="   87.961">  7  8 -1 -1</clus>
<clus scale="  114.483">  2  5  1 -1</clus>
<clus scale="   25.767">  2  5  1 -1</clus>
</clustering>
</event>
<event>
10    4  0.7697601E-005  0.1161385E+03  0.7546771E-02  0.1252140E+00
          2   -1    0    0  503    0 -0.00000000000E+00  0.00000000000E+00  0.68850915662E+03  0.68850915662E+03  0.00000000000E+00 0. -1.
         21   -1    0    0  501  502  0.00000000000E+00 -0.00000000000E+00 -0.14131802977E+03  0.14131802977E+03  0.00000000000E+00 0. -1.
         23    2    1    2    0    0 -0.46357986845E+02  0.37538920889E+02  0.32427482358E+03  0.34119271488E+03  0.87750065269E+02 0.  0.
         24    2    1    2    0    0  0.12990438141E+03 -0.82055676197E+02  0.14992565542E+03  0.22910552048E+03  0.80020966342E+02 0.  0.
        -13    1    4    4    0    0  0.42011594552E+02 -0.48935353668E+02  0.17636229343E+02  0.66863140076E+02  0.00000000000E+00 0.  1.
         14    1    4    4    0    0  0.87892786856E+02 -0.33120322529E+02  0.13228942608E+03  0.16224238040E+03  0.00000000000E+00 0. -1.
        -13    1    3    3    0    0 -0.39984885180E+02 -0.19916289962E+02  0.98865699576E+02  0.10848906028E+03  0.00000000000E+00 0.  1.
         13    1    3    3    0    0 -0.63731016652E+01  0.57455210851E+02  0.22540912400E+03  0.23270365460E+03  0.00000000000E+00 0. -1.
         21    1    1    2  503  502 -0.65573320647E+02  0.83420395183E+02 -0.58545721449E+02  0.12118755800E+03  0.00000000000E+00 0. -1.
          1    1    1    2  501    0 -0.17973073916E+02 -0.38903639874E+02  0.13153636929E+03  0.13834139304E+03  0.00000000000E+00 0. -1.
<scales pt_clust_5="13000.00000" pt_clust_6="13000.00000" pt_clust_7="13000.00000" pt_clust_8="13000.00000" pt_clust_9="96.67011" pt_clust_10="42.85471"></scales>
<clustering>
<clus scale="   42.855">  2 10  1 -1</clus>
<clus scale="   80.021">  5  6 -1 -1</clus>
<clus scale="   87.750">  7  8 -1 -1</clus>
<clus scale="   96.670">  2  9  1 -1</clus>
<clus scale="  110.415">  2  5  1 -1</clus>
<clus scale="   42.855">  2  5  1 -1</clus>
</clustering>
</event>
<event>
10    4  0.7697601E-005  0.2967704E+03  0.7546771E-02  0.1135740E+00
          2   -1    0    0  503    0 -0.00000000000E+00  0.00000000000E+00  0.15112253301E+04  0.15112253301E+04  0.00000000000E+00 0. -1.
         21   -1    0    0  501  502  0.00000000000E+00 -0.00000000000E+00 -0.10086123471E+03  0.10086123471E+03  0.00000000000E+00 0. -1.
         24    2    1    2    0    0  0.21642277663E+02 -0.73373974436E+01  0.32062009665E+03  0.33179765476E+03  0.82281296411E+02 0.  0.
         23    2    1    2    0    0  0.13305771934E+03  0.23889267737E+03  0.73628970728E+03  0.79058636202E+03  0.90167592789E+02 0.  0.
        -13    1    3    3    0    0  0.36268063230E+02 -0.33231168855E+02  0.13239675282E+03  0.14123945324E+03  0.00000000000E+00 0.  1.
         14    1    3    3    0    0 -0.14625785566E+02  0.25893771411E+02  0.18822334383E+03  0.19055820151E+03  0.00000000000E+00 0. -1.
        -11    1    4    4    0    0  0.69703824830E+02  0.81727292211E+02  0.18590253378E+03  0.21470380890E+03  0.00000000000E+00 0.  1.
         11    1    4    4    0    0  0.63353894510E+02  0.15716538516E+03  0.55038717349E+03  0.57588255312E+03  0.00000000000E+00 0. -1.
         21    1    1    2  503  502  0.18367939879E+02  0.83401681004E+01 -0.88064591275E+01  0.22011209456E+02  0.00000000000E+00 0. -1.
          1    1    1    2  501    0 -0.17306793688E+03 -0.23989544803E+03  0.36226075059E+03  0.46769133857E+03  0.00000000000E+00 0. -1.
<scales pt_clust_5="13000.00000" pt_clust_6="13000.00000" pt_clust_7="13000.00000" pt_clust_8="13000.00000" pt_clust_9="20.17274" pt_clust_10="282.74104"></scales>
<clustering>
<clus scale="   20.173">  2  9  1 -1</clus>
<clus scale="   82.281">  5  6 -1 -1</clus>
<clus scale="   85.663">  1  5  2 -1</clus>
<clus scale="   90.168">  7  8 -1 -1</clus>
<clus scale="  282.741">  2 10  1 -1</clus>
<clus scale="   20.173">  2  5  1 -1</clus>
</clustering>
</event>
<event>
10    4  0.7697601E-005  0.3027795E+03  0.7546771E-02  0.1113651E+00
          2   -1    0    0  502    0 -0.00000000000E+00  0.00000000000E+00  0.14776519326E+04  0.14776519326E+04  0.00000000000E+00 0. -1.
         21   -1    0    0  503  502  0.00000000000E+00 -0.00000000000E+00 -0.17391537073E+03  0.17391537073E+03  0.00000000000E+00 0. -1.
         24    2    1    2    0    0  0.58451856801E+02  0.98155191369E+02  0.87326125691E+03  0.88440364855E+03  0.80830251641E+02 0.  0.
         23    2    1    2    0    0  0.14120123775E+03 -0.27786586916E+03  0.27260059129E+03  0.42435627341E+03  0.92843597658E+02 0.  0.
        -13    1    3    3    0    0  0.52536292720E+01  0.69323582241E+02  0.29962734839E+03  0.30758723572E+03  0.00000000000E+00 0.  1.
         14    1    3    3    0    0  0.53198227529E+02  0.28831609128E+02  0.57363390852E+03  0.57681641283E+03  0.00000000000E+00 0. -1.
        -13    1    4    4    0    0  0.11529622941E+03 -0.18006772896E+03  0.23155817406E+03  0.31517740322E+03  0.00000000000E+00 0. -1.
         13    1    4    4    0    0  0.25905008337E+02 -0.97798140200E+02  0.41042417234E+02  0.10917887019E+03  0.00000000000E+00 0.  1.
         21    1    1    2  503  501  0.15958605065E+01 -0.20179506944E+02  0.15081320398E+02  0.25242929629E+02  0.00000000000E+00 0.  1.
          1    1    1    2  501    0 -0.20124895506E+03  0.19989018474E+03  0.14279339330E+03  0.31756445178E+03  0.00000000000E+00 0. -1.
<scales pt_clust_5="13000.00000" pt_clust_6="13000.00000" pt_clust_7="13000.00000" pt_clust_8="13000.00000" pt_clust_9="20.24251" pt_clust_10="288.19348"></scales>
<clustering>
<clus scale="   20.243">  2  9  1 -1</clus>
<clus scale="   80.830">  5  6 -1 -1</clus>
<clus scale="   92.844">  7  8 -1 -1</clus>
<clus scale="  139.501">  1  5  2 -1</clus>
<clus scale="  288.193">  2 10  1 -1</clus>
<clus scale="   20.243">  2  5  1 -1</clus>
</clustering>
</event>
<event>
10    4  0.7697601E-005  0.3468052E+03  0.7546771E-02  0.1064186E+00
         21   -1    0    0  501  502  0.00000000000E+00  0.00000000000E+00  0.84735685411E+02  0.84735685411E+02  0.00000000000E+00 0. -1.
          2   -1    0    0  503    0 -0.00000000000E+00 -0.00000000000E+00 -0.20498090179E+04  0.20498090179E+04  0.00000000000E+00 0. -1.
         23    2    1    2    0    0 -0.36407407149E+03  0.44640070532E+02 -0.12740077205E+04  0.13290719161E+04  0.93775374036E+02 0.  0.
         24    2    1    2    0    0  0.27846153971E+03 -0.14042179890E+02 -0.40997818066E+03  0.50293397842E+03  0.84394704318E+02 0.  0.
        -13    1    4    4    0    0  0.18393268197E+03  0.30590241099E+02 -0.25138784495E+03  0.31299016428E+03  0.00000000000E+00 0.  1.
         14    1    4    4    0    0  0.94528857736E+02 -0.44632420989E+02 -0.15859033571E+03  0.18994381413E+03  0.00000000000E+00 0. -1.
        -13    1    3    3    0    0 -0.19671886054E+03  0.14655242377E+01 -0.82029592086E+03  0.84355548462E+03  0.00000000000E+00 0.  1.
         13    1    3    3    0    0 -0.16735521096E+03  0.43174546294E+02 -0.45371179969E+03  0.48551643150E+03  0.00000000000E+00 0. -1.
         21    1    1    2  503  502  0.13680950082E+02  0.16797974457E+02 -0.29413377780E+02  0.36530632809E+02  0.00000000000E+00 0. -1.
          1    1    1    2  501    0  0.71931581702E+02 -0.47395865099E+02 -0.25167405354E+03  0.26600817600E+03  0.00000000000E+00 0. -1.
<scales pt_clust_5="13000.00000" pt_clust_6="13000.00000" pt_clust_7="13000.00000" pt_clust_8="13000.00000" pt_clust_9="21.66426" pt_clust_10="86.35608"></scales>
<clustering>
<clus scale="   21.664">  1  9  2 -1</clus>
<clus scale="   84.395">  5  6 -1 -1</clus>
<clus scale="   86.356">  1 10  2 -1</clus>
<clus scale="   93.775">  7  8 -1 -1</clus>
<clus scale="  344.387">  1  5  2 -1</clus>
<clus scale="   21.664">  1  5  2 -1</clus>
</clustering>
</event>
<event>
10    4  0.7697601E-005  0.2943068E+03  0.7546771E-02  0.1113115E+00
          2   -1    0    0  503    0 -0.00000000000E+00  0.00000000000E+00  0.14707061318E+04  0.14707061318E+04  0.00000000000E+00 0. -1.
         21   -1    0    0  501  502  0.00000000000E+00 -0.00000000000E+00 -0.12821736877E+03  0.12821736877E+03  0.00000000000E+00 0. -1.
         24    2    1    2    0    0 -0.74648065189E+02 -0.12448930556E+03  0.19723325230E+03  0.25799115955E+03  0.81169956002E+02 0.  0.
         23    2    1    2    0    0  0.26172982276E+02  0.28275526642E+03  0.29148580894E+03  0.41727064684E+03  0.92278113359E+02 0.  0.
        -11    1    3    3    0    0 -0.21700683507E+02  0.30629163617E+01  0.57461928354E+02  0.61499384806E+02  0.00000000000E+00 0.  1.
         12    1    3    3    0    0 -0.52947381682E+02 -0.12755222192E+03  0.13977132394E+03  0.19649177474E+03  0.00000000000E+00 0. -1.
        -11    1    4    4    0    0  0.36154846563E+02  0.52448088250E+02  0.94950343671E+02  0.11433959355E+03  0.00000000000E+00 0.  1.
         11    1    4    4    0    0 -0.99818642874E+01  0.23030717817E+03  0.19653546527E+03  0.30293105328E+03  0.00000000000E+00 0. -1.
         21    1    1    2  503  502 -0.32385910602E+01  0.63224549273E+02  0.31880827411E+02  0.70881727259E+02  0.00000000000E+00 0.  1.
          1    1    1    2  501    0  0.51713673973E+02 -0.22149051013E+03  0.82188887437E+03  0.85277996691E+03  0.00000000000E+00 0. -1.
<scales pt_clust_5="13000.00000" pt_clust_6="13000.00000" pt_clust_7="13000.00000" pt_clust_8="13000.00000" pt_clust_9="63.30744" pt_clust_10="279.46618"></scales>
<clustering>
<clus scale="   63.307">  2  9  1 -1</clus>
<clus scale="   81.170">  5  6 -1 -1</clus>
<clus scale="   92.278">  7  8 -1 -1</clus>
<clus scale="  153.974">  1  5  2 -1</clus>
<clus scale="  279.466">  2 10  1 -1</clus>
<clus scale="   63.307">  2  5  1 -1</clus>
</clustering>
</event>
<event>
10    4  0.7697601E-005  0.9684322E+02  0.7546771E-02  0.1287580E+00
         21   -1    0    0  501  502  0.00000000000E+00  0.00000000000E+00  0.83185460892E+02  0.83185460892E+02  0.00000000000E+00 0. -1.
          2   -1    0    0  503    0 -0.00000000000E+00 -0.00000000000E+00 -0.17561324831E+04  0.17561324831E+04  0.00000000000E+00 0. -1.
         24    2    1    2    0    0 -0.87156095458E+01  0.56062697437E+02 -0.15655100814E+04  0.15685427251E+04  0.79281003303E+02 0.  0.
         23    2    1    2    0    0 -0.60163721889E+02 -0.23489919466E+02 -0.10599725268E+03  0.14787731969E+03  0.80379315476E+02 0.  0.
        -13    1    3    3    0    0  0.16790677171E+02  0.19533634729E+02 -0.14083479718E+03  0.14317098107E+03  0.00000000000E+00 0.  1.
         14    1    3    3    0    0 -0.25506286717E+02  0.36529062708E+02 -0.14246752842E+04  0.14253717440E+04  0.00000000000E+00 0. -1.
        -11    1    4    4    0    0  0.94357758162E+00 -0.39014738861E+02 -0.30597646306E+02  0.49590887737E+02  0.00000000000E+00 0.  1.
         11    1    4    4    0    0 -0.61107299470E+02  0.15524819395E+02 -0.75399606373E+02  0.98286431958E+02  0.00000000000E+00 0. -1.
         21    1    1    2  503  502  0.81278967971E+01  0.26401415619E+02 -0.22525086949E+02  0.35643751136E+02  0.00000000000E+00 0. -1.
          1    1    1    2  501    0  0.60751434637E+02 -0.58974193590E+02  0.21085398807E+02  0.87254148113E+02  0.00000000000E+00 0. -1.
<scales pt_clust_5="13000.00000" pt_clust_6="13000.00000" pt_clust_7="13000.00000" pt_clust_8="13000.00000" pt_clust_9="27.62422" pt_clust_10="77.76116"></scales>
<clustering>
<clus scale="   27.624">  1  9  2 -1</clus>
<clus scale="   77.761">  1 10  2 -1</clus>
<clus scale="   79.281">  5  6 -1 -1</clus>
<clus scale="   80.379">  7  8 -1 -1</clus>
<clus scale="   95.934">  2  5  1 -1</clus>
<clus scale="   27.624">  1  5  2 -1</clus>
</clustering>
</event>
<event>
10    4  0.7697601E-005  0.1527118E+03  0.7546771E-02  0.1204429E+00
         21   -1    0    0  501  502  0.00000000000E+00  0.00000000000E+00  0.63160281213E+03  0.63160281213E+03  0.00000000000E+00 0.  1.
          2   -1    0    0  503    0 -0.00000000000E+00 -0.00000000000E+00 -0.19288539932E+03  0.19288539932E+03  0.00000000000E+00 0. -1.
         23    2    1    2    0    0 -0.11004076744E+03 -0.17291024131E+02  0.28611956520E+02  0.14097821552E+03  0.81536882340E+02 0.  0.
         24    2    1    2    0    0 -0.12623427278E+03 -0.55681991170E+02  0.26703780562E+03  0.31169649752E+03  0.82522367676E+02 0.  0.
        -13    1    4    4    0    0 -0.13072607059E+03 -0.48444139074E+02  0.26897715560E+03  0.30296014652E+03  0.00000000000E+00 0.  1.
         14    1    4    4    0    0  0.44917978086E+01 -0.72378520957E+01 -0.19393499745E+01  0.87363510023E+01  0.00000000000E+00 0. -1.
        -13    1    3    3    0    0 -0.15385976433E+02 -0.37877916056E+02  0.12712246650E+02  0.42814320156E+02  0.00000000000E+00 0.  1.
         13    1    3    3    0    0 -0.94654791004E+02  0.20586891925E+02  0.15899709870E+02  0.98163895364E+02  0.00000000000E+00 0. -1.
         21    1    1    2  503  502  0.57017638234E+02 -0.20164249733E+02  0.15807324158E+03  0.16924762255E+03  0.00000000000E+00 0.  1.
          1    1    1    2  501    0  0.17925740199E+03  0.93137265034E+02 -0.15005590914E+02  0.20256587586E+03  0.00000000000E+00 0. -1.
<scales pt_clust_5="13000.00000" pt_clust_6="13000.00000" pt_clust_7="13000.00000" pt_clust_8="13000.00000" pt_clust_9="60.47816" pt_clust_10="128.49507"></scales>
<clustering>
<clus scale="   60.478">  1  9  2 -1</clus>
<clus scale="   81.537">  7  8 -1 -1</clus>
<clus scale="   82.522">  5  6 -1 -1</clus>
<clus scale="  130.494">  2  7  1 -1</clus>
<clus scale="  128.495">  1 10  2 -1</clus>
<clus scale="   60.478">  1  5  2 -1</clus>
</clustering>
</event>
<event>
10    4  0.7697601E-005  0.1404295E+03  0.7546771E-02  0.1216737E+00
          2   -1    0    0  503    0 -0.00000000000E+00  0.00000000000E+00  0.50359011129E+03  0.50359011129E+03  0.00000000000E+00 0. -1.
         21   -1    0    0  501  502  0.00000000000E+00 -0.00000000000E+00 -0.43139220560E+03  0.43139220560E+03  0.00000000000E+00 0.  1.
         23    2    1    2    0    0  0.66843901976E+02 -0.13922993891E+03 -0.27092600520E+02  0.17623329619E+03  0.80443039246E+02 0.  0.
         24    2    1    2    0    0 -0.56113218345E+02  0.55283290011E+02 -0.78334571054E+02  0.12549443718E+03  0.58374766059E+02 0.  0.
        -11    1    4    4    0    0 -0.61271326615E+02  0.63115367049E+02 -0.74816335390E+02  0.11547817571E+03  0.00000000000E+00 0.  1.
         12    1    4    4    0    0  0.51581082707E+01 -0.78320770382E+01 -0.35182356644E+01  0.10016261471E+02  0.00000000000E+00 0. -1.
        -13    1    3    3    0    0 -0.71785935335E+01 -0.68078394352E+02  0.50612558129E+01  0.68642671080E+02  0.00000000000E+00 0.  1.
         13    1    3    3    0    0  0.74022495510E+02 -0.71151544555E+02 -0.32153856333E+02  0.10759062511E+03  0.00000000000E+00 0. -1.
         21    1    1    2  503  502 -0.74471483109E+02  0.51524067733E+02 -0.21546007008E+03  0.23371729322E+03  0.00000000000E+00 0.  1.
          1    1    1    2  501    0  0.63740799478E+02  0.32422581163E+02  0.39308514734E+03  0.39953729031E+03  0.00000000000E+00 0. -1.
<scales pt_clust_5="13000.00000" pt_clust_6="13000.00000" pt_clust_7="13000.00000" pt_clust_8="13000.00000" pt_clust_9="79.87821" pt_clust_10="71.51306"></scales>
<clustering>
<clus scale="   58.375">  5  6 -1 -1</clus>
<clus scale="   71.513">  2 10  1 -1</clus>
<clus scale="   79.878">  2  9  1 -1</clus>
<clus scale="   80.443">  7  8 -1 -1</clus>
<clus scale="  129.062">  2  5  1 -1</clus>
<clus scale="   71.513">  2  5  1 -1</clus>
</clustering>
</event>
<event>
10    4  0.7697601E-005  0.1206264E+03  0.7546771E-02  0.1257991E+00
         21   -1    0    0  501  502  0.00000000000E+00  0.00000000000E+00  0.17611367091E+03  0.17611367091E+03  0.00000000000E+00 0. -1.
          2   -1    0    0  503    0 -0.00000000000E+00 -0.00000000000E+00 -0.19743338937E+03  0.19743338937E+03  0.00000000000E+00 0. -1.
         24    2    1    2    0    0 -0.86194949808E+01 -0.32939622486E+02  0.68659121971E+02  0.11082497142E+03  0.80054886401E+02 0.  0.
         23    2    1    2    0    0  0.82104073128E+02 -0.20222226111E+02 -0.45731593230E+02  0.12116407222E+03  0.73751857775E+02 0.  0.
        -11    1    3    3    0    0 -0.17433702757E+02 -0.40306679257E+02  0.28359147831E+01  0.44006872158E+02  0.00000000000E+00 0.  1.
         12    1    3    3    0    0  0.88142077758E+01  0.73670567703E+01  0.65823207188E+02  0.66818099260E+02  0.00000000000E+00 0. -1.
        -11    1    4    4    0    0  0.77325562542E+02  0.10773465792E+02 -0.19990734157E+02  0.80591188351E+02  0.00000000000E+00 0. -1.
         11    1    4    4    0    0  0.47785105857E+01 -0.30995691903E+02 -0.25740859072E+02  0.40572883872E+02  0.00000000000E+00 0.  1.
         21    1    1    2  503  502  0.10591449713E+02 -0.19699977869E+02 -0.16508478163E+01  0.22427510641E+02  0.00000000000E+00 0. -1.
          1    1    1    2  501    0 -0.84076027860E+02  0.72861826466E+02 -0.42596399385E+02  0.11913050599E+03  0.00000000000E+00 0. -1.
<scales pt_clust_5="13000.00000" pt_clust_6="13000.00000" pt_clust_7="13000.00000" pt_clust_8="13000.00000" pt_clust_9="22.36667" pt_clust_10="95.45370"></scales>
<clustering>
<clus scale="   22.367">  2  9  1 -1</clus>
<clus scale="   73.752">  7  8 -1 -1</clus>
<clus scale="   80.055">  5  6 -1 -1</clus>
<clus scale="   87.758">  2  5  1 -1</clus>
<clus scale="   95.454">  1 10  2 -1</clus>
<clus scale="   95.454">  1  5  2 -1</clus>
</clustering>
</event>
<event>
10    4  0.7697601E-005  0.1514434E+03  0.7546771E-02  0.1199618E+00
         -3   -1    0    0    0  501 -0.00000000000E+00  0.00000000000E+00  0.10140370266E+04  0.10140370266E+04  0.00000000000E+00 0.  1.
         21   -1    0    0  501  502  0.00000000000E+00 -0.00000000000E+00 -0.18655297146E+03  0.18655297146E+03  0.00000000000E+00 0.  1.
         24    2    1    2    0    0  0.48071348752E+02 -0.13750068574E+03  0.50527800392E+03  0.53208530851E+03  0.81188799340E+02 0.  0.
         23    2    1    2    0    0  0.11195751800E+03  0.97086953414E+02  0.24067374718E+03  0.29557361675E+03  0.86484379964E+02 0.  0.
        -11    1    3    3    0    0  0.38172753190E+02 -0.49216519360E+02  0.32723060522E+03  0.33310552961E+03  0.00000000000E+00 0.  1.
         12    1    3    3    0    0  0.98985955620E+01 -0.88284166380E+02  0.17804739869E+03  0.19897977889E+03  0.00000000000E+00 0. -1.
        -13    1    4    4    0    0  0.11783694375E+03  0.71210716684E+02  0.16231797464E+03  0.21284650896E+03  0.00000000000E+00 0.  1.
         13    1    4    4    0    0 -0.58794257454E+01  0.25876236731E+02  0.78355772539E+02  0.82727107798E+02  0.00000000000E+00 0. -1.
         21    1    1    2  503  502 -0.38251226508E+02 -0.18154530568E+02 -0.12171116134E+03  0.12886562809E+03  0.00000000000E+00 0.  1.
         -4    1    1    2    0  503 -0.12177764025E+03  0.58568262894E+02  0.20324346539E+03  0.24406544472E+03  0.00000000000E+00 0.  1.
<scales pt_clust_5="13000.00000" pt_clust_6="13000.00000" pt_clust_7="13000.00000" pt_clust_8="13000.00000" pt_clust_9="42.34080" pt_clust_10="144.41040"></scales>
<clustering>
<clus scale="   42.341">  2  9  1 -1</clus>
<clus scale="   81.189">  5  6 -1 -1</clus>
<clus scale="   86.484">  7  8 -1 -1</clus>
<clus scale="  144.410">  2 10  1 -1</clus>
<clus scale="  148.483">  1  5  2 -1</clus>
<clus scale="   42.341">  2  5  1 -1</clus>
</clustering>
</event>
<event>
10    4  0.7697601E-005  0.1825348E+03  0.7546771E-02  0.1197914E+00
          2   -1    0    0  503    0 -0.00000000000E+00  0.00000000000E+00  0.83865479707E+03  0.83865479707E+03  0.00000000000E+00 0. -1.
         21   -1    0    0  501  502  0.00000000000E+00 -0.00000000000E+00 -0.84502357425E+02  0.84502357425E+02  0.00000000000E+00 0. -1.
         24    2    1    2    0    0 -0.29263573021E+02 -0.23767059107E+02  0.23790719735E+03  0.25376722828E+03  0.79854503906E+02 0.  0.
         23    2    1    2    0    0  0.15151401198E+03 -0.33849350341E+02  0.31864693132E+03  0.36744791553E+03  0.96849519560E+02 0.  0.
        -11    1    3    3    0    0 -0.44724778833E+02 -0.37272477365E+02  0.11230953676E+03  0.12650286739E+03  0.00000000000E+00 0.  1.
         12    1    3    3    0    0  0.15461205812E+02  0.13505418258E+02  0.12559766059E+03  0.12726436089E+03  0.00000000000E+00 0. -1.
        -11    1    4    4    0    0  0.69480914996E+02 -0.39263150412E+02  0.24284897604E+03  0.25562632433E+03  0.00000000000E+00 0.  1.
         11    1    4    4    0    0  0.82033096983E+02  0.54138000713E+01  0.75797955283E+02  0.11182159119E+03  0.00000000000E+00 0. -1.
         21    1    1    2  503  502  0.22190789645E+02 -0.16712797948E+02 -0.17170346199E+02  0.32658376397E+02  0.00000000000E+00 0. -1.
          1    1    1    2  501    0 -0.14444122860E+03  0.74329207396E+02  0.21476865717E+03  0.26928363429E+03  0.00000000000E+00 0. -1.
<scales pt_clust_5="13000.00000" pt_clust_6="13000.00000" pt_clust_7="13000.00000" pt_clust_8="13000.00000" pt_clust_9="27.78037" pt_clust_10="154.72269"></scales>
<clustering>
<clus scale="   27.780">  2  9  1 -1</clus>
<clus scale="   79.855">  5  6 -1 -1</clus>
<clus scale="   88.003">  1  5  2 -1</clus>
<clus scale="   96.850">  7  8 -1 -1</clus>
<clus scale="  154.723">  2 10  1 -1</clus>
<clus scale="   27.780">  2  5  1 -1</clus>
</clustering>
</event>
<event>
10    4  0.7697601E-005  0.1786583E+03  0.7546771E-02  0.1189278E+00
         21   -1    0    0  501  502  0.00000000000E+00  0.00000000000E+00  0.15271945928E+03  0.15271945928E+03  0.00000000000E+00 0. -1.
          2   -1    0    0  503    0 -0.00000000000E+00 -0.00000000000E+00 -0.90832946133E+03  0.90832946133E+03  0.00000000000E+00 0. -1.
         24    2    1    2    0    0 -0.75665983216E+02  0.24405620387E+02 -0.38640159843E+03  0.40282089659E+03  0.81470879074E+02 0.  0.
         23    2    1    2    0    0 -0.13018125786E+03  0.32176728751E+02 -0.74115501168E+02  0.18008470899E+03  0.94630297087E+02 0.  0.
        -11    1    3    3    0    0 -0.15895241263E+02 -0.16822530787E+02 -0.24485051429E+02  0.33692343053E+02  0.00000000000E+00 0.  1.
         12    1    3    3    0    0 -0.59770741952E+02  0.41228151174E+02 -0.36191654700E+03  0.36912855354E+03  0.00000000000E+00 0. -1.
        -11    1    4    4    0    0 -0.38605481268E+02 -0.32384915380E+02 -0.11335877793E+02  0.51649472926E+02  0.00000000000E+00 0.  1.
         11    1    4    4    0    0 -0.91575776588E+02  0.64561644132E+02 -0.62779623375E+02  0.12843523606E+03  0.00000000000E+00 0. -1.
         21    1    1    2  503  502 -0.14465773319E+01 -0.25047553121E+02  0.60409290566E+02  0.65412192212E+02  0.00000000000E+00 0. -1.
          1    1    1    2  501    0  0.20729381840E+03 -0.31534796018E+02 -0.35550219302E+03  0.41273112282E+03  0.00000000000E+00 0. -1.
<scales pt_clust_5="13000.00000" pt_clust_6="13000.00000" pt_clust_7="13000.00000" pt_clust_8="13000.00000" pt_clust_9="25.08929" pt_clust_10="151.53845"></scales>
<clustering>
<clus scale="   25.089">  1  9  2 -1</clus>
<clus scale="   81.471">  5  6 -1 -1</clus>
<clus scale="   94.630">  7  8 -1 -1</clus>
<clus scale="  113.455">  2  5  1 -1</clus>
<clus scale="  151.538">  1 10  2 -1</clus>
<clus scale="   25.089">  1  5  2 -1</clus>
</clustering>
</event>
<event>
10    4  0.7697601E-005  0.2753026E+03  0.7546771E-02  0.1148187E+00
         21   -1    0    0  503  502  0.00000000000E+00  0.00000000000E+00  0.65099251483E+03  0.65099251483E+03  0.00000000000E+00 0.  1.
         -1   -1    0    0    0  501 -0.00000000000E+00 -0.00000000000E+00 -0.65333218628E+03  0.65333218628E+03  0.00000000000E+00 0.  1.
         24    2    1    2    0    0  0.23255476486E+02  0.17022077481E+02 -0.10224888180E+03  0.12955441806E+03  0.74154872408E+02 0.  0.
         23    2    1    2    0    0  0.23198372902E+03  0.11493442377E+03  0.14369510443E+03  0.30958564226E+03  0.90380388132E+02 0.  0.
        -13    1    3    3    0    0  0.29050752737E+02 -0.22843945471E+02 -0.33543565121E+02  0.49909546584E+02  0.00000000000E+00 0.  1.
         14    1    3    3    0    0 -0.57952762507E+01  0.39866022952E+02 -0.68705316675E+02  0.79644871475E+02  0.00000000000E+00 0. -1.
        -11    1    4    4    0    0  0.20582277646E+03  0.78240450607E+02  0.14643323298E+03  0.26443765833E+03  0.00000000000E+00 0.  1.
         11    1    4    4    0    0  0.26160952559E+02  0.36693973161E+02 -0.27381285472E+01  0.45147983932E+02  0.00000000000E+00 0. -1.
         21    1    1    2  503  501 -0.79778695695E+02 -0.31435090392E+03  0.29763312160E+03  0.44018928446E+03  0.00000000000E+00 0.  1.
         -2    1    1    2    0  502 -0.17546050981E+03  0.18239440267E+03 -0.34141901569E+03  0.42499535633E+03  0.00000000000E+00 0.  1.
<scales pt_clust_5="13000.00000" pt_clust_6="13000.00000" pt_clust_7="13000.00000" pt_clust_8="13000.00000" pt_clust_9="260.04400" pt_clust_10="251.16738"></scales>
<clustering>
<clus scale="   74.155">  5  6 -1 -1</clus>
<clus scale="   79.558">  2  5  1 -1</clus>
<clus scale="   90.380">  7  8 -1 -1</clus>
<clus scale="  251.167">  1 10  2 -1</clus>
<clus scale="  260.044">  1  9  2 -1</clus>
<clus scale="  251.167">  1  5  2 -1</clus>
</clustering>
</event>
<event>
10    4  0.7697601E-005  0.1271332E+03  0.7546771E-02  0.1243139E+00
         21   -1    0    0  503  502  0.00000000000E+00  0.00000000000E+00  0.40657858157E+03  0.40657858157E+03  0.00000000000E+00 0. -1.
          2   -1    0    0  502    0 -0.00000000000E+00 -0.00000000000E+00 -0.32259404692E+03  0.32259404692E+03  0.00000000000E+00 0. -1.
         23    2    1    2    0    0 -0.15066113603E+02  0.31858205418E+02  0.45871640027E+02  0.11318175557E+03  0.97282934800E+02 0.  0.
         24    2    1    2    0    0  0.40106062849E+02  0.12010825568E+03  0.21489105206E+03  0.26306141634E+03  0.83598176748E+02 0.  0.
        -13    1    4    4    0    0 -0.13053585501E+01  0.29048441105E+02  0.36169649184E+01  0.29301848521E+02  0.00000000000E+00 0.  1.
         14    1    4    4    0    0  0.41411421399E+02  0.91059814572E+02  0.21127408714E+03  0.23375956782E+03  0.00000000000E+00 0. -1.
        -11    1    3    3    0    0  0.26985985424E+02  0.38707643221E+02  0.51908468204E+02  0.70149940302E+02  0.00000000000E+00 0.  1.
         11    1    3    3    0    0 -0.42052099027E+02 -0.68494378030E+01 -0.60368281772E+01  0.43031815267E+02  0.00000000000E+00 0. -1.
         21    1    1    2  503  501 -0.47549930526E+01 -0.45222592488E+02  0.69896068834E+02  0.83385569907E+02  0.00000000000E+00 0. -1.
          1    1    1    2  501    0 -0.20284956194E+02 -0.10674386861E+03 -0.24667422627E+03  0.26954388666E+03  0.00000000000E+00 0. -1.
<scales pt_clust_5="13000.00000" pt_clust_6="13000.00000" pt_clust_7="13000.00000" pt_clust_8="13000.00000" pt_clust_9="45.47189" pt_clust_10="95.78200"></scales>
<clustering>
<clus scale="   45.472">  1  9  2 -1</clus>
<clus scale="   83.598">  5  6 -1 -1</clus>
<clus scale="   97.283">  7  8 -1 -1</clus>
<clus scale="  100.827">  2  7  1 -1</clus>
<clus scale="   95.782">  1 10  2 -1</clus>
<clus scale="   45.472">  1  5  2 -1</clus>
</clustering>
</event>
<event>
10    4  0.7697601E-005  0.1987702E+03  0.7546771E-02  0.1172413E+00
          2   -1    0    0  503    0 -0.00000000000E+00  0.00000000000E+00  0.84612912032E+03  0.84612912032E+03  0.00000000000E+00 0. -1.
         21   -1    0    0  501  502  0.00000000000E+00 -0.00000000000E+00 -0.91258660452E+02  0.91258660452E+02  0.00000000000E+00 0.  1.
         24    2    1    2    0    0  0.35145365659E+01  0.86024464597E+02  0.23777610225E+03  0.26512066926E+03  0.79617422668E+02 0.  0.
         23    2    1    2    0    0  0.97044802474E+02  0.10179685959E+03  0.19196735863E+03  0.25496429169E+03  0.91515184252E+02 0.  0.
        -13    1    3    3    0    0  0.30804102469E+02  0.63366878345E+02  0.20520917741E+03  0.21696787894E+03  0.00000000000E+00 0.  1.
         14    1    3    3    0    0 -0.27289565903E+02  0.22657586252E+02  0.32566924841E+02  0.48152790320E+02  0.00000000000E+00 0. -1.
        -11    1    4    4    0    0 -0.79868672111E+01  0.25164442696E+02  0.77027651567E+02  0.81426643858E+02  0.00000000000E+00 0. -1.
         11    1    4    4    0    0  0.10503166968E+03  0.76632416894E+02  0.11493970706E+03  0.17353764783E+03  0.00000000000E+00 0.  1.
         21    1    1    2  503  502 -0.12839401862E+02  0.25390343198E+02  0.19604394337E+02  0.34552164118E+02  0.00000000000E+00 0. -1.
          1    1    1    2  501    0 -0.87719937178E+02 -0.21321166739E+03  0.30552260466E+03  0.38275065571E+03  0.00000000000E+00 0. -1.
<scales pt_clust_5="13000.00000" pt_clust_6="13000.00000" pt_clust_7="13000.00000" pt_clust_8="13000.00000" pt_clust_9="28.45206" pt_clust_10="176.44997"></scales>
<clustering>
<clus scale="   28.452">  2  9  1 -1</clus>
<clus scale="   79.617">  5  6 -1 -1</clus>
<clus scale="   91.515">  7  8 -1 -1</clus>
<clus scale="  120.296">  1  5  2 -1</clus>
<clus scale="  176.450">  2 10  1 -1</clus>
<clus scale="   28.452">  2  5  1 -1</clus>
</clustering>
</event>
<event>
10    4  0.7697601E-005  0.1562424E+03  0.7546771E-02  0.1207424E+00
          2   -1    0    0  503    0 -0.00000000000E+00  0.00000000000E+00  0.74016275039E+03  0.74016275039E+03  0.00000000000E+00 0. -1.
         21   -1    0    0  501  502  0.00000000000E+00 -0.00000000000E+00 -0.79513355590E+02  0.79513355590E+02  0.00000000000E+00 0. -1.
         24    2    1    2    0    0 -0.32098030817E+02  0.12586517671E+03  0.22165727025E+03  0.26938055332E+03  0.81003770061E+02 0.  0.
         23    2    1    2    0    0 -0.47542611366E+02 -0.46076471254E+02  0.12604679258E+03  0.16913498239E+03  0.91298999173E+02 0.  0.
        -11    1    3    3    0    0 -0.26525993557E+02  0.17962573531E+01  0.59146193103E+02  0.64846950840E+02  0.00000000000E+00 0.  1.
         12    1    3    3    0    0 -0.55720372600E+01  0.12406891936E+03  0.16251107714E+03  0.20453360248E+03  0.00000000000E+00 0. -1.
        -13    1    4    4    0    0  0.18943399452E+02 -0.22554100618E+02  0.79120497704E+02  0.84425073256E+02  0.00000000000E+00 0.  1.
         13    1    4    4    0    0 -0.66486010818E+02 -0.23522370635E+02  0.46926294878E+02  0.84709909136E+02  0.00000000000E+00 0. -1.
         21    1    1    2  503  502  0.11071570130E+03 -0.10350441251E+03  0.14869891718E+03  0.21232639472E+03  0.00000000000E+00 0. -1.
          1    1    1    2  501    0 -0.31075059119E+02  0.23715707054E+02  0.16424641479E+03  0.16883417554E+03  0.00000000000E+00 0. -1.
<scales pt_clust_5="13000.00000" pt_clust_6="13000.00000" pt_clust_7="13000.00000" pt_clust_8="13000.00000" pt_clust_9="133.60415" pt_clust_10="39.09086"></scales>
<clustering>
<clus scale="   39.091">  2 10  1 -1</clus>
<clus scale="   81.004">  5  6 -1 -1</clus>
<clus scale="   91.299">  7  8 -1 -1</clus>
<clus scale="  114.247">  2  7  1 -1</clus>
<clus scale="  133.604">  2  9  1 -1</clus>
<clus scale="   39.091">  2  5  1 -1</clus>
</clustering>
</event>
<event>
10    4  0.7697601E-005  0.1283534E+03  0.7546771E-02  0.1245570E+00
         21   -1    0    0  501  502  0.00000000000E+00  0.00000000000E+00  0.94690255785E+02  0.94690255785E+02  0.00000000000E+00 0. -1.
          2   -1    0    0  503    0 -0.00000000000E+00 -0.00000000000E+00 -0.72241254764E+03  0.72241254764E+03  0.00000000000E+00 0. -1.
         24    2    1    2    0    0 -0.27296224093E+02 -0.40846656942E+02 -0.27517531091E+03  0.29055983065E+03  0.79309710750E+02 0.  0.
         23    2    1    2    0    0 -0.43874382107E+02 -0.34166514950E+02 -0.13817915062E+03  0.17444253047E+03  0.90798714864E+02 0.  0.
        -11    1    3    3    0    0 -0.54594867919E+02 -0.29350956310E+02 -0.15865164000E+03  0.17033032940E+03  0.00000000000E+00 0.  1.
         12    1    3    3    0    0  0.27298643827E+02 -0.11495700632E+02 -0.11652367091E+03  0.12022950125E+03  0.00000000000E+00 0. -1.
        -13    1    4    4    0    0 -0.23792890579E+02  0.30215056467E+02 -0.59094349277E+02  0.70506690434E+02  0.00000000000E+00 0.  1.
         13    1    4    4    0    0 -0.20081491527E+02 -0.64381571418E+02 -0.79084801343E+02  0.10393584003E+03  0.00000000000E+00 0. -1.
         21    1    1    2  503  502  0.15418725339E+03 -0.53985599362E+01 -0.76530594263E+02  0.17222016553E+03  0.00000000000E+00 0. -1.
          1    1    1    2  501    0 -0.83016647194E+02  0.80411731829E+02 -0.13783723606E+03  0.17988027677E+03  0.00000000000E+00 0. -1.
<scales pt_clust_5="13000.00000" pt_clust_6="13000.00000" pt_clust_7="13000.00000" pt_clust_8="13000.00000" pt_clust_9="90.72044" pt_clust_10="113.74037"></scales>
<clustering>
<clus scale="   79.310">  5  6 -1 -1</clus>
<clus scale="   90.799">  7  8 -1 -1</clus>
<clus scale="   93.293">  2  5  1 -1</clus>
<clus scale="  113.740">  1 10  2 -1</clus>
<clus scale="   90.720">  1  9  2 -1</clus>
<clus scale="  113.740">  1  5  2 -1</clus>
</clustering>
</event>
<event>
10    4  0.7697601E-005  0.3179428E+03  0.7546771E-02  0.1104940E+00
         21   -1    0    0  501  502  0.00000000000E+00  0.00000000000E+00  0.26409758597E+03  0.26409758597E+03  0.00000000000E+00 0. -1.
          2   -1    0    0  503    0 -0.00000000000E+00 -0.00000000000E+00 -0.12363205989E+04  0.12363205989E+04  0.00000000000E+00 0. -1.
         24    2    1    2    0    0  0.73002683130E+02  0.10468082088E+03 -0.80028645830E+03  0.81422024849E+03  0.78795505671E+02 0.  0.
         23    2    1    2    0    0  0.55914611346E+02  0.22452713109E+03 -0.15361277801E+03  0.29213748863E+03  0.90601050420E+02 0.  0.
        -11    1    3    3    0    0  0.10449715836E+00  0.51009000714E+02 -0.17068154297E+03  0.17814072579E+03  0.00000000000E+00 0.  1.
         12    1    3    3    0    0  0.72898185972E+02  0.53671820165E+02 -0.62960491533E+03  0.63607952270E+03  0.00000000000E+00 0. -1.
        -11    1    4    4    0    0  0.29067173962E+02  0.43950735273E+02 -0.78904510568E+02  0.94881449826E+02  0.00000000000E+00 0.  1.
         11    1    4    4    0    0  0.26847437384E+02  0.18057639581E+03 -0.74708267446E+02  0.19725603880E+03  0.00000000000E+00 0. -1.
         21    1    1    2  503  502  0.11691267561E+02  0.16347556227E+02 -0.52110613306E+01  0.20762550227E+02  0.00000000000E+00 0. -1.
          1    1    1    2  501    0 -0.14060856204E+03 -0.34555550819E+03 -0.13112715253E+02  0.37329789748E+03  0.00000000000E+00 0. -1.
<scales pt_clust_5="13000.00000" pt_clust_6="13000.00000" pt_clust_7="13000.00000" pt_clust_8="13000.00000" pt_clust_9="20.09797" pt_clust_10="304.76063"></scales>
<clustering>
<clus scale="   20.098">  1  9  2 -1</clus>
<clus scale="   78.796">  5  6 -1 -1</clus>
<clus scale="   90.601">  7  8 -1 -1</clus>
<clus scale="  150.452">  2  5  1 -1</clus>
<clus scale="  304.761">  1 10  2 -1</clus>
<clus scale="   20.098">  1  5  2 -1</clus>
</clustering>
</event>
<event>
10    4  0.7697601E-005  0.1350830E+03  0.7546771E-02  0.1244474E+00
         21   -1    0    0  501  502  0.00000000000E+00  0.00000000000E+00  0.34930043282E+03  0.34930043282E+03  0.00000000000E+00 0. -1.
         -1   -1    0    0    0  501 -0.00000000000E+00 -0.00000000000E+00 -0.14669931026E+03  0.14669931026E+03  0.00000000000E+00 0.  1.
         24    2    1    2    0    0 -0.17842992710E+01  0.39667427950E+01 -0.43668335846E+02  0.92612220483E+02  0.81554773342E+02 0.  0.
         23    2    1    2    0    0 -0.69168890989E+02  0.75164899368E+02  0.76852254018E+02  0.16219046601E+03  0.99826753621E+02 0.  0.
        -11    1    3    3    0    0  0.31307215977E+02 -0.18819121416E+02 -0.50345104335E+01  0.36873396893E+02  0.00000000000E+00 0.  1.
         12    1    3    3    0    0 -0.33091515248E+02  0.22785864211E+02 -0.38633825412E+02  0.55738823590E+02  0.00000000000E+00 0. -1.
        -13    1    4    4    0    0 -0.56149721365E+01  0.56650188277E+02 -0.47378376038E+01  0.57124590581E+02  0.00000000000E+00 0.  1.
         13    1    4    4    0    0 -0.63553918852E+02  0.18514711091E+02  0.81590091621E+02  0.10506587543E+03  0.00000000000E+00 0. -1.
         21    1    1    2  503  502  0.51758546490E+02  0.89298211099E+01  0.13476070634E+03  0.14463449385E+03  0.00000000000E+00 0. -1.
         -2    1    1    2    0  503  0.19194643770E+02 -0.88061463273E+02  0.34656498050E+02  0.96562562726E+02  0.00000000000E+00 0.  1.
<scales pt_clust_5="13000.00000" pt_clust_6="13000.00000" pt_clust_7="13000.00000" pt_clust_8="13000.00000" pt_clust_9="52.52322" pt_clust_10="91.00569"></scales>
<clustering>
<clus scale="   52.523">  1  9  2 -1</clus>
<clus scale="   81.555">  5  6 -1 -1</clus>
<clus scale="   81.819">  2  5  1 -1</clus>
<clus scale="   91.006">  1 10  2 -1</clus>
<clus scale="   99.827">  7  8 -1 -1</clus>
<clus scale="   52.523">  1  5  2 -1</clus>
</clustering>
</event>
<event>
10    4  0.7697601E-005  0.2434306E+03  0.7546771E-02  0.1149484E+00
          2   -1    0    0  503    0 -0.00000000000E+00  0.00000000000E+00  0.12901552556E+04  0.12901552556E+04  0.00000000000E+00 0. -1.
         21   -1    0    0  501  502  0.00000000000E+00 -0.00000000000E+00 -0.11917707074E+03  0.11917707074E+03  0.00000000000E+00 0. -1.
         24    2    1    2    0    0  0.28813419203E+03  0.15211062792E+02  0.72529552109E+03  0.78455737139E+03  0.78892249559E+02 0.  0.
         23    2    1    2    0    0 -0.33055249823E+02 -0.46914795011E+02  0.16842174702E+03  0.20026804471E+03  0.91911682233E+02 0.  0.
        -13    1    3    3    0    0  0.10938568462E+03 -0.25404917581E+01  0.37856741457E+03  0.39406213911E+03  0.00000000000E+00 0.  1.
         14    1    3    3    0    0  0.17874850740E+03  0.17751554550E+02  0.34672810651E+03  0.39049523228E+03  0.00000000000E+00 0. -1.
        -11    1    4    4    0    0  0.22501151426E+02 -0.43923844216E+02  0.10421186521E+03  0.11530706291E+03  0.00000000000E+00 0. -1.
         11    1    4    4    0    0 -0.55556401249E+02 -0.29909507943E+01  0.64209881808E+02  0.84960981799E+02  0.00000000000E+00 0.  1.
         21    1    1    2  503  502 -0.17979217367E+03 -0.39847822534E+01  0.28898126216E+03  0.34036932013E+03  0.00000000000E+00 0. -1.
          1    1    1    2  501    0 -0.75286768538E+02  0.35688514472E+02 -0.11720345376E+02  0.84137590160E+02  0.00000000000E+00 0. -1.
<scales pt_clust_5="13000.00000" pt_clust_6="13000.00000" pt_clust_7="13000.00000" pt_clust_8="13000.00000" pt_clust_9="230.29218" pt_clust_10="83.31727"></scales>
<clustering>
<clus scale="   78.892">  5  6 -1 -1</clus>
<clus scale="   83.317">  2 10  1 -1</clus>
<clus scale="   91.912">  7  8 -1 -1</clus>
<clus scale="  111.589">  2  7  1 -1</clus>
<clus scale="  230.292">  1  9  2 -1</clus>
<clus scale="   83.317">  2  5  1 -1</clus>
</clustering>
</event>
<event>
10    4  0.7697601E-005  0.9969364E+02  0.7546771E-02  0.1286520E+00
         -1   -1    0    0    0  501 -0.00000000000E+00  0.00000000000E+00  0.18956460272E+02  0.18956460272E+02  0.00000000000E+00 0.  1.
         21   -1    0    0  503  502  0.00000000000E+00 -0.00000000000E+00 -0.14692602218E+04  0.14692602218E+04  0.00000000000E+00 0. -1.
         24    2    1    2    0    0 -0.17873129035E+02  0.13576293318E+02 -0.47948121251E+03  0.48666344964E+03  0.80220418719E+02 0.  0.
         23    2    1    2    0    0  0.61686945051E+02  0.39205664776E+02 -0.53532754410E+03  0.54794572897E+03  0.91250090886E+02 0.  0.
        -11    1    3    3    0    0 -0.29119826663E+02  0.69853108675E+01 -0.60753809370E+02  0.67733184081E+02  0.00000000000E+00 0.  1.
         12    1    3    3    0    0  0.11246697628E+02  0.65909824502E+01 -0.41872740314E+03  0.41893026556E+03  0.00000000000E+00 0. -1.
        -13    1    4    4    0    0  0.78603184804E+02  0.52560729943E+01 -0.34582669261E+03  0.35468604185E+03  0.00000000000E+00 0. -1.
         13    1    4    4    0    0 -0.16916239754E+02  0.33949591782E+02 -0.18950085149E+03  0.19325968712E+03  0.00000000000E+00 0.  1.
         21    1    1    2  503  501 -0.11806790707E+02  0.29410668567E+02 -0.19266323628E+03  0.19525242725E+03  0.00000000000E+00 0. -1.
         -2    1    1    2    0  502 -0.32007025308E+02 -0.82192626661E+02 -0.24283176862E+03  0.25835507620E+03  0.00000000000E+00 0.  1.
<scales pt_clust_5="13000.00000" pt_clust_6="13000.00000" pt_clust_7="13000.00000" pt_clust_8="13000.00000" pt_clust_9="31.69208" pt_clust_10="83.76978"></scales>
<clustering>
<clus scale="   31.692">  2  9  1 -1</clus>
<clus scale="   80.220">  5  6 -1 -1</clus>
<clus scale="   83.770">  2 10  1 -1</clus>
<clus scale="   89.708">  1  5  2 -1</clus>
<clus scale="   91.250">  7  8 -1 -1</clus>
<clus scale="   31.692">  2  5  1 -1</clus>
</clustering>
</event>
<event>
10    4  0.7697601E-005  0.1233100E+03  0.7546771E-02  0.1242161E+00
         21   -1    0    0  503  502  0.00000000000E+00  0.00000000000E+00  0.12843282841E+03  0.12843282841E+03  0.00000000000E+00 0.  1.
         -3   -1    0    0    0  501 -0.00000000000E+00 -0.00000000000E+00 -0.40965960394E+03  0.40965960394E+03  0.00000000000E+00 0.  1.
         24    2    1    2    0    0  0.91499946864E+02 -0.51515451034E+02 -0.27531608707E+03  0.30505915833E+03  0.78968729935E+02 0.  0.
         23    2    1    2    0    0  0.17293034472E+02  0.44088006073E+02 -0.22069199222E+02  0.10709112871E+03  0.93480794679E+02 0.  0.
        -13    1    3    3    0    0  0.10208194170E+03 -0.47870114146E+02 -0.27014595936E+03  0.29273043916E+03  0.00000000000E+00 0.  1.
         14    1    3    3    0    0 -0.10581994840E+02 -0.36453368881E+01 -0.51701277118E+01  0.12328719170E+02  0.00000000000E+00 0. -1.
        -13    1    4    4    0    0  0.55000541734E+02  0.25109199576E+02 -0.23719060238E+01  0.60507498978E+02  0.00000000000E+00 0.  1.
         13    1    4    4    0    0 -0.37707507261E+02  0.18978806496E+02 -0.19697293198E+02  0.46583629735E+02  0.00000000000E+00 0. -1.
         21    1    1    2  503  501 -0.21827166457E+02  0.15766107487E+02  0.26729527365E+02  0.37940255323E+02  0.00000000000E+00 0.  1.
         -4    1    1    2    0  502 -0.86965814879E+02 -0.83386625253E+01 -0.10571016600E+02  0.88001889992E+02  0.00000000000E+00 0.  1.
<scales pt_clust_5="13000.00000" pt_clust_6="13000.00000" pt_clust_7="13000.00000" pt_clust_8="13000.00000" pt_clust_9="26.92574" pt_clust_10="95.78004"></scales>
<clustering>
<clus scale="   26.926">  1  9  2 -1</clus>
<clus scale="   78.969">  5  6 -1 -1</clus>
<clus scale="   93.481">  7  8 -1 -1</clus>
<clus scale="   95.780">  1 10  2 -1</clus>
<clus scale="  112.706">  2  5  1 -1</clus>
<clus scale="   26.926">  1  5  2 -1</clus>
</clustering>
</event>
<event>
10    4  0.7697601E-005  0.3372245E+03  0.7546771E-02  0.1094153E+00
          2   -1    0    0  503    0 -0.00000000000E+00  0.00000000000E+00  0.82750166143E+03  0.82750166143E+03  0.00000000000E+00 0. -1.
         21   -1    0    0  501  502  0.00000000000E+00 -0.00000000000E+00 -0.77923746265E+03  0.77923746265E+03  0.00000000000E+00 0.  1.
         23    2    1    2    0    0  0.13322463368E+03 -0.32583503502E+02  0.64751182169E+02  0.17897952419E+03  0.95028768108E+02 0.  0.
         24    2    1    2    0    0 -0.28000531349E+03  0.31320656652E+03  0.49285334519E+03  0.65253349509E+03  0.79963825908E+02 0.  0.
        -13    1    4    4    0    0 -0.24191308334E+03  0.22929426300E+03  0.41194323367E+03  0.52990095933E+03  0.00000000000E+00 0.  1.
         14    1    4    4    0    0 -0.38092230152E+02  0.83912303519E+02  0.80910111520E+02  0.12263253576E+03  0.00000000000E+00 0. -1.
        -13    1    3    3    0    0  0.44333772332E+02 -0.33162581154E+02 -0.17302634459E+02  0.58005355936E+02  0.00000000000E+00 0.  1.
         13    1    3    3    0    0  0.88890861351E+02  0.57907765211E+00  0.82053816628E+02  0.12097416826E+03  0.00000000000E+00 0. -1.
         21    1    1    2  503  502 -0.17651431844E+03 -0.15504756244E+03 -0.16992188703E+03  0.28994913161E+03  0.00000000000E+00 0.  1.
          1    1    1    2  501    0  0.32329499825E+03 -0.12557550058E+03 -0.33941844155E+03  0.48527697319E+03  0.00000000000E+00 0. -1.
<scales pt_clust_5="13000.00000" pt_clust_6="13000.00000" pt_clust_7="13000.00000" pt_clust_8="13000.00000" pt_clust_9="228.45659" pt_clust_10="327.60670"></scales>
<clustering>
<clus scale="   79.964">  5  6 -1 -1</clus>
<clus scale="   95.029">  7  8 -1 -1</clus>
<clus scale="  166.856">  1  7  2 -1</clus>
<clus scale="  228.457">  2  9  1 -1</clus>
<clus scale="  327.607">  2 10  1 -1</clus>
<clus scale="  228.457">  2  5  1 -1</clus>
</clustering>
</event>
<event>
10    4  0.7697601E-005  0.1090190E+03  0.7546771E-02  0.1268441E+00
          2   -1    0    0  502    0 -0.00000000000E+00  0.00000000000E+00  0.12162078360E+04  0.12162078360E+04  0.00000000000E+00 0. -1.
         21   -1    0    0  503  502  0.00000000000E+00 -0.00000000000E+00 -0.35685224657E+02  0.35685224657E+02  0.00000000000E+00 0.  1.
         23    2    1    2    0    0 -0.25464928912E+02  0.82667224577E+02  0.34125519801E+03  0.36525430912E+03  0.97330712205E+02 0.  0.
         24    2    1    2    0    0 -0.65542889396E+02 -0.38749440054E+01  0.18873651038E+03  0.21659118706E+03  0.83542722133E+02 0.  0.
        -11    1    4    4    0    0 -0.55995713196E+02 -0.52067280919E+01  0.43662360552E+02  0.71197132264E+02  0.00000000000E+00 0.  1.
         12    1    4    4    0    0 -0.95471762003E+01  0.13317840865E+01  0.14507414983E+03  0.14539405480E+03  0.00000000000E+00 0. -1.
        -13    1    3    3    0    0 -0.40618669575E+02  0.99258340704E+02  0.29338013043E+03  0.31236836499E+03  0.00000000000E+00 0.  1.
         13    1    3    3    0    0  0.15153740663E+02 -0.16591116127E+02  0.47875067579E+02  0.52885944126E+02  0.00000000000E+00 0. -1.
         21    1    1    2  503  501  0.29884389575E+02 -0.21977434668E+02  0.42904984984E+02  0.56717917022E+02  0.00000000000E+00 0. -1.
          1    1    1    2  501    0  0.61123428734E+02 -0.56814845903E+02  0.60762591799E+03  0.61332964747E+03  0.00000000000E+00 0. -1.
<scales pt_clust_5="13000.00000" pt_clust_6="13000.00000" pt_clust_7="13000.00000" pt_clust_8="13000.00000" pt_clust_9="37.09561" pt_clust_10="87.10349"></scales>
<clustering>
<clus scale="   37.096">  2  9  1 -1</clus>
<clus scale="   83.543">  5  6 -1 -1</clus>
<clus scale="   87.103">  2 10  1 -1</clus>
<clus scale="   96.909">  2  5  1 -1</clus>
<clus scale="   97.331">  7  8 -1 -1</clus>
<clus scale="   37.096">  2  5  1 -1</clus>
</clustering>
</event>
<event>
10    4  0.7697601E-005  0.1664013E+03  0.7546771E-02  0.1183375E+00
         21   -1    0    0  503  502  0.00000000000E+00  0.00000000000E+00  0.40572910853E+03  0.40572910853E+03  0.00000000000E+00 0.  1.
         -1   -1    0    0    0  501 -0.00000000000E+00 -0.00000000000E+00 -0.56213169586E+03  0.56213169586E+03  0.00000000000E+00 0.  1.
         24    2    1    2    0    0 -0.99684998612E+02  0.95021141283E+02 -0.41505763217E+03  0.44453959644E+03  0.79852980751E+02 0.  0.
         23    2    1    2    0    0  0.12840742638E+03 -0.96676394952E+02  0.26177328709E+03  0.32060928277E+03  0.91816479297E+02 0.  0.
        -11    1    3    3    0    0 -0.63713518849E+02  0.21636731597E+02 -0.11202361559E+03  0.13067842626E+03  0.00000000000E+00 0.  1.
         12    1    3    3    0    0 -0.35971479762E+02  0.73384409686E+02 -0.30303401658E+03  0.31386117018E+03  0.00000000000E+00 0. -1.
        -13    1    4    4    0    0  0.46036301894E+02 -0.80937668583E+02  0.18407732869E+03  0.20628793039E+03  0.00000000000E+00 0.  1.
         13    1    4    4    0    0  0.82371124487E+02 -0.15738726368E+02  0.77695958405E+02  0.11432135238E+03  0.00000000000E+00 0. -1.
         21    1    1    2  503  501 -0.15574941924E+02 -0.17085033040E+02  0.97150364280E+02  0.99863258757E+02  0.00000000000E+00 0.  1.
         -2    1    1    2    0  502 -0.13147485846E+02  0.18740286709E+02 -0.10026860653E+03  0.10284866643E+03  0.00000000000E+00 0.  1.
<scales pt_clust_5="13000.00000" pt_clust_6="13000.00000" pt_clust_7="13000.00000" pt_clust_8="13000.00000" pt_clust_9="22.56874" pt_clust_10="22.89225"></scales>
<clustering>
<clus scale="   22.892">  1 10  2 -1</clus>
<clus scale="   22.569">  1  9  2 -1</clus>
<clus scale="   79.853">  5  6 -1 -1</clus>
<clus scale="   91.816">  7  8 -1 -1</clus>
<clus scale="  160.111">  2  5  1 -1</clus>
<clus scale="   22.892">  1  5  2 -1</clus>
</clustering>
</event>
<event>
10    4  0.7697601E-005  0.1124402E+03  0.7546771E-02  0.1263650E+00
          2   -1    0    0  502    0 -0.00000000000E+00  0.00000000000E+00  0.70220560656E+03  0.70220560656E+03  0.00000000000E+00 0. -1.
         21   -1    0    0  503  502  0.00000000000E+00 -0.00000000000E+00 -0.10577785349E+03  0.10577785349E+03  0.00000000000E+00 0. -1.
         24    2    1    2    0    0  0.53833256997E+02 -0.12768211941E+02  0.26955067757E+03  0.28680307157E+03  0.80854111137E+02 0.  0.
         23    2    1    2    0    0  0.57954916035E+02 -0.78974963391E+01  0.32777118616E+02  0.11357189463E+03  0.91668386072E+02 0.  0.
        -11    1    3    3    0    0  0.15151577254E+02 -0.39124540600E+02  0.18934974655E+03  0.19394232774E+03  0.00000000000E+00 0.  1.
         12    1    3    3    0    0  0.38681679743E+02  0.26356328658E+02  0.80200931021E+02  0.92860743830E+02  0.00000000000E+00 0. -1.
        -11    1    4    4    0    0 -0.33969175023E+01  0.32824580150E+02  0.73890251388E-01  0.32999963186E+02  0.00000000000E+00 0.  1.
         11    1    4    4    0    0  0.61351833537E+02 -0.40722076489E+02  0.32703228364E+02  0.80571931448E+02  0.00000000000E+00 0. -1.
         21    1    1    2  503  501 -0.58954153031E+01  0.32831714291E+02 -0.42791781276E+02  0.54256925177E+02  0.00000000000E+00 0. -1.
          1    1    1    2  501    0 -0.10589275773E+03 -0.12166006011E+02  0.33689173816E+03  0.35335156867E+03  0.00000000000E+00 0. -1.
<scales pt_clust_5="13000.00000" pt_clust_6="13000.00000" pt_clust_7="13000.00000" pt_clust_8="13000.00000" pt_clust_9="33.35682" pt_clust_10="65.11304"></scales>
<clustering>
<clus scale="   33.357">  2  9  1 -1</clus>
<clus scale="   80.854">  5  6 -1 -1</clus>
<clus scale="   91.668">  7  8 -1 -1</clus>
<clus scale="   96.963">  1  5  2 -1</clus>
<clus scale="   65.113">  2 10  1 -1</clus>
<clus scale="   33.357">  2  5  1 -1</clus>
</clustering>
</event>
<event>
10    4  0.7697601E-005  0.2448590E+03  0.7546771E-02  0.1139164E+00
         21   -1    0    0  501  502  0.00000000000E+00  0.00000000000E+00  0.60758832480E+03  0.60758832480E+03  0.00000000000E+00 0. -1.
          2   -1    0    0  503    0 -0.00000000000E+00 -0.00000000000E+00 -0.37951505177E+03  0.37951505177E+03  0.00000000000E+00 0. -1.
         24    2    1    2    0    0 -0.85526384996E+02  0.21526590397E+02  0.26997887971E+03  0.29631225643E+03  0.84464200688E+02 0.  0.
         23    2    1    2    0    0  0.22829712884E+03  0.14781770541E+03 -0.20285115016E+03  0.35185981052E+03  0.93204528141E+02 0.  0.
        -11    1    3    3    0    0 -0.82374846748E+02 -0.10859771113E+02  0.14451766644E+03  0.16670004775E+03  0.00000000000E+00 0.  1.
         12    1    3    3    0    0 -0.31515382476E+01  0.32386361510E+02  0.12546121327E+03  0.12961220869E+03  0.00000000000E+00 0. -1.
        -11    1    4    4    0    0  0.14976199327E+03  0.10164041985E+03 -0.18539805306E+03  0.25909818149E+03  0.00000000000E+00 0.  1.
         11    1    4    4    0    0  0.78535135565E+02  0.46177285563E+02 -0.17453097103E+02  0.92761629021E+02  0.00000000000E+00 0. -1.
         21    1    1    2  503  502 -0.37562189258E+02  0.21666299295E+02  0.10529412436E+03  0.11387361069E+03  0.00000000000E+00 0. -1.
          1    1    1    2  501    0 -0.10520855458E+03 -0.19101059510E+03  0.55651419122E+02  0.22505769893E+03  0.00000000000E+00 0. -1.
<scales pt_clust_5="13000.00000" pt_clust_6="13000.00000" pt_clust_7="13000.00000" pt_clust_8="13000.00000" pt_clust_9="43.36296" pt_clust_10="226.42626"></scales>
<clustering>
<clus scale="   43.363">  1  9  2 -1</clus>
<clus scale="   84.464">  5  6 -1 -1</clus>
<clus scale="   93.205">  7  8 -1 -1</clus>
<clus scale="  140.370">  2  5  1 -1</clus>
<clus scale="  226.426">  1 10  2 -1</clus>
<clus scale="   43.363">  1  5  2 -1</clus>
</clustering>
</event>
<event>
10    4  0.7697601E-005  0.1432447E+03  0.7546771E-02  0.1215004E+00
         21   -1    0    0  503  502  0.00000000000E+00  0.00000000000E+00  0.12369974439E+03  0.12369974439E+03  0.00000000000E+00 0.  1.
          2   -1    0    0  502    0 -0.00000000000E+00 -0.00000000000E+00 -0.63020742445E+03  0.63020742445E+03  0.00000000000E+00 0. -1.
         23    2    1    2    0    0  0.30046935781E+02 -0.95234189390E+02  0.56276673327E+01  0.13576099457E+03  0.91798735441E+02 0.  0.
         24    2    1    2    0    0  0.10271497459E+03 -0.56805387704E+01 -0.31340886303E+03  0.33959148636E+03  0.80713243384E+02 0.  0.
        -11    1    4    4    0    0  0.90360367702E+02 -0.23289338800E+02 -0.30015534940E+03  0.31432566412E+03  0.00000000000E+00 0.  1.
         12    1    4    4    0    0  0.12354606891E+02  0.17608800030E+02 -0.13253513632E+02  0.25265822241E+02  0.00000000000E+00 0. -1.
        -13    1    3    3    0    0  0.39950275770E+02 -0.16787448904E+02  0.30363239018E+02  0.52912845874E+02  0.00000000000E+00 0. -1.
         13    1    3    3    0    0 -0.99033399891E+01 -0.78446740486E+02 -0.24735571685E+02  0.82848148696E+02  0.00000000000E+00 0.  1.
         21    1    1    2  503  501 -0.26073648463E+02  0.14233099069E+02  0.75699801983E+01  0.30654866718E+02  0.00000000000E+00 0. -1.
          1    1    1    2  501    0 -0.10668826191E+03  0.86681629091E+02 -0.20629646456E+03  0.24789982118E+03  0.00000000000E+00 0. -1.
<scales pt_clust_5="13000.00000" pt_clust_6="13000.00000" pt_clust_7="13000.00000" pt_clust_8="13000.00000" pt_clust_9="29.70549" pt_clust_10="118.34022"></scales>
<clustering>
<clus scale="   29.705">  1  9  2 -1</clus>
<clus scale="   80.713">  5  6 -1 -1</clus>
<clus scale="   91.799">  7  8 -1 -1</clus>
<clus scale="  126.139">  2  7  1 -1</clus>
<clus scale="  118.340">  1 10  2 -1</clus>
<clus scale="   29.705">  1  5  2 -1</clus>
</clustering>
</event>
<event>
10    4  0.7697601E-005  0.1436628E+03  0.7546771E-02  0.1223500E+00
         21   -1    0    0  501  502  0.00000000000E+00  0.00000000000E+00  0.45894876676E+02  0.45894876676E+02  0.00000000000E+00 0.  1.
          2   -1    0    0  503    0 -0.00000000000E+00 -0.00000000000E+00 -0.16025280337E+04  0.16025280337E+04  0.00000000000E+00 0. -1.
         24    2    1    2    0    0 -0.10050038052E+02  0.58656475401E+02 -0.36813030293E+03  0.38141571121E+03  0.80102680664E+02 0.  0.
         23    2    1    2    0    0  0.10793010628E+03  0.36401844349E+00 -0.41981114610E+03  0.44545832477E+03  0.10267755531E+03 0.  0.
        -13    1    3    3    0    0 -0.39653016637E+02  0.45946484359E+02 -0.29966920761E+03  0.30575329130E+03  0.00000000000E+00 0.  1.
         14    1    3    3    0    0  0.29602978585E+02  0.12709991043E+02 -0.68461095324E+02  0.75662419908E+02  0.00000000000E+00 0. -1.
        -13    1    4    4    0    0  0.10267650533E+03 -0.34919430340E+02 -0.25996377864E+03  0.28167889088E+03  0.00000000000E+00 0.  1.
         13    1    4    4    0    0  0.52536009504E+01  0.35283448784E+02 -0.15984736747E+03  0.16377943390E+03  0.00000000000E+00 0. -1.
         21    1    1    2  503  502 -0.17028116839E+02  0.24861912369E+02  0.11835099889E+02  0.32375006396E+02  0.00000000000E+00 0. -1.
          1    1    1    2  501    0 -0.80851951391E+02 -0.83882406214E+02 -0.78052680789E+03  0.78917386801E+03  0.00000000000E+00 0. -1.
<scales pt_clust_5="13000.00000" pt_clust_6="13000.00000" pt_clust_7="13000.00000" pt_clust_8="13000.00000" pt_clust_9="30.13422" pt_clust_10="100.48054"></scales>
<clustering>
<clus scale="   30.134">  1  9  2 -1</clus>
<clus scale="   80.103">  5  6 -1 -1</clus>
<clus scale="  102.678">  7  8 -1 -1</clus>
<clus scale="  104.589">  2  5  1 -1</clus>
<clus scale="  100.481">  1 10  2 -1</clus>
<clus scale="   30.134">  1  5  2 -1</clus>
</clustering>
</event>
<event>
10    4  0.7697601E-005  0.1659306E+03  0.7546771E-02  0.1183606E+00
          2   -1    0    0  503    0 -0.00000000000E+00  0.00000000000E+00  0.23557832295E+04  0.23557832295E+04  0.00000000000E+00 0. -1.
         21   -1    0    0  501  502  0.00000000000E+00 -0.00000000000E+00 -0.15640524602E+03  0.15640524602E+03  0.00000000000E+00 0.  1.
         24    2    1    2    0    0  0.67098748976E+02  0.64946736114E+02  0.47375438605E+03  0.48979380640E+03  0.82063596319E+02 0.  0.
         23    2    1    2    0    0 -0.15946693487E+03 -0.14027650323E+03  0.99353829940E+03  0.10201396480E+04  0.91974716484E+02 0.  0.
        -13    1    3    3    0    0  0.56757798649E+02  0.50985669126E+01  0.15143935104E+03  0.16180642798E+03  0.00000000000E+00 0.  1.
         14    1    3    3    0    0  0.10340950328E+02  0.59848169201E+02  0.32231503501E+03  0.32798737842E+03  0.00000000000E+00 0. -1.
        -13    1    4    4    0    0 -0.39299873294E+02 -0.26700146206E+02  0.91791605264E+02  0.10335896983E+03  0.00000000000E+00 0.  1.
         13    1    4    4    0    0 -0.12016706158E+03 -0.11357635702E+03  0.90174669413E+03  0.91678067821E+03  0.00000000000E+00 0. -1.
         21    1    1    2  503  502  0.17481962670E+03 -0.88638047611E+01 -0.72223971304E+02  0.18935884174E+03  0.00000000000E+00 0.  1.
          1    1    1    2  501    0 -0.82451440799E+02  0.84193571873E+02  0.80430926938E+03  0.81289617938E+03  0.00000000000E+00 0. -1.
<scales pt_clust_5="13000.00000" pt_clust_6="13000.00000" pt_clust_7="13000.00000" pt_clust_8="13000.00000" pt_clust_9="121.80433" pt_clust_10="117.84232"></scales>
<clustering>
<clus scale="   82.064">  5  6 -1 -1</clus>
<clus scale="   91.975">  7  8 -1 -1</clus>
<clus scale="  117.842">  2 10  1 -1</clus>
<clus scale="  121.804">  2  9  1 -1</clus>
<clus scale="  160.649">  1  5  2 -1</clus>
<clus scale="  117.842">  2  5  1 -1</clus>
</clustering>
</event>
<event>
10    4  0.7697601E-005  0.2092417E+03  0.7546771E-02  0.1143160E+00
         21   -1    0    0  503  502  0.00000000000E+00  0.00000000000E+00  0.35838821053E+03  0.35838821053E+03  0.00000000000E+00 0. -1.
          2   -1    0    0  502    0 -0.00000000000E+00 -0.00000000000E+00 -0.29966731559E+03  0.29966731559E+03  0.00000000000E+00 0. -1.
         24    2    1    2    0    0  0.22332131004E+03  0.81631959877E+02 -0.15713059620E+03  0.29610420639E+03  0.80321182675E+02 0.  0.
         23    2    1    2    0    0 -0.10164921947E+03 -0.37525171118E+02  0.65022865736E+02  0.15638779949E+03  0.92132884868E+02 0.  0.
        -13    1    3    3    0    0  0.76132603102E+02  0.69767955380E+02 -0.62002858679E+02  0.12044955516E+03  0.00000000000E+00 0.  1.
         14    1    3    3    0    0  0.14718870694E+03  0.11864004497E+02 -0.95127737525E+02  0.17565465124E+03  0.00000000000E+00 0. -1.
        -11    1    4    4    0    0 -0.93357361869E+02 -0.61610882086E+02  0.35409043427E+02  0.11732560745E+03  0.00000000000E+00 0.  1.
         11    1    4    4    0    0 -0.82918576009E+01  0.24085710968E+02  0.29613822308E+02  0.39062192041E+02  0.00000000000E+00 0. -1.
         21    1    1    2  503  501 -0.18100593430E+02  0.10374489066E+02  0.36007278921E+02  0.41614728657E+02  0.00000000000E+00 0. -1.
          1    1    1    2  501    0 -0.10357149714E+03 -0.54481277825E+02  0.11482134649E+03  0.16394879159E+03  0.00000000000E+00 0. -1.
<scales pt_clust_5="13000.00000" pt_clust_6="13000.00000" pt_clust_7="13000.00000" pt_clust_8="13000.00000" pt_clust_9="20.86292" pt_clust_10="122.14886"></scales>
<clustering>
<clus scale="   20.863">  1  9  2 -1</clus>
<clus scale="   80.321">  5  6 -1 -1</clus>
<clus scale="   92.133">  7  8 -1 -1</clus>
<clus scale="  122.149">  1 10  2 -1</clus>
<clus scale="  204.316">  2  5  1 -1</clus>
<clus scale="   20.863">  1  5  2 -1</clus>
</clustering>
</event>
<event>
10    4  0.7697601E-005  0.1480916E+03  0.7546771E-02  0.1206160E+00
          2   -1    0    0  503    0 -0.00000000000E+00  0.00000000000E+00  0.65406425673E+03  0.65406425673E+03  0.00000000000E+00 0. -1.
         21   -1    0    0  501  502  0.00000000000E+00 -0.00000000000E+00 -0.82351590081E+02  0.82351590081E+02  0.00000000000E+00 0.  1.
         23    2    1    2    0    0 -0.62840838730E+02 -0.10220655737E+02  0.94918341899E+02  0.14996734814E+03  0.97094186565E+02 0.  0.
         24    2    1    2    0    0  0.15978367053E+03  0.21908250127E+00  0.26854876376E+03  0.32272269701E+03  0.80626492448E+02 0.  0.
        -11    1    4    4    0    0  0.56745293242E+02 -0.32047494176E+02  0.63538672584E+02  0.91017762562E+02  0.00000000000E+00 0.  1.
         12    1    4    4    0    0  0.10303837729E+03  0.32266576677E+02  0.20501009117E+03  0.23170493445E+03  0.00000000000E+00 0. -1.
        -11    1    3    3    0    0  0.92952810460E+01 -0.33383754791E+02  0.97965628775E+01  0.36011803313E+02  0.00000000000E+00 0.  1.
         11    1    3    3    0    0 -0.72136119776E+02  0.23163099054E+02  0.85121779022E+02  0.11395554483E+03  0.00000000000E+00 0. -1.
         21    1    1    2  503  502 -0.52819544448E+01  0.54440250999E+02  0.42867431425E+02  0.69492853219E+02  0.00000000000E+00 0. -1.
          1    1    1    2  501    0 -0.91660877356E+02 -0.44438677764E+02  0.16537812957E+03  0.19423294844E+03  0.00000000000E+00 0. -1.
<scales pt_clust_5="13000.00000" pt_clust_6="13000.00000" pt_clust_7="13000.00000" pt_clust_8="13000.00000" pt_clust_9="54.69589" pt_clust_10="98.48041"></scales>
<clustering>
<clus scale="   54.696">  2  9  1 -1</clus>
<clus scale="   80.626">  5  6 -1 -1</clus>
<clus scale="   97.094">  7  8 -1 -1</clus>
<clus scale="   98.480">  2 10  1 -1</clus>
<clus scale="  137.857">  2  5  1 -1</clus>
<clus scale="   54.696">  2  5  1 -1</clus>
</clustering>
</event>
<event>
10    4  0.7697601E-005  0.1346005E+03  0.7546771E-02  0.1230125E+00
          2   -1    0    0  502    0 -0.00000000000E+00  0.00000000000E+00  0.94504601966E+03  0.94504601966E+03  0.00000000000E+00 0. -1.
         21   -1    0    0  503  502  0.00000000000E+00 -0.00000000000E+00 -0.47343242291E+02  0.47343242291E+02  0.00000000000E+00 0. -1.
         23    2    1    2    0    0  0.40779490216E+02  0.38444902008E+02  0.11771670947E+03  0.15946217279E+03  0.91814941873E+02 0.  0.
         24    2    1    2    0    0  0.71455116241E+02 -0.34206256004E+02  0.42452170119E+03  0.43955816859E+03  0.81956129756E+02 0.  0.
        -11    1    4    4    0    0  0.56374492275E+02 -0.61094520722E+02  0.30539983346E+03  0.31651174089E+03  0.00000000000E+00 0.  1.
         12    1    4    4    0    0  0.15080623966E+02  0.26888264718E+02  0.11912186772E+03  0.12304642770E+03  0.00000000000E+00 0. -1.
        -13    1    3    3    0    0  0.62099922500E+02  0.31770955233E+02  0.44090874244E+02  0.82521507272E+02  0.00000000000E+00 0. -1.
         13    1    3    3    0    0 -0.21320432284E+02  0.66739467755E+01  0.73625835224E+02  0.76940665521E+02  0.00000000000E+00 0.  1.
         21    1    1    2  503  501  0.21355837112E+02 -0.79024382445E+01  0.14114296808E+02  0.26790552128E+02  0.00000000000E+00 0. -1.
          1    1    1    2  501    0 -0.13359044357E+03  0.36637922406E+01  0.34135006991E+03  0.36657836844E+03  0.00000000000E+00 0. -1.
<scales pt_clust_5="13000.00000" pt_clust_6="13000.00000" pt_clust_7="13000.00000" pt_clust_8="13000.00000" pt_clust_9="22.77104" pt_clust_10="106.77305"></scales>
<clustering>
<clus scale="   22.771">  2  9  1 -1</clus>
<clus scale="   81.956">  5  6 -1 -1</clus>
<clus scale="   91.815">  7  8 -1 -1</clus>
<clus scale="  110.827">  1  7  2 -1</clus>
<clus scale="  106.773">  2 10  1 -1</clus>
<clus scale="   22.771">  2  5  1 -1</clus>
</clustering>
</event>
<event>
10    4  0.7697601E-005  0.1424701E+03  0.7546771E-02  0.1226120E+00
          2   -1    0    0  503    0 -0.00000000000E+00  0.00000000000E+00  0.73176578079E+03  0.73176578079E+03  0.00000000000E+00 0. -1.
         21   -1    0    0  501  502  0.00000000000E+00 -0.00000000000E+00 -0.59454875376E+02  0.59454875376E+02  0.00000000000E+00 0.  1.
         23    2    1    2    0    0  0.28166149299E+02 -0.23828465104E+02  0.10791587530E+03  0.14735176478E+03  0.93303690856E+02 0.  0.
         24    2    1    2    0    0  0.10070371472E+02  0.14075388297E+03  0.34524431074E+03  0.38188090126E+03  0.82014149390E+02 0.  0.
        -13    1    4    4    0    0  0.41193682704E+00  0.14743804326E+03  0.28915279123E+03  0.32457276991E+03  0.00000000000E+00 0.  1.
         14    1    4    4    0    0  0.96584346447E+01 -0.66841602863E+01  0.56091519504E+02  0.57308131350E+02  0.00000000000E+00 0. -1.
        -11    1    3    3    0    0  0.52008344628E+02 -0.13620713749E+02  0.22844143926E+02  0.58414438847E+02  0.00000000000E+00 0.  1.
         11    1    3    3    0    0 -0.23842195329E+02 -0.10207751355E+02  0.85071731372E+02  0.88937325935E+02  0.00000000000E+00 0. -1.
         21    1    1    2  503  502 -0.10403544158E+02 -0.20564080821E+02  0.24190049084E+01  0.23172542713E+02  0.00000000000E+00 0.  1.
          1    1    1    2  501    0 -0.27832976613E+02 -0.96361337044E+02  0.21673171447E+03  0.23881544741E+03  0.00000000000E+00 0. -1.
<scales pt_clust_5="13000.00000" pt_clust_6="13000.00000" pt_clust_7="13000.00000" pt_clust_8="13000.00000" pt_clust_9="23.04594" pt_clust_10="116.49637"></scales>
<clustering>
<clus scale="   23.046">  2  9  1 -1</clus>
<clus scale="   82.014">  5  6 -1 -1</clus>
<clus scale="   93.304">  7  8 -1 -1</clus>
<clus scale="  101.542">  1  7  2 -1</clus>
<clus scale="  116.496">  2 10  1 -1</clus>
<clus scale="   23.046">  2  5  1 -1</clus>
</clustering>
</event>
<event>
10    4  0.7697601E-005  0.2962911E+03  0.7546771E-02  0.1087109E+00
         21   -1    0    0  501  502  0.00000000000E+00  0.00000000000E+00  0.10602094600E+03  0.10602094600E+03  0.00000000000E+00 0. -1.
          2   -1    0    0  503    0 -0.00000000000E+00 -0.00000000000E+00 -0.77498944505E+03  0.77498944505E+03  0.00000000000E+00 0. -1.
         24    2    1    2    0    0 -0.61178419031E+01  0.51358433880E+02 -0.14866824900E+03  0.17773002000E+03  0.82526329307E+02 0.  0.
         23    2    1    2    0    0 -0.54420600602E+02  0.15747667464E+03 -0.20217406606E+03  0.27679712260E+03  0.89340860005E+02 0.  0.
        -11    1    3    3    0    0 -0.21848648552E+02  0.45775577351E+02 -0.15240570138E+03  0.16062460813E+03  0.00000000000E+00 0.  1.
         12    1    3    3    0    0  0.15730806649E+02  0.55828565292E+01  0.37374523805E+01  0.17105411867E+02  0.00000000000E+00 0. -1.
        -11    1    4    4    0    0 -0.19702802900E+02  0.15169196127E+03 -0.17427468099E+03  0.23188427285E+03  0.00000000000E+00 0. -1.
         11    1    4    4    0    0 -0.34717797702E+02  0.57847133677E+01 -0.27899385062E+02  0.44912849752E+02  0.00000000000E+00 0.  1.
         21    1    1    2  503  502  0.14889252053E+02  0.21160189514E+02  0.58778680076E+01  0.26532862252E+02  0.00000000000E+00 0. -1.
          1    1    1    2  501    0  0.45649190452E+02 -0.22999529804E+03 -0.32400405200E+03  0.39995038620E+03  0.00000000000E+00 0. -1.
<scales pt_clust_5="13000.00000" pt_clust_6="13000.00000" pt_clust_7="13000.00000" pt_clust_8="13000.00000" pt_clust_9="25.87361" pt_clust_10="227.07026"></scales>
<clustering>
<clus scale="   25.874">  1  9  2 -1</clus>
<clus scale="   82.526">  5  6 -1 -1</clus>
<clus scale="   89.341">  7  8 -1 -1</clus>
<clus scale="   92.855">  5  7 -1 -1</clus>
<clus scale="  227.070">  1 10  2 -1</clus>
<clus scale="   25.874">  1  5  2 -1</clus>
</clustering>
</event>
<event>
10    4  0.7697601E-005  0.9907470E+02  0.7546771E-02  0.1288115E+00
         21   -1    0    0  503  502  0.00000000000E+00  0.00000000000E+00  0.17098056338E+03  0.17098056338E+03  0.00000000000E+00 0. -1.
         -1   -1    0    0    0  501 -0.00000000000E+00 -0.00000000000E+00 -0.23763538236E+03  0.23763538236E+03  0.00000000000E+00 0.  1.
         23    2    1    2    0    0 -0.11402349908E+02  0.40236948817E+02 -0.70198531431E+02  0.12241227436E+03  0.91147712349E+02 0.  0.
         24    2    1    2    0    0 -0.17382900325E+02 -0.33266451770E+02  0.59553650585E+02  0.10637278867E+03  0.79747795174E+02 0.  0.
        -11    1    4    4    0    0 -0.12474440102E+02 -0.24230442644E+02 -0.15003404507E+02  0.31109936570E+02  0.00000000000E+00 0.  1.
         12    1    4    4    0    0 -0.49084602224E+01 -0.90360091260E+01  0.74557055092E+02  0.75262852103E+02  0.00000000000E+00 0. -1.
        -13    1    3    3    0    0  0.15736713224E+01  0.67060450885E+02 -0.33017484595E+02  0.74764529045E+02  0.00000000000E+00 0.  1.
         13    1    3    3    0    0 -0.12976021230E+02 -0.26823502069E+02 -0.37181046835E+02  0.47647745319E+02  0.00000000000E+00 0. -1.
         21    1    1    2  503  501  0.51311167314E+02  0.66191855051E+01  0.49191794354E+02  0.71389650087E+02  0.00000000000E+00 0. -1.
         -2    1    1    2    0  502 -0.22525917082E+02 -0.13589682551E+02 -0.10520173249E+03  0.10844123261E+03  0.00000000000E+00 0.  1.
<scales pt_clust_5="13000.00000" pt_clust_6="13000.00000" pt_clust_7="13000.00000" pt_clust_8="13000.00000" pt_clust_9="43.32881" pt_clust_10="26.30774"></scales>
<clustering>
<clus scale="   26.308">  1 10  2 -1</clus>
<clus scale="   43.329">  1  9  2 -1</clus>
<clus scale="   79.748">  5  6 -1 -1</clus>
<clus scale="   88.700">  1  5  2 -1</clus>
<clus scale="   91.148">  7  8 -1 -1</clus>
<clus scale="   26.308">  1  5  2 -1</clus>
</clustering>
</event>
<event>
10    4  0.7697601E-005  0.1400894E+03  0.7546771E-02  0.1231351E+00
         21   -1    0    0  501  502  0.00000000000E+00  0.00000000000E+00  0.72810738833E+03  0.72810738833E+03  0.00000000000E+00 0.  1.
          4   -1    0    0  503    0 -0.00000000000E+00 -0.00000000000E+00 -0.80096592455E+02  0.80096592455E+02  0.00000000000E+00 0. -1.
         24    2    1    2    0    0 -0.82626202612E+01 -0.49450682666E+02  0.11397403590E+03  0.14892032822E+03  0.81691752272E+02 0.  0.
         23    2    1    2    0    0  0.33458801019E+02  0.11158731782E+03  0.24068730436E+03  0.28383381483E+03  0.95184216629E+02 0.  0.
        -13    1    3    3    0    0  0.40865946952E+01 -0.70709076035E+02  0.90580534917E+02  0.11498394234E+03  0.00000000000E+00 0.  1.
         14    1    3    3    0    0 -0.12349214956E+02  0.21258393369E+02  0.23393500981E+02  0.33936385884E+02  0.00000000000E+00 0. -1.
        -11    1    4    4    0    0 -0.19104196532E+02  0.47032232170E+02  0.34235276393E+02  0.61229529948E+02  0.00000000000E+00 0.  1.
         11    1    4    4    0    0  0.52562997550E+02  0.64555085652E+02  0.20645202797E+03  0.22260428488E+03  0.00000000000E+00 0. -1.
         21    1    1    2  503  502 -0.12394537347E+03 -0.19539795748E+02  0.17756296699E+03  0.21742324270E+03  0.00000000000E+00 0. -1.
          3    1    1    2  501    0  0.98749192710E+02 -0.42596839408E+02  0.11578648863E+03  0.15802659504E+03  0.00000000000E+00 0. -1.
<scales pt_clust_5="13000.00000" pt_clust_6="13000.00000" pt_clust_7="13000.00000" pt_clust_8="13000.00000" pt_clust_9="102.78618" pt_clust_10="112.79306"></scales>
<clustering>
<clus scale="   81.692">  5  6 -1 -1</clus>
<clus scale="   95.184">  7  8 -1 -1</clus>
<clus scale="   95.850">  2  5  1 -1</clus>
<clus scale="  112.793">  1 10  2 -1</clus>
<clus scale="  102.786">  1  9  2 -1</clus>
<clus scale="  112.793">  1  5  2 -1</clus>
</clustering>
</event>
<event>
10    4  0.7697601E-005  0.1663175E+03  0.7546771E-02  0.1214190E+00
         21   -1    0    0  501  502  0.00000000000E+00  0.00000000000E+00  0.15871962623E+03  0.15871962623E+03  0.00000000000E+00 0. -1.
          2   -1    0    0  503    0 -0.00000000000E+00 -0.00000000000E+00 -0.67893563977E+03  0.67893563977E+03  0.00000000000E+00 0. -1.
         24    2    1    2    0    0 -0.79847875792E+01 -0.44472199596E+01 -0.27824035006E+02  0.85663512992E+02  0.80501713871E+02 0.  0.
         23    2    1    2    0    0 -0.12288052858E+03 -0.32578834198E+02 -0.36170745604E+03  0.39428471075E+03  0.92017088843E+02 0.  0.
        -11    1    3    3    0    0  0.48245374831E+01  0.28629158718E+02 -0.38867726067E+02  0.48513967272E+02  0.00000000000E+00 0.  1.
         12    1    3    3    0    0 -0.12809325062E+02 -0.33076378677E+02  0.11043691061E+02  0.37149545720E+02  0.00000000000E+00 0. -1.
        -11    1    4    4    0    0 -0.11245259139E+03 -0.58152628209E+02 -0.26460592716E+03  0.29333191126E+03  0.00000000000E+00 0. -1.
         11    1    4    4    0    0 -0.10427937187E+02  0.25573794011E+02 -0.97101528877E+02  0.10095279949E+03  0.00000000000E+00 0.  1.
         21    1    1    2  503  502 -0.16420043447E+02  0.20255026405E+02  0.88969929578E+02  0.92712093551E+02  0.00000000000E+00 0. -1.
          1    1    1    2  501    0  0.14728535960E+03  0.16771027753E+02 -0.21965445208E+03  0.26499494871E+03  0.00000000000E+00 0. -1.
<scales pt_clust_5="13000.00000" pt_clust_6="13000.00000" pt_clust_7="13000.00000" pt_clust_8="13000.00000" pt_clust_9="26.07458" pt_clust_10="138.54368"></scales>
<clustering>
<clus scale="   26.075">  1  9  2 -1</clus>
<clus scale="   80.502">  5  6 -1 -1</clus>
<clus scale="   81.991">  2  5  1 -1</clus>
<clus scale="   92.017">  7  8 -1 -1</clus>
<clus scale="  138.544">  1 10  2 -1</clus>
<clus scale="   26.075">  1  5  2 -1</clus>
</clustering>
</event>
<event>
10    4  0.7697601E-005  0.3323613E+03  0.7546771E-02  0.1114520E+00
         21   -1    0    0  503  502  0.00000000000E+00  0.00000000000E+00  0.33824088168E+03  0.33824088168E+03  0.00000000000E+00 0.  1.
         -1   -1    0    0    0  501 -0.00000000000E+00 -0.00000000000E+00 -0.67036035355E+03  0.67036035355E+03  0.00000000000E+00 0.  1.
         24    2    1    2    0    0  0.56910712634E+02  0.22814923779E+02 -0.17663613659E+03  0.20456224070E+03  0.82982140321E+02 0.  0.
         23    2    1    2    0    0 -0.44605734782E+02  0.24375880934E+03 -0.15835030867E+03  0.30757932993E+03  0.90123222549E+02 0.  0.
        -11    1    3    3    0    0  0.11575954990E+02  0.39275161354E+02 -0.13424395757E+03  0.14034949653E+03  0.00000000000E+00 0.  1.
         12    1    3    3    0    0  0.45334757643E+02 -0.16460237575E+02 -0.42392179021E+02  0.64212744169E+02  0.00000000000E+00 0. -1.
        -11    1    4    4    0    0  0.73083560931E+01  0.18253549637E+03 -0.99276725279E+02  0.20791461634E+03  0.00000000000E+00 0.  1.
         11    1    4    4    0    0 -0.51914090875E+02  0.61223312962E+02 -0.59073583390E+02  0.99664713595E+02  0.00000000000E+00 0. -1.
         21    1    1    2  503  501 -0.54191842340E+02  0.10250605073E+03 -0.39750371189E+02  0.12257380724E+03  0.00000000000E+00 0.  1.
         -2    1    1    2    0  502  0.41886864488E+02 -0.36907978385E+03  0.42617344574E+02  0.37388585734E+03  0.00000000000E+00 0.  1.
<scales pt_clust_5="13000.00000" pt_clust_6="13000.00000" pt_clust_7="13000.00000" pt_clust_8="13000.00000" pt_clust_9="115.32400" pt_clust_10="319.90910"></scales>
<clustering>
<clus scale="   82.982">  5  6 -1 -1</clus>
<clus scale="   90.123">  7  8 -1 -1</clus>
<clus scale="  103.176">  2  5  1 -1</clus>
<clus scale="  115.324">  2  9  1 -1</clus>
<clus scale="  319.909">  1 10  2 -1</clus>
<clus scale="  319.909">  1  5  2 -1</clus>
</clustering>
</event>
<event>
10    4  0.7697601E-005  0.1250606E+03  0.7546771E-02  0.1239031E+00
         21   -1    0    0  503  502  0.00000000000E+00  0.00000000000E+00  0.30697371216E+03  0.30697371216E+03  0.00000000000E+00 0. -1.
          2   -1    0    0  502    0 -0.00000000000E+00 -0.00000000000E+00 -0.37218529564E+03  0.37218529564E+03  0.00000000000E+00 0. -1.
         24    2    1    2    0    0  0.54827065309E+02 -0.63114284848E+02 -0.12143745660E+03  0.16627105347E+03  0.76873840238E+02 0.  0.
         23    2    1    2    0    0 -0.51400727805E+02  0.81010469342E+02  0.56960145316E+02  0.14403268254E+03  0.91083612816E+02 0.  0.
        -11    1    3    3    0    0  0.51498087772E+02 -0.78833212045E+02 -0.86703972531E+02  0.12800120007E+03  0.00000000000E+00 0.  1.
         12    1    3    3    0    0  0.33289775367E+01  0.15718927197E+02 -0.34733484073E+02  0.38269853404E+02  0.00000000000E+00 0. -1.
        -11    1    4    4    0    0  0.23972663667E+02  0.12855502152E+02 -0.66986257931E+00  0.27210315227E+02  0.00000000000E+00 0. -1.
         11    1    4    4    0    0 -0.75373391472E+02  0.68154967190E+02  0.57630007895E+02  0.11682236731E+03  0.00000000000E+00 0.  1.
         21    1    1    2  503  501 -0.44706257633E+01  0.24897654815E+02  0.18068861480E+03  0.18245069260E+03  0.00000000000E+00 0. -1.
          1    1    1    2  501    0  0.10442882593E+01 -0.42793839309E+02 -0.18142288699E+03  0.18640457920E+03  0.00000000000E+00 0. -1.
<scales pt_clust_5="13000.00000" pt_clust_6="13000.00000" pt_clust_7="13000.00000" pt_clust_8="13000.00000" pt_clust_9="25.29584" pt_clust_10="42.31012"></scales>
<clustering>
<clus scale="   25.296">  1  9  2 -1</clus>
<clus scale="   42.310">  1 10  2 -1</clus>
<clus scale="   76.874">  5  6 -1 -1</clus>
<clus scale="   91.084">  7  8 -1 -1</clus>
<clus scale="  115.124">  2  5  1 -1</clus>
<clus scale="   25.296">  1  5  2 -1</clus>
</clustering>
</event>
<event>
10    4  0.7697601E-005  0.1361669E+03  0.7546771E-02  0.1220887E+00
         21   -1    0    0  503  502  0.00000000000E+00  0.00000000000E+00  0.52996013515E+03  0.52996013515E+03  0.00000000000E+00 0. -1.
         -1   -1    0    0    0  501 -0.00000000000E+00 -0.00000000000E+00 -0.15550129000E+03  0.15550129000E+03  0.00000000000E+00 0.  1.
         23    2    1    2    0    0 -0.10227353520E+03 -0.11711009793E+02  0.50110499324E+02  0.14355900399E+03  0.86608900993E+02 0.  0.
         24    2    1    2    0    0  0.10466215986E+03  0.31653809555E+02  0.11673315448E+03  0.17712286913E+03  0.76090407047E+02 0.  0.
        -11    1    4    4    0    0  0.24173083407E+02  0.45378301997E+02  0.49193025607E+02  0.71158147966E+02  0.00000000000E+00 0.  1.
         12    1    4    4    0    0  0.80489076457E+02 -0.13724492442E+02  0.67540128877E+02  0.10596472116E+03  0.00000000000E+00 0. -1.
        -11    1    3    3    0    0  0.52998951545E+00  0.24967119021E+02  0.50785059638E+01  0.25483899700E+02  0.00000000000E+00 0.  1.
         11    1    3    3    0    0 -0.10280352471E+03 -0.36678128813E+02  0.45031993360E+02  0.11807510429E+03  0.00000000000E+00 0. -1.
         21    1    1    2  503  501  0.39978869619E+02 -0.89771836982E+01  0.27848663830E+03  0.28148482651E+03  0.00000000000E+00 0. -1.
         -2    1    1    2    0  502 -0.42367494287E+02 -0.10965616064E+02 -0.70871446960E+02  0.83294725535E+02  0.00000000000E+00 0.  1.
<scales pt_clust_5="13000.00000" pt_clust_6="13000.00000" pt_clust_7="13000.00000" pt_clust_8="13000.00000" pt_clust_9="40.97438" pt_clust_10="42.86025"></scales>
<clustering>
<clus scale="   40.974">  1  9  2 -1</clus>
<clus scale="   42.860">  1 10  2 -1</clus>
<clus scale="   76.090">  5  6 -1 -1</clus>
<clus scale="   86.609">  7  8 -1 -1</clus>
<clus scale="  129.731">  1  5  2 -1</clus>
<clus scale="   40.974">  1  5  2 -1</clus>
</clustering>
</event>
<event>
10    4  0.7697601E-005  0.1782747E+03  0.7546771E-02  0.1172569E+00
         21   -1    0    0  501  502  0.00000000000E+00  0.00000000000E+00  0.15435418575E+03  0.15435418575E+03  0.00000000000E+00 0. -1.
          2   -1    0    0  503    0 -0.00000000000E+00 -0.00000000000E+00 -0.64837834157E+03  0.64837834157E+03  0.00000000000E+00 0. -1.
         24    2    1    2    0    0 -0.14113225657E+03 -0.39875108461E+01 -0.11819552951E+03  0.20090333643E+03  0.80360147503E+02 0.  0.
         23    2    1    2    0    0  0.12787451915E+03 -0.15849886172E+03 -0.69580731475E+02  0.23864146513E+03  0.10312365816E+03 0.  0.
        -11    1    3    3    0    0 -0.71487558786E+02 -0.40336269561E+02 -0.75331772569E+02  0.11141077893E+03  0.00000000000E+00 0.  1.
         12    1    3    3    0    0 -0.69644697780E+02  0.36348758715E+02 -0.42863756937E+02  0.89492557499E+02  0.00000000000E+00 0. -1.
        -13    1    4    4    0    0  0.36391830927E+02  0.87473868594E+01 -0.15278194655E+02  0.40426542853E+02  0.00000000000E+00 0.  1.
         13    1    4    4    0    0  0.91482688228E+02 -0.16724624857E+03 -0.54302536820E+02  0.19821492228E+03  0.00000000000E+00 0. -1.
         21    1    1    2  503  502 -0.13062434917E+02  0.39005754285E+02 -0.11769838729E+02  0.42785572066E+02  0.00000000000E+00 0. -1.
          1    1    1    2  501    0  0.26320172328E+02  0.12348061828E+03 -0.29447805611E+03  0.32040215369E+03  0.00000000000E+00 0. -1.
<scales pt_clust_5="13000.00000" pt_clust_6="13000.00000" pt_clust_7="13000.00000" pt_clust_8="13000.00000" pt_clust_9="41.13485" pt_clust_10="129.57650"></scales>
<clustering>
<clus scale="   41.135">  1  9  2 -1</clus>
<clus scale="   80.360">  5  6 -1 -1</clus>
<clus scale="  103.124">  7  8 -1 -1</clus>
<clus scale="  129.577">  1 10  2 -1</clus>
<clus scale="  166.148">  2  5  1 -1</clus>
<clus scale="   41.135">  1  5  2 -1</clus>
</clustering>
</event>
<event>
10    4  0.7697601E-005  0.2001385E+03  0.7546771E-02  0.1168337E+00
          2   -1    0    0  503    0 -0.00000000000E+00  0.00000000000E+00  0.44673385785E+03  0.44673385785E+03  0.00000000000E+00 0. -1.
         21   -1    0    0  501  502  0.00000000000E+00 -0.00000000000E+00 -0.59225545634E+03  0.59225545634E+03  0.00000000000E+00 0. -1.
         23    2    1    2    0    0 -0.11016457310E+03  0.37095574111E+02 -0.84298011912E+01  0.14238666354E+03  0.81796000031E+02 0.  0.
         24    2    1    2    0    0 -0.19440163782E+02 -0.16720607558E+03 -0.35975814909E+03  0.40516636017E+03  0.79987885940E+02 0.  0.
        -11    1    4    4    0    0 -0.42861673217E+02 -0.45849383339E+02 -0.12317964680E+03  0.13824801760E+03  0.00000000000E+00 0.  1.
         12    1    4    4    0    0  0.23421509435E+02 -0.12135669224E+03 -0.23657850228E+03  0.26691834257E+03  0.00000000000E+00 0. -1.
        -13    1    3    3    0    0  0.61127510385E+01  0.22444269933E+02 -0.96489202873E+01  0.25183578793E+02  0.00000000000E+00 0.  1.
         13    1    3    3    0    0 -0.11627732414E+03  0.14651304178E+02  0.12191190960E+01  0.11720308475E+03  0.00000000000E+00 0. -1.
         21    1    1    2  503  502  0.17546704651E+02  0.18342613612E+03 -0.50793990059E+02  0.19113624377E+03  0.00000000000E+00 0. -1.
          1    1    1    2  501    0  0.11205803223E+03 -0.53315634651E+02  0.27346034185E+03  0.30030004671E+03  0.00000000000E+00 0. -1.
<scales pt_clust_5="13000.00000" pt_clust_6="13000.00000" pt_clust_7="13000.00000" pt_clust_8="13000.00000" pt_clust_9="183.45942" pt_clust_10="124.09502"></scales>
<clustering>
<clus scale="   79.988">  5  6 -1 -1</clus>
<clus scale="   81.796">  7  8 -1 -1</clus>
<clus scale="  124.095">  2 10  1 -1</clus>
<clus scale="  129.354">  1  7  2 -1</clus>
<clus scale="  183.459">  1  9  2 -1</clus>
<clus scale="  124.095">  2  5  1 -1</clus>
</clustering>
</event>
<event>
10    4  0.7697601E-005  0.1422813E+03  0.7546771E-02  0.1224003E+00
         21   -1    0    0  503  502  0.00000000000E+00  0.00000000000E+00  0.20157912746E+03  0.20157912746E+03  0.00000000000E+00 0. -1.
          2   -1    0    0  502    0 -0.00000000000E+00 -0.00000000000E+00 -0.32264229744E+03  0.32264229744E+03  0.00000000000E+00 0. -1.
         24    2    1    2    0    0 -0.35931550965E+02 -0.61664210599E+02 -0.16435416332E+03  0.19651694934E+03  0.80703588220E+02 0.  0.
         23    2    1    2    0    0 -0.60022364514E+02 -0.77289735549E+02  0.39020148408E+02  0.13878470787E+03  0.90345092249E+02 0.  0.
        -13    1    3    3    0    0 -0.22285214173E+02  0.12891407171E+01 -0.10997388958E+03  0.11221652750E+03  0.00000000000E+00 0.  1.
         14    1    3    3    0    0 -0.13646336792E+02 -0.62953351316E+02 -0.54380273744E+02  0.84300421839E+02  0.00000000000E+00 0. -1.
        -13    1    4    4    0    0 -0.23461285348E+02 -0.48694605141E+02  0.65834278124E+02  0.85180682412E+02  0.00000000000E+00 0.  1.
         13    1    4    4    0    0 -0.36561079166E+02 -0.28595130408E+02 -0.26814129716E+02  0.53604025458E+02  0.00000000000E+00 0. -1.
         21    1    1    2  503  501  0.23632991952E+02  0.84539922964E+01  0.28267470273E+02  0.37802621205E+02  0.00000000000E+00 0. -1.
          1    1    1    2  501    0  0.72320923526E+02  0.13049995385E+03 -0.23996625336E+02  0.15111714649E+03  0.00000000000E+00 0. -1.
<scales pt_clust_5="13000.00000" pt_clust_6="13000.00000" pt_clust_7="13000.00000" pt_clust_8="13000.00000" pt_clust_9="25.09957" pt_clust_10="109.91702"></scales>
<clustering>
<clus scale="   25.100">  1  9  2 -1</clus>
<clus scale="   80.704">  5  6 -1 -1</clus>
<clus scale="   90.345">  7  8 -1 -1</clus>
<clus scale="  106.540">  2  5  1 -1</clus>
<clus scale="  109.917">  1 10  2 -1</clus>
<clus scale="   25.100">  1  5  2 -1</clus>
</clustering>
</event>
<event>
10    4  0.7697601E-005  0.3021596E+03  0.7546771E-02  0.1127457E+00
         -3   -1    0    0    0  501 -0.00000000000E+00  0.00000000000E+00  0.39019416182E+03  0.39019416182E+03  0.00000000000E+00 0.  1.
         21   -1    0    0  503  502  0.00000000000E+00 -0.00000000000E+00 -0.99227676768E+03  0.99227676768E+03  0.00000000000E+00 0.  1.
         24    2    1    2    0    0 -0.49760206376E+02  0.38551392759E+02 -0.11794679007E+03  0.15535162458E+03  0.79122651308E+02 0.  0.
         23    2    1    2    0    0  0.32032608418E+03  0.54966705542E+02  0.25697305946E+03  0.42397513138E+03  0.89942313811E+02 0.  0.
        -11    1    3    3    0    0  0.11591158355E+02  0.18243836302E+02 -0.74270000350E+02  0.77351311993E+02  0.00000000000E+00 0.  1.
         12    1    3    3    0    0 -0.61351364731E+02  0.20307556457E+02 -0.43676789718E+02  0.78000312587E+02  0.00000000000E+00 0. -1.
        -13    1    4    4    0    0  0.79151759076E+02 -0.18928502365E+02  0.90712498759E+02  0.12186897307E+03  0.00000000000E+00 0. -1.
         13    1    4    4    0    0  0.24117432511E+03  0.73895207907E+02  0.16626056070E+03  0.30210615831E+03  0.00000000000E+00 0.  1.
         21    1    1    2  503  501  0.45742183816E+01 -0.24811092037E+02 -0.76741888905E+02  0.80782617404E+02  0.00000000000E+00 0.  1.
         -4    1    1    2    0  502 -0.27514009619E+03 -0.68707006264E+02 -0.66436698634E+03  0.72236155614E+03  0.00000000000E+00 0.  1.
<scales pt_clust_5="13000.00000" pt_clust_6="13000.00000" pt_clust_7="13000.00000" pt_clust_8="13000.00000" pt_clust_9="25.22922" pt_clust_10="288.46280"></scales>
<clustering>
<clus scale="   25.229">  2  9  1 -1</clus>
<clus scale="   79.123">  5  6 -1 -1</clus>
<clus scale="   89.942">  7  8 -1 -1</clus>
<clus scale="   99.412">  1  5  2 -1</clus>
<clus scale="  288.463">  2 10  1 -1</clus>
<clus scale="   25.229">  2  5  1 -1</clus>
</clustering>
</event>
<event>
10    4  0.7697601E-005  0.1762570E+03  0.7546771E-02  0.1184839E+00
          2   -1    0    0  502    0 -0.00000000000E+00  0.00000000000E+00  0.36468625824E+03  0.36468625824E+03  0.00000000000E+00 0. -1.
         21   -1    0    0  503  502  0.00000000000E+00 -0.00000000000E+00 -0.70415497349E+03  0.70415497349E+03  0.00000000000E+00 0. -1.
         24    2    1    2    0    0  0.91534276878E+02  0.94965837878E+01  0.80618476375E+02  0.14787798207E+03  0.83065335135E+02 0.  0.
         23    2    1    2    0    0  0.34023233784E+02  0.13497340527E+03  0.11536739154E+03  0.20250326510E+03  0.91227938599E+02 0.  0.
        -11    1    3    3    0    0  0.91843019085E+02  0.68599655947E+01  0.29525146432E+02  0.96715735816E+02  0.00000000000E+00 0.  1.
         12    1    3    3    0    0 -0.30874220645E+00  0.26366181931E+01  0.51093329943E+02  0.51162246255E+02  0.00000000000E+00 0. -1.
        -13    1    4    4    0    0  0.24424473896E+02  0.21012634098E+02  0.74306789915E+02  0.80991263383E+02  0.00000000000E+00 0.  1.
         13    1    4    4    0    0  0.95987598873E+01  0.11396077117E+03  0.41060601625E+02  0.12151200172E+03  0.00000000000E+00 0. -1.
         21    1    1    2  503  501  0.43768374392E+02 -0.85842587654E+02 -0.53052451170E+03  0.53920392985E+03  0.00000000000E+00 0. -1.
          1    1    1    2  501    0 -0.16932588505E+03 -0.58627401400E+02 -0.49300714680E+01  0.17925605471E+03  0.00000000000E+00 0. -1.
<scales pt_clust_5="13000.00000" pt_clust_6="13000.00000" pt_clust_7="13000.00000" pt_clust_8="13000.00000" pt_clust_9="96.35674" pt_clust_10="150.81110"></scales>
<clustering>
<clus scale="   83.065">  5  6 -1 -1</clus>
<clus scale="   91.228">  7  8 -1 -1</clus>
<clus scale="   96.357">  2  9  1 -1</clus>
<clus scale="  130.395">  1  5  2 -1</clus>
<clus scale="  150.811">  2 10  1 -1</clus>
<clus scale="   96.357">  2  5  1 -1</clus>
</clustering>
</event>
<event>
10    4  0.7697601E-005  0.9549112E+02  0.7546771E-02  0.1297769E+00
          2   -1    0    0  503    0 -0.00000000000E+00  0.00000000000E+00  0.41020194083E+03  0.41020194083E+03  0.00000000000E+00 0. -1.
         21   -1    0    0  501  502  0.00000000000E+00 -0.00000000000E+00 -0.11052901263E+03  0.11052901263E+03  0.00000000000E+00 0. -1.
         24    2    1    2    0    0 -0.55289225452E+01  0.30813755006E+02  0.33166905523E+03  0.34204531096E+03  0.77527905112E+02 0.  0.
         23    2    1    2    0    0 -0.88348031618E+01 -0.11570486307E+02  0.10462782177E+02  0.92753665563E+02  0.91004630454E+02 0.  0.
        -13    1    3    3    0    0  0.16444831128E+02 -0.20524917397E+02  0.13809521382E+03  0.14057735517E+03  0.00000000000E+00 0.  1.
         14    1    3    3    0    0 -0.21973753674E+02  0.51338672403E+02  0.19357384141E+03  0.20146795580E+03  0.00000000000E+00 0. -1.
        -11    1    4    4    0    0 -0.22601250072E+02 -0.44356317366E+02  0.23278104919E+02  0.54956069398E+02  0.00000000000E+00 0.  1.
         11    1    4    4    0    0  0.13766446910E+02  0.32785831060E+02 -0.12815322742E+02  0.37797596164E+02  0.00000000000E+00 0. -1.
         21    1    1    2  503  502  0.78811274647E+01  0.25855411270E+02 -0.62727427449E+01  0.27748184870E+02  0.00000000000E+00 0.  1.
          1    1    1    2  501    0  0.64825982423E+01 -0.45098679970E+02 -0.36186166473E+02  0.58183792064E+02  0.00000000000E+00 0. -1.
<scales pt_clust_5="13000.00000" pt_clust_6="13000.00000" pt_clust_7="13000.00000" pt_clust_8="13000.00000" pt_clust_9="27.02988" pt_clust_10="33.71653"></scales>
<clustering>
<clus scale="   27.030">  2  9  1 -1</clus>
<clus scale="   33.717">  2 10  1 -1</clus>
<clus scale="   77.528">  5  6 -1 -1</clus>
<clus scale="   82.748">  1  5  2 -1</clus>
<clus scale="   91.005">  7  8 -1 -1</clus>
<clus scale="   27.030">  2  5  1 -1</clus>
</clustering>
</event>
<event>
10    4  0.7697601E-005  0.1351624E+03  0.7546771E-02  0.1228942E+00
         21   -1    0    0  503  502  0.00000000000E+00  0.00000000000E+00  0.14018000858E+04  0.14018000858E+04  0.00000000000E+00 0.  1.
         -1   -1    0    0    0  501 -0.00000000000E+00 -0.00000000000E+00 -0.12000172768E+03  0.12000172768E+03  0.00000000000E+00 0.  1.
         24    2    1    2    0    0  0.28167697188E+02  0.66527259812E+02  0.52964444009E+02  0.12253699103E+03  0.83610922610E+02 0.  0.
         23    2    1    2    0    0 -0.17865384441E+03 -0.26652282071E+02  0.10816536120E+04  0.11023981243E+04  0.11260349902E+03 0.  0.
        -13    1    3    3    0    0  0.26577642107E+02 -0.13700212730E+02  0.18824719106E+02  0.35333227113E+02  0.00000000000E+00 0.  1.
         14    1    3    3    0    0  0.15900550811E+01  0.80227472542E+02  0.34139724903E+02  0.87203763921E+02  0.00000000000E+00 0. -1.
        -11    1    4    4    0    0 -0.15832093995E+03 -0.54386381923E+02  0.99815346626E+03  0.10120937411E+04  0.00000000000E+00 0.  1.
         11    1    4    4    0    0 -0.20332904457E+02  0.27734099852E+02  0.83500145702E+02  0.90304383230E+02  0.00000000000E+00 0. -1.
         21    1    1    2  503  501  0.82457128931E+02  0.29099709462E+02  0.17537801863E+03  0.19596790712E+03  0.00000000000E+00 0.  1.
         -2    1    1    2    0  502  0.68029018287E+02 -0.68974687202E+02 -0.28197716499E+02  0.10089879097E+03  0.00000000000E+00 0.  1.
<scales pt_clust_5="13000.00000" pt_clust_6="13000.00000" pt_clust_7="13000.00000" pt_clust_8="13000.00000" pt_clust_9="87.44124" pt_clust_10="98.01860"></scales>
<clustering>
<clus scale="   83.611">  5  6 -1 -1</clus>
<clus scale="   87.441">  1  9  2 -1</clus>
<clus scale="   98.019">  1 10  2 -1</clus>
<clus scale="  112.161">  2  5  1 -1</clus>
<clus scale="  112.603">  7  8 -1 -1</clus>
<clus scale="   87.441">  1  5  2 -1</clus>
</clustering>
</event>
<event>
10    4  0.7697601E-005  0.9728095E+02  0.7546771E-02  0.1291264E+00
         -1   -1    0    0    0  501 -0.00000000000E+00  0.00000000000E+00  0.33448770372E+03  0.33448770372E+03  0.00000000000E+00 0.  1.
         21   -1    0    0  503  502  0.00000000000E+00 -0.00000000000E+00 -0.27447035294E+03  0.27447035294E+03  0.00000000000E+00 0. -1.
         23    2    1    2    0    0  0.75076817083E+01 -0.12686037846E+02  0.11258619745E+03  0.14539693180E+03  0.90814729411E+02 0.  0.
         24    2    1    2    0    0  0.83218144192E+02  0.33273729241E+02  0.11797026833E+03  0.16892322690E+03  0.81152152125E+02 0.  0.
        -11    1    4    4    0    0  0.11466224424E+02  0.44900626518E+02  0.60795290834E+02  0.76443495158E+02  0.00000000000E+00 0.  1.
         12    1    4    4    0    0  0.71751919768E+02 -0.11626897277E+02  0.57174977499E+02  0.92479731740E+02  0.00000000000E+00 0. -1.
        -13    1    3    3    0    0  0.98371976162E+01  0.34243941448E+02  0.81798190765E+02  0.89220860762E+02  0.00000000000E+00 0. -1.
         13    1    3    3    0    0 -0.23295159079E+01 -0.46929979294E+02  0.30788006687E+02  0.56176071033E+02  0.00000000000E+00 0.  1.
         21    1    1    2  503  501 -0.53576961010E+02  0.21836823024E+02 -0.21511331147E+03  0.22275788283E+03  0.00000000000E+00 0. -1.
         -2    1    1    2    0  502 -0.37148864890E+02 -0.42424514419E+02  0.44574196462E+02  0.71880015140E+02  0.00000000000E+00 0.  1.
<scales pt_clust_5="13000.00000" pt_clust_6="13000.00000" pt_clust_7="13000.00000" pt_clust_8="13000.00000" pt_clust_9="85.87256" pt_clust_10="56.39043"></scales>
<clustering>
<clus scale="   56.390">  2 10  1 -1</clus>
<clus scale="   81.152">  5  6 -1 -1</clus>
<clus scale="   85.873">  2  9  1 -1</clus>
<clus scale="   88.329">  2  5  1 -1</clus>
<clus scale="   90.815">  7  8 -1 -1</clus>
<clus scale="   56.390">  2  5  1 -1</clus>
</clustering>
</event>
<event>
10    4  0.7697601E-005  0.1322360E+03  0.7546771E-02  0.1224712E+00
         21   -1    0    0  503  502  0.00000000000E+00  0.00000000000E+00  0.11581220029E+03  0.11581220029E+03  0.00000000000E+00 0.  1.
          2   -1    0    0  502    0 -0.00000000000E+00 -0.00000000000E+00 -0.66415496990E+03  0.66415496990E+03  0.00000000000E+00 0. -1.
         23    2    1    2    0    0  0.71897396757E+02  0.85532232887E+02 -0.34415574252E+03  0.37019546521E+03  0.78208112314E+02 0.  0.
         24    2    1    2    0    0  0.15595056855E+02 -0.86721019889E+02  0.43806660170E+02  0.12722397981E+03  0.80642274734E+02 0.  0.
        -11    1    4    4    0    0 -0.20776215539E+02 -0.41987995330E+02  0.50852064519E+02  0.69141704851E+02  0.00000000000E+00 0.  1.
         12    1    4    4    0    0  0.36371272395E+02 -0.44733024560E+02 -0.70454043487E+01  0.58082274958E+02  0.00000000000E+00 0. -1.
        -13    1    3    3    0    0  0.74425676131E+02  0.56211095555E+02 -0.31596118168E+03  0.32943942821E+03  0.00000000000E+00 0.  1.
         13    1    3    3    0    0 -0.25282793745E+01  0.29321137332E+02 -0.28194560834E+02  0.40756036997E+02  0.00000000000E+00 0. -1.
         21    1    1    2  503  501 -0.11714394797E+02  0.17637156399E+02  0.15541164233E+01  0.21229969599E+02  0.00000000000E+00 0.  1.
          1    1    1    2  501    0 -0.75778058815E+02 -0.16448369397E+02 -0.24954780369E+03  0.26131775558E+03  0.00000000000E+00 0. -1.
<scales pt_clust_5="13000.00000" pt_clust_6="13000.00000" pt_clust_7="13000.00000" pt_clust_8="13000.00000" pt_clust_9="21.17301" pt_clust_10="77.98495"></scales>
<clustering>
<clus scale="   21.173">  1  9  2 -1</clus>
<clus scale="   77.985">  1 10  2 -1</clus>
<clus scale="   78.208">  7  8 -1 -1</clus>
<clus scale="   80.642">  5  6 -1 -1</clus>
<clus scale="  130.766">  2  7  1 -1</clus>
<clus scale="   21.173">  1  5  2 -1</clus>
</clustering>
</event>
<event>
10    4  0.7697601E-005  0.3716745E+03  0.7546771E-02  0.1065161E+00
         21   -1    0    0  503  502  0.00000000000E+00  0.00000000000E+00  0.83530295191E+03  0.83530295191E+03  0.00000000000E+00 0. -1.
          2   -1    0    0  502    0 -0.00000000000E+00 -0.00000000000E+00 -0.67036110708E+03  0.67036110708E+03  0.00000000000E+00 0. -1.
         24    2    1    2    0    0 -0.24820402842E+03 -0.79015485940E+02 -0.41655683737E+03  0.49766762088E+03  0.79402615614E+02 0.  0.
         23    2    1    2    0    0  0.56743895966E+00 -0.26982801345E+03  0.48999325383E+01  0.28483772215E+03  0.91110042196E+02 0.  0.
        -13    1    3    3    0    0 -0.11585261463E+03 -0.46206530165E+02 -0.12910175028E+03  0.17951081770E+03  0.00000000000E+00 0.  1.
         14    1    3    3    0    0 -0.13235141379E+03 -0.32808955775E+02 -0.28745508710E+03  0.31815680318E+03  0.00000000000E+00 0. -1.
        -13    1    4    4    0    0 -0.27826070005E+02 -0.35633864721E+02  0.17769306711E+02  0.48577883320E+02  0.00000000000E+00 0.  1.
         13    1    4    4    0    0  0.28393508964E+02 -0.23419414873E+03 -0.12869374173E+02  0.23625983883E+03  0.00000000000E+00 0. -1.
         21    1    1    2  503  501  0.49128698956E+02  0.12864979278E+03  0.14960500372E+03  0.20333729462E+03  0.00000000000E+00 0. -1.
          1    1    1    2  501    0  0.19850789051E+03  0.22019370662E+03  0.42699374594E+03  0.51982142135E+03  0.00000000000E+00 0. -1.
<scales pt_clust_5="13000.00000" pt_clust_6="13000.00000" pt_clust_7="13000.00000" pt_clust_8="13000.00000" pt_clust_9="58.93256" pt_clust_10="370.56393"></scales>
<clustering>
<clus scale="   58.933">  9 10 -1 -1</clus>
<clus scale="   79.403">  5  6 -1 -1</clus>
<clus scale="   91.110">  7  8 -1 -1</clus>
<clus scale="  272.311">  2  5  1 -1</clus>
<clus scale="  370.564">  1  9  2 -1</clus>
<clus scale="  370.564">  1  5  2 -1</clus>
</clustering>
</event>
<event>
10    4  0.7697601E-005  0.1888903E+03  0.7546771E-02  0.1186751E+00
          2   -1    0    0  502    0 -0.00000000000E+00  0.00000000000E+00  0.84257577811E+03  0.84257577811E+03  0.00000000000E+00 0. -1.
         21   -1    0    0  503  502  0.00000000000E+00 -0.00000000000E+00 -0.16992169128E+03  0.16992169128E+03  0.00000000000E+00 0.  1.
         24    2    1    2    0    0  0.51542173667E+02  0.36046352197E+02  0.31942064236E+03  0.33603386332E+03  0.83266291829E+02 0.  0.
         23    2    1    2    0    0 -0.10076282556E+03  0.95990643288E+02  0.64715894201E+02  0.17826347516E+03  0.90677279404E+02 0.  0.
        -11    1    3    3    0    0 -0.12217626004E+02 -0.16678440189E+02  0.83679765807E+02  0.86195962538E+02  0.00000000000E+00 0.  1.
         12    1    3    3    0    0  0.63759799671E+02  0.52724792386E+02  0.23574087656E+03  0.24983790078E+03  0.00000000000E+00 0. -1.
        -13    1    4    4    0    0 -0.13709733580E+02 -0.15855784717E+02  0.21647410917E+02  0.30132592043E+02  0.00000000000E+00 0. -1.
         13    1    4    4    0    0 -0.87053091984E+02  0.11184642800E+03  0.43068483285E+02  0.14813088312E+03  0.00000000000E+00 0.  1.
         21    1    1    2  503  501 -0.60090551104E+02 -0.64323061656E+00 -0.75237425443E+02  0.96291008225E+02  0.00000000000E+00 0.  1.
          1    1    1    2  501    0  0.10931120300E+03 -0.13139376487E+03  0.36375497571E+03  0.40190912269E+03  0.00000000000E+00 0. -1.
<scales pt_clust_5="13000.00000" pt_clust_6="13000.00000" pt_clust_7="13000.00000" pt_clust_8="13000.00000" pt_clust_9="60.09399" pt_clust_10="165.70220"></scales>
<clustering>
<clus scale="   60.094">  2  9  1 -1</clus>
<clus scale="   83.266">  5  6 -1 -1</clus>
<clus scale="   90.677">  7  8 -1 -1</clus>
<clus scale="  101.530">  1  5  2 -1</clus>
<clus scale="  165.702">  2 10  1 -1</clus>
<clus scale="   60.094">  2  5  1 -1</clus>
</clustering>
</event>
<event>
10    4  0.7697601E-005  0.2296401E+03  0.7546771E-02  0.1157095E+00
         21   -1    0    0  501  502  0.00000000000E+00  0.00000000000E+00  0.12890643268E+03  0.12890643268E+03  0.00000000000E+00 0.  1.
          4   -1    0    0  503    0 -0.00000000000E+00 -0.00000000000E+00 -0.86833721140E+03  0.86833721140E+03  0.00000000000E+00 0. -1.
         23    2    1    2    0    0  0.85853796080E+01 -0.64461449057E+02 -0.36784373635E+03  0.38450051335E+03  0.91118841257E+02 0.  0.
         24    2    1    2    0    0  0.11901962465E+03 -0.14509192677E+03 -0.15566344198E+03  0.26471541543E+03  0.10308154893E+03 0.  0.
        -11    1    4    4    0    0  0.43209383235E+02 -0.66583100975E+02 -0.61577069242E+01  0.79613299703E+02  0.00000000000E+00 0.  1.
         12    1    4    4    0    0  0.75810241417E+02 -0.78508825798E+02 -0.14950573505E+03  0.18510211573E+03  0.00000000000E+00 0. -1.
        -11    1    3    3    0    0 -0.26109092977E+02 -0.70461321402E+02 -0.27878256108E+03  0.28873205384E+03  0.00000000000E+00 0.  1.
         11    1    3    3    0    0  0.34694472585E+02  0.59998723447E+01 -0.89061175275E+02  0.95768459512E+02  0.00000000000E+00 0. -1.
         21    1    1    2  503  502  0.87903130800E+01  0.21032349328E+02  0.88989946372E+01  0.24470828099E+02  0.00000000000E+00 0.  1.
          3    1    1    2  501    0 -0.13639531734E+03  0.18852102650E+03 -0.22482259502E+03  0.32355688721E+03  0.00000000000E+00 0. -1.
<scales pt_clust_5="13000.00000" pt_clust_6="13000.00000" pt_clust_7="13000.00000" pt_clust_8="13000.00000" pt_clust_9="22.79538" pt_clust_10="205.20432"></scales>
<clustering>
<clus scale="   22.795">  1  9  2 -1</clus>
<clus scale="   91.119">  7  8 -1 -1</clus>
<clus scale="  103.082">  5  6 -1 -1</clus>
<clus scale="  111.106">  2  7  1 -1</clus>
<clus scale="  205.204">  1 10  2 -1</clus>
<clus scale="   22.795">  1  5  2 -1</clus>
</clustering>
</event>
<event>
10    4  0.7697601E-005  0.1622567E+03  0.7546771E-02  0.1192066E+00
         21   -1    0    0  503  502  0.00000000000E+00  0.00000000000E+00  0.56189945965E+02  0.56189945965E+02  0.00000000000E+00 0. -1.
          2   -1    0    0  502    0 -0.00000000000E+00 -0.00000000000E+00 -0.11541841785E+04  0.11541841785E+04  0.00000000000E+00 0. -1.
         23    2    1    2    0    0  0.20799598848E+01  0.11385532589E+03 -0.28817298634E+03  0.32301480515E+03  0.91255316691E+02 0.  0.
         24    2    1    2    0    0  0.12113986095E+03 -0.98382988819E+01 -0.28294062716E+03  0.31892685869E+03  0.82989665976E+02 0.  0.
        -13    1    4    4    0    0  0.37308262243E+02 -0.17029117219E+02 -0.25994253471E+02  0.48555107645E+02  0.00000000000E+00 0.  1.
         14    1    4    4    0    0  0.83831598702E+02  0.71908183370E+01 -0.25694637369E+03  0.27037175104E+03  0.00000000000E+00 0. -1.
        -13    1    3    3    0    0  0.16746055576E+02  0.34017598101E+02 -0.19837458834E+03  0.20196560266E+03  0.00000000000E+00 0.  1.
         13    1    3    3    0    0 -0.14666095691E+02  0.79837727784E+02 -0.89798398000E+02  0.12104920249E+03  0.00000000000E+00 0. -1.
         21    1    1    2  503  501  0.27860451453E+02 -0.14961875384E+02 -0.40392728043E+02  0.51299463437E+02  0.00000000000E+00 0.  1.
          1    1    1    2  501    0 -0.15108027228E+03 -0.89055151620E+02 -0.48648789098E+03  0.51713299718E+03  0.00000000000E+00 0. -1.
<scales pt_clust_5="13000.00000" pt_clust_6="13000.00000" pt_clust_7="13000.00000" pt_clust_8="13000.00000" pt_clust_9="31.62376" pt_clust_10="139.42727"></scales>
<clustering>
<clus scale="   31.624">  1  9  2 -1</clus>
<clus scale="   82.990">  5  6 -1 -1</clus>
<clus scale="   91.255">  7  8 -1 -1</clus>
<clus scale="  142.418">  2  7  1 -1</clus>
<clus scale="  139.427">  1 10  2 -1</clus>
<clus scale="   31.624">  1  5  2 -1</clus>
</clustering>
</event>
<event>
10    4  0.7697601E-005  0.1656240E+03  0.7546771E-02  0.1183660E+00
         21   -1    0    0  503  502  0.00000000000E+00  0.00000000000E+00  0.26777959237E+03  0.26777959237E+03  0.00000000000E+00 0.  1.
         -3   -1    0    0    0  501 -0.00000000000E+00 -0.00000000000E+00 -0.21226301751E+03  0.21226301751E+03  0.00000000000E+00 0.  1.
         24    2    1    2    0    0  0.71481997476E+02  0.12321780526E+03 -0.38060332085E+02  0.16851250549E+03  0.81581689936E+02 0.  0.
         23    2    1    2    0    0 -0.28914545656E+02 -0.13394213512E+03  0.86164707246E+02  0.18508029798E+03  0.89743041034E+02 0.  0.
        -13    1    3    3    0    0  0.84664000930E+02  0.12300949992E+03 -0.41302191211E+02  0.15493611949E+03  0.00000000000E+00 0.  1.
         14    1    3    3    0    0 -0.13182003454E+02  0.20830533445E+00  0.32418591260E+01  0.13576385998E+02  0.00000000000E+00 0. -1.
        -11    1    4    4    0    0 -0.39876930646E+02 -0.10452244096E+03  0.22522866713E+02  0.11411568599E+03  0.00000000000E+00 0.  1.
         11    1    4    4    0    0  0.10962384989E+02 -0.29419694154E+02  0.63641840533E+02  0.70964611992E+02  0.00000000000E+00 0. -1.
         21    1    1    2  503  501 -0.18650093444E+02  0.47987577563E+02  0.44992296028E+02  0.68373534996E+02  0.00000000000E+00 0.  1.
         -4    1    1    2    0  502 -0.23917358375E+02 -0.37263247704E+02 -0.37580096334E+02  0.58076271416E+02  0.00000000000E+00 0.  1.
<scales pt_clust_5="13000.00000" pt_clust_6="13000.00000" pt_clust_7="13000.00000" pt_clust_8="13000.00000" pt_clust_9="46.41996" pt_clust_10="44.27857"></scales>
<clustering>
<clus scale="   44.279">  1 10  2 -1</clus>
<clus scale="   46.420">  1  9  2 -1</clus>
<clus scale="   81.582">  5  6 -1 -1</clus>
<clus scale="   89.743">  7  8 -1 -1</clus>
<clus scale="  161.348">  2  5  1 -1</clus>
<clus scale="   44.279">  1  5  2 -1</clus>
</clustering>
</event>
<event>
10    4  0.7697601E-005  0.1088030E+03  0.7546771E-02  0.1265895E+00
         21   -1    0    0  501  502  0.00000000000E+00  0.00000000000E+00  0.85550772573E+02  0.85550772573E+02  0.00000000000E+00 0. -1.
          2   -1    0    0  503    0 -0.00000000000E+00 -0.00000000000E+00 -0.56185107675E+03  0.56185107675E+03  0.00000000000E+00 0. -1.
         24    2    1    2    0    0 -0.67041568119E+02 -0.22700826249E+02 -0.37410850832E+03  0.38973814160E+03  0.83239075291E+02 0.  0.
         23    2    1    2    0    0  0.29200191187E+02  0.20361037060E+02 -0.11619164502E+03  0.15179715524E+03  0.90965130522E+02 0.  0.
        -13    1    3    3    0    0 -0.11598279730E+02  0.28501863133E+02 -0.15418852502E+03  0.15722906075E+03  0.00000000000E+00 0.  1.
         14    1    3    3    0    0 -0.55443288390E+02 -0.51202689383E+02 -0.21991998330E+03  0.23250908086E+03  0.00000000000E+00 0. -1.
        -11    1    4    4    0    0 -0.28790979077E+02  0.14886135350E+02 -0.16583884710E+02  0.36408003707E+02  0.00000000000E+00 0.  1.
         11    1    4    4    0    0  0.57991170264E+02  0.54749017097E+01 -0.99607760313E+02  0.11538915153E+03  0.00000000000E+00 0. -1.
         21    1    1    2  503  502  0.80043683798E+01  0.31722590644E+02 -0.30523336331E+02  0.44744460340E+02  0.00000000000E+00 0.  1.
          1    1    1    2  501    0  0.29837008552E+02 -0.29382801455E+02  0.44523185495E+02  0.61122092138E+02  0.00000000000E+00 0. -1.
<scales pt_clust_5="13000.00000" pt_clust_6="13000.00000" pt_clust_7="13000.00000" pt_clust_8="13000.00000" pt_clust_9="32.71686" pt_clust_10="36.12874"></scales>
<clustering>
<clus scale="   32.717">  1  9  2 -1</clus>
<clus scale="   36.129">  1 10  2 -1</clus>
<clus scale="   83.239">  5  6 -1 -1</clus>
<clus scale="   90.965">  7  8 -1 -1</clus>
<clus scale="  102.431">  2  5  1 -1</clus>
<clus scale="   32.717">  1  5  2 -1</clus>
</clustering>
</event>
<event>
10    4  0.7697601E-005  0.1205750E+03  0.7546771E-02  0.1249384E+00
         21   -1    0    0  503  502  0.00000000000E+00  0.00000000000E+00  0.20013856306E+03  0.20013856306E+03  0.00000000000E+00 0.  1.
         -3   -1    0    0    0  501 -0.00000000000E+00 -0.00000000000E+00 -0.65714971137E+03  0.65714971137E+03  0.00000000000E+00 0.  1.
         24    2    1    2    0    0  0.43406642491E+02  0.85508850488E+02  0.54684592456E+02  0.13663088785E+03  0.80508973039E+02 0.  0.
         23    2    1    2    0    0  0.57314728427E+02  0.36063375495E+02 -0.23140255947E+01  0.12200235131E+03  0.10145774423E+03 0.  0.
        -13    1    3    3    0    0 -0.12959003383E+02  0.42030577942E+02  0.48043342857E+02  0.65135766240E+02  0.00000000000E+00 0.  1.
         14    1    3    3    0    0  0.56365645875E+02  0.43478272546E+02  0.66412495989E+01  0.71495121614E+02  0.00000000000E+00 0. -1.
        -13    1    4    4    0    0 -0.26106379837E+02  0.19962031177E+02 -0.14954711293E+02  0.36106358813E+02  0.00000000000E+00 0. -1.
         13    1    4    4    0    0  0.83421108264E+02  0.16101344319E+02  0.12640685698E+02  0.85895992501E+02  0.00000000000E+00 0.  1.
         21    1    1    2  503  501 -0.10865411691E+00 -0.60031747879E+02  0.14419973793E+02  0.61739437990E+02  0.00000000000E+00 0. -1.
         -4    1    1    2    0  502 -0.10061271680E+03 -0.61540478104E+02 -0.52380168897E+03  0.53691559727E+03  0.00000000000E+00 0.  1.
<scales pt_clust_5="13000.00000" pt_clust_6="13000.00000" pt_clust_7="13000.00000" pt_clust_8="13000.00000" pt_clust_9="60.03185" pt_clust_10="65.15115"></scales>
<clustering>
<clus scale="   60.032">  1  9  2 -1</clus>
<clus scale="   80.509">  5  6 -1 -1</clus>
<clus scale="  101.458">  7  8 -1 -1</clus>
<clus scale="  104.248">  2  5  1 -1</clus>
<clus scale="   65.151">  1 10  2 -1</clus>
<clus scale="   60.032">  1  5  2 -1</clus>
</clustering>
</event>
<event>
10    4  0.7697601E-005  0.1304725E+03  0.7546771E-02  0.1242633E+00
         21   -1    0    0  503  502  0.00000000000E+00  0.00000000000E+00  0.13849134612E+03  0.13849134612E+03  0.00000000000E+00 0.  1.
          2   -1    0    0  502    0 -0.00000000000E+00 -0.00000000000E+00 -0.42800700573E+03  0.42800700573E+03  0.00000000000E+00 0. -1.
         24    2    1    2    0    0 -0.33289572546E+02  0.31412356219E+02  0.40531352819E+02  0.10253243160E+03  0.82311464605E+02 0.  0.
         23    2    1    2    0    0  0.15475495705E+02  0.59404445215E+02 -0.22746986340E+03  0.25276618203E+03  0.91541383768E+02 0.  0.
        -13    1    3    3    0    0 -0.18601514418E+02  0.44480109144E+02  0.58562876580E+02  0.75855830109E+02  0.00000000000E+00 0.  1.
         14    1    3    3    0    0 -0.14688058128E+02 -0.13067752926E+02 -0.18031523761E+02  0.26676601494E+02  0.00000000000E+00 0. -1.
        -11    1    4    4    0    0  0.20281051422E+02  0.80565476241E+02 -0.14137435385E+03  0.16397812334E+03  0.00000000000E+00 0.  1.
         11    1    4    4    0    0 -0.48055557167E+01 -0.21161031027E+02 -0.86095509553E+02  0.88788058685E+02  0.00000000000E+00 0. -1.
         21    1    1    2  503  501  0.38921403873E+02  0.20794032038E+02  0.16053128692E+02  0.46957112227E+02  0.00000000000E+00 0.  1.
          1    1    1    2  501    0 -0.21107327033E+02 -0.11161083347E+03 -0.11863027772E+03  0.16424262600E+03  0.00000000000E+00 0. -1.
<scales pt_clust_5="13000.00000" pt_clust_6="13000.00000" pt_clust_7="13000.00000" pt_clust_8="13000.00000" pt_clust_9="44.12785" pt_clust_10="92.96910"></scales>
<clustering>
<clus scale="   44.128">  1  9  2 -1</clus>
<clus scale="   82.311">  5  6 -1 -1</clus>
<clus scale="   91.541">  7  8 -1 -1</clus>
<clus scale="   94.242">  2  5  1 -1</clus>
<clus scale="   92.969">  1 10  2 -1</clus>
<clus scale="   44.128">  1  5  2 -1</clus>
</clustering>
</event>
<event>
10    4  0.7697601E-005  0.1188532E+03  0.7546771E-02  0.1247697E+00
         21   -1    0    0  501  502  0.00000000000E+00  0.00000000000E+00  0.79044638666E+02  0.79044638666E+02  0.00000000000E+00 0. -1.
          4   -1    0    0  503    0 -0.00000000000E+00 -0.00000000000E+00 -0.65434722606E+03  0.65434722606E+03  0.00000000000E+00 0. -1.
         23    2    1    2    0    0 -0.73823480481E+02 -0.28633472265E+02 -0.34770635713E+03  0.36771196425E+03  0.89680521056E+02 0.  0.
         24    2    1    2    0    0  0.91019620775E+02 -0.63502487134E+02 -0.89168529505E+02  0.16389066515E+03  0.81191047721E+02 0.  0.
        -13    1    4    4    0    0  0.24458501585E+01 -0.43369286451E+02 -0.12981826198E+02  0.45336574658E+02  0.00000000000E+00 0.  1.
         14    1    4    4    0    0  0.88573770616E+02 -0.20133200683E+02 -0.76186703307E+02  0.11855409049E+03  0.00000000000E+00 0. -1.
        -13    1    3    3    0    0 -0.91920664394E+02 -0.37722329082E+02 -0.28607687195E+03  0.30284048494E+03  0.00000000000E+00 0. -1.
         13    1    3    3    0    0  0.18097183913E+02  0.90888568167E+01 -0.61629485184E+02  0.64871479310E+02  0.00000000000E+00 0.  1.
         21    1    1    2  503  502  0.32174978986E+01  0.33229642240E+02  0.14684091504E+02  0.36471687094E+02  0.00000000000E+00 0. -1.
          3    1    1    2  501    0 -0.20413638193E+02  0.58906317159E+02 -0.15311179226E+03  0.16531754824E+03  0.00000000000E+00 0. -1.
<scales pt_clust_5="13000.00000" pt_clust_6="13000.00000" pt_clust_7="13000.00000" pt_clust_8="13000.00000" pt_clust_9="33.38505" pt_clust_10="65.82598"></scales>
<clustering>
<clus scale="   33.385">  1  9  2 -1</clus>
<clus scale="   65.826">  1 10  2 -1</clus>
<clus scale="   81.191">  5  6 -1 -1</clus>
<clus scale="   89.681">  7  8 -1 -1</clus>
<clus scale="  112.585">  1  5  2 -1</clus>
<clus scale="   33.385">  1  5  2 -1</clus>
</clustering>
</event>
<event>
10    4  0.7697601E-005  0.1542706E+03  0.7546771E-02  0.1215439E+00
         21   -1    0    0  503  502  0.00000000000E+00  0.00000000000E+00  0.13442218258E+03  0.13442218258E+03  0.00000000000E+00 0.  1.
         -1   -1    0    0    0  501 -0.00000000000E+00 -0.00000000000E+00 -0.68478369044E+03  0.68478369044E+03  0.00000000000E+00 0.  1.
         23    2    1    2    0    0  0.50264235702E+02  0.81802257114E+00  0.51442489146E+01  0.10350731231E+03  0.90333481348E+02 0.  0.
         24    2    1    2    0    0 -0.14828900857E+03 -0.74632995634E+02 -0.49046576764E+03  0.52376867806E+03  0.78849507181E+02 0.  0.
        -13    1    4    4    0    0 -0.13930912878E+03 -0.80042605333E+02 -0.37685060189E+03  0.40967087787E+03  0.00000000000E+00 0.  1.
         14    1    4    4    0    0 -0.89798797901E+01  0.54096096993E+01 -0.11361516575E+03  0.11409780018E+03  0.00000000000E+00 0. -1.
        -13    1    3    3    0    0  0.58233051914E+02  0.35226636359E+02  0.31456933533E+01  0.68131487809E+02  0.00000000000E+00 0.  1.
         13    1    3    3    0    0 -0.79688162117E+01 -0.34408613787E+02  0.19985555613E+01  0.35375824498E+02  0.00000000000E+00 0. -1.
         21    1    1    2  503  501 -0.17454536137E+02  0.22567086635E+02  0.24069122118E+02  0.37326356244E+02  0.00000000000E+00 0. -1.
         -2    1    1    2    0  502  0.11547930901E+03  0.51247886428E+02 -0.89109111246E+02  0.15460352641E+03  0.00000000000E+00 0.  1.
<scales pt_clust_5="13000.00000" pt_clust_6="13000.00000" pt_clust_7="13000.00000" pt_clust_8="13000.00000" pt_clust_9="28.52953" pt_clust_10="132.59780"></scales>
<clustering>
<clus scale="   28.530">  1  9  2 -1</clus>
<clus scale="   78.850">  5  6 -1 -1</clus>
<clus scale="   90.333">  7  8 -1 -1</clus>
<clus scale="  100.055">  2  7  1 -1</clus>
<clus scale="  132.598">  1 10  2 -1</clus>
<clus scale="   28.530">  1  5  2 -1</clus>
</clustering>
</event>
<event>
10    4  0.7697601E-005  0.1060472E+03  0.7546771E-02  0.1276000E+00
         21   -1    0    0  503  502  0.00000000000E+00  0.00000000000E+00  0.12442707095E+03  0.12442707095E+03  0.00000000000E+00 0. -1.
         -1   -1    0    0    0  501 -0.00000000000E+00 -0.00000000000E+00 -0.19410690764E+03  0.19410690764E+03  0.00000000000E+00 0.  1.
         23    2    1    2    0    0 -0.20411047595E+02 -0.31112923839E+02 -0.80308577371E+02  0.13105642917E+03  0.96652445045E+02 0.  0.
         24    2    1    2    0    0  0.40292236764E+02  0.45055978137E+02  0.25969869534E+02  0.10347650902E+03  0.79871448503E+02 0.  0.
        -13    1    4    4    0    0  0.32955224364E+02 -0.14604077030E+02 -0.40762126289E+01  0.36275906441E+02  0.00000000000E+00 0.  1.
         14    1    4    4    0    0  0.73370124008E+01  0.59660055167E+02  0.30046082163E+02  0.67200602578E+02  0.00000000000E+00 0. -1.
        -11    1    3    3    0    0 -0.16539064696E+02  0.34089118718E+02 -0.34833261992E+02  0.51468095137E+02  0.00000000000E+00 0. -1.
         11    1    3    3    0    0 -0.38719828988E+01 -0.65202042556E+02 -0.45475315379E+02  0.79588334031E+02  0.00000000000E+00 0.  1.
         21    1    1    2  503  501  0.25963207802E+01 -0.32468714541E+02  0.19985175097E+02  0.38214729218E+02  0.00000000000E+00 0. -1.
         -2    1    1    2    0  502 -0.22477509950E+02  0.18525660242E+02 -0.35326303952E+02  0.45786311184E+02  0.00000000000E+00 0.  1.
<scales pt_clust_5="13000.00000" pt_clust_6="13000.00000" pt_clust_7="13000.00000" pt_clust_8="13000.00000" pt_clust_9="28.09514" pt_clust_10="29.12798"></scales>
<clustering>
<clus scale="   29.128">  1 10  2 -1</clus>
<clus scale="   28.095">  1  9  2 -1</clus>
<clus scale="   79.871">  5  6 -1 -1</clus>
<clus scale="   91.015">  1  5  2 -1</clus>
<clus scale="   96.652">  7  8 -1 -1</clus>
<clus scale="   29.128">  1  5  2 -1</clus>
</clustering>
</event>
<event>
10    4  0.7697601E-005  0.1723956E+03  0.7546771E-02  0.1192500E+00
          2   -1    0    0  503    0 -0.00000000000E+00  0.00000000000E+00  0.42085458819E+03  0.42085458819E+03  0.00000000000E+00 0. -1.
         21   -1    0    0  501  502  0.00000000000E+00 -0.00000000000E+00 -0.70201962242E+03  0.70201962242E+03  0.00000000000E+00 0. -1.
         24    2    1    2    0    0  0.82120728090E+02  0.24045629756E+00 -0.82698100342E+02  0.13994957080E+03  0.77479253780E+02 0.  0.
         23    2    1    2    0    0 -0.19925784801E+03 -0.80269409257E+02  0.33241515318E+03  0.40608695758E+03  0.90884074494E+02 0.  0.
        -13    1    3    3    0    0  0.72879130349E+02  0.28394071249E+02 -0.39655537860E+02  0.87693515185E+02  0.00000000000E+00 0.  1.
         14    1    3    3    0    0  0.92415977411E+01 -0.28153614952E+02 -0.43042562482E+02  0.52256055617E+02  0.00000000000E+00 0. -1.
        -11    1    4    4    0    0 -0.20596660208E+02 -0.11032519276E+02  0.11435633800E+01  0.23393303112E+02  0.00000000000E+00 0.  1.
         11    1    4    4    0    0 -0.17866118781E+03 -0.69236889981E+02  0.33127158980E+03  0.38269365447E+03  0.00000000000E+00 0. -1.
         21    1    1    2  503  502  0.21325865264E+02 -0.33254541916E+02 -0.29868712818E+03  0.30128832972E+03  0.00000000000E+00 0. -1.
          1    1    1    2  501    0  0.95811254658E+02  0.11328349488E+03 -0.23219495890E+03  0.27554935251E+03  0.00000000000E+00 0. -1.
<scales pt_clust_5="13000.00000" pt_clust_6="13000.00000" pt_clust_7="13000.00000" pt_clust_8="13000.00000" pt_clust_9="39.50515" pt_clust_10="146.49346"></scales>
<clustering>
<clus scale="   39.505">  2  9  1 -1</clus>
<clus scale="   77.479">  5  6 -1 -1</clus>
<clus scale="   90.884">  7  8 -1 -1</clus>
<clus scale="  117.610">  1  5  2 -1</clus>
<clus scale="  146.493">  2 10  1 -1</clus>
<clus scale="   39.505">  2  5  1 -1</clus>
</clustering>
</event>
<event>
10    4  0.7697601E-005  0.9351018E+02  0.7546771E-02  0.1301266E+00
          2   -1    0    0  502    0 -0.00000000000E+00  0.00000000000E+00  0.56669599367E+03  0.56669599367E+03  0.00000000000E+00 0. -1.
         21   -1    0    0  503  502  0.00000000000E+00 -0.00000000000E+00 -0.56709689095E+02  0.56709689095E+02  0.00000000000E+00 0.  1.
         24    2    1    2    0    0  0.32439736874E+02  0.41151128399E+01  0.26103818697E+03  0.27478307398E+03  0.79344388635E+02 0.  0.
         23    2    1    2    0    0  0.20148632094E+02 -0.41778925494E+02  0.12825151541E+03  0.16375166807E+03  0.90635046204E+02 0.  0.
        -11    1    3    3    0    0  0.16099302769E+02  0.39878749652E+02  0.17465879513E+03  0.17987550401E+03  0.00000000000E+00 0.  1.
         12    1    3    3    0    0  0.16340434105E+02 -0.35763636813E+02  0.86379391835E+02  0.94907569976E+02  0.00000000000E+00 0. -1.
        -11    1    4    4    0    0 -0.25253316137E+02  0.91289053778E+01  0.13016805566E+02  0.29841315596E+02  0.00000000000E+00 0. -1.
         11    1    4    4    0    0  0.45401948231E+02 -0.50907830871E+02  0.11523470985E+03  0.13391035248E+03  0.00000000000E+00 0.  1.
         21    1    1    2  503  501 -0.16299217348E+02  0.25707290910E+02 -0.21735763370E+02  0.37402843493E+02  0.00000000000E+00 0.  1.
          1    1    1    2  501    0 -0.36289151620E+02  0.11956521744E+02  0.14243236556E+03  0.14746809722E+03  0.00000000000E+00 0. -1.
<scales pt_clust_5="13000.00000" pt_clust_6="13000.00000" pt_clust_7="13000.00000" pt_clust_8="13000.00000" pt_clust_9="30.43894" pt_clust_10="40.43036"></scales>
<clustering>
<clus scale="   30.439">  2  9  1 -1</clus>
<clus scale="   40.430">  2 10  1 -1</clus>
<clus scale="   79.344">  5  6 -1 -1</clus>
<clus scale="   82.613">  1  5  2 -1</clus>
<clus scale="   90.635">  7  8 -1 -1</clus>
<clus scale="   30.439">  2  5  1 -1</clus>
</clustering>
</event>
<event>
10    4  0.7697601E-005  0.1758332E+03  0.7546771E-02  0.1197475E+00
         21   -1    0    0  501  502  0.00000000000E+00  0.00000000000E+00  0.30841197866E+03  0.30841197866E+03  0.00000000000E+00 0.  1.
          2   -1    0    0  503    0 -0.00000000000E+00 -0.00000000000E+00 -0.51298944620E+03  0.51298944620E+03  0.00000000000E+00 0. -1.
         24    2    1    2    0    0 -0.31704595698E+02  0.51003341922E+02  0.76567136752E+01  0.99695816048E+02  0.79209268382E+02 0.  0.
         23    2    1    2    0    0  0.11427743587E+03 -0.35230672635E+02 -0.14612430680E+03  0.21145276135E+03  0.95181009667E+02 0.  0.
        -11    1    3    3    0    0 -0.86465107468E+01  0.29886015556E+02  0.42635275621E+02  0.52779757494E+02  0.00000000000E+00 0.  1.
         12    1    3    3    0    0 -0.23058084952E+02  0.21117326366E+02 -0.34978561945E+02  0.46916058554E+02  0.00000000000E+00 0. -1.
        -11    1    4    4    0    0  0.11871604893E+03 -0.50261197173E+01 -0.13263845387E+03  0.17807785263E+03  0.00000000000E+00 0. -1.
         11    1    4    4    0    0 -0.44386130590E+01 -0.30204552918E+02 -0.13485852936E+02  0.33374908723E+02  0.00000000000E+00 0.  1.
         21    1    1    2  503  502  0.96085627508E+02  0.57997397604E+02  0.17087575499E+03  0.20443744663E+03  0.00000000000E+00 0.  1.
          1    1    1    2  501    0 -0.17865846768E+03 -0.73770066890E+02 -0.23698562940E+03  0.30581540083E+03  0.00000000000E+00 0. -1.
<scales pt_clust_5="13000.00000" pt_clust_6="13000.00000" pt_clust_7="13000.00000" pt_clust_8="13000.00000" pt_clust_9="112.22503" pt_clust_10="147.84422"></scales>
<clustering>
<clus scale="   79.209">  5  6 -1 -1</clus>
<clus scale="   95.181">  7  8 -1 -1</clus>
<clus scale="   99.401">  2  5  1 -1</clus>
<clus scale="  112.225">  1  9  2 -1</clus>
<clus scale="  147.844">  1 10  2 -1</clus>
<clus scale="  112.225">  1  5  2 -1</clus>
</clustering>
</event>
<event>
10    4  0.7697601E-005  0.4110369E+03  0.7546771E-02  0.1049670E+00
          2   -1    0    0  503    0 -0.00000000000E+00  0.00000000000E+00  0.18500655899E+04  0.18500655899E+04  0.00000000000E+00 0. -1.
         21   -1    0    0  501  502  0.00000000000E+00 -0.00000000000E+00 -0.52196658510E+03  0.52196658510E+03  0.00000000000E+00 0. -1.
         23    2    1    2    0    0 -0.27272845926E+03 -0.53775312860E+01  0.45769441641E+02  0.29066639004E+03  0.89344155795E+02 0.  0.
         24    2    1    2    0    0  0.17761583970E+03 -0.37857725684E+03  0.11760259674E+04  0.12507784427E+04  0.80879607504E+02 0.  0.
        -13    1    4    4    0    0  0.36738919017E+02 -0.44561414566E+02  0.10188416495E+03  0.11711469125E+03  0.00000000000E+00 0.  1.
         14    1    4    4    0    0  0.14087692069E+03 -0.33401584228E+03  0.10741418024E+04  0.11336637515E+04  0.00000000000E+00 0. -1.
        -13    1    3    3    0    0 -0.25187725799E+03  0.48364558354E+01  0.15339812142E+02  0.25239028158E+03  0.00000000000E+00 0. -1.
         13    1    3    3    0    0 -0.20851201271E+02 -0.10213987121E+02  0.30429629499E+02  0.38276108460E+02  0.00000000000E+00 0.  1.
         21    1    1    2  503  502 -0.53665215246E+02 -0.35894800048E+02 -0.25124306343E+03  0.25940599245E+03  0.00000000000E+00 0. -1.
          1    1    1    2  501    0  0.14877783480E+03  0.41984958818E+03  0.35754665919E+03  0.57118134977E+03  0.00000000000E+00 0. -1.
<scales pt_clust_5="13000.00000" pt_clust_6="13000.00000" pt_clust_7="13000.00000" pt_clust_8="13000.00000" pt_clust_9="64.56309" pt_clust_10="403.00105"></scales>
<clustering>
<clus scale="   64.563">  2  9  1 -1</clus>
<clus scale="   80.880">  5  6 -1 -1</clus>
<clus scale="   89.344">  7  8 -1 -1</clus>
<clus scale="  311.273">  1  7  2 -1</clus>
<clus scale="  403.001">  2 10  1 -1</clus>
<clus scale="   64.563">  2  5  1 -1</clus>
</clustering>
</event>
<event>
10    4  0.7697601E-005  0.3115119E+03  0.7546771E-02  0.1099993E+00
         21   -1    0    0  501  502  0.00000000000E+00  0.00000000000E+00  0.31244902615E+03  0.31244902615E+03  0.00000000000E+00 0. -1.
          2   -1    0    0  503    0 -0.00000000000E+00 -0.00000000000E+00 -0.11661359225E+04  0.11661359225E+04  0.00000000000E+00 0. -1.
         23    2    1    2    0    0 -0.24488344034E+02 -0.15508196907E+03 -0.17937262033E+03  0.25367050140E+03  0.86741513904E+02 0.  0.
         24    2    1    2    0    0 -0.29470642461E+02  0.43709168711E+03 -0.77964697021E+03  0.89792326350E+03  0.80617164842E+02 0.  0.
        -11    1    4    4    0    0  0.19154112973E+02  0.19073112208E+03 -0.28979119214E+03  0.34745384732E+03  0.00000000000E+00 0.  1.
         12    1    4    4    0    0 -0.48624755434E+02  0.24636056503E+03 -0.48985577807E+03  0.55046941618E+03  0.00000000000E+00 0. -1.
        -11    1    3    3    0    0  0.25691511521E+02 -0.13338480864E+02 -0.26578221419E+02  0.39298482029E+02  0.00000000000E+00 0.  1.
         11    1    3    3    0    0 -0.50179855556E+02 -0.14174348820E+03 -0.15279439891E+03  0.21437201937E+03  0.00000000000E+00 0. -1.
         21    1    1    2  503  502 -0.19333480566E+02 -0.17169149055E+02  0.34681057357E+02  0.43258974670E+02  0.00000000000E+00 0.  1.
          1    1    1    2  501    0  0.73292467061E+02 -0.26484056899E+03  0.70651636798E+02  0.28373220912E+03  0.00000000000E+00 0. -1.
<scales pt_clust_5="13000.00000" pt_clust_6="13000.00000" pt_clust_7="13000.00000" pt_clust_8="13000.00000" pt_clust_9="25.85659" pt_clust_10="300.89952"></scales>
<clustering>
<clus scale="   25.857">  1  9  2 -1</clus>
<clus scale="   80.617">  5  6 -1 -1</clus>
<clus scale="   86.742">  7  8 -1 -1</clus>
<clus scale="  181.765">  2  7  1 -1</clus>
<clus scale="  300.900">  1 10  2 -1</clus>
<clus scale="   25.857">  1  5  2 -1</clus>
</clustering>
</event>
<event>
10    4  0.7697601E-005  0.2962595E+03  0.7546771E-02  0.1128821E+00
          2   -1    0    0  503    0 -0.00000000000E+00  0.00000000000E+00  0.72531079847E+03  0.72531079847E+03  0.00000000000E+00 0. -1.
         21   -1    0    0  501  502  0.00000000000E+00 -0.00000000000E+00 -0.35413356067E+03  0.35413356067E+03  0.00000000000E+00 0. -1.
         23    2    1    2    0    0  0.53642146022E+02 -0.79230205062E+01  0.22983098214E+03  0.25135178657E+03  0.86111475295E+02 0.  0.
         24    2    1    2    0    0  0.93971139831E+00 -0.29635368132E+03 -0.12549319729E+03  0.33145435592E+03  0.79290983110E+02 0.  0.
        -11    1    4    4    0    0 -0.21572322965E+02 -0.20094547170E+02 -0.93384529672E+01  0.30925113547E+02  0.00000000000E+00 0.  1.
         12    1    4    4    0    0  0.22512034363E+02 -0.27625913415E+03 -0.11615474432E+03  0.30052924237E+03  0.00000000000E+00 0. -1.
        -11    1    3    3    0    0  0.67978485361E+02 -0.26191368105E+02  0.13165000600E+03  0.15046190984E+03  0.00000000000E+00 0.  1.
         11    1    3    3    0    0 -0.14336339339E+02  0.18268347598E+02  0.98180976141E+02  0.10088987672E+03  0.00000000000E+00 0. -1.
         21    1    1    2  503  502  0.13976299122E+02  0.17204837915E+02 -0.55394863446E+02  0.59665184833E+02  0.00000000000E+00 0. -1.
          1    1    1    2  501    0 -0.68558156543E+02  0.28707186392E+03  0.32223431639E+03  0.43697303182E+03  0.00000000000E+00 0. -1.
<scales pt_clust_5="13000.00000" pt_clust_6="13000.00000" pt_clust_7="13000.00000" pt_clust_8="13000.00000" pt_clust_9="22.16627" pt_clust_10="285.45174"></scales>
<clustering>
<clus scale="   22.166">  2  9  1 -1</clus>
<clus scale="   79.291">  5  6 -1 -1</clus>
<clus scale="   86.111">  7  8 -1 -1</clus>
<clus scale="  101.983">  1  7  2 -1</clus>
<clus scale="  285.452">  2 10  1 -1</clus>
<clus scale="   22.166">  2  5  1 -1</clus>
</clustering>
</event>
<event>
10    4  0.7697601E-005  0.1007885E+03  0.7546771E-02  0.1282583E+00
         21   -1    0    0  503  502  0.00000000000E+00  0.00000000000E+00  0.36856002759E+03  0.36856002759E+03  0.00000000000E+00 0.  1.
          2   -1    0    0  502    0 -0.00000000000E+00 -0.00000000000E+00 -0.14573896541E+03  0.14573896541E+03  0.00000000000E+00 0. -1.
         24    2    1    2    0    0 -0.86859500979E+01 -0.58411557125E+02 -0.38119461401E+02  0.12062261658E+03  0.98027376575E+02 0.  0.
         23    2    1    2    0    0  0.10081083983E+02 -0.25071094764E+02  0.91826167240E+01  0.94930312752E+02  0.90538697706E+02 0.  0.
        -11    1    3    3    0    0  0.40660303161E+02 -0.22769142042E+02 -0.37388285889E+02  0.59745945504E+02  0.00000000000E+00 0.  1.
         12    1    3    3    0    0 -0.49346253259E+02 -0.35642415083E+02 -0.73117551238E+00  0.60876671076E+02  0.00000000000E+00 0. -1.
        -13    1    4    4    0    0  0.50429246035E+02 -0.15220079768E+02  0.15321879834E+01  0.52698266421E+02  0.00000000000E+00 0.  1.
         13    1    4    4    0    0 -0.40348162051E+02 -0.98510149967E+01  0.76504287406E+01  0.42232046331E+02  0.00000000000E+00 0. -1.
         21    1    1    2  503  501  0.36678366387E+02 -0.19636193751E+02  0.30170849696E+02  0.51392244913E+02  0.00000000000E+00 0.  1.
          1    1    1    2  501    0 -0.38073500272E+02  0.10311884564E+03  0.22158705716E+03  0.24735381875E+03  0.00000000000E+00 0. -1.
<scales pt_clust_5="13000.00000" pt_clust_6="13000.00000" pt_clust_7="13000.00000" pt_clust_8="13000.00000" pt_clust_9="41.60388" pt_clust_10="89.85543"></scales>
<clustering>
<clus scale="   41.604">  1  9  2 -1</clus>
<clus scale="   89.855">  1 10  2 -1</clus>
<clus scale="   90.539">  7  8 -1 -1</clus>
<clus scale="   93.521">  1  7  2 -1</clus>
<clus scale="   98.027">  5  6 -1 -1</clus>
<clus scale="   41.604">  1  5  2 -1</clus>
</clustering>
</event>
<event>
10    4  0.7697601E-005  0.4655217E+03  0.7546771E-02  0.1069586E+00
         21   -1    0    0  503  502  0.00000000000E+00  0.00000000000E+00  0.37703862185E+03  0.37703862185E+03  0.00000000000E+00 0. -1.
          2   -1    0    0  502    0 -0.00000000000E+00 -0.00000000000E+00 -0.10800953752E+04  0.10800953752E+04  0.00000000000E+00 0. -1.
         23    2    1    2    0    0 -0.81173302278E+02  0.14963091954E+02 -0.36697794381E+02  0.12583152215E+03  0.87600483620E+02 0.  0.
         24    2    1    2    0    0  0.48464751033E+03 -0.21374558335E+03 -0.68121089303E+03  0.86671761101E+03  0.81121839108E+02 0.  0.
        -13    1    4    4    0    0  0.30941820518E+03 -0.13441550138E+03 -0.36862867667E+03  0.49969416043E+03  0.00000000000E+00 0.  1.
         14    1    4    4    0    0  0.17522930516E+03 -0.79330081974E+02 -0.31258221636E+03  0.36702345058E+03  0.00000000000E+00 0. -1.
        -13    1    3    3    0    0 -0.19779536171E+01  0.26374469445E+02 -0.37409855678E+02  0.45815087481E+02  0.00000000000E+00 0.  1.
         13    1    3    3    0    0 -0.79195348661E+02 -0.11411377491E+02  0.71206129720E+00  0.80016434669E+02  0.00000000000E+00 0. -1.
         21    1    1    2  503  501 -0.21560879335E+02  0.21554590801E+02  0.30685317422E+02  0.43255758086E+02  0.00000000000E+00 0.  1.
          1    1    1    2  501    0 -0.38191332872E+03  0.17722790060E+03 -0.15833383402E+02  0.42132910585E+03  0.00000000000E+00 0. -1.
<scales pt_clust_5="13000.00000" pt_clust_6="13000.00000" pt_clust_7="13000.00000" pt_clust_8="13000.00000" pt_clust_9="30.48724" pt_clust_10="458.39906"></scales>
<clustering>
<clus scale="   30.487">  1  9  2 -1</clus>
<clus scale="   81.122">  5  6 -1 -1</clus>
<clus scale="   87.600">  7  8 -1 -1</clus>
<clus scale="  122.662">  2  7  1 -1</clus>
<clus scale="  458.399">  1 10  2 -1</clus>
<clus scale="   30.487">  1  5  2 -1</clus>
</clustering>
</event>
<event>
10    4  0.7697601E-005  0.1460211E+03  0.7546771E-02  0.1207302E+00
         21   -1    0    0  501  502  0.00000000000E+00  0.00000000000E+00  0.46699164697E+03  0.46699164697E+03  0.00000000000E+00 0. -1.
          2   -1    0    0  503    0 -0.00000000000E+00 -0.00000000000E+00 -0.38078202997E+03  0.38078202997E+03  0.00000000000E+00 0. -1.
         24    2    1    2    0    0 -0.32174879126E+02 -0.10352150858E+03 -0.26921737290E+03  0.30172253238E+03  0.82501921748E+02 0.  0.
         23    2    1    2    0    0  0.22537477841E+02  0.14222212928E+03  0.15141540262E+02  0.17147279507E+03  0.91861750705E+02 0.  0.
        -13    1    3    3    0    0  0.20373849531E+01 -0.95180753541E+02 -0.23049723192E+03  0.24938424310E+03  0.00000000000E+00 0.  1.
         14    1    3    3    0    0 -0.34212264079E+02 -0.83407550398E+01 -0.38720140977E+02  0.52338289285E+02  0.00000000000E+00 0. -1.
        -11    1    4    4    0    0 -0.16656321471E+02  0.53189610719E+02  0.42874436346E+02  0.70319165420E+02  0.00000000000E+00 0.  1.
         11    1    4    4    0    0  0.39193799312E+02  0.89032518566E+02 -0.27732896084E+02  0.10115362965E+03  0.00000000000E+00 0. -1.
         21    1    1    2  503  502  0.36001277754E+02 -0.82755859828E+02  0.28581899694E+03  0.29972841598E+03  0.00000000000E+00 0. -1.
          1    1    1    2  501    0 -0.26363876468E+02  0.44055239124E+02  0.54466452690E+02  0.74849933502E+02  0.00000000000E+00 0. -1.
<scales pt_clust_5="13000.00000" pt_clust_6="13000.00000" pt_clust_7="13000.00000" pt_clust_8="13000.00000" pt_clust_9="53.41364" pt_clust_10="51.34119"></scales>
<clustering>
<clus scale="   51.341">  1 10  2 -1</clus>
<clus scale="   53.414">  1  9  2 -1</clus>
<clus scale="   82.502">  5  6 -1 -1</clus>
<clus scale="   91.862">  7  8 -1 -1</clus>
<clus scale="  140.322">  2  5  1 -1</clus>
<clus scale="   51.341">  1  5  2 -1</clus>
</clustering>
</event>
<event>
10    4  0.7697601E-005  0.1539356E+03  0.7546771E-02  0.1223145E+00
          2   -1    0    0  503    0 -0.00000000000E+00  0.00000000000E+00  0.94725777520E+02  0.94725777520E+02  0.00000000000E+00 0. -1.
         21   -1    0    0  501  502  0.00000000000E+00 -0.00000000000E+00 -0.95563604720E+03  0.95563604720E+03  0.00000000000E+00 0. -1.
         24    2    1    2    0    0  0.27034874491E+02 -0.52645690618E+01  0.11495513670E+02  0.86985688123E+02  0.81705342405E+02 0.  0.
         23    2    1    2    0    0  0.17650026497E+02  0.10533019695E+03 -0.15509405621E+03  0.20943582928E+03  0.91669114148E+02 0.  0.
        -11    1    3    3    0    0 -0.27494055001E+02 -0.14207108696E+02  0.49715735576E+01  0.31344561595E+02  0.00000000000E+00 0.  1.
         12    1    3    3    0    0  0.54528929493E+02  0.89425396341E+01  0.65239401119E+01  0.55641126528E+02  0.00000000000E+00 0. -1.
        -11    1    4    4    0    0  0.51296863800E+02  0.90213879674E+02 -0.11749709798E+03  0.15676568615E+03  0.00000000000E+00 0. -1.
         11    1    4    4    0    0 -0.33646837303E+02  0.15116317274E+02 -0.37596958235E+02  0.52670143126E+02  0.00000000000E+00 0.  1.
         21    1    1    2  503  502 -0.22108503029E+02  0.52193536331E+02 -0.36633990472E+03  0.37069917310E+03  0.00000000000E+00 0. -1.
          1    1    1    2  501    0 -0.22576397959E+02 -0.15225916422E+03 -0.35097182241E+03  0.38324113422E+03  0.00000000000E+00 0. -1.
<scales pt_clust_5="13000.00000" pt_clust_6="13000.00000" pt_clust_7="13000.00000" pt_clust_8="13000.00000" pt_clust_9="56.68290" pt_clust_10="123.66463"></scales>
<clustering>
<clus scale="   56.683">  2  9  1 -1</clus>
<clus scale="   81.705">  5  6 -1 -1</clus>
<clus scale="   85.647">  1  5  2 -1</clus>
<clus scale="   91.669">  7  8 -1 -1</clus>
<clus scale="  123.665">  2 10  1 -1</clus>
<clus scale="   56.683">  2  5  1 -1</clus>
</clustering>
</event>
<event>
10    4  0.7697601E-005  0.1229661E+03  0.7546771E-02  0.1242240E+00
         21   -1    0    0  503  502  0.00000000000E+00  0.00000000000E+00  0.12275489124E+03  0.12275489124E+03  0.00000000000E+00 0. -1.
         -1   -1    0    0    0  501 -0.00000000000E+00 -0.00000000000E+00 -0.37718484200E+03  0.37718484200E+03  0.00000000000E+00 0.  1.
         24    2    1    2    0    0 -0.71932761651E+01  0.71750840390E+02 -0.18576431582E+03  0.21439059098E+03  0.79088672720E+02 0.  0.
         23    2    1    2    0    0  0.49029354122E+01 -0.10419153457E+03 -0.10188332514E+03  0.17251005333E+03  0.92193231351E+02 0.  0.
        -13    1    3    3    0    0 -0.38911996510E+02  0.29676590923E+02 -0.12338729414E+03  0.13273759030E+03  0.00000000000E+00 0.  1.
         14    1    3    3    0    0  0.31718720345E+02  0.42074249467E+02 -0.62377021671E+02  0.81653000686E+02  0.00000000000E+00 0. -1.
        -11    1    4    4    0    0  0.27947478257E+02 -0.88602685508E+02 -0.10955991345E+03  0.14364843214E+03  0.00000000000E+00 0.  1.
         11    1    4    4    0    0 -0.23044542844E+02 -0.15588849059E+02  0.76765883079E+01  0.28861621194E+02  0.00000000000E+00 0. -1.
         21    1    1    2  503  501  0.34963044480E+02  0.28516953280E+02  0.56811305244E+02  0.72547608556E+02  0.00000000000E+00 0. -1.
         -2    1    1    2    0  502 -0.32672703727E+02  0.39237408984E+01 -0.23593615054E+02  0.40491480373E+02  0.00000000000E+00 0.  1.
<scales pt_clust_5="13000.00000" pt_clust_6="13000.00000" pt_clust_7="13000.00000" pt_clust_8="13000.00000" pt_clust_9="34.87423" pt_clust_10="32.90748"></scales>
<clustering>
<clus scale="   32.907">  1 10  2 -1</clus>
<clus scale="   34.874">  1  9  2 -1</clus>
<clus scale="   79.089">  5  6 -1 -1</clus>
<clus scale="   92.193">  7  8 -1 -1</clus>
<clus scale="  113.473">  2  5  1 -1</clus>
<clus scale="   32.907">  1  5  2 -1</clus>
</clustering>
</event>
<event>
10    4  0.7697601E-005  0.1412357E+03  0.7546771E-02  0.1223938E+00
          2   -1    0    0  502    0 -0.00000000000E+00  0.00000000000E+00  0.45212879827E+03  0.45212879827E+03  0.00000000000E+00 0. -1.
         21   -1    0    0  503  502  0.00000000000E+00 -0.00000000000E+00 -0.30765459383E+03  0.30765459383E+03  0.00000000000E+00 0. -1.
         23    2    1    2    0    0 -0.57663600413E+02  0.31234659806E+02  0.10199663645E+03  0.14933254407E+03  0.87156182150E+02 0.  0.
         24    2    1    2    0    0 -0.33938636038E+02 -0.12057348257E+03  0.18212655392E+03  0.23565772829E+03  0.81698760969E+02 0.  0.
        -11    1    4    4    0    0 -0.26055483631E+02  0.25355746487E+01  0.30972715539E+02  0.40553994549E+02  0.00000000000E+00 0.  1.
         12    1    4    4    0    0 -0.78831524065E+01 -0.12310905722E+03  0.15115383838E+03  0.19510373374E+03  0.00000000000E+00 0. -1.
        -13    1    3    3    0    0 -0.69509431198E+02  0.91372207891E+01  0.36160081303E+02  0.78883466639E+02  0.00000000000E+00 0.  1.
         13    1    3    3    0    0  0.11845830784E+02  0.22097439017E+02  0.65836555142E+02  0.70449077433E+02  0.00000000000E+00 0. -1.
         21    1    1    2  503  501  0.12937042305E+03 -0.33368358828E+02 -0.19385127746E+03  0.23543252006E+03  0.00000000000E+00 0. -1.
          1    1    1    2  501    0 -0.37768186598E+02  0.12270718160E+03  0.54202291546E+02  0.13936059968E+03  0.00000000000E+00 0. -1.
<scales pt_clust_5="13000.00000" pt_clust_6="13000.00000" pt_clust_7="13000.00000" pt_clust_8="13000.00000" pt_clust_9="129.55571" pt_clust_10="115.20774"></scales>
<clustering>
<clus scale="   81.699">  5  6 -1 -1</clus>
<clus scale="   87.156">  7  8 -1 -1</clus>
<clus scale="  109.073">  1  7  2 -1</clus>
<clus scale="  129.556">  2  9  1 -1</clus>
<clus scale="  115.208">  2 10  1 -1</clus>
<clus scale="  129.556">  2  5  1 -1</clus>
</clustering>
</event>
<event>
10    4  0.7697601E-005  0.9735784E+02  0.7546771E-02  0.1295058E+00
         21   -1    0    0  503  502  0.00000000000E+00  0.00000000000E+00  0.68436756431E+02  0.68436756431E+02  0.00000000000E+00 0.  1.
          2   -1    0    0  502    0 -0.00000000000E+00 -0.00000000000E+00 -0.41075683194E+03  0.41075683194E+03  0.00000000000E+00 0. -1.
         24    2    1    2    0    0 -0.75430327256E+01  0.14738491668E+02 -0.20610502608E+03  0.22207325686E+03  0.81013141879E+02 0.  0.
         23    2    1    2    0    0  0.26997001399E+02  0.30176407218E+02 -0.44783413097E+01  0.10469150143E+03  0.96440662037E+02 0.  0.
        -11    1    3    3    0    0  0.34879491787E+02  0.16093465717E+02 -0.12134509079E+03  0.12728004417E+03  0.00000000000E+00 0.  1.
         12    1    3    3    0    0 -0.42422524513E+02 -0.13549740485E+01 -0.84759935288E+02  0.94793212683E+02  0.00000000000E+00 0. -1.
        -13    1    4    4    0    0  0.85858558161E+01 -0.24790216621E+02  0.27897123392E+02  0.38295185778E+02  0.00000000000E+00 0.  1.
         13    1    4    4    0    0  0.18411145582E+02  0.54966623838E+02 -0.32375464702E+02  0.66396315655E+02  0.00000000000E+00 0. -1.
         21    1    1    2  503  501  0.88749206333E+01 -0.22032610995E+02 -0.10734950400E+02  0.26066056925E+02  0.00000000000E+00 0.  1.
          1    1    1    2  501    0 -0.28328889306E+02 -0.22882287892E+02 -0.12100175772E+03  0.12636277316E+03  0.00000000000E+00 0. -1.
<scales pt_clust_5="13000.00000" pt_clust_6="13000.00000" pt_clust_7="13000.00000" pt_clust_8="13000.00000" pt_clust_9="23.75290" pt_clust_10="36.73581"></scales>
<clustering>
<clus scale="   23.753">  1  9  2 -1</clus>
<clus scale="   36.736">  1 10  2 -1</clus>
<clus scale="   81.013">  5  6 -1 -1</clus>
<clus scale="   82.103">  2  5  1 -1</clus>
<clus scale="   96.441">  7  8 -1 -1</clus>
<clus scale="   23.753">  1  5  2 -1</clus>
</clustering>
</event>
<event>
10    4  0.7697601E-005  0.1451718E+03  0.7546771E-02  0.1224890E+00
         21   -1    0    0  501  502  0.00000000000E+00  0.00000000000E+00  0.32317060930E+03  0.32317060930E+03  0.00000000000E+00 0.  1.
          2   -1    0    0  503    0 -0.00000000000E+00 -0.00000000000E+00 -0.63267500492E+03  0.63267500492E+03  0.00000000000E+00 0. -1.
         24    2    1    2    0    0  0.12747710335E+02  0.56769317346E+02 -0.33945399228E+03  0.35477964681E+03  0.85172327685E+02 0.  0.
         23    2    1    2    0    0  0.89681754368E+02 -0.66669311081E+02 -0.13201682388E+03  0.19623790385E+03  0.92699832867E+02 0.  0.
        -13    1    3    3    0    0  0.43781710689E+02  0.14373269313E+02 -0.21143664748E+03  0.21639982661E+03  0.00000000000E+00 0.  1.
         14    1    3    3    0    0 -0.31034000354E+02  0.42396048033E+02 -0.12801734481E+03  0.13837982020E+03  0.00000000000E+00 0. -1.
        -13    1    4    4    0    0  0.25059819424E+02 -0.63416127208E+02 -0.27945377137E+02  0.73692223761E+02  0.00000000000E+00 0.  1.
         13    1    4    4    0    0  0.64621934944E+02 -0.32531838731E+01 -0.10407144674E+03  0.12254568009E+03  0.00000000000E+00 0. -1.
         21    1    1    2  503  502 -0.21139493238E+02 -0.79117915632E+02  0.24508217846E+03  0.25840239346E+03  0.00000000000E+00 0.  1.
          1    1    1    2  501    0 -0.81289971465E+02  0.89017909366E+02 -0.83115757924E+02  0.14642567010E+03  0.00000000000E+00 0. -1.
<scales pt_clust_5="13000.00000" pt_clust_6="13000.00000" pt_clust_7="13000.00000" pt_clust_8="13000.00000" pt_clust_9="81.89336" pt_clust_10="111.72111"></scales>
<clustering>
<clus scale="   81.893">  1  9  2 -1</clus>
<clus scale="   85.172">  5  6 -1 -1</clus>
<clus scale="   92.700">  7  8 -1 -1</clus>
<clus scale="   98.465">  2  5  1 -1</clus>
<clus scale="  111.721">  1 10  2 -1</clus>
<clus scale="   81.893">  1  5  2 -1</clus>
</clustering>
</event>
<event>
10    4  0.7697601E-005  0.2815784E+03  0.7546771E-02  0.1113275E+00
         21   -1    0    0  501  502  0.00000000000E+00  0.00000000000E+00  0.16572479438E+03  0.16572479438E+03  0.00000000000E+00 0. -1.
          2   -1    0    0  503    0 -0.00000000000E+00 -0.00000000000E+00 -0.10941591799E+04  0.10941591799E+04  0.00000000000E+00 0. -1.
         23    2    1    2    0    0 -0.10313848279E+03  0.10827673555E+03 -0.48969388715E+03  0.52017210960E+03  0.91747056607E+02 0.  0.
         24    2    1    2    0    0  0.47044947303E+02  0.21037910380E+03 -0.24084535078E+03  0.33307844856E+03  0.80387657750E+02 0.  0.
        -13    1    4    4    0    0  0.12128817625E+02  0.18373185015E+02  0.13316879833E+01  0.22055737064E+02  0.00000000000E+00 0.  1.
         14    1    4    4    0    0  0.34916129678E+02  0.19200591879E+03 -0.24217703876E+03  0.31102271149E+03  0.00000000000E+00 0. -1.
        -11    1    3    3    0    0 -0.49641666386E+02  0.10945434251E+03 -0.37081228776E+03  0.38980290005E+03  0.00000000000E+00 0. -1.
         11    1    3    3    0    0 -0.53496816408E+02 -0.11776069552E+01 -0.11888159940E+03  0.13036920955E+03  0.00000000000E+00 0.  1.
         21    1    1    2  503  502  0.17856151209E+02  0.11190131374E+02 -0.21626190645E+01  0.21183439225E+02  0.00000000000E+00 0. -1.
          1    1    1    2  501    0  0.38237384282E+02 -0.32984597073E+03 -0.19573252850E+03  0.38544997688E+03  0.00000000000E+00 0. -1.
<scales pt_clust_5="13000.00000" pt_clust_6="13000.00000" pt_clust_7="13000.00000" pt_clust_8="13000.00000" pt_clust_9="21.07276" pt_clust_10="269.85964"></scales>
<clustering>
<clus scale="   21.073">  1  9  2 -1</clus>
<clus scale="   80.388">  5  6 -1 -1</clus>
<clus scale="   91.747">  7  8 -1 -1</clus>
<clus scale="  175.101">  2  7  1 -1</clus>
<clus scale="  269.860">  1 10  2 -1</clus>
<clus scale="   21.073">  1  5  2 -1</clus>
</clustering>
</event>
<event>
10    4  0.7697601E-005  0.9473663E+02  0.7546771E-02  0.1298905E+00
          2   -1    0    0  503    0 -0.00000000000E+00  0.00000000000E+00  0.13152217527E+03  0.13152217527E+03  0.00000000000E+00 0. -1.
         21   -1    0    0  501  502  0.00000000000E+00 -0.00000000000E+00 -0.28312738859E+03  0.28312738859E+03  0.00000000000E+00 0. -1.
         23    2    1    2    0    0 -0.12148065195E+02  0.15427446975E+02  0.46660861472E+02  0.10498140787E+03  0.91968899077E+02 0.  0.
         24    2    1    2    0    0 -0.71784968373E+02 -0.60734258647E+02 -0.12773883154E+03  0.17756085709E+03  0.79805494986E+02 0.  0.
        -11    1    4    4    0    0 -0.14221235174E+02 -0.54909414645E+02 -0.30475209318E+02  0.64389639923E+02  0.00000000000E+00 0.  1.
         12    1    4    4    0    0 -0.57563733199E+02 -0.58248440026E+01 -0.97263622220E+02  0.11317121717E+03  0.00000000000E+00 0. -1.
        -11    1    3    3    0    0  0.22822754749E+02 -0.63500420681E+01 -0.16996453317E+02  0.29156141617E+02  0.00000000000E+00 0.  1.
         11    1    3    3    0    0 -0.34970819945E+02  0.21777489043E+02  0.63657314789E+02  0.75825266255E+02  0.00000000000E+00 0. -1.
         21    1    1    2  503  502  0.29643219970E+02 -0.47833269478E+01 -0.44712059549E+02  0.53858787361E+02  0.00000000000E+00 0.  1.
          1    1    1    2  501    0  0.54289813598E+02  0.50090138621E+02 -0.25815183701E+02  0.78248511533E+02  0.00000000000E+00 0. -1.
<scales pt_clust_5="13000.00000" pt_clust_6="13000.00000" pt_clust_7="13000.00000" pt_clust_8="13000.00000" pt_clust_9="30.02667" pt_clust_10="78.17034"></scales>
<clustering>
<clus scale="   30.027">  2  9  1 -1</clus>
<clus scale="   78.170">  2 10  1 -1</clus>
<clus scale="   79.805">  5  6 -1 -1</clus>
<clus scale="   82.980">  2  5  1 -1</clus>
<clus scale="   91.969">  7  8 -1 -1</clus>
<clus scale="   30.027">  2  5  1 -1</clus>
</clustering>
</event>
<event>
10    4  0.7697601E-005  0.1136075E+03  0.7546771E-02  0.1258170E+00
         21   -1    0    0  503  502  0.00000000000E+00  0.00000000000E+00  0.55489766706E+03  0.55489766706E+03  0.00000000000E+00 0.  1.
         -1   -1    0    0    0  501 -0.00000000000E+00 -0.00000000000E+00 -0.40114942277E+03  0.40114942277E+03  0.00000000000E+00 0.  1.
         24    2    1    2    0    0 -0.38322382950E+02 -0.60192734348E+02 -0.25882334129E+03  0.28008272974E+03  0.79781220837E+02 0.  0.
         23    2    1    2    0    0 -0.14368685327E+02  0.69024555737E+02 -0.43191515100E+02  0.12308722426E+03  0.91181738234E+02 0.  0.
        -13    1    3    3    0    0 -0.21410799237E+02 -0.41092722216E+02 -0.24813310902E+03  0.25242241172E+03  0.00000000000E+00 0.  1.
         14    1    3    3    0    0 -0.16911583713E+02 -0.19100012132E+02 -0.10690232264E+02  0.27660318020E+02  0.00000000000E+00 0. -1.
        -13    1    4    4    0    0 -0.46588218646E+01  0.22475270863E+02 -0.66341647310E+02  0.70200118158E+02  0.00000000000E+00 0. -1.
         13    1    4    4    0    0 -0.97098634623E+01  0.46549284874E+02  0.23150132211E+02  0.52887106104E+02  0.00000000000E+00 0.  1.
         21    1    1    2  503  501  0.50294697302E+02 -0.39022483065E+02  0.49736322179E+03  0.50142046743E+03  0.00000000000E+00 0.  1.
         -2    1    1    2    0  502  0.23963709741E+01  0.30190661676E+02 -0.41600121120E+02  0.51456668406E+02  0.00000000000E+00 0.  1.
<scales pt_clust_5="13000.00000" pt_clust_6="13000.00000" pt_clust_7="13000.00000" pt_clust_8="13000.00000" pt_clust_9="53.73942" pt_clust_10="30.28563"></scales>
<clustering>
<clus scale="   30.286">  1 10  2 -1</clus>
<clus scale="   53.739">  1  9  2 -1</clus>
<clus scale="   79.781">  5  6 -1 -1</clus>
<clus scale="   91.182">  7  8 -1 -1</clus>
<clus scale="  104.678">  2  5  1 -1</clus>
<clus scale="   30.286">  1  5  2 -1</clus>
</clustering>
</event>
<event>
10    4  0.7697601E-005  0.1001383E+03  0.7546771E-02  0.1283038E+00
          2   -1    0    0  503    0 -0.00000000000E+00  0.00000000000E+00  0.46682617813E+03  0.46682617813E+03  0.00000000000E+00 0. -1.
         21   -1    0    0  501  502  0.00000000000E+00 -0.00000000000E+00 -0.91085396465E+02  0.91085396465E+02  0.00000000000E+00 0. -1.
         24    2    1    2    0    0 -0.31922858181E+02  0.48015980686E+02  0.14145341136E+03  0.17477776953E+03  0.84932902095E+02 0.  0.
         23    2    1    2    0    0 -0.85148605657E+02 -0.22841084102E+02  0.27526413551E+02  0.12974561819E+03  0.91127503136E+02 0.  0.
        -11    1    3    3    0    0  0.74994637142E+01 -0.21462201269E+02  0.29399354868E+02  0.37164366078E+02  0.00000000000E+00 0.  1.
         12    1    3    3    0    0 -0.39422321896E+02  0.69478181954E+02  0.11205405650E+03  0.13761340345E+03  0.00000000000E+00 0. -1.
        -13    1    4    4    0    0 -0.40666487609E+02  0.35083077843E+02  0.98592013749E+01  0.54605763589E+02  0.00000000000E+00 0.  1.
         13    1    4    4    0    0 -0.44482118048E+02 -0.57924161945E+02  0.17667212176E+02  0.75139854599E+02  0.00000000000E+00 0. -1.
         21    1    1    2  503  502  0.79458270104E+02 -0.26901324777E+02  0.63363060658E+02  0.10512932711E+03  0.00000000000E+00 0. -1.
          1    1    1    2  501    0  0.37613193734E+02  0.17264281938E+01  0.14339789609E+03  0.14825885977E+03  0.00000000000E+00 0. -1.
<scales pt_clust_5="13000.00000" pt_clust_6="13000.00000" pt_clust_7="13000.00000" pt_clust_8="13000.00000" pt_clust_9="92.20673" pt_clust_10="37.65281"></scales>
<clustering>
<clus scale="   37.653">  2 10  1 -1</clus>
<clus scale="   84.933">  5  6 -1 -1</clus>
<clus scale="   91.128">  7  8 -1 -1</clus>
<clus scale="   92.207">  1  9  2 -1</clus>
<clus scale="   94.536">  1  5  2 -1</clus>
<clus scale="   37.653">  2  5  1 -1</clus>
</clustering>
</event>
<event>
10    4  0.7697601E-005  0.1322284E+03  0.7546771E-02  0.1243924E+00
         -3   -1    0    0    0  501 -0.00000000000E+00  0.00000000000E+00  0.34982112720E+03  0.34982112720E+03  0.00000000000E+00 0.  1.
         21   -1    0    0  501  502  0.00000000000E+00 -0.00000000000E+00 -0.16669825756E+03  0.16669825756E+03  0.00000000000E+00 0. -1.
         24    2    1    2    0    0 -0.95815845565E+01  0.36641348083E+02  0.23241410086E+02  0.91202697095E+02  0.79645299062E+02 0.  0.
         23    2    1    2    0    0 -0.11413119416E+03 -0.10426486401E+02 -0.78223737929E+01  0.14707911378E+03  0.91850068481E+02 0.  0.
        -11    1    3    3    0    0  0.24246144888E+01 -0.24545765988E+02  0.20251989044E-01  0.24665234511E+02  0.00000000000E+00 0.  1.
         12    1    3    3    0    0 -0.12006199045E+02  0.61187114071E+02  0.23221158097E+02  0.66537462584E+02  0.00000000000E+00 0. -1.
        -13    1    4    4    0    0 -0.72993180438E+02  0.10413916421E+01  0.39773167098E+02  0.83132386638E+02  0.00000000000E+00 0.  1.
         13    1    4    4    0    0 -0.41138013726E+02 -0.11467878043E+02 -0.47595540891E+02  0.63946727147E+02  0.00000000000E+00 0. -1.
         21    1    1    2  503  502  0.30449176382E+02  0.45024649983E+01 -0.38830220735E+02  0.49550081491E+02  0.00000000000E+00 0. -1.
         -4    1    1    2    0  503  0.93263602338E+02 -0.30717326680E+02  0.20653405408E+03  0.22868749239E+03  0.00000000000E+00 0.  1.
<scales pt_clust_5="13000.00000" pt_clust_6="13000.00000" pt_clust_7="13000.00000" pt_clust_8="13000.00000" pt_clust_9="30.78026" pt_clust_10="95.12061"></scales>
<clustering>
<clus scale="   30.780">  2  9  1 -1</clus>
<clus scale="   79.645">  5  6 -1 -1</clus>
<clus scale="   88.206">  1  5  2 -1</clus>
<clus scale="   91.850">  7  8 -1 -1</clus>
<clus scale="   95.121">  2 10  1 -1</clus>
<clus scale="   30.780">  2  5  1 -1</clus>
</clustering>
</event>
<event>
10    4  0.7697601E-005  0.1411305E+03  0.7546771E-02  0.1235900E+00
          2   -1    0    0  503    0 -0.00000000000E+00  0.00000000000E+00  0.49360409799E+03  0.49360409799E+03  0.00000000000E+00 0. -1.
         21   -1    0    0  501  502  0.00000000000E+00 -0.00000000000E+00 -0.15725357376E+03  0.15725357376E+03  0.00000000000E+00 0. -1.
         24    2    1    2    0    0 -0.37835530981E+02  0.72127305918E+00  0.30975168758E+03  0.32153699003E+03  0.77510517728E+02 0.  0.
         23    2    1    2    0    0  0.13968917759E+01  0.10515903220E+03  0.69757037497E+02  0.15633090121E+03  0.92265557132E+02 0.  0.
        -11    1    3    3    0    0 -0.22488658554E+02 -0.38101760814E+02  0.14675279089E+03  0.15327708757E+03  0.00000000000E+00 0.  1.
         12    1    3    3    0    0 -0.15346872427E+02  0.38823033873E+02  0.16299889669E+03  0.16825990245E+03  0.00000000000E+00 0. -1.
        -13    1    4    4    0    0  0.44298221166E+02  0.43448681753E+02  0.16465371590E+02  0.64196797476E+02  0.00000000000E+00 0.  1.
         13    1    4    4    0    0 -0.42901329390E+02  0.61710350444E+02  0.53291665907E+02  0.92134103732E+02  0.00000000000E+00 0. -1.
         21    1    1    2  503  502  0.47841432392E+02  0.23074418801E+01  0.14266691420E+02  0.49976648801E+02  0.00000000000E+00 0.  1.
          1    1    1    2  501    0 -0.11402793187E+02 -0.10818774714E+03 -0.57424892262E+02  0.12301313171E+03  0.00000000000E+00 0. -1.
<scales pt_clust_5="13000.00000" pt_clust_6="13000.00000" pt_clust_7="13000.00000" pt_clust_8="13000.00000" pt_clust_9="47.89705" pt_clust_10="106.79370"></scales>
<clustering>
<clus scale="   47.897">  2  9  1 -1</clus>
<clus scale="   77.511">  5  6 -1 -1</clus>
<clus scale="   85.388">  1  5  2 -1</clus>
<clus scale="   92.266">  7  8 -1 -1</clus>
<clus scale="  106.794">  2 10  1 -1</clus>
<clus scale="   47.897">  2  5  1 -1</clus>
</clustering>
</event>
<event>
10    4  0.7697601E-005  0.1777323E+03  0.7546771E-02  0.1191732E+00
          2   -1    0    0  503    0 -0.00000000000E+00  0.00000000000E+00  0.11945115829E+03  0.11945115829E+03  0.00000000000E+00 0. -1.
         21   -1    0    0  501  502  0.00000000000E+00 -0.00000000000E+00 -0.67285761847E+03  0.67285761847E+03  0.00000000000E+00 0.  1.
         24    2    1    2    0    0  0.49159346957E+02  0.48121777005E+02 -0.10806417664E+03  0.15158062500E+03  0.81033775608E+02 0.  0.
         23    2    1    2    0    0 -0.17216029490E+03  0.19005840261E+02 -0.38345809691E+03  0.43282686231E+03  0.10148197643E+03 0.  0.
        -11    1    3    3    0    0  0.22462004427E+02  0.66018433584E+02 -0.92577418092E+02  0.11590320771E+03  0.00000000000E+00 0.  1.
         12    1    3    3    0    0  0.26697342530E+02 -0.17896656579E+02 -0.15486758543E+02  0.35677417298E+02  0.00000000000E+00 0. -1.
        -11    1    4    4    0    0 -0.14832523879E+03  0.93983666696E+01 -0.37852795997E+03  0.40665971307E+03  0.00000000000E+00 0.  1.
         11    1    4    4    0    0 -0.23835056118E+02  0.96074735915E+01 -0.49301369487E+01  0.26167149239E+02  0.00000000000E+00 0. -1.
         21    1    1    2  503  502  0.24546856301E+02  0.26387065749E+01 -0.81940322227E+02  0.85578778522E+02  0.00000000000E+00 0.  1.
          1    1    1    2  501    0  0.98454091646E+02 -0.69766323841E+02  0.20056135592E+02  0.12232251093E+03  0.00000000000E+00 0. -1.
<scales pt_clust_5="13000.00000" pt_clust_6="13000.00000" pt_clust_7="13000.00000" pt_clust_8="13000.00000" pt_clust_9="24.68828" pt_clust_10="145.91156"></scales>
<clustering>
<clus scale="   24.688">  2  9  1 -1</clus>
<clus scale="   81.034">  5  6 -1 -1</clus>
<clus scale="  101.482">  7  8 -1 -1</clus>
<clus scale="  109.162">  1  5  2 -1</clus>
<clus scale="  145.912">  2 10  1 -1</clus>
<clus scale="   24.688">  2  5  1 -1</clus>
</clustering>
</event>
<event>
10    4  0.7697601E-005  0.1521004E+03  0.7546771E-02  0.1202127E+00
         21   -1    0    0  501  502  0.00000000000E+00  0.00000000000E+00  0.33361935095E+03  0.33361935095E+03  0.00000000000E+00 0. -1.
         -3   -1    0    0    0  501 -0.00000000000E+00 -0.00000000000E+00 -0.19685583776E+03  0.19685583776E+03  0.00000000000E+00 0.  1.
         23    2    1    2    0    0 -0.10949278773E+03  0.59218141324E+02 -0.37708670017E+02  0.16476999860E+03  0.10115211226E+03 0.  0.
         24    2    1    2    0    0  0.79698049432E+02 -0.61682426126E+02  0.27492526845E+02  0.13143999721E+03  0.79775516657E+02 0.  0.
        -13    1    4    4    0    0  0.68657927514E+02 -0.31842622773E+01  0.10481104671E+02  0.69526283461E+02  0.00000000000E+00 0.  1.
         14    1    4    4    0    0  0.11040121917E+02 -0.58498163849E+02  0.17011422174E+02  0.61913713748E+02  0.00000000000E+00 0. -1.
        -13    1    3    3    0    0 -0.22885699070E+02 -0.28885412613E+02 -0.88705633197E+01  0.37905265826E+02  0.00000000000E+00 0.  1.
         13    1    3    3    0    0 -0.86607088663E+02  0.88103553937E+02 -0.28838106697E+02  0.12686473277E+03  0.00000000000E+00 0. -1.
         21    1    1    2  503  502 -0.24341110347E+02  0.34717511254E+02  0.16367313020E+03  0.16907598525E+03  0.00000000000E+00 0. -1.
         -4    1    1    2    0  503  0.54135848648E+02 -0.32253226451E+02 -0.16693473834E+02  0.65189207650E+02  0.00000000000E+00 0.  1.
<scales pt_clust_5="13000.00000" pt_clust_6="13000.00000" pt_clust_7="13000.00000" pt_clust_8="13000.00000" pt_clust_9="42.40042" pt_clust_10="57.46270"></scales>
<clustering>
<clus scale="   42.400">  1  9  2 -1</clus>
<clus scale="   57.463">  1 10  2 -1</clus>
<clus scale="   79.776">  5  6 -1 -1</clus>
<clus scale="  101.152">  7  8 -1 -1</clus>
<clus scale="  138.805">  1  5  2 -1</clus>
<clus scale="   42.400">  1  5  2 -1</clus>
</clustering>
</event>
<event>
10    4  0.7697601E-005  0.9268788E+02  0.7546771E-02  0.1304098E+00
         -1   -1    0    0    0  501 -0.00000000000E+00  0.00000000000E+00  0.36933811745E+03  0.36933811745E+03  0.00000000000E+00 0.  1.
         21   -1    0    0  503  502  0.00000000000E+00 -0.00000000000E+00 -0.33986588129E+03  0.33986588129E+03  0.00000000000E+00 0.  1.
         23    2    1    2    0    0 -0.22213023046E+02 -0.33317961951E+02  0.20084463451E+03  0.22407366209E+03  0.90922680611E+02 0.  0.
         24    2    1    2    0    0  0.30580743710E+01 -0.83864976323E+01  0.11931723505E+03  0.14310061109E+03  0.78495204652E+02 0.  0.
        -11    1    4    4    0    0  0.30572770605E+00 -0.23736646556E+02  0.99960314095E+00  0.23759652051E+02  0.00000000000E+00 0.  1.
         12    1    4    4    0    0  0.27523466650E+01  0.15350148924E+02  0.11831763191E+03  0.11934095904E+03  0.00000000000E+00 0. -1.
        -13    1    3    3    0    0  0.29856782228E+02 -0.34999087357E+02  0.76663590952E+02  0.89407324860E+02  0.00000000000E+00 0.  1.
         13    1    3    3    0    0 -0.52069805274E+02  0.16811254062E+01  0.12418104356E+03  0.13466633723E+03  0.00000000000E+00 0. -1.
         21    1    1    2  503  501  0.58437385473E+02  0.84070489781E+02 -0.25330358438E+03  0.27321325212E+03  0.00000000000E+00 0.  1.
         -2    1    1    2    0  502 -0.39282436798E+02 -0.42366030197E+02 -0.37386049026E+02  0.68816473444E+02  0.00000000000E+00 0.  1.
<scales pt_clust_5="13000.00000" pt_clust_6="13000.00000" pt_clust_7="13000.00000" pt_clust_8="13000.00000" pt_clust_9="50.41447" pt_clust_10="57.77534"></scales>
<clustering>
<clus scale="   57.775">  2 10  1 -1</clus>
<clus scale="   50.414">  2  9  1 -1</clus>
<clus scale="   78.495">  5  6 -1 -1</clus>
<clus scale="   80.533">  2  5  1 -1</clus>
<clus scale="   90.923">  7  8 -1 -1</clus>
<clus scale="   57.775">  2  5  1 -1</clus>
</clustering>
</event>
<event>
10    4  0.7697601E-005  0.8959683E+02  0.7546771E-02  0.1307390E+00
         21   -1    0    0  501  502  0.00000000000E+00  0.00000000000E+00  0.67058959793E+02  0.67058959793E+02  0.00000000000E+00 0.  1.
          2   -1    0    0  503    0 -0.00000000000E+00 -0.00000000000E+00 -0.42981558906E+03  0.42981558906E+03  0.00000000000E+00 0. -1.
         24    2    1    2    0    0  0.21070467401E+02 -0.25232752128E+02 -0.13994466629E+03  0.16480164488E+03  0.80587940521E+02 0.  0.
         23    2    1    2    0    0 -0.52238642545E+01 -0.36739089663E+02 -0.11029910093E+02  0.94722172927E+02  0.86449879469E+02 0.  0.
        -13    1    3    3    0    0  0.45231627707E+01 -0.52387883171E+02 -0.10577591000E+03  0.11812490186E+03  0.00000000000E+00 0.  1.
         14    1    3    3    0    0  0.16547304630E+02  0.27155131043E+02 -0.34168756290E+02  0.46676743019E+02  0.00000000000E+00 0. -1.
        -13    1    4    4    0    0 -0.28380413673E+02 -0.45371646185E+02 -0.31962733000E+02  0.62334985831E+02  0.00000000000E+00 0. -1.
         13    1    4    4    0    0  0.23156549418E+02  0.86325565218E+01  0.20932822908E+02  0.32387187095E+02  0.00000000000E+00 0.  1.
         21    1    1    2  503  502  0.60481125295E+01 -0.19573030250E+02 -0.24643516448E+02  0.32046623555E+02  0.00000000000E+00 0. -1.
          1    1    1    2  501    0 -0.21894715676E+02  0.81544872041E+02 -0.18713853644E+03  0.20530410749E+03  0.00000000000E+00 0. -1.
<scales pt_clust_5="13000.00000" pt_clust_6="13000.00000" pt_clust_7="13000.00000" pt_clust_8="13000.00000" pt_clust_9="20.48617" pt_clust_10="74.42830"></scales>
<clustering>
<clus scale="   20.486">  2  9  1 -1</clus>
<clus scale="   74.428">  1 10  2 -1</clus>
<clus scale="   80.588">  5  6 -1 -1</clus>
<clus scale="   83.955">  2  5  1 -1</clus>
<clus scale="   86.450">  7  8 -1 -1</clus>
<clus scale="   74.428">  1  5  2 -1</clus>
</clustering>
</event>
<event>
10    4  0.7697601E-005  0.3062114E+03  0.7546771E-02  0.1082176E+00
          2   -1    0    0  503    0 -0.00000000000E+00  0.00000000000E+00  0.32436213853E+03  0.32436213853E+03  0.00000000000E+00 0. -1.
         21   -1    0    0  501  502  0.00000000000E+00 -0.00000000000E+00 -0.53439851170E+03  0.53439851170E+03  0.00000000000E+00 0. -1.
         24    2    1    2    0    0 -0.17802220972E+03 -0.53013849072E+02  0.12054161116E+03  0.23754077728E+03  0.85982355761E+02 0.  0.
         23    2    1    2    0    0 -0.31055326160E+02  0.12854195936E+01  0.25499844414E+02  0.10050510858E+03  0.92113783979E+02 0.  0.
        -11    1    3    3    0    0 -0.30346055086E+02  0.23374004908E+02  0.25737120828E+02  0.46147877018E+02  0.00000000000E+00 0.  1.
         12    1    3    3    0    0 -0.14767615463E+03 -0.76387853980E+02  0.94804490327E+02  0.19139290026E+03  0.00000000000E+00 0. -1.
        -11    1    4    4    0    0 -0.25060730196E+02  0.29095319021E+02 -0.22647411905E+02  0.44581196180E+02  0.00000000000E+00 0. -1.
         11    1    4    4    0    0 -0.59945959644E+01 -0.27809899428E+02  0.48147256319E+02  0.55923912399E+02  0.00000000000E+00 0.  1.
         21    1    1    2  503  502  0.21364585374E+03  0.75999873268E+02 -0.40599067602E+03  0.46502576334E+03  0.00000000000E+00 0. -1.
          1    1    1    2  501    0 -0.45683178617E+01 -0.24271443790E+02  0.49912847284E+02  0.55689001030E+02  0.00000000000E+00 0. -1.
<scales pt_clust_5="13000.00000" pt_clust_6="13000.00000" pt_clust_7="13000.00000" pt_clust_8="13000.00000" pt_clust_9="217.27340" pt_clust_10="24.69763"></scales>
<clustering>
<clus scale="   24.698">  2 10  1 -1</clus>
<clus scale="   85.982">  5  6 -1 -1</clus>
<clus scale="   92.114">  7  8 -1 -1</clus>
<clus scale="   93.669">  5  7 -1 -1</clus>
<clus scale="  217.273">  2  9  1 -1</clus>
<clus scale="   24.698">  2  5  1 -1</clus>
</clustering>
</event>
<event>
10    4  0.7697601E-005  0.2215119E+03  0.7546771E-02  0.1161087E+00
          2   -1    0    0  502    0 -0.00000000000E+00  0.00000000000E+00  0.46445569547E+03  0.46445569547E+03  0.00000000000E+00 0. -1.
         21   -1    0    0  503  502  0.00000000000E+00 -0.00000000000E+00 -0.84750152479E+03  0.84750152479E+03  0.00000000000E+00 0. -1.
         23    2    1    2    0    0 -0.12792676774E+02 -0.63995001437E+02 -0.34605072975E+02  0.11797750116E+03  0.91990037055E+02 0.  0.
         24    2    1    2    0    0  0.13078885001E+03 -0.75848581482E+02  0.28033091091E+03  0.32905236880E+03  0.82651746510E+02 0.  0.
        -13    1    4    4    0    0  0.16698743277E+02  0.16054140971E+02  0.21331143467E+02  0.31489699125E+02  0.00000000000E+00 0.  1.
         14    1    4    4    0    0  0.11409010673E+03 -0.91902722453E+02  0.25899976744E+03  0.29756266967E+03  0.00000000000E+00 0. -1.
        -11    1    3    3    0    0  0.26286390978E+02  0.24516049486E+01  0.10787154374E+02  0.28519246430E+02  0.00000000000E+00 0.  1.
         11    1    3    3    0    0 -0.39079067751E+02 -0.66446606386E+02 -0.45392227349E+02  0.89458254735E+02  0.00000000000E+00 0. -1.
         21    1    1    2  503  501 -0.19884626443E+02 -0.18573443675E+03 -0.43533402968E+03  0.47371763400E+03  0.00000000000E+00 0. -1.
          1    1    1    2  501    0 -0.98111546795E+02  0.32557801966E+03 -0.19343763757E+03  0.39120971630E+03  0.00000000000E+00 0. -1.
<scales pt_clust_5="13000.00000" pt_clust_6="13000.00000" pt_clust_7="13000.00000" pt_clust_8="13000.00000" pt_clust_9="189.74641" pt_clust_10="205.51448"></scales>
<clustering>
<clus scale="   82.652">  5  6 -1 -1</clus>
<clus scale="   91.990">  7  8 -1 -1</clus>
<clus scale="  112.788">  1  7  2 -1</clus>
<clus scale="  189.746">  2  9  1 -1</clus>
<clus scale="  205.514">  2 10  1 -1</clus>
<clus scale="  189.746">  2  5  1 -1</clus>
</clustering>
</event>
<event>
10    4  0.1159687E-004  0.1093172E+03  0.7546771E-02  0.1267045E+00
          2   -1    0    0  503    0 -0.00000000000E+00  0.00000000000E+00  0.64961484710E+03  0.64961484710E+03  0.00000000000E+00 0. -1.
         21   -1    0    0  501  502  0.00000000000E+00 -0.00000000000E+00 -0.48717727762E+03  0.48717727762E+03  0.00000000000E+00 0.  1.
         24    2    1    2    0    0  0.64033497038E+02  0.59683834359E+01  0.39988331690E+03  0.41299166890E+03  0.80743675341E+02 0.  0.
         23    2    1    2    0    0 -0.20978041545E+02 -0.58009973388E+02  0.12692477597E+03  0.16920943902E+03  0.93363270403E+02 0.  0.
        -11    1    3    3    0    0  0.30777399113E+02 -0.33964512937E+02  0.25462096097E+03  0.25871349057E+03  0.00000000000E+00 0.  1.
         12    1    3    3    0    0  0.33256097925E+02  0.39932896373E+02  0.14526235593E+03  0.15427817834E+03  0.00000000000E+00 0. -1.
        -11    1    4    4    0    0 -0.42518350409E+02 -0.39865376694E+02  0.12839744270E+03  0.14100695611E+03  0.00000000000E+00 0.  1.
         11    1    4    4    0    0  0.21540308864E+02 -0.18144596694E+02 -0.14726667290E+01  0.28202482912E+02  0.00000000000E+00 0. -1.
         21    1    1    2  503  502 -0.59166868418E+01  0.57430173352E+02 -0.45387777331E+03  0.45753498784E+03  0.00000000000E+00 0.  1.
          1    1    1    2  501    0 -0.37138768651E+02 -0.53885834005E+01  0.89507249923E+02  0.97056028957E+02  0.00000000000E+00 0. -1.
<scales pt_clust_5="13000.00000" pt_clust_6="13000.00000" pt_clust_7="13000.00000" pt_clust_8="13000.00000" pt_clust_9="66.45017" pt_clust_10="37.52767"></scales>
<clustering>
<clus scale="   37.528">  2 10  1 -1</clus>
<clus scale="   66.450">  2  9  1 -1</clus>
<clus scale="   80.744">  5  6 -1 -1</clus>
<clus scale="   93.363">  7  8 -1 -1</clus>
<clus scale="   98.758">  1  5  2 -1</clus>
<clus scale="   37.528">  2  5  1 -1</clus>
</clustering>
</event>
<event>
10    4  0.7697601E-005  0.4886235E+03  0.7546771E-02  0.1016792E+00
          2   -1    0    0  502    0 -0.00000000000E+00  0.00000000000E+00  0.94790830859E+03  0.94790830859E+03  0.00000000000E+00 0. -1.
         21   -1    0    0  503  502  0.00000000000E+00 -0.00000000000E+00 -0.14806917717E+04  0.14806917717E+04  0.00000000000E+00 0. -1.
         24    2    1    2    0    0  0.15899044991E+03  0.28263230987E+03  0.60343832271E+03  0.68980902237E+03  0.80868363924E+02 0.  0.
         23    2    1    2    0    0  0.11687465271E+03  0.39623603003E+02  0.24646543813E+03  0.29054260369E+03  0.91869897165E+02 0.  0.
        -13    1    3    3    0    0  0.69218666761E+02  0.11362183210E+03  0.16898836118E+03  0.21507722048E+03  0.00000000000E+00 0.  1.
         14    1    3    3    0    0  0.89771783146E+02  0.16901047777E+03  0.43444996153E+03  0.47473180188E+03  0.00000000000E+00 0. -1.
        -11    1    4    4    0    0  0.10110792499E+02  0.28990671144E+02  0.12502076484E+02  0.33151003827E+02  0.00000000000E+00 0. -1.
         11    1    4    4    0    0  0.10676386021E+03  0.10632931859E+02  0.23396336165E+03  0.25739159986E+03  0.00000000000E+00 0.  1.
         21    1    1    2  503  501 -0.23908402106E+02 -0.17839215688E+02 -0.17588683533E+03  0.17839850938E+03  0.00000000000E+00 0. -1.
          1    1    1    2  501    0 -0.25195670051E+03 -0.30441669718E+03 -0.12068003886E+04  0.12698499449E+04  0.00000000000E+00 0. -1.
<scales pt_clust_5="13000.00000" pt_clust_6="13000.00000" pt_clust_7="13000.00000" pt_clust_8="13000.00000" pt_clust_9="20.65075" pt_clust_10="430.81275"></scales>
<clustering>
<clus scale="   20.651">  9 10 -1 -1</clus>
<clus scale="   80.868">  5  6 -1 -1</clus>
<clus scale="   91.870">  7  8 -1 -1</clus>
<clus scale="  127.712">  5  7 -1 -1</clus>
<clus scale="  430.813">  2  9  1 -1</clus>
<clus scale="  430.813">  2  5  1 -1</clus>
</clustering>
</event>
<event>
10    4  0.7697601E-005  0.1653192E+03  0.7546771E-02  0.1199815E+00
         21   -1    0    0  501  502  0.00000000000E+00  0.00000000000E+00  0.12066596534E+03  0.12066596534E+03  0.00000000000E+00 0. -1.
          2   -1    0    0  503    0 -0.00000000000E+00 -0.00000000000E+00 -0.11178476614E+04  0.11178476614E+04  0.00000000000E+00 0. -1.
         23    2    1    2    0    0 -0.61447638102E+02  0.29386618800E+02 -0.27624092096E+03  0.29870926596E+03  0.90987875926E+02 0.  0.
         24    2    1    2    0    0  0.14634312394E+03 -0.11755032082E+03 -0.48548646717E+03  0.52651194321E+03  0.79267450395E+02 0.  0.
        -13    1    4    4    0    0  0.74409002558E+02 -0.11998041821E+02 -0.20095378216E+03  0.21462310042E+03  0.00000000000E+00 0.  1.
         14    1    4    4    0    0  0.71934121379E+02 -0.10555227899E+03 -0.28453268501E+03  0.31188884279E+03  0.00000000000E+00 0. -1.
        -13    1    3    3    0    0 -0.30623585162E+01  0.26584741980E+02 -0.14331651872E+02  0.30356593867E+02  0.00000000000E+00 0.  1.
         13    1    3    3    0    0 -0.58385279586E+02  0.28018768206E+01 -0.26190926909E+03  0.26835267210E+03  0.00000000000E+00 0. -1.
         21    1    1    2  503  502 -0.10588558727E+03 -0.95023781444E+02 -0.15988911542E+03  0.21402290966E+03  0.00000000000E+00 0. -1.
          1    1    1    2  501    0  0.20990101436E+02  0.18318748346E+03 -0.75565192482E+02  0.19926950788E+03  0.00000000000E+00 0. -1.
<scales pt_clust_5="13000.00000" pt_clust_6="13000.00000" pt_clust_7="13000.00000" pt_clust_8="13000.00000" pt_clust_9="148.82487" pt_clust_10="145.07625"></scales>
<clustering>
<clus scale="   79.267">  5  6 -1 -1</clus>
<clus scale="   90.988">  7  8 -1 -1</clus>
<clus scale="  113.658">  2  7  1 -1</clus>
<clus scale="  148.825">  1  9  2 -1</clus>
<clus scale="  145.076">  1 10  2 -1</clus>
<clus scale="  148.825">  1  5  2 -1</clus>
</clustering>
</event>
<event>
10    4  0.7697601E-005  0.2028814E+03  0.7546771E-02  0.1178978E+00
         21   -1    0    0  501  502  0.00000000000E+00  0.00000000000E+00  0.14573612144E+03  0.14573612144E+03  0.00000000000E+00 0. -1.
          2   -1    0    0  503    0 -0.00000000000E+00 -0.00000000000E+00 -0.84103884254E+03  0.84103884254E+03  0.00000000000E+00 0. -1.
         23    2    1    2    0    0  0.37166524142E+02  0.37633279257E+02 -0.85417774413E+02  0.13541804678E+03  0.90797780723E+02 0.  0.
         24    2    1    2    0    0 -0.74090732035E+02  0.16482114397E+03 -0.55839129750E+03  0.59239924209E+03  0.80502017553E+02 0.  0.
        -13    1    4    4    0    0  0.61443094916E+01  0.79734962890E+02 -0.19941763107E+03  0.21485531976E+03  0.00000000000E+00 0.  1.
         14    1    4    4    0    0 -0.80235041527E+02  0.85086181084E+02 -0.35897366643E+03  0.37754392233E+03  0.00000000000E+00 0. -1.
        -11    1    3    3    0    0 -0.94581388749E+01  0.28652410998E+02  0.74824157649E+01  0.31087032548E+02  0.00000000000E+00 0. -1.
         11    1    3    3    0    0  0.46624663016E+02  0.89808682596E+01 -0.92900190178E+02  0.10433101423E+03  0.00000000000E+00 0.  1.
         21    1    1    2  503  502 -0.48159106850E+02 -0.51102367451E+02  0.17100200251E+02  0.72271490785E+02  0.00000000000E+00 0. -1.
          1    1    1    2  501    0  0.85083314744E+02 -0.15135205578E+03 -0.68593849441E+02  0.18668618432E+03  0.00000000000E+00 0. -1.
<scales pt_clust_5="13000.00000" pt_clust_6="13000.00000" pt_clust_7="13000.00000" pt_clust_8="13000.00000" pt_clust_9="70.21931" pt_clust_10="186.22640"></scales>
<clustering>
<clus scale="   70.219">  1  9  2 -1</clus>
<clus scale="   80.502">  5  6 -1 -1</clus>
<clus scale="   90.798">  7  8 -1 -1</clus>
<clus scale="   97.501">  2  7  1 -1</clus>
<clus scale="  186.226">  1 10  2 -1</clus>
<clus scale="   70.219">  1  5  2 -1</clus>
</clustering>
</event>
<event>
10    4  0.7697601E-005  0.2111447E+03  0.7546771E-02  0.1150604E+00
         21   -1    0    0  503  502  0.00000000000E+00  0.00000000000E+00  0.20071623340E+03  0.20071623340E+03  0.00000000000E+00 0.  1.
          2   -1    0    0  502    0 -0.00000000000E+00 -0.00000000000E+00 -0.78257784773E+03  0.78257784773E+03  0.00000000000E+00 0. -1.
         24    2    1    2    0    0 -0.11587947395E+03 -0.76056444484E+02 -0.98324339407E+02  0.18200972818E+03  0.65170777193E+02 0.  0.
         23    2    1    2    0    0  0.25169667756E+02 -0.16539415125E+03 -0.34033918747E+03  0.38991508974E+03  0.90632649945E+02 0.  0.
        -11    1    3    3    0    0 -0.51322343676E+02 -0.30651476770E+02 -0.52976456181E+01  0.60013007238E+02  0.00000000000E+00 0.  1.
         12    1    3    3    0    0 -0.64557130278E+02 -0.45404967714E+02 -0.93026693789E+02  0.12199672094E+03  0.00000000000E+00 0. -1.
        -13    1    4    4    0    0  0.30683192737E+02 -0.97825872814E+02 -0.11252328967E+03  0.15222631319E+03  0.00000000000E+00 0. -1.
         13    1    4    4    0    0 -0.55135249812E+01 -0.67568278436E+02 -0.22781589780E+03  0.23768877655E+03  0.00000000000E+00 0.  1.
         21    1    1    2  503  501 -0.99221379846E+02  0.98253609800E+02 -0.13097515305E+02  0.14025048650E+03  0.00000000000E+00 0.  1.
          1    1    1    2  501    0  0.18993118604E+03  0.14319698593E+03 -0.13010057214E+03  0.27111877671E+03  0.00000000000E+00 0. -1.
<scales pt_clust_5="13000.00000" pt_clust_6="13000.00000" pt_clust_7="13000.00000" pt_clust_8="13000.00000" pt_clust_9="139.63758" pt_clust_10="190.70351"></scales>
<clustering>
<clus scale="   65.171">  5  6 -1 -1</clus>
<clus scale="   90.633">  7  8 -1 -1</clus>
<clus scale="  139.638">  1  9  2 -1</clus>
<clus scale="  166.527">  2  5  1 -1</clus>
<clus scale="  190.704">  1 10  2 -1</clus>
<clus scale="  139.638">  1  5  2 -1</clus>
</clustering>
</event>
<event>
10    4  0.7697601E-005  0.1096456E+03  0.7546771E-02  0.1265825E+00
         21   -1    0    0  503  502  0.00000000000E+00  0.00000000000E+00  0.49238055465E+02  0.49238055465E+02  0.00000000000E+00 0. -1.
          2   -1    0    0  502    0 -0.00000000000E+00 -0.00000000000E+00 -0.50268376391E+03  0.50268376391E+03  0.00000000000E+00 0. -1.
         24    2    1    2    0    0 -0.34356727220E+02 -0.67915416819E+02 -0.24534040947E+03  0.26997125813E+03  0.83064283243E+02 0.  0.
         23    2    1    2    0    0 -0.16602069826E+02  0.37635759963E+02 -0.14923001491E+03  0.18121429408E+03  0.94217534876E+02 0.  0.
        -13    1    3    3    0    0  0.15858585380E+02 -0.15588394954E+02 -0.11283960985E+02  0.24936330183E+02  0.00000000000E+00 0.  1.
         14    1    3    3    0    0 -0.50215312599E+02 -0.52327021864E+02 -0.23405644848E+03  0.24503492795E+03  0.00000000000E+00 0. -1.
        -11    1    4    4    0    0  0.16669518673E+02  0.37088475014E+02 -0.14126149295E+03  0.14699740550E+03  0.00000000000E+00 0.  1.
         11    1    4    4    0    0 -0.33271588499E+02  0.54728494951E+00 -0.79685219574E+01  0.34216888582E+02  0.00000000000E+00 0. -1.
         21    1    1    2  503  501  0.10986502175E+02  0.17540107545E+02  0.76681922725E+01  0.22071696252E+02  0.00000000000E+00 0.  1.
          1    1    1    2  501    0  0.39972294871E+02  0.12739549311E+02 -0.66543476339E+02  0.78664570915E+02  0.00000000000E+00 0. -1.
<scales pt_clust_5="13000.00000" pt_clust_6="13000.00000" pt_clust_7="13000.00000" pt_clust_8="13000.00000" pt_clust_9="20.69683" pt_clust_10="44.80059"></scales>
<clustering>
<clus scale="   20.697">  1  9  2 -1</clus>
<clus scale="   44.801">  1 10  2 -1</clus>
<clus scale="   83.064">  5  6 -1 -1</clus>
<clus scale="   94.218">  7  8 -1 -1</clus>
<clus scale="  100.224">  2  5  1 -1</clus>
<clus scale="   20.697">  1  5  2 -1</clus>
</clustering>
</event>
<event>
10    4  0.7697601E-005  0.3696093E+03  0.7546771E-02  0.1075635E+00
          2   -1    0    0  502    0 -0.00000000000E+00  0.00000000000E+00  0.19194491752E+04  0.19194491752E+04  0.00000000000E+00 0. -1.
         21   -1    0    0  503  502  0.00000000000E+00 -0.00000000000E+00 -0.24950410512E+03  0.24950410512E+03  0.00000000000E+00 0. -1.
         23    2    1    2    0    0  0.18044572431E+03  0.18773166342E+02  0.30273567712E+03  0.36533618932E+03  0.94385114459E+02 0.  0.
         24    2    1    2    0    0  0.18827512469E+03 -0.12100334984E+03  0.13007320625E+04  0.13223661960E+04  0.81603458648E+02 0.  0.
        -13    1    4    4    0    0  0.11048933783E+03 -0.11478865990E+03  0.81870207663E+03  0.83406080144E+03  0.00000000000E+00 0.  1.
         14    1    4    4    0    0  0.77785786850E+02 -0.62146899316E+01  0.48202998591E+03  0.48830539453E+03  0.00000000000E+00 0. -1.
        -11    1    3    3    0    0  0.99679177969E+02  0.30980352643E+02  0.91324697300E+02  0.13869362317E+03  0.00000000000E+00 0. -1.
         11    1    3    3    0    0  0.80766546344E+02 -0.12207186302E+02  0.21141097982E+03  0.22664256616E+03  0.00000000000E+00 0.  1.
         21    1    1    2  503  501  0.23161105048E+02 -0.42046090757E+01 -0.52973445148E+02  0.57968106881E+02  0.00000000000E+00 0. -1.
          1    1    1    2  501    0 -0.39188195405E+03  0.10643479257E+03  0.11945077558E+03  0.42328278817E+03  0.00000000000E+00 0. -1.
<scales pt_clust_5="13000.00000" pt_clust_6="13000.00000" pt_clust_7="13000.00000" pt_clust_8="13000.00000" pt_clust_9="23.53966" pt_clust_10="360.48846"></scales>
<clustering>
<clus scale="   23.540">  2  9  1 -1</clus>
<clus scale="   81.603">  5  6 -1 -1</clus>
<clus scale="   94.385">  7  8 -1 -1</clus>
<clus scale="  207.747">  1  7  2 -1</clus>
<clus scale="  360.488">  2 10  1 -1</clus>
<clus scale="   23.540">  2  5  1 -1</clus>
</clustering>
</event>
<event>
10    4  0.7697601E-005  0.1983301E+03  0.7546771E-02  0.1177212E+00
         21   -1    0    0  501  502  0.00000000000E+00  0.00000000000E+00  0.14558036528E+03  0.14558036528E+03  0.00000000000E+00 0. -1.
          2   -1    0    0  503    0 -0.00000000000E+00 -0.00000000000E+00 -0.62759951297E+03  0.62759951297E+03  0.00000000000E+00 0. -1.
         24    2    1    2    0    0 -0.19339683566E+02  0.69760020100E+02 -0.30160370572E+03  0.32056539476E+03  0.80974645713E+02 0.  0.
         23    2    1    2    0    0  0.15660452821E+03 -0.97008219432E+02 -0.37359818151E+02  0.20877305198E+03  0.90856250896E+02 0.  0.
        -11    1    3    3    0    0 -0.33424738522E+02 -0.10870406343E+01 -0.13299734701E+03  0.13713748253E+03  0.00000000000E+00 0.  1.
         12    1    3    3    0    0  0.14085054955E+02  0.70847060734E+02 -0.16860635870E+03  0.18342791222E+03  0.00000000000E+00 0. -1.
        -11    1    4    4    0    0  0.12414357495E+03 -0.65858436958E+02  0.13135056893E+02  0.14114351080E+03  0.00000000000E+00 0. -1.
         11    1    4    4    0    0  0.32460953255E+02 -0.31149782474E+02 -0.50494875044E+02  0.67629541180E+02  0.00000000000E+00 0.  1.
         21    1    1    2  503  502  0.27795642086E+02  0.71352872613E+01 -0.84748862087E+01  0.29922127925E+02  0.00000000000E+00 0.  1.
          1    1    1    2  501    0 -0.16506048673E+03  0.20112912071E+02 -0.13458073761E+03  0.21391930359E+03  0.00000000000E+00 0. -1.
<scales pt_clust_5="13000.00000" pt_clust_6="13000.00000" pt_clust_7="13000.00000" pt_clust_8="13000.00000" pt_clust_9="28.69686" pt_clust_10="176.29520"></scales>
<clustering>
<clus scale="   28.697">  1  9  2 -1</clus>
<clus scale="   80.975">  5  6 -1 -1</clus>
<clus scale="   90.856">  7  8 -1 -1</clus>
<clus scale="  108.609">  2  5  1 -1</clus>
<clus scale="  176.295">  1 10  2 -1</clus>
<clus scale="   28.697">  1  5  2 -1</clus>
</clustering>
</event>
<event>
10    4  0.7697601E-005  0.1930364E+03  0.7546771E-02  0.1156002E+00
         -3   -1    0    0    0  501 -0.00000000000E+00  0.00000000000E+00  0.12491407336E+04  0.12491407336E+04  0.00000000000E+00 0.  1.
         21   -1    0    0  503  502  0.00000000000E+00 -0.00000000000E+00 -0.85749348066E+02  0.85749348066E+02  0.00000000000E+00 0. -1.
         24    2    1    2    0    0 -0.14332418879E+03  0.90986893835E+02  0.85014682308E+03  0.87145037105E+03  0.88632333052E+02 0.  0.
         23    2    1    2    0    0  0.15886377708E+03 -0.69785501581E+02  0.19121873401E+03  0.27379475772E+03  0.91056296983E+02 0.  0.
        -11    1    3    3    0    0 -0.10692256268E+03  0.97903586056E+02  0.76461689739E+03  0.77823938884E+03  0.00000000000E+00 0.  1.
         12    1    3    3    0    0 -0.36401626113E+02 -0.69166922203E+01  0.85529925695E+02  0.93210982209E+02  0.00000000000E+00 0. -1.
        -13    1    4    4    0    0  0.75510131454E+02 -0.80490070358E+02  0.12539966913E+03  0.16704941903E+03  0.00000000000E+00 0.  1.
         13    1    4    4    0    0  0.83353645625E+02  0.10704568776E+02  0.65819064876E+02  0.10674533869E+03  0.00000000000E+00 0. -1.
         21    1    1    2  503  501  0.75679986531E+01 -0.27407877926E+02 -0.26701334704E+02  0.39005482320E+02  0.00000000000E+00 0. -1.
         -4    1    1    2    0  502 -0.23107586943E+02  0.62064856719E+01  0.14872716318E+03  0.15063947061E+03  0.00000000000E+00 0.  1.
<scales pt_clust_5="13000.00000" pt_clust_6="13000.00000" pt_clust_7="13000.00000" pt_clust_8="13000.00000" pt_clust_9="25.04149" pt_clust_10="23.92659"></scales>
<clustering>
<clus scale="   23.927">  2 10  1 -1</clus>
<clus scale="   25.041">  2  9  1 -1</clus>
<clus scale="   88.632">  5  6 -1 -1</clus>
<clus scale="   91.056">  7  8 -1 -1</clus>
<clus scale="  191.905">  1  5  2 -1</clus>
<clus scale="   23.927">  2  5  1 -1</clus>
</clustering>
</event>
<event>
10    4  0.7697601E-005  0.1920772E+03  0.7546771E-02  0.1194694E+00
          2   -1    0    0  503    0 -0.00000000000E+00  0.00000000000E+00  0.60504304406E+03  0.60504304406E+03  0.00000000000E+00 0. -1.
         21   -1    0    0  501  502  0.00000000000E+00 -0.00000000000E+00 -0.37911203224E+03  0.37911203224E+03  0.00000000000E+00 0. -1.
         24    2    1    2    0    0  0.21360683580E+02  0.69180237149E+01  0.82610514277E+02  0.11558354561E+03  0.77659005223E+02 0.  0.
         23    2    1    2    0    0  0.11736020288E+03 -0.10187843208E+03  0.44477532556E+03  0.47943477334E+03  0.88769248687E+02 0.  0.
        -11    1    3    3    0    0  0.13626226826E+02  0.35151043747E+02  0.77061520222E+02  0.85788972677E+02  0.00000000000E+00 0.  1.
         12    1    3    3    0    0  0.77344567546E+01 -0.28233020032E+02  0.55489940554E+01  0.29794572936E+02  0.00000000000E+00 0. -1.
        -13    1    4    4    0    0  0.95648393911E+00 -0.27833796357E+02  0.16678810516E+03  0.16909733027E+03  0.00000000000E+00 0.  1.
         13    1    4    4    0    0  0.11640371894E+03 -0.74044635724E+02  0.27798722040E+03  0.31033744307E+03  0.00000000000E+00 0. -1.
         21    1    1    2  503  502  0.16511406023E+02 -0.19122071768E+02 -0.12619431009E+03  0.12869842290E+03  0.00000000000E+00 0. -1.
          1    1    1    2  501    0 -0.15523229249E+03  0.11408248013E+03 -0.17526051793E+03  0.26043833445E+03  0.00000000000E+00 0. -1.
<scales pt_clust_5="13000.00000" pt_clust_6="13000.00000" pt_clust_7="13000.00000" pt_clust_8="13000.00000" pt_clust_9="25.26421" pt_clust_10="170.33401"></scales>
<clustering>
<clus scale="   25.264">  2  9  1 -1</clus>
<clus scale="   77.659">  5  6 -1 -1</clus>
<clus scale="   81.035">  1  5  2 -1</clus>
<clus scale="   88.769">  7  8 -1 -1</clus>
<clus scale="  170.334">  2 10  1 -1</clus>
<clus scale="   25.264">  2  5  1 -1</clus>
</clustering>
</event>
<event>
10    4  0.7697601E-005  0.1057526E+03  0.7546771E-02  0.1273733E+00
         21   -1    0    0  503  502  0.00000000000E+00  0.00000000000E+00  0.38680767270E+03  0.38680767270E+03  0.00000000000E+00 0.  1.
          2   -1    0    0  502    0 -0.00000000000E+00 -0.00000000000E+00 -0.14609644330E+03  0.14609644330E+03  0.00000000000E+00 0. -1.
         23    2    1    2    0    0  0.64758782324E+02  0.57793357412E+02  0.11191457322E+02  0.12550470744E+03  0.89957828025E+02 0.  0.
         24    2    1    2    0    0 -0.37291004210E+02  0.20103144247E+02  0.48403306827E+02  0.10116872985E+03  0.78086339297E+02 0.  0.
        -13    1    4    4    0    0 -0.57929980818E+02  0.29621093675E+02  0.42405059411E+02  0.77662609612E+02  0.00000000000E+00 0.  1.
         14    1    4    4    0    0  0.20638976608E+02 -0.95179494283E+01  0.59982474157E+01  0.23506120242E+02  0.00000000000E+00 0. -1.
        -11    1    3    3    0    0  0.84458182783E+02  0.61520091036E+02  0.53649979379E+01  0.10462642803E+03  0.00000000000E+00 0.  1.
         11    1    3    3    0    0 -0.19699400459E+02 -0.37267336244E+01  0.58264593839E+01  0.20878279404E+02  0.00000000000E+00 0. -1.
         21    1    1    2  503  501 -0.19790591278E+01 -0.35032357767E+02  0.23220262964E+03  0.23483876166E+03  0.00000000000E+00 0.  1.
          1    1    1    2  501    0 -0.25488718986E+02 -0.42864143892E+02 -0.51086164393E+02  0.71391917046E+02  0.00000000000E+00 0. -1.
<scales pt_clust_5="13000.00000" pt_clust_6="13000.00000" pt_clust_7="13000.00000" pt_clust_8="13000.00000" pt_clust_9="35.08821" pt_clust_10="51.94242"></scales>
<clustering>
<clus scale="   35.088">  1  9  2 -1</clus>
<clus scale="   51.942">  1 10  2 -1</clus>
<clus scale="   78.086">  5  6 -1 -1</clus>
<clus scale="   89.958">  7  8 -1 -1</clus>
<clus scale="   95.858">  1  5  2 -1</clus>
<clus scale="   35.088">  1  5  2 -1</clus>
</clustering>
</event>
<event>
10    4  0.1211853E-004  0.1636444E+03  0.7546771E-02  0.1217460E+00
         21   -1    0    0  501  502  0.00000000000E+00  0.00000000000E+00  0.13371028786E+04  0.13371028786E+04  0.00000000000E+00 0.  1.
          2   -1    0    0  503    0 -0.00000000000E+00 -0.00000000000E+00 -0.89958267231E+03  0.89958267231E+03  0.00000000000E+00 0. -1.
         24    2    1    2    0    0 -0.92580346956E+01  0.20235873703E+02 -0.71952154920E+03  0.72399112727E+03  0.77179601028E+02 0.  0.
         23    2    1    2    0    0  0.96405383210E+02 -0.14845182385E+02 -0.12507665882E+02  0.13332328467E+03  0.90023770068E+02 0.  0.
        -11    1    3    3    0    0 -0.23604632235E+02  0.11040587045E+02 -0.77894781022E+02  0.82138116217E+02  0.00000000000E+00 0.  1.
         12    1    3    3    0    0  0.14346597540E+02  0.91952866582E+01 -0.64162676818E+03  0.64185301106E+03  0.00000000000E+00 0. -1.
        -13    1    4    4    0    0  0.30061437630E+02 -0.38083542285E+02  0.23980739148E+02  0.54121364316E+02  0.00000000000E+00 0.  1.
         13    1    4    4    0    0  0.66343945580E+02  0.23238359900E+02 -0.36488405030E+02  0.79201920353E+02  0.00000000000E+00 0. -1.
         21    1    1    2  503  502 -0.75421787096E+02 -0.14785219202E+03  0.12173763047E+04  0.12286389966E+04  0.00000000000E+00 0.  1.
          1    1    1    2  501    0 -0.11725561419E+02  0.14246150070E+03 -0.47826883349E+02  0.15073214237E+03  0.00000000000E+00 0. -1.
<scales pt_clust_5="13000.00000" pt_clust_6="13000.00000" pt_clust_7="13000.00000" pt_clust_8="13000.00000" pt_clust_9="163.64442" pt_clust_10="13000.00000"></scales>
<clustering>
<clus scale="   77.180">  5  6 -1 -1</clus>
<clus scale="   80.324">  2  5  1 -1</clus>
<clus scale="   90.024">  7  8 -1 -1</clus>
<clus scale="  129.320">  2  7  1 -1</clus>
<clus scale="  163.644">  1  9  2 -1</clus>
<clus scale="  163.644">  1  5  2 -1</clus>
</clustering>
</event>
<event>
10    4  0.7697601E-005  0.2093288E+03  0.7546771E-02  0.1142582E+00
          2   -1    0    0  503    0 -0.00000000000E+00  0.00000000000E+00  0.22635026561E+04  0.22635026561E+04  0.00000000000E+00 0. -1.
         21   -1    0    0  501  502  0.00000000000E+00 -0.00000000000E+00 -0.36534437777E+02  0.36534437777E+02  0.00000000000E+00 0. -1.
         23    2    1    2    0    0 -0.17733039338E+03 -0.11800674738E+03  0.11823139460E+04  0.12044252066E+04  0.86035751083E+02 0.  0.
         24    2    1    2    0    0  0.15456627102E+03  0.67283507320E+02  0.72273271256E+03  0.74642994249E+03  0.79983015345E+02 0.  0.
        -13    1    4    4    0    0  0.41432211991E+01  0.30620082434E+02  0.14925513518E+03  0.15241998264E+03  0.00000000000E+00 0.  1.
         14    1    4    4    0    0  0.15042304982E+03  0.36663424886E+02  0.57347757738E+03  0.59400995985E+03  0.00000000000E+00 0. -1.
        -11    1    3    3    0    0 -0.12270668076E+03 -0.11541376128E+03  0.99989576457E+03  0.10139865905E+04  0.00000000000E+00 0. -1.
         11    1    3    3    0    0 -0.54623712620E+02 -0.25929861020E+01  0.18241818146E+03  0.19043861605E+03  0.00000000000E+00 0.  1.
         21    1    1    2  503  502  0.56380013568E+02 -0.24754010492E+01  0.72120204609E+02  0.91575965477E+02  0.00000000000E+00 0. -1.
          1    1    1    2  501    0 -0.33615891199E+02  0.53198641111E+02  0.24980135513E+03  0.25760597933E+03  0.00000000000E+00 0. -1.
<scales pt_clust_5="13000.00000" pt_clust_6="13000.00000" pt_clust_7="13000.00000" pt_clust_8="13000.00000" pt_clust_9="56.43433" pt_clust_10="58.62999"></scales>
<clustering>
<clus scale="   56.434">  2  9  1 -1</clus>
<clus scale="   58.630">  2 10  1 -1</clus>
<clus scale="   79.983">  5  6 -1 -1</clus>
<clus scale="   86.036">  7  8 -1 -1</clus>
<clus scale="  206.915">  2  5  1 -1</clus>
<clus scale="   56.434">  2  5  1 -1</clus>
</clustering>
</event>
<event>
10    4  0.7697601E-005  0.1401542E+03  0.7546771E-02  0.1215584E+00
          2   -1    0    0  502    0 -0.00000000000E+00  0.00000000000E+00  0.33621418907E+03  0.33621418907E+03  0.00000000000E+00 0. -1.
         21   -1    0    0  503  502  0.00000000000E+00 -0.00000000000E+00 -0.22931230133E+03  0.22931230133E+03  0.00000000000E+00 0. -1.
         23    2    1    2    0    0  0.86066156324E+02  0.37329358799E+02  0.86969914187E+02  0.15739134595E+03  0.91691905386E+02 0.  0.
         24    2    1    2    0    0 -0.99612410269E+02 -0.12909630643E+03 -0.58807828182E+02  0.19106873681E+03  0.80376693867E+02 0.  0.
        -13    1    4    4    0    0  0.10610940156E+02 -0.18509501110E+02 -0.22012275322E+02  0.30655080284E+02  0.00000000000E+00 0.  1.
         14    1    4    4    0    0 -0.11022335042E+03 -0.11058680532E+03 -0.36795552860E+02  0.16041365653E+03  0.00000000000E+00 0. -1.
        -13    1    3    3    0    0  0.44268688033E+02  0.56887570630E+02  0.17812172846E+02  0.74250831199E+02  0.00000000000E+00 0. -1.
         13    1    3    3    0    0  0.41797468291E+02 -0.19558211831E+02  0.69157741340E+02  0.83140514750E+02  0.00000000000E+00 0.  1.
         21    1    1    2  503  501 -0.18829664670E+02 -0.10255683768E+02 -0.47166547111E+02  0.51811374113E+02  0.00000000000E+00 0. -1.
          1    1    1    2  501    0  0.32375918614E+02  0.10202263140E+03  0.12590634884E+03  0.16525503352E+03  0.00000000000E+00 0. -1.
<scales pt_clust_5="13000.00000" pt_clust_6="13000.00000" pt_clust_7="13000.00000" pt_clust_8="13000.00000" pt_clust_9="21.44144" pt_clust_10="105.35645"></scales>
<clustering>
<clus scale="   21.441">  2  9  1 -1</clus>
<clus scale="   80.377">  5  6 -1 -1</clus>
<clus scale="   91.692">  7  8 -1 -1</clus>
<clus scale="  105.356">  2 10  1 -1</clus>
<clus scale="  133.027">  2  5  1 -1</clus>
<clus scale="   21.441">  2  5  1 -1</clus>
</clustering>
</event>
<event>
10    4  0.7697601E-005  0.9955529E+02  0.7546771E-02  0.1283993E+00
         21   -1    0    0  501  502  0.00000000000E+00  0.00000000000E+00  0.17153551394E+02  0.17153551394E+02  0.00000000000E+00 0. -1.
          2   -1    0    0  503    0 -0.00000000000E+00 -0.00000000000E+00 -0.11758809295E+04  0.11758809295E+04  0.00000000000E+00 0. -1.
         24    2    1    2    0    0 -0.15875717935E+01 -0.34960748301E+01 -0.46607003933E+03  0.47595989520E+03  0.96445826006E+02 0.  0.
         23    2    1    2    0    0  0.52651862946E+02  0.18112612843E+02 -0.40196693074E+03  0.41592718415E+03  0.91201555338E+02 0.  0.
        -11    1    3    3    0    0 -0.13807501900E+02  0.36812185216E+02 -0.99629279856E+02  0.10710638400E+03  0.00000000000E+00 0.  1.
         12    1    3    3    0    0  0.12219930107E+02 -0.40308260046E+02 -0.36644075948E+03  0.36885351120E+03  0.00000000000E+00 0. -1.
        -11    1    4    4    0    0  0.50111376283E+02 -0.30028322162E+02 -0.23365261886E+03  0.24084517115E+03  0.00000000000E+00 0.  1.
         11    1    4    4    0    0  0.25404866631E+01  0.48140935005E+02 -0.16831431187E+03  0.17508201300E+03  0.00000000000E+00 0. -1.
         21    1    1    2  503  502 -0.27553259635E+02 -0.33693834158E+02 -0.11691446540E+03  0.12475355224E+03  0.00000000000E+00 0. -1.
          1    1    1    2  501    0 -0.23511031517E+02  0.19077296146E+02 -0.17377594264E+03  0.17639384930E+03  0.00000000000E+00 0. -1.
<scales pt_clust_5="13000.00000" pt_clust_6="13000.00000" pt_clust_7="13000.00000" pt_clust_8="13000.00000" pt_clust_9="44.19317" pt_clust_10="30.27726"></scales>
<clustering>
<clus scale="   30.277">  1 10  2 -1</clus>
<clus scale="   44.193">  1  9  2 -1</clus>
<clus scale="   91.202">  7  8 -1 -1</clus>
<clus scale="   94.484">  1  7  2 -1</clus>
<clus scale="   96.446">  5  6 -1 -1</clus>
<clus scale="   30.277">  1  5  2 -1</clus>
</clustering>
</event>
<event>
10    4  0.7823392E-005  0.3228414E+03  0.7546771E-02  0.1116640E+00
         21   -1    0    0  501  502  0.00000000000E+00  0.00000000000E+00  0.10836290311E+03  0.10836290311E+03  0.00000000000E+00 0. -1.
          2   -1    0    0  503    0 -0.00000000000E+00 -0.00000000000E+00 -0.16454394778E+04  0.16454394778E+04  0.00000000000E+00 0. -1.
         23    2    1    2    0    0 -0.53220030613E+02 -0.99283932021E+01 -0.44849821187E+03  0.46096646718E+03  0.91697836194E+02 0.  0.
         24    2    1    2    0    0 -0.99519500990E+02 -0.25888053774E+03 -0.73062947118E+03  0.78854562164E+03  0.10517371039E+03 0.  0.
        -11    1    4    4    0    0 -0.58291396548E+02 -0.45300613560E+02 -0.25624595614E+03  0.26666837558E+03  0.00000000000E+00 0.  1.
         12    1    4    4    0    0 -0.41228104442E+02 -0.21357992418E+03 -0.47438351504E+03  0.52187724606E+03  0.00000000000E+00 0. -1.
        -11    1    3    3    0    0 -0.11246535691E+02  0.37171230144E+02 -0.11037102202E+03  0.11700404872E+03  0.00000000000E+00 0.  1.
         11    1    3    3    0    0 -0.41973494922E+02 -0.47099623346E+02 -0.33812718985E+03  0.34396241845E+03  0.00000000000E+00 0. -1.
         21    1    1    2  503  502 -0.30183141087E+01 -0.23412415643E+02 -0.30747572382E+02  0.38764218471E+02  0.00000000000E+00 0. -1.
          1    1    1    2  501    0  0.15575784571E+03  0.29222134658E+03 -0.32720131925E+03  0.46552607362E+03  0.00000000000E+00 0. -1.
<scales pt_clust_5="13000.00000" pt_clust_6="13000.00000" pt_clust_7="13000.00000" pt_clust_8="13000.00000" pt_clust_9="23.60617" pt_clust_10="305.22952"></scales>
<clustering>
<clus scale="   23.606">  1  9  2 -1</clus>
<clus scale="   91.698">  7  8 -1 -1</clus>
<clus scale="  105.174">  5  6 -1 -1</clus>
<clus scale="  106.716">  2  7  1 -1</clus>
<clus scale="  305.230">  1 10  2 -1</clus>
<clus scale="   23.606">  1  5  2 -1</clus>
</clustering>
</event>
<event>
10    4  0.7697601E-005  0.1358704E+03  0.7546771E-02  0.1221051E+00
         21   -1    0    0  503  502  0.00000000000E+00  0.00000000000E+00  0.97034987033E+02  0.97034987033E+02  0.00000000000E+00 0. -1.
          4   -1    0    0  502    0 -0.00000000000E+00 -0.00000000000E+00 -0.50004607425E+03  0.50004607425E+03  0.00000000000E+00 0. -1.
         24    2    1    2    0    0 -0.53983476349E+02 -0.10501922582E+03 -0.26973992736E+03  0.30553908744E+03  0.81555208466E+02 0.  0.
         23    2    1    2    0    0  0.64077387442E+02  0.20754450863E+02 -0.35496853249E+01  0.11281386146E+03  0.90430682073E+02 0.  0.
        -13    1    3    3    0    0 -0.57957300413E+02 -0.80821852020E+02 -0.13008539423E+03  0.16374806939E+03  0.00000000000E+00 0.  1.
         14    1    3    3    0    0  0.39738240635E+01 -0.24197373802E+02 -0.13965453313E+03  0.14179101805E+03  0.00000000000E+00 0. -1.
        -13    1    4    4    0    0  0.68358079425E+02  0.44096911077E+02 -0.20207410299E+02  0.83819472798E+02  0.00000000000E+00 0.  1.
         13    1    4    4    0    0 -0.42806919833E+01 -0.23342460214E+02  0.16657724974E+02  0.28994388664E+02  0.00000000000E+00 0. -1.
         21    1    1    2  503  501 -0.24882247654E+02 -0.23979750899E+01 -0.39980231179E+01  0.25315227072E+02  0.00000000000E+00 0. -1.
          3    1    1    2  501    0  0.14788336561E+02  0.86662750049E+02 -0.12572345141E+03  0.15341288531E+03  0.00000000000E+00 0. -1.
<scales pt_clust_5="13000.00000" pt_clust_6="13000.00000" pt_clust_7="13000.00000" pt_clust_8="13000.00000" pt_clust_9="24.99753" pt_clust_10="86.95178"></scales>
<clustering>
<clus scale="   24.998">  1  9  2 -1</clus>
<clus scale="   81.555">  5  6 -1 -1</clus>
<clus scale="   86.952">  1 10  2 -1</clus>
<clus scale="   90.431">  7  8 -1 -1</clus>
<clus scale="  130.132">  2  5  1 -1</clus>
<clus scale="   24.998">  1  5  2 -1</clus>
</clustering>
</event>
<event>
10    4  0.9760103E-005  0.5225242E+03  0.7546771E-02  0.1066201E+00
          2   -1    0    0  503    0 -0.00000000000E+00  0.00000000000E+00  0.24951757628E+04  0.24951757628E+04  0.00000000000E+00 0. -1.
         21   -1    0    0  501  502  0.00000000000E+00 -0.00000000000E+00 -0.16778909400E+03  0.16778909400E+03  0.00000000000E+00 0.  1.
         24    2    1    2    0    0  0.46051807209E+02  0.19769865880E+02  0.43169876817E+03  0.44204704385E+03  0.80809318720E+02 0.  0.
         23    2    1    2    0    0 -0.28206618929E+03  0.41863556197E+03  0.71700883856E+03  0.88169723549E+03  0.92039511112E+02 0.  0.
        -13    1    3    3    0    0  0.62295441672E+02  0.35919702108E+02  0.34111405592E+03  0.34861116763E+03  0.00000000000E+00 0.  1.
         14    1    3    3    0    0 -0.16243634463E+02 -0.16149836228E+02  0.90584712256E+02  0.93435876221E+02  0.00000000000E+00 0. -1.
        -13    1    4    4    0    0 -0.27657758199E+03  0.37045489894E+03  0.67104731825E+03  0.81488434415E+03  0.00000000000E+00 0.  1.
         13    1    4    4    0    0 -0.54886073021E+01  0.48180663025E+02  0.45961520315E+02  0.66812891340E+02  0.00000000000E+00 0. -1.
         21    1    1    2  503  502 -0.28912725026E+01  0.23687465432E+02 -0.20889729425E+02  0.31714921894E+02  0.00000000000E+00 0.  1.
          1    1    1    2  501    0  0.23890565459E+03 -0.46209289328E+03  0.11995687915E+04  0.13075056556E+04  0.00000000000E+00 0. -1.
<scales pt_clust_5="13000.00000" pt_clust_6="13000.00000" pt_clust_7="13000.00000" pt_clust_8="13000.00000" pt_clust_9="23.86327" pt_clust_10="514.35445"></scales>
<clustering>
<clus scale="   23.863">  2  9  1 -1</clus>
<clus scale="   80.809">  5  6 -1 -1</clus>
<clus scale="   92.040">  7  8 -1 -1</clus>
<clus scale="   95.221">  1  5  2 -1</clus>
<clus scale="  514.354">  2 10  1 -1</clus>
<clus scale="   23.863">  2  5  1 -1</clus>
</clustering>
</event>
<event>
10    4  0.7697601E-005  0.3107049E+03  0.7546771E-02  0.1080384E+00
          2   -1    0    0  502    0 -0.00000000000E+00  0.00000000000E+00  0.19386635838E+04  0.19386635838E+04  0.00000000000E+00 0. -1.
         21   -1    0    0  503  502  0.00000000000E+00 -0.00000000000E+00 -0.68729438446E+02  0.68729438446E+02  0.00000000000E+00 0.  1.
         24    2    1    2    0    0 -0.10991236757E+03  0.27091552365E+03  0.84824973040E+03  0.90087749733E+03  0.81096920800E+02 0.  0.
         23    2    1    2    0    0  0.18357097901E+03 -0.24596876387E+03  0.81914199077E+03  0.87960186372E+03  0.92232860093E+02 0.  0.
        -11    1    3    3    0    0 -0.87392211612E+02  0.12338209307E+03  0.36403974110E+03  0.39418964045E+03  0.00000000000E+00 0.  1.
         12    1    3    3    0    0 -0.22520155961E+02  0.14753343058E+03  0.48420998930E+03  0.50668785688E+03  0.00000000000E+00 0. -1.
        -13    1    4    4    0    0  0.58736604606E+02 -0.93908442943E+02  0.42347782690E+03  0.43772394755E+03  0.00000000000E+00 0. -1.
         13    1    4    4    0    0  0.12483437440E+03 -0.15206032093E+03  0.39566416387E+03  0.44187791617E+03  0.00000000000E+00 0.  1.
         21    1    1    2  503  501 -0.23498493631E+02  0.11955772528E+02  0.17425291170E+02  0.31603171866E+02  0.00000000000E+00 0.  1.
          1    1    1    2  501    0 -0.50160117803E+02 -0.36902532308E+02  0.18511713299E+03  0.19531048931E+03  0.00000000000E+00 0. -1.
<scales pt_clust_5="13000.00000" pt_clust_6="13000.00000" pt_clust_7="13000.00000" pt_clust_8="13000.00000" pt_clust_9="26.36512" pt_clust_10="63.28149"></scales>
<clustering>
<clus scale="   26.365">  2  9  1 -1</clus>
<clus scale="   63.281">  2 10  1 -1</clus>
<clus scale="   81.097">  5  6 -1 -1</clus>
<clus scale="   92.233">  7  8 -1 -1</clus>
<clus scale="  307.583">  1  5  2 -1</clus>
<clus scale="   26.365">  2  5  1 -1</clus>
</clustering>
</event>
<event>
10    4  0.7697601E-005  0.2134158E+03  0.7546771E-02  0.1158182E+00
          2   -1    0    0  502    0 -0.00000000000E+00  0.00000000000E+00  0.15475565757E+04  0.15475565757E+04  0.00000000000E+00 0. -1.
         21   -1    0    0  503  502  0.00000000000E+00 -0.00000000000E+00 -0.82687498455E+02  0.82687498455E+02  0.00000000000E+00 0.  1.
         23    2    1    2    0    0  0.82974463788E+02  0.21192325530E+02  0.28774910921E+03  0.31408230839E+03  0.92272803633E+02 0.  0.
         24    2    1    2    0    0 -0.26547541236E+03 -0.44495601341E+02  0.55934820382E+03  0.62583777388E+03  0.79658351644E+02 0.  0.
        -11    1    4    4    0    0 -0.22551865194E+03 -0.64577083190E+02  0.49100090836E+03  0.54416059583E+03  0.00000000000E+00 0.  1.
         12    1    4    4    0    0 -0.39956760418E+02  0.20081481849E+02  0.68347295465E+02  0.81677178048E+02  0.00000000000E+00 0. -1.
        -13    1    3    3    0    0  0.24945647726E+02  0.52997325036E+02  0.11420848372E+03  0.12835333870E+03  0.00000000000E+00 0.  1.
         13    1    3    3    0    0  0.58028816061E+02 -0.31804999507E+02  0.17354062549E+03  0.18572896969E+03  0.00000000000E+00 0. -1.
         21    1    1    2  503  501  0.47263867041E+02  0.25509229495E+02 -0.41462474531E+01  0.53868221477E+02  0.00000000000E+00 0.  1.
          1    1    1    2  501    0  0.13523708153E+03 -0.22059536837E+01  0.62191801166E+03  0.63645577040E+03  0.00000000000E+00 0. -1.
<scales pt_clust_5="13000.00000" pt_clust_6="13000.00000" pt_clust_7="13000.00000" pt_clust_8="13000.00000" pt_clust_9="53.70842" pt_clust_10="197.99217"></scales>
<clustering>
<clus scale="   53.708">  2  9  1 -1</clus>
<clus scale="   79.658">  5  6 -1 -1</clus>
<clus scale="   92.273">  7  8 -1 -1</clus>
<clus scale="  134.947">  1  7  2 -1</clus>
<clus scale="  197.992">  2 10  1 -1</clus>
<clus scale="   53.708">  2  5  1 -1</clus>
</clustering>
</event>
<event>
10    4  0.7697601E-005  0.1316801E+03  0.7546771E-02  0.1235011E+00
         21   -1    0    0  501  502  0.00000000000E+00  0.00000000000E+00  0.53790587090E+02  0.53790587090E+02  0.00000000000E+00 0.  1.
          2   -1    0    0  503    0 -0.00000000000E+00 -0.00000000000E+00 -0.94878466696E+03  0.94878466696E+03  0.00000000000E+00 0. -1.
         24    2    1    2    0    0 -0.56982844995E+02  0.30948895341E+02 -0.26063976995E+03  0.28047626134E+03  0.80802009570E+02 0.  0.
         23    2    1    2    0    0 -0.34578602323E+02  0.53926302020E+02 -0.17471788649E+03  0.20798245236E+03  0.92879679386E+02 0.  0.
        -13    1    3    3    0    0 -0.57617296235E+02  0.45978215985E+02 -0.13392187871E+03  0.15286863239E+03  0.00000000000E+00 0.  1.
         14    1    3    3    0    0  0.63445124029E+00 -0.15029320644E+02 -0.12671789124E+03  0.12760762896E+03  0.00000000000E+00 0. -1.
        -11    1    4    4    0    0 -0.44157483875E+02  0.15269925921E+02 -0.15804667422E+03  0.16480838951E+03  0.00000000000E+00 0.  1.
         11    1    4    4    0    0  0.95788815513E+01  0.38656376099E+02 -0.16671212268E+02  0.43174062854E+02  0.00000000000E+00 0. -1.
         21    1    1    2  503  502 -0.17425347310E+02  0.10461314664E+02  0.10009124022E+02  0.22655339262E+02  0.00000000000E+00 0. -1.
          1    1    1    2  501    0  0.10898679463E+03 -0.95336512025E+02 -0.46964554745E+03  0.49146120108E+03  0.00000000000E+00 0. -1.
<scales pt_clust_5="13000.00000" pt_clust_6="13000.00000" pt_clust_7="13000.00000" pt_clust_8="13000.00000" pt_clust_9="20.32441" pt_clust_10="93.34356"></scales>
<clustering>
<clus scale="   20.324">  1  9  2 -1</clus>
<clus scale="   80.802">  5  6 -1 -1</clus>
<clus scale="   92.880">  7  8 -1 -1</clus>
<clus scale="  107.052">  2  5  1 -1</clus>
<clus scale="   93.344">  1 10  2 -1</clus>
<clus scale="   20.324">  1  5  2 -1</clus>
</clustering>
</event>
<event>
10    4  0.7697601E-005  0.1026820E+03  0.7546771E-02  0.1278453E+00
         21   -1    0    0  501  502  0.00000000000E+00  0.00000000000E+00  0.64719410451E+03  0.64719410451E+03  0.00000000000E+00 0.  1.
          2   -1    0    0  503    0 -0.00000000000E+00 -0.00000000000E+00 -0.46617900038E+02  0.46617900038E+02  0.00000000000E+00 0. -1.
         23    2    1    2    0    0  0.26261926983E+02  0.47080473781E+02  0.57530430740E+02  0.11860821714E+03  0.88610941152E+02 0.  0.
         24    2    1    2    0    0 -0.67691371126E+02 -0.57598940829E+01  0.26266026946E+03  0.28296000977E+03  0.80378180351E+02 0.  0.
        -11    1    4    4    0    0 -0.71335347939E+01  0.31856188979E+02  0.10438462108E+03  0.10937025745E+03  0.00000000000E+00 0.  1.
         12    1    4    4    0    0 -0.60557836333E+02 -0.37616083062E+02  0.15827564837E+03  0.17358975233E+03  0.00000000000E+00 0. -1.
        -11    1    3    3    0    0  0.23576172235E+02 -0.91976418582E+01 -0.12907809219E+02  0.28408520761E+02  0.00000000000E+00 0.  1.
         11    1    3    3    0    0  0.26857547475E+01  0.56278115639E+02  0.70438239959E+02  0.90199696379E+02  0.00000000000E+00 0. -1.
         21    1    1    2  503  502  0.68632546669E+01 -0.26995395814E+02  0.21589713249E+03  0.21768653490E+03  0.00000000000E+00 0.  1.
          1    1    1    2  501    0  0.34566189477E+02 -0.14325183884E+02  0.64488371789E+02  0.74557242735E+02  0.00000000000E+00 0. -1.
<scales pt_clust_5="13000.00000" pt_clust_6="13000.00000" pt_clust_7="13000.00000" pt_clust_8="13000.00000" pt_clust_9="27.85419" pt_clust_10="40.27219"></scales>
<clustering>
<clus scale="   27.854">  1  9  2 -1</clus>
<clus scale="   40.272">  1 10  2 -1</clus>
<clus scale="   80.378">  5  6 -1 -1</clus>
<clus scale="   88.611">  7  8 -1 -1</clus>
<clus scale="   95.668">  1  5  2 -1</clus>
<clus scale="   27.854">  1  5  2 -1</clus>
</clustering>
</event>
<event>
10    4  0.7697601E-005  0.1153403E+03  0.7546771E-02  0.1255341E+00
          2   -1    0    0  503    0 -0.00000000000E+00  0.00000000000E+00  0.14163679756E+04  0.14163679756E+04  0.00000000000E+00 0. -1.
         21   -1    0    0  501  502  0.00000000000E+00 -0.00000000000E+00 -0.85779270855E+02  0.85779270855E+02  0.00000000000E+00 0.  1.
         24    2    1    2    0    0 -0.34884384266E+02 -0.66389912932E+02  0.67344605355E+03  0.68236219868E+03  0.80399268239E+02 0.  0.
         23    2    1    2    0    0  0.23579593087E+02  0.20096767207E+02  0.55479783421E+02  0.11231834138E+03  0.92614934966E+02 0.  0.
        -11    1    3    3    0    0  0.20152707080E+02 -0.44795637691E+02  0.24694319020E+03  0.25178109529E+03  0.00000000000E+00 0.  1.
         12    1    3    3    0    0 -0.55037091346E+02 -0.21594275240E+02  0.42650286335E+03  0.43058110338E+03  0.00000000000E+00 0. -1.
        -11    1    4    4    0    0 -0.35363937779E+02  0.55397796113E+01  0.12436611952E+02  0.37894149551E+02  0.00000000000E+00 0. -1.
         11    1    4    4    0    0  0.58943530866E+02  0.14556987595E+02  0.43043171469E+02  0.74424191825E+02  0.00000000000E+00 0.  1.
         21    1    1    2  503  502  0.36977005765E+02 -0.43752880090E+02 -0.32881241073E+02  0.66051415473E+02  0.00000000000E+00 0.  1.
          1    1    1    2  501    0 -0.25672214586E+02  0.90046025815E+02  0.63454410882E+03  0.64141529090E+03  0.00000000000E+00 0. -1.
<scales pt_clust_5="13000.00000" pt_clust_6="13000.00000" pt_clust_7="13000.00000" pt_clust_8="13000.00000" pt_clust_9="57.28537" pt_clust_10="88.72214"></scales>
<clustering>
<clus scale="   57.285">  2  9  1 -1</clus>
<clus scale="   80.399">  5  6 -1 -1</clus>
<clus scale="   88.722">  2 10  1 -1</clus>
<clus scale="   92.615">  7  8 -1 -1</clus>
<clus scale="  105.782">  1  5  2 -1</clus>
<clus scale="   57.285">  2  5  1 -1</clus>
</clustering>
</event>
<event>
10    4  0.7697601E-005  0.1288090E+03  0.7546771E-02  0.1232774E+00
          2   -1    0    0  503    0 -0.00000000000E+00  0.00000000000E+00  0.15943500556E+04  0.15943500556E+04  0.00000000000E+00 0. -1.
         21   -1    0    0  501  502  0.00000000000E+00 -0.00000000000E+00 -0.18334513831E+03  0.18334513831E+03  0.00000000000E+00 0. -1.
         24    2    1    2    0    0  0.16156236208E+02  0.95180347514E+02  0.11950431839E+04  0.12017096166E+04  0.81593313969E+02 0.  0.
         23    2    1    2    0    0 -0.34258252424E+01 -0.65062468066E+02  0.37599065896E+03  0.39309588372E+03  0.94395641512E+02 0.  0.
        -11    1    3    3    0    0  0.19202835867E+02  0.36375104104E+02  0.16734928569E+03  0.17233014978E+03  0.00000000000E+00 0.  1.
         12    1    3    3    0    0 -0.30465996585E+01  0.58805243410E+02  0.10276938982E+04  0.10293794668E+04  0.00000000000E+00 0. -1.
        -13    1    4    4    0    0  0.66206215468E+00  0.21649074590E+02  0.34425226737E+02  0.40672066493E+02  0.00000000000E+00 0. -1.
         13    1    4    4    0    0 -0.40878873971E+01 -0.86711542657E+02  0.34156543223E+03  0.35242381722E+03  0.00000000000E+00 0.  1.
         21    1    1    2  503  502 -0.16536743125E+02  0.20484219773E+02 -0.10407168194E+03  0.10734981190E+03  0.00000000000E+00 0. -1.
          1    1    1    2  501    0  0.38063321589E+01 -0.50602099221E+02 -0.55957243595E+02  0.75539881658E+02  0.00000000000E+00 0. -1.
<scales pt_clust_5="13000.00000" pt_clust_6="13000.00000" pt_clust_7="13000.00000" pt_clust_8="13000.00000" pt_clust_9="26.32617" pt_clust_10="34.78278"></scales>
<clustering>
<clus scale="   26.326">  2  9  1 -1</clus>
<clus scale="   34.783">  2 10  1 -1</clus>
<clus scale="   81.593">  5  6 -1 -1</clus>
<clus scale="   94.396">  7  8 -1 -1</clus>
<clus scale="  119.744">  1  5  2 -1</clus>
<clus scale="   26.326">  2  5  1 -1</clus>
</clustering>
</event>
<event>
10    4  0.7697601E-005  0.8991033E+02  0.7546771E-02  0.1310279E+00
          4   -1    0    0  503    0 -0.00000000000E+00  0.00000000000E+00  0.12393694007E+03  0.12393694007E+03  0.00000000000E+00 0. -1.
         21   -1    0    0  501  502  0.00000000000E+00 -0.00000000000E+00 -0.63328847277E+03  0.63328847277E+03  0.00000000000E+00 0.  1.
         24    2    1    2    0    0  0.11393062207E+02  0.22545431847E+00  0.55049897131E+02  0.96636016891E+02  0.78601373336E+02 0.  0.
         23    2    1    2    0    0  0.48354567000E+02  0.18108901600E+02 -0.18752805567E+03  0.21419850327E+03  0.89711374279E+02 0.  0.
        -11    1    3    3    0    0 -0.19531009843E+02 -0.29715163406E+02  0.31854556557E+02  0.47740591274E+02  0.00000000000E+00 0.  1.
         12    1    3    3    0    0  0.30924072050E+02  0.29940617725E+02  0.23195340574E+02  0.48895425617E+02  0.00000000000E+00 0. -1.
        -13    1    4    4    0    0  0.19110886432E+02 -0.33189606842E+02 -0.40423425986E+02  0.55685090922E+02  0.00000000000E+00 0. -1.
         13    1    4    4    0    0  0.29243680568E+02  0.51298508442E+02 -0.14710462968E+03  0.15851341235E+03  0.00000000000E+00 0.  1.
         21    1    1    2  503  502 -0.81739857799E+02 -0.42990207584E+02 -0.39706913181E+03  0.40766831829E+03  0.00000000000E+00 0.  1.
          3    1    1    2  501    0  0.21992228593E+02  0.24655851666E+02  0.20195757644E+02  0.38722574381E+02  0.00000000000E+00 0. -1.
<scales pt_clust_5="13000.00000" pt_clust_6="13000.00000" pt_clust_7="13000.00000" pt_clust_8="13000.00000" pt_clust_9="72.78912" pt_clust_10="33.03892"></scales>
<clustering>
<clus scale="   33.039">  2 10  1 -1</clus>
<clus scale="   72.789">  2  9  1 -1</clus>
<clus scale="   78.601">  5  6 -1 -1</clus>
<clus scale="   78.828">  1  5  2 -1</clus>
<clus scale="   89.711">  7  8 -1 -1</clus>
<clus scale="   33.039">  2  5  1 -1</clus>
</clustering>
</event>
<event>
10    4  0.7697601E-005  0.1030684E+03  0.7546771E-02  0.1280176E+00
         21   -1    0    0  501  502  0.00000000000E+00  0.00000000000E+00  0.15511882140E+03  0.15511882140E+03  0.00000000000E+00 0.  1.
          2   -1    0    0  503    0 -0.00000000000E+00 -0.00000000000E+00 -0.38461994224E+03  0.38461994224E+03  0.00000000000E+00 0. -1.
         23    2    1    2    0    0 -0.40696471053E+02  0.22196912628E+00 -0.28219917083E+03  0.29975674270E+03  0.92528269986E+02 0.  0.
         24    2    1    2    0    0  0.86923266043E+02  0.51187445143E+02  0.32037084719E+02  0.13236370933E+03  0.79485646690E+02 0.  0.
        -11    1    4    4    0    0  0.91191619668E+02  0.16927167644E+02  0.31104337317E+02  0.97825969466E+02  0.00000000000E+00 0.  1.
         12    1    4    4    0    0 -0.42683536251E+01  0.34260277499E+02  0.93274740194E+00  0.34537739861E+02  0.00000000000E+00 0. -1.
        -11    1    3    3    0    0 -0.54342071971E+02 -0.26976885902E+02 -0.11717010011E+03  0.13194561576E+03  0.00000000000E+00 0.  1.
         11    1    3    3    0    0  0.13645600917E+02  0.27198855028E+02 -0.16502907073E+03  0.16781112694E+03  0.00000000000E+00 0. -1.
         21    1    1    2  503  502 -0.29622327945E+02 -0.27027249964E+02  0.51282773661E+02  0.65098981773E+02  0.00000000000E+00 0.  1.
          1    1    1    2  501    0 -0.16604467045E+02 -0.24382164305E+02 -0.30621808380E+02  0.42519329845E+02  0.00000000000E+00 0. -1.
<scales pt_clust_5="13000.00000" pt_clust_6="13000.00000" pt_clust_7="13000.00000" pt_clust_8="13000.00000" pt_clust_9="51.36402" pt_clust_10="29.49914"></scales>
<clustering>
<clus scale="   29.499">  1 10  2 -1</clus>
<clus scale="   51.364">  1  9  2 -1</clus>
<clus scale="   79.486">  5  6 -1 -1</clus>
<clus scale="   91.540">  1  5  2 -1</clus>
<clus scale="   92.528">  7  8 -1 -1</clus>
<clus scale="   29.499">  1  5  2 -1</clus>
</clustering>
</event>
<event>
10    4  0.7697601E-005  0.2200959E+03  0.7546771E-02  0.1156483E+00
         21   -1    0    0  501  502  0.00000000000E+00  0.00000000000E+00  0.12710473169E+03  0.12710473169E+03  0.00000000000E+00 0. -1.
          2   -1    0    0  503    0 -0.00000000000E+00 -0.00000000000E+00 -0.17189209390E+04  0.17189209390E+04  0.00000000000E+00 0. -1.
         24    2    1    2    0    0 -0.56222203364E+02 -0.92017168771E+02 -0.98463134664E+03  0.99336476131E+03  0.75143627291E+02 0.  0.
         23    2    1    2    0    0 -0.18554829956E+03  0.30734815890E+02 -0.31943482609E+03  0.38217591728E+03  0.92989371711E+02 0.  0.
        -13    1    3    3    0    0  0.33261858587E+01 -0.38291912279E+02 -0.14842213824E+03  0.15331818280E+03  0.00000000000E+00 0.  1.
         14    1    3    3    0    0 -0.59548389223E+02 -0.53725256491E+02 -0.83620920840E+03  0.84004657851E+03  0.00000000000E+00 0. -1.
        -11    1    4    4    0    0 -0.12298923200E+03  0.63874442680E+02 -0.19967871055E+03  0.24305942290E+03  0.00000000000E+00 0. -1.
         11    1    4    4    0    0 -0.62559067561E+02 -0.33139626790E+02 -0.11975611554E+03  0.13911649438E+03  0.00000000000E+00 0.  1.
         21    1    1    2  503  502  0.25752756021E+02  0.60907987651E+02  0.40490526317E+02  0.77540119447E+02  0.00000000000E+00 0. -1.
          1    1    1    2  501    0  0.21601774691E+03  0.37436522919E+00 -0.32824056091E+03  0.39294487266E+03  0.00000000000E+00 0. -1.
<scales pt_clust_5="13000.00000" pt_clust_6="13000.00000" pt_clust_7="13000.00000" pt_clust_8="13000.00000" pt_clust_9="66.12857" pt_clust_10="199.48736"></scales>
<clustering>
<clus scale="   66.129">  1  9  2 -1</clus>
<clus scale="   75.144">  5  6 -1 -1</clus>
<clus scale="   92.989">  7  8 -1 -1</clus>
<clus scale="  128.016">  2  5  1 -1</clus>
<clus scale="  199.487">  1 10  2 -1</clus>
<clus scale="   66.129">  1  5  2 -1</clus>
</clustering>
</event>
<event>
10    4  0.7697601E-005  0.3744133E+03  0.7546771E-02  0.1108098E+00
         21   -1    0    0  501  502  0.00000000000E+00  0.00000000000E+00  0.60925361379E+02  0.60925361379E+02  0.00000000000E+00 0.  1.
          2   -1    0    0  503    0 -0.00000000000E+00 -0.00000000000E+00 -0.32630933029E+04  0.32630933029E+04  0.00000000000E+00 0. -1.
         24    2    1    2    0    0 -0.26724396460E+02 -0.51381261801E+01 -0.37381725968E+03  0.38341452374E+03  0.80788363465E+02 0.  0.
         23    2    1    2    0    0 -0.16658308917E+03 -0.29498764752E+03 -0.13696694100E+04  0.14139435866E+04  0.92057240982E+02 0.  0.
        -11    1    3    3    0    0  0.17844496850E+02  0.19015163478E+02 -0.58506245569E+02  0.64054533645E+02  0.00000000000E+00 0.  1.
         12    1    3    3    0    0 -0.44568893310E+02 -0.24153289658E+02 -0.31531101411E+03  0.31935999009E+03  0.00000000000E+00 0. -1.
        -13    1    4    4    0    0 -0.13092481179E+03 -0.20508175666E+03 -0.11215726773E+04  0.11476607093E+04  0.00000000000E+00 0.  1.
         13    1    4    4    0    0 -0.35658277378E+02 -0.89905890862E+02 -0.24809673276E+03  0.26628287734E+03  0.00000000000E+00 0. -1.
         21    1    1    2  503  502  0.25546789341E+02 -0.51175017520E+02 -0.12792715888E+03  0.14013164826E+03  0.00000000000E+00 0.  1.
          1    1    1    2  501    0  0.16776069629E+03  0.35130079122E+03 -0.13307541129E+04  0.13865289056E+04  0.00000000000E+00 0. -1.
<scales pt_clust_5="13000.00000" pt_clust_6="13000.00000" pt_clust_7="13000.00000" pt_clust_8="13000.00000" pt_clust_9="57.19721" pt_clust_10="362.91976"></scales>
<clustering>
<clus scale="   57.197">  1  9  2 -1</clus>
<clus scale="   80.788">  5  6 -1 -1</clus>
<clus scale="   84.964">  2  5  1 -1</clus>
<clus scale="   92.057">  7  8 -1 -1</clus>
<clus scale="  362.920">  1 10  2 -1</clus>
<clus scale="   57.197">  1  5  2 -1</clus>
</clustering>
</event>
<event>
10    4  0.7697601E-005  0.4194385E+03  0.7546771E-02  0.1086156E+00
         21   -1    0    0  503  502  0.00000000000E+00  0.00000000000E+00  0.44871061099E+03  0.44871061099E+03  0.00000000000E+00 0.  1.
          2   -1    0    0  502    0 -0.00000000000E+00 -0.00000000000E+00 -0.94066755475E+03  0.94066755475E+03  0.00000000000E+00 0. -1.
         24    2    1    2    0    0 -0.21675070047E+02  0.77913892310E+02 -0.10008275445E+03  0.14939194274E+03  0.75901327659E+02 0.  0.
         23    2    1    2    0    0  0.34299457931E+03  0.23541443357E+03 -0.11585787144E+03  0.44093405028E+03  0.89076109895E+02 0.  0.
        -11    1    3    3    0    0 -0.26595872667E+02  0.27324105381E+02 -0.11291638090E+01  0.38147374598E+02  0.00000000000E+00 0.  1.
         12    1    3    3    0    0  0.49208026202E+01  0.50589786929E+02 -0.98953590642E+02  0.11124456814E+03  0.00000000000E+00 0. -1.
        -11    1    4    4    0    0  0.22921749750E+03  0.18116228311E+03 -0.11741251808E+03  0.31487479001E+03  0.00000000000E+00 0. -1.
         11    1    4    4    0    0  0.11377708181E+03  0.54252150460E+02  0.15546466341E+01  0.12605926027E+03  0.00000000000E+00 0.  1.
         21    1    1    2  503  501  0.10820031954E+02 -0.56968939507E+02  0.17422536898E+03  0.18362192777E+03  0.00000000000E+00 0.  1.
          1    1    1    2  501    0 -0.33213954122E+03 -0.25635938637E+03 -0.45024168684E+03  0.61543024495E+03  0.00000000000E+00 0. -1.
<scales pt_clust_5="13000.00000" pt_clust_6="13000.00000" pt_clust_7="13000.00000" pt_clust_8="13000.00000" pt_clust_9="57.98735" pt_clust_10="409.87104"></scales>
<clustering>
<clus scale="   57.987">  1  9  2 -1</clus>
<clus scale="   75.901">  5  6 -1 -1</clus>
<clus scale="   89.076">  7  8 -1 -1</clus>
<clus scale="  107.123">  2  5  1 -1</clus>
<clus scale="  409.871">  1 10  2 -1</clus>
<clus scale="   57.987">  1  5  2 -1</clus>
</clustering>
</event>
<event>
10    4  0.7697601E-005  0.3287798E+03  0.7546771E-02  0.1098602E+00
         21   -1    0    0  503  502  0.00000000000E+00  0.00000000000E+00  0.11731523118E+04  0.11731523118E+04  0.00000000000E+00 0. -1.
          4   -1    0    0  502    0 -0.00000000000E+00 -0.00000000000E+00 -0.38887454298E+03  0.38887454298E+03  0.00000000000E+00 0. -1.
         24    2    1    2    0    0  0.13424278558E+03 -0.24295302759E+02  0.72473856923E+01  0.16045718591E+03  0.84158164755E+02 0.  0.
         23    2    1    2    0    0 -0.30744325003E+03  0.31232604752E+03  0.95753435858E+02  0.45763369693E+03  0.90503967526E+02 0.  0.
        -13    1    3    3    0    0  0.26080346550E+02 -0.43106317112E+02  0.52298185532E+01  0.50652641128E+02  0.00000000000E+00 0.  1.
         14    1    3    3    0    0  0.10816243903E+03  0.18811014353E+02  0.20175671391E+01  0.10980454479E+03  0.00000000000E+00 0. -1.
        -13    1    4    4    0    0 -0.10394165739E+02  0.44556640787E+02 -0.24882995569E+01  0.45820569118E+02  0.00000000000E+00 0.  1.
         13    1    4    4    0    0 -0.29704908429E+03  0.26776940674E+03  0.98241735415E+02  0.41181312782E+03  0.00000000000E+00 0. -1.
         21    1    1    2  503  501  0.27719430139E+03  0.11079470496E+02  0.51809431806E+03  0.58769137972E+03  0.00000000000E+00 0. -1.
          3    1    1    2  501    0 -0.10399383693E+03 -0.29911021526E+03  0.16318262917E+03  0.35624459218E+03  0.00000000000E+00 0. -1.
<scales pt_clust_5="13000.00000" pt_clust_6="13000.00000" pt_clust_7="13000.00000" pt_clust_8="13000.00000" pt_clust_9="292.27391" pt_clust_10="316.07784"></scales>
<clustering>
<clus scale="   84.158">  5  6 -1 -1</clus>
<clus scale="   90.504">  7  8 -1 -1</clus>
<clus scale="  160.293">  2  5  1 -1</clus>
<clus scale="  292.274">  1  9  2 -1</clus>
<clus scale="  316.078">  1 10  2 -1</clus>
<clus scale="  292.274">  1  5  2 -1</clus>
</clustering>
</event>
<event>
10    4  0.7697601E-005  0.2494872E+03  0.7546771E-02  0.1142415E+00
          2   -1    0    0  503    0 -0.00000000000E+00  0.00000000000E+00  0.45123820256E+03  0.45123820256E+03  0.00000000000E+00 0. -1.
         21   -1    0    0  501  502  0.00000000000E+00 -0.00000000000E+00 -0.46801623302E+03  0.46801623302E+03  0.00000000000E+00 0.  1.
         23    2    1    2    0    0  0.63521164779E+02 -0.74064031182E+02 -0.41912498332E+01  0.11904136166E+03  0.68065116769E+02 0.  0.
         24    2    1    2    0    0 -0.58727578492E+02  0.27358466680E+03 -0.11953465256E+03  0.31473432400E+03  0.80446647899E+02 0.  0.
        -13    1    4    4    0    0 -0.68136584326E+02  0.27291319420E+03 -0.11854618543E+03  0.30524974001E+03  0.00000000000E+00 0.  1.
         14    1    4    4    0    0  0.94090058344E+01  0.67147259329E+00 -0.98846713134E+00  0.94845839922E+01  0.00000000000E+00 0. -1.
        -13    1    3    3    0    0  0.59218167897E+02 -0.31185632513E+02 -0.24669170273E+02  0.71329538386E+02  0.00000000000E+00 0.  1.
         13    1    3    3    0    0  0.43029968816E+01 -0.42878398669E+02  0.20477920440E+02  0.47711823274E+02  0.00000000000E+00 0. -1.
         21    1    1    2  503  502 -0.81809215972E+01 -0.35098864483E+02 -0.16433478287E+03  0.16824024081E+03  0.00000000000E+00 0.  1.
          1    1    1    2  501    0  0.33873353106E+01 -0.16442177113E+03  0.27128265481E+03  0.31723850911E+03  0.00000000000E+00 0. -1.
<scales pt_clust_5="13000.00000" pt_clust_6="13000.00000" pt_clust_7="13000.00000" pt_clust_8="13000.00000" pt_clust_9="36.03967" pt_clust_10="236.16151"></scales>
<clustering>
<clus scale="   36.040">  2  9  1 -1</clus>
<clus scale="   68.065">  7  8 -1 -1</clus>
<clus scale="   80.447">  5  6 -1 -1</clus>
<clus scale="  122.707">  1  7  2 -1</clus>
<clus scale="  236.162">  2 10  1 -1</clus>
<clus scale="   36.040">  2  5  1 -1</clus>
</clustering>
</event>
<event>
10    4  0.7697601E-005  0.1233688E+03  0.7546771E-02  0.1240856E+00
         21   -1    0    0  503  502  0.00000000000E+00  0.00000000000E+00  0.13669691155E+03  0.13669691155E+03  0.00000000000E+00 0.  1.
         -3   -1    0    0    0  501 -0.00000000000E+00 -0.00000000000E+00 -0.61617931881E+03  0.61617931881E+03  0.00000000000E+00 0.  1.
         23    2    1    2    0    0  0.38801911710E+02  0.85471616651E+02 -0.27639609123E+03  0.30581353925E+03  0.91192850253E+02 0.  0.
         24    2    1    2    0    0 -0.12248108373E+02 -0.71514587946E+02 -0.16350039451E+03  0.19607953043E+03  0.80314698531E+02 0.  0.
        -11    1    4    4    0    0  0.10941216568E+02 -0.78011160829E+02 -0.94670177621E+02  0.12315800406E+03  0.00000000000E+00 0.  1.
         12    1    4    4    0    0 -0.23189324941E+02  0.64965728823E+01 -0.68830216892E+02  0.72921526368E+02  0.00000000000E+00 0. -1.
        -11    1    3    3    0    0  0.36323304460E+02 -0.77718228142E+01 -0.90557370092E+02  0.97879624819E+02  0.00000000000E+00 0. -1.
         11    1    3    3    0    0  0.24786072506E+01  0.93243439465E+02 -0.18583872113E+03  0.20793391443E+03  0.00000000000E+00 0.  1.
         21    1    1    2  503  501  0.17869709360E+02 -0.19224148411E+02  0.10052972169E+03  0.10389956370E+03  0.00000000000E+00 0.  1.
         -4    1    1    2    0  502 -0.44423512698E+02  0.52671197071E+01 -0.14011564320E+03  0.14708359698E+03  0.00000000000E+00 0.  1.
<scales pt_clust_5="13000.00000" pt_clust_6="13000.00000" pt_clust_7="13000.00000" pt_clust_8="13000.00000" pt_clust_9="26.24680" pt_clust_10="42.74753"></scales>
<clustering>
<clus scale="   26.247">  1  9  2 -1</clus>
<clus scale="   42.748">  1 10  2 -1</clus>
<clus scale="   80.315">  5  6 -1 -1</clus>
<clus scale="   91.193">  7  8 -1 -1</clus>
<clus scale="  115.560">  1  5  2 -1</clus>
<clus scale="   26.247">  1  5  2 -1</clus>
</clustering>
</event>
<event>
10    4  0.7697601E-005  0.1190872E+03  0.7546771E-02  0.1262276E+00
          2   -1    0    0  503    0 -0.00000000000E+00  0.00000000000E+00  0.29547203052E+03  0.29547203052E+03  0.00000000000E+00 0. -1.
         21   -1    0    0  501  502  0.00000000000E+00 -0.00000000000E+00 -0.12399055782E+03  0.12399055782E+03  0.00000000000E+00 0. -1.
         24    2    1    2    0    0  0.94066901750E+00  0.15729434775E+02  0.55176275151E+02  0.99526343573E+02  0.81318950737E+02 0.  0.
         23    2    1    2    0    0 -0.85716715296E+02  0.18138418376E+02 -0.25297742343E+02  0.12556830826E+03  0.86319561914E+02 0.  0.
        -13    1    3    3    0    0  0.37836974253E+02 -0.80598996864E+01  0.22039333902E+02  0.44523374113E+02  0.00000000000E+00 0.  1.
         14    1    3    3    0    0 -0.36896305235E+02  0.23789334461E+02  0.33136941249E+02  0.55002969460E+02  0.00000000000E+00 0. -1.
        -11    1    4    4    0    0 -0.38073704815E+02  0.52056634138E+02 -0.14280346286E+02  0.66056252135E+02  0.00000000000E+00 0.  1.
         11    1    4    4    0    0 -0.47643010481E+02 -0.33918215762E+02 -0.11017396056E+02  0.59512056124E+02  0.00000000000E+00 0. -1.
         21    1    1    2  503  502  0.17006953208E+02  0.20779826006E+02 -0.14673291608E+01  0.26892204839E+02  0.00000000000E+00 0.  1.
          1    1    1    2  501    0  0.67769093071E+02 -0.54647679156E+02  0.14307026905E+03  0.16747573167E+03  0.00000000000E+00 0. -1.
<scales pt_clust_5="13000.00000" pt_clust_6="13000.00000" pt_clust_7="13000.00000" pt_clust_8="13000.00000" pt_clust_9="26.85214" pt_clust_10="82.04078"></scales>
<clustering>
<clus scale="   26.852">  2  9  1 -1</clus>
<clus scale="   81.319">  5  6 -1 -1</clus>
<clus scale="   83.839">  1  5  2 -1</clus>
<clus scale="   82.041">  2 10  1 -1</clus>
<clus scale="   86.320">  7  8 -1 -1</clus>
<clus scale="   26.852">  2  5  1 -1</clus>
</clustering>
</event>
<event>
10    4  0.7697601E-005  0.1539767E+03  0.7546771E-02  0.1198253E+00
          2   -1    0    0  503    0 -0.00000000000E+00  0.00000000000E+00  0.13421087945E+04  0.13421087945E+04  0.00000000000E+00 0. -1.
         21   -1    0    0  501  502  0.00000000000E+00 -0.00000000000E+00 -0.71138267583E+02  0.71138267583E+02  0.00000000000E+00 0. -1.
         24    2    1    2    0    0  0.38050924638E+02 -0.13111538255E+03  0.10023376786E+04  0.10145927938E+04  0.77965370063E+02 0.  0.
         23    2    1    2    0    0 -0.79816066042E+02  0.56975246943E+02  0.22104659448E+03  0.25900920084E+03  0.92775999182E+02 0.  0.
        -11    1    3    3    0    0  0.41104321170E+02 -0.23294143607E+02  0.23412859644E+03  0.23884803122E+03  0.00000000000E+00 0.  1.
         12    1    3    3    0    0 -0.30533965315E+01 -0.10782123894E+03  0.76820908215E+03  0.77574476260E+03  0.00000000000E+00 0. -1.
        -11    1    4    4    0    0 -0.24077746675E+02 -0.23768185630E+02  0.35012761361E+02  0.48688376346E+02  0.00000000000E+00 0.  1.
         11    1    4    4    0    0 -0.55738319367E+02  0.80743432574E+02  0.18603383312E+03  0.21032082449E+03  0.00000000000E+00 0. -1.
         21    1    1    2  503  502 -0.11380143390E+02 -0.19313511562E+02  0.16171068760E+02  0.27640963393E+02  0.00000000000E+00 0. -1.
          1    1    1    2  501    0  0.53145284793E+02  0.93453647168E+02  0.31415185067E+02  0.11200410402E+03  0.00000000000E+00 0. -1.
<scales pt_clust_5="13000.00000" pt_clust_6="13000.00000" pt_clust_7="13000.00000" pt_clust_8="13000.00000" pt_clust_9="22.41694" pt_clust_10="93.69914"></scales>
<clustering>
<clus scale="   22.417">  2  9  1 -1</clus>
<clus scale="   77.965">  5  6 -1 -1</clus>
<clus scale="   92.776">  7  8 -1 -1</clus>
<clus scale="   93.699">  2 10  1 -1</clus>
<clus scale="  145.534">  1  5  2 -1</clus>
<clus scale="   22.417">  2  5  1 -1</clus>
</clustering>
</event>
<event>
10    4  0.7697601E-005  0.1143029E+03  0.7546771E-02  0.1257148E+00
         21   -1    0    0  503  502  0.00000000000E+00  0.00000000000E+00  0.93520324518E+02  0.93520324518E+02  0.00000000000E+00 0. -1.
          2   -1    0    0  502    0 -0.00000000000E+00 -0.00000000000E+00 -0.68449123367E+03  0.68449123367E+03  0.00000000000E+00 0. -1.
         23    2    1    2    0    0 -0.43105548181E+02  0.95970334349E+01 -0.28417870186E+03  0.30195125668E+03  0.92015408950E+02 0.  0.
         24    2    1    2    0    0  0.78795168617E+02 -0.64285233308E+02 -0.36009238120E+03  0.38263244914E+03  0.79998739503E+02 0.  0.
        -11    1    4    4    0    0  0.15736334565E+02  0.12781543730E+02 -0.20865691046E+02  0.29092561738E+02  0.00000000000E+00 0.  1.
         12    1    4    4    0    0  0.63058834052E+02 -0.77066777038E+02 -0.33922669015E+03  0.35353988741E+03  0.00000000000E+00 0. -1.
        -13    1    3    3    0    0 -0.28988573083E+02  0.33571859121E+02 -0.26370106319E+03  0.26740541846E+03  0.00000000000E+00 0.  1.
         13    1    3    3    0    0 -0.14116975097E+02 -0.23974825687E+02 -0.20477638666E+02  0.34545838214E+02  0.00000000000E+00 0. -1.
         21    1    1    2  503  501 -0.10327303172E+02  0.21334284820E+02  0.44784161363E+02  0.50669774113E+02  0.00000000000E+00 0. -1.
          1    1    1    2  501    0 -0.25362317264E+02  0.33353915053E+02  0.85160125413E+01  0.42758078254E+02  0.00000000000E+00 0. -1.
<scales pt_clust_5="13000.00000" pt_clust_6="13000.00000" pt_clust_7="13000.00000" pt_clust_8="13000.00000" pt_clust_9="23.70242" pt_clust_10="54.97120"></scales>
<clustering>
<clus scale="   23.702">  1  9  2 -1</clus>
<clus scale="   54.971">  1 10  2 -1</clus>
<clus scale="   79.999">  5  6 -1 -1</clus>
<clus scale="   92.015">  7  8 -1 -1</clus>
<clus scale="  104.872">  1  5  2 -1</clus>
<clus scale="   23.702">  1  5  2 -1</clus>
</clustering>
</event>
<event>
10    4  0.7697601E-005  0.1949822E+03  0.7546771E-02  0.1182389E+00
          2   -1    0    0  503    0 -0.00000000000E+00  0.00000000000E+00  0.14144179019E+04  0.14144179019E+04  0.00000000000E+00 0. -1.
         21   -1    0    0  501  502  0.00000000000E+00 -0.00000000000E+00 -0.53903090897E+02  0.53903090897E+02  0.00000000000E+00 0. -1.
         24    2    1    2    0    0  0.43040829597E+02 -0.35151135020E+02  0.39933767066E+03  0.41118860570E+03  0.80730285174E+02 0.  0.
         23    2    1    2    0    0 -0.14282457001E+03 -0.93284708261E+02  0.39681138189E+03  0.44126784789E+03  0.90316920840E+02 0.  0.
        -11    1    3    3    0    0  0.22115621651E+02 -0.86251025497E+01  0.22074791521E+02  0.32415884003E+02  0.00000000000E+00 0.  1.
         12    1    3    3    0    0  0.20925207947E+02 -0.26526032470E+02  0.37726287914E+03  0.37877272170E+03  0.00000000000E+00 0. -1.
        -11    1    4    4    0    0 -0.20336107192E+02 -0.62134923889E+02  0.11224468996E+03  0.12989679151E+03  0.00000000000E+00 0.  1.
         11    1    4    4    0    0 -0.12248846282E+03 -0.31149784371E+02  0.28456669194E+03  0.31137105638E+03  0.00000000000E+00 0. -1.
         21    1    1    2  503  502  0.25871591473E+02 -0.44960033133E+02  0.72725733481E+02  0.89329592717E+02  0.00000000000E+00 0. -1.
          1    1    1    2  501    0  0.73912148941E+02  0.17339587641E+03  0.49164002495E+03  0.52653494647E+03  0.00000000000E+00 0. -1.
<scales pt_clust_5="13000.00000" pt_clust_6="13000.00000" pt_clust_7="13000.00000" pt_clust_8="13000.00000" pt_clust_9="51.87238" pt_clust_10="172.80315"></scales>
<clustering>
<clus scale="   51.872">  2  9  1 -1</clus>
<clus scale="   80.730">  5  6 -1 -1</clus>
<clus scale="   90.317">  7  8 -1 -1</clus>
<clus scale="  101.740">  1  5  2 -1</clus>
<clus scale="  172.803">  2 10  1 -1</clus>
<clus scale="   51.872">  2  5  1 -1</clus>
</clustering>
</event>
<event>
10    4  0.7697601E-005  0.2179238E+03  0.7546771E-02  0.1136353E+00
          2   -1    0    0  503    0 -0.00000000000E+00  0.00000000000E+00  0.19297142671E+04  0.19297142671E+04  0.00000000000E+00 0. -1.
         21   -1    0    0  501  502  0.00000000000E+00 -0.00000000000E+00 -0.12596396488E+03  0.12596396488E+03  0.00000000000E+00 0.  1.
         24    2    1    2    0    0  0.85387045121E+02  0.18058218761E+03  0.17363410495E+04  0.17496041654E+04  0.79584052332E+02 0.  0.
         23    2    1    2    0    0 -0.66285658018E+02 -0.15420266643E+03 -0.52076671062E+01  0.19129477611E+03  0.91620525954E+02 0.  0.
        -11    1    3    3    0    0 -0.70883265117E+00  0.23038357503E+02  0.71798681744E+02  0.75407685685E+02  0.00000000000E+00 0.  1.
         12    1    3    3    0    0  0.86095877772E+02  0.15754383011E+03  0.16645423678E+04  0.16741964797E+04  0.00000000000E+00 0. -1.
        -13    1    4    4    0    0 -0.67423781442E+02 -0.12430092811E+03  0.30546300344E+02  0.14467122553E+03  0.00000000000E+00 0.  1.
         13    1    4    4    0    0  0.11381234247E+01 -0.29901738319E+02 -0.35753967450E+02  0.46623550572E+02  0.00000000000E+00 0. -1.
         21    1    1    2  503  502 -0.43533220177E+02 -0.79475252251E+01  0.10423846574E+02  0.45463842706E+02  0.00000000000E+00 0. -1.
          1    1    1    2  501    0  0.24431833074E+02 -0.18431995958E+02  0.62193073223E+02  0.69315447767E+02  0.00000000000E+00 0. -1.
<scales pt_clust_5="13000.00000" pt_clust_6="13000.00000" pt_clust_7="13000.00000" pt_clust_8="13000.00000" pt_clust_9="41.41202" pt_clust_10="30.60480"></scales>
<clustering>
<clus scale="   30.605">  2 10  1 -1</clus>
<clus scale="   41.412">  2  9  1 -1</clus>
<clus scale="   79.584">  5  6 -1 -1</clus>
<clus scale="   91.621">  7  8 -1 -1</clus>
<clus scale="  213.143">  1  5  2 -1</clus>
<clus scale="   30.605">  2  5  1 -1</clus>
</clustering>
</event>
<event>
10    4  0.7697601E-005  0.2410992E+03  0.7546771E-02  0.1149522E+00
         -3   -1    0    0    0  501 -0.00000000000E+00  0.00000000000E+00  0.11076508607E+04  0.11076508607E+04  0.00000000000E+00 0.  1.
         21   -1    0    0  501  502  0.00000000000E+00 -0.00000000000E+00 -0.10061701902E+03  0.10061701902E+03  0.00000000000E+00 0.  1.
         23    2    1    2    0    0  0.47506277664E+02  0.41476915762E+02  0.12261795443E+03  0.16637702270E+03  0.93107303552E+02 0.  0.
         24    2    1    2    0    0 -0.24110359769E+03  0.10481905783E+03  0.36158286497E+03  0.45426571225E+03  0.80605144880E+02 0.  0.
        -13    1    4    4    0    0 -0.21919936102E+03  0.83945814536E+02  0.35091977253E+03  0.42218473019E+03  0.00000000000E+00 0.  1.
         14    1    4    4    0    0 -0.21904236673E+02  0.20873243297E+02  0.10663092444E+02  0.32080982067E+02  0.00000000000E+00 0. -1.
        -11    1    3    3    0    0 -0.12841564799E+02 -0.21433262302E+02  0.22485076324E+02  0.33613526692E+02  0.00000000000E+00 0. -1.
         11    1    3    3    0    0  0.60347842463E+02  0.62910178064E+02  0.10013287811E+03  0.13276349601E+03  0.00000000000E+00 0.  1.
         21    1    1    2  503  502  0.36022531434E+02 -0.21322867726E+02  0.20670186622E+02  0.46685587433E+02  0.00000000000E+00 0.  1.
         -4    1    1    2    0  503  0.15757478859E+03 -0.12497310587E+03  0.50216283567E+03  0.54093955736E+03  0.00000000000E+00 0.  1.
<scales pt_clust_5="13000.00000" pt_clust_6="13000.00000" pt_clust_7="13000.00000" pt_clust_8="13000.00000" pt_clust_9="41.86033" pt_clust_10="227.22607"></scales>
<clustering>
<clus scale="   41.860">  2  9  1 -1</clus>
<clus scale="   80.605">  5  6 -1 -1</clus>
<clus scale="   93.107">  7  8 -1 -1</clus>
<clus scale="  114.754">  1  7  2 -1</clus>
<clus scale="  227.226">  2 10  1 -1</clus>
<clus scale="   41.860">  2  5  1 -1</clus>
</clustering>
</event>
<event>
10    4  0.7697601E-005  0.1396933E+03  0.7546771E-02  0.1230345E+00
         21   -1    0    0  501  502  0.00000000000E+00  0.00000000000E+00  0.77468697469E+02  0.77468697469E+02  0.00000000000E+00 0. -1.
          2   -1    0    0  503    0 -0.00000000000E+00 -0.00000000000E+00 -0.10167340281E+04  0.10167340281E+04  0.00000000000E+00 0. -1.
         23    2    1    2    0    0 -0.21976141396E+02  0.40913883406E+02 -0.12966774103E+03  0.16295449966E+03  0.87083576240E+02 0.  0.
         24    2    1    2    0    0  0.17536074645E+02  0.42443466482E+01 -0.45938308027E+03  0.47036064376E+03  0.99402174826E+02 0.  0.
        -11    1    4    4    0    0 -0.28593877135E+02  0.33014098437E+02 -0.26253003512E+03  0.26613823447E+03  0.00000000000E+00 0.  1.
         12    1    4    4    0    0  0.46129951780E+02 -0.28769751789E+02 -0.19685304515E+03  0.20422240929E+03  0.00000000000E+00 0. -1.
        -13    1    3    3    0    0  0.94629157721E+01  0.55144037465E+02 -0.10954605064E+03  0.12300710896E+03  0.00000000000E+00 0.  1.
         13    1    3    3    0    0 -0.31439057168E+02 -0.14230154059E+02 -0.20121690388E+02  0.39947390706E+02  0.00000000000E+00 0. -1.
         21    1    1    2  503  502  0.76612047022E+02 -0.14876649812E+03 -0.24411750432E+03  0.29596322850E+03  0.00000000000E+00 0. -1.
          1    1    1    2  501    0 -0.72171980271E+02  0.10360826807E+03 -0.10609700497E+03  0.16492435360E+03  0.00000000000E+00 0. -1.
<scales pt_clust_5="13000.00000" pt_clust_6="13000.00000" pt_clust_7="13000.00000" pt_clust_8="13000.00000" pt_clust_9="139.69332" pt_clust_10="13000.00000"></scales>
<clustering>
<clus scale="   87.084">  7  8 -1 -1</clus>
<clus scale="   98.694">  2  7  1 -1</clus>
<clus scale="   99.402">  5  6 -1 -1</clus>
<clus scale="  102.934">  2  5  1 -1</clus>
<clus scale="  139.693">  2  9  1 -1</clus>
<clus scale="  139.693">  1  5  2 -1</clus>
</clustering>
</event>
<event>
10    4  0.7697601E-005  0.1047136E+03  0.7546771E-02  0.1271930E+00
         21   -1    0    0  501  502  0.00000000000E+00  0.00000000000E+00  0.92204285269E+02  0.92204285269E+02  0.00000000000E+00 0. -1.
          2   -1    0    0  503    0 -0.00000000000E+00 -0.00000000000E+00 -0.80238169327E+03  0.80238169327E+03  0.00000000000E+00 0. -1.
         24    2    1    2    0    0 -0.16879822926E+02  0.15571940737E+02 -0.37169058768E+03  0.38452295576E+03  0.95794555032E+02 0.  0.
         23    2    1    2    0    0  0.82561123349E+02  0.41733045480E+01 -0.35111743168E+03  0.37253096665E+03  0.93070482593E+02 0.  0.
        -11    1    3    3    0    0 -0.11780615035E+02  0.54612488485E+02 -0.16751644631E+03  0.17658727749E+03  0.00000000000E+00 0.  1.
         12    1    3    3    0    0 -0.50992078913E+01 -0.39040547748E+02 -0.20417414137E+03  0.20793567826E+03  0.00000000000E+00 0. -1.
        -11    1    4    4    0    0  0.37929270572E+02 -0.43731759936E+02 -0.18983321506E+03  0.19846346246E+03  0.00000000000E+00 0. -1.
         11    1    4    4    0    0  0.44631852777E+02  0.47905064484E+02 -0.16128421662E+03  0.17406750419E+03  0.00000000000E+00 0.  1.
         21    1    1    2  503  502 -0.23627867370E+02  0.26463122992E+02  0.52538638326E+02  0.63394648923E+02  0.00000000000E+00 0. -1.
          1    1    1    2  501    0 -0.42053433052E+02 -0.46208368277E+02 -0.39908026968E+02  0.74137407203E+02  0.00000000000E+00 0. -1.
<scales pt_clust_5="13000.00000" pt_clust_6="13000.00000" pt_clust_7="13000.00000" pt_clust_8="13000.00000" pt_clust_9="35.47637" pt_clust_10="63.15906"></scales>
<clustering>
<clus scale="   35.476">  1  9  2 -1</clus>
<clus scale="   63.159">  1 10  2 -1</clus>
<clus scale="   93.070">  7  8 -1 -1</clus>
<clus scale="   95.795">  5  6 -1 -1</clus>
<clus scale="  102.227">  1  7  2 -1</clus>
<clus scale="   35.476">  1  5  2 -1</clus>
</clustering>
</event>
<event>
10    4  0.7697601E-005  0.1722628E+03  0.7546771E-02  0.1189598E+00
         -3   -1    0    0    0  501 -0.00000000000E+00  0.00000000000E+00  0.70720625460E+03  0.70720625460E+03  0.00000000000E+00 0.  1.
         21   -1    0    0  503  502  0.00000000000E+00 -0.00000000000E+00 -0.20643939706E+03  0.20643939706E+03  0.00000000000E+00 0.  1.
         24    2    1    2    0    0 -0.23798932972E+02  0.14119134095E+03  0.35482193667E+03  0.39115434826E+03  0.81251052024E+02 0.  0.
         23    2    1    2    0    0 -0.43194948572E+02  0.74448516656E+02  0.64301110494E+02  0.14236230835E+03  0.93402402618E+02 0.  0.
        -13    1    3    3    0    0 -0.53359771397E+02  0.10592082470E+03  0.25390496607E+03  0.28023957270E+03  0.00000000000E+00 0.  1.
         14    1    3    3    0    0  0.29560838426E+02  0.35270516245E+02  0.10091697060E+03  0.11091477557E+03  0.00000000000E+00 0. -1.
        -11    1    4    4    0    0  0.29614942404E+02  0.16243747227E+02  0.18248224265E+02  0.38391429074E+02  0.00000000000E+00 0. -1.
         11    1    4    4    0    0 -0.72809890975E+02  0.58204769429E+02  0.46052886229E+02  0.10397087928E+03  0.00000000000E+00 0.  1.
         21    1    1    2  503  501  0.37724513677E+02 -0.21955901454E+03 -0.63788452720E+02  0.23172886419E+03  0.00000000000E+00 0.  1.
         -4    1    1    2    0  502  0.29269367867E+02  0.39191569377E+01  0.14543226310E+03  0.14840013085E+03  0.00000000000E+00 0.  1.
<scales pt_clust_5="13000.00000" pt_clust_6="13000.00000" pt_clust_7="13000.00000" pt_clust_8="13000.00000" pt_clust_9="151.89718" pt_clust_10="29.53060"></scales>
<clustering>
<clus scale="   29.531">  2 10  1 -1</clus>
<clus scale="   81.251">  5  6 -1 -1</clus>
<clus scale="   93.402">  7  8 -1 -1</clus>
<clus scale="  125.673">  2  7  1 -1</clus>
<clus scale="  151.897">  2  9  1 -1</clus>
<clus scale="   29.531">  2  5  1 -1</clus>
</clustering>
</event>
<event>
10    4  0.7697601E-005  0.1392728E+03  0.7546771E-02  0.1215708E+00
         21   -1    0    0  501  502  0.00000000000E+00  0.00000000000E+00  0.58940118078E+03  0.58940118078E+03  0.00000000000E+00 0. -1.
          2   -1    0    0  503    0 -0.00000000000E+00 -0.00000000000E+00 -0.90852464143E+02  0.90852464143E+02  0.00000000000E+00 0. -1.
         24    2    1    2    0    0 -0.99627276694E+02 -0.93516821157E+02  0.79851811537E+02  0.17823545557E+03  0.81979117561E+02 0.  0.
         23    2    1    2    0    0  0.88401574243E+02 -0.16548614492E+01  0.13593950895E+03  0.18474807727E+03  0.88513982326E+02 0.  0.
        -13    1    3    3    0    0 -0.15577799626E+02 -0.68348267127E+02  0.23387222623E+02  0.73899361584E+02  0.00000000000E+00 0.  1.
         14    1    3    3    0    0 -0.84049477067E+02 -0.25168554030E+02  0.56464588914E+02  0.10433609399E+03  0.00000000000E+00 0. -1.
        -11    1    4    4    0    0  0.95957256857E+02 -0.22470652321E+02  0.12726966906E+03  0.16096674819E+03  0.00000000000E+00 0. -1.
         11    1    4    4    0    0 -0.75556826133E+01  0.20815790872E+02  0.86698398918E+01  0.23781329087E+02  0.00000000000E+00 0.  1.
         21    1    1    2  503  502 -0.22615565312E+02  0.29812020275E+00  0.14422861490E+03  0.14599125325E+03  0.00000000000E+00 0. -1.
          1    1    1    2  501    0  0.33841267762E+02  0.94873562404E+02  0.13852878125E+03  0.17127885883E+03  0.00000000000E+00 0. -1.
<scales pt_clust_5="13000.00000" pt_clust_6="13000.00000" pt_clust_7="13000.00000" pt_clust_8="13000.00000" pt_clust_9="22.61753" pt_clust_10="98.46042"></scales>
<clustering>
<clus scale="   22.618">  1  9  2 -1</clus>
<clus scale="   81.979">  5  6 -1 -1</clus>
<clus scale="   88.514">  7  8 -1 -1</clus>
<clus scale="   98.460">  1 10  2 -1</clus>
<clus scale="  135.214">  2  5  1 -1</clus>
<clus scale="   22.618">  1  5  2 -1</clus>
</clustering>
</event>
<event>
10    4  0.7697601E-005  0.1413107E+03  0.7546771E-02  0.1221108E+00
         21   -1    0    0  501  502  0.00000000000E+00  0.00000000000E+00  0.17014054932E+03  0.17014054932E+03  0.00000000000E+00 0. -1.
          2   -1    0    0  503    0 -0.00000000000E+00 -0.00000000000E+00 -0.59733171850E+03  0.59733171850E+03  0.00000000000E+00 0. -1.
         24    2    1    2    0    0 -0.67650212816E+02  0.73470355423E+02 -0.43314606541E+03  0.45013572570E+03  0.70938093778E+02 0.  0.
         23    2    1    2    0    0  0.10137620532E+03  0.22201577974E+02  0.21436652664E+02  0.13997345402E+03  0.91449399570E+02 0.  0.
        -11    1    3    3    0    0 -0.50140124372E+02  0.81154304178E+01 -0.13089784958E+03  0.14040704864E+03  0.00000000000E+00 0.  1.
         12    1    3    3    0    0 -0.17510088445E+02  0.65354925005E+02 -0.30224821583E+03  0.30972867706E+03  0.00000000000E+00 0. -1.
        -11    1    4    4    0    0  0.60578566138E+02  0.56819667099E+02  0.21041235566E+01  0.83082275971E+02  0.00000000000E+00 0. -1.
         11    1    4    4    0    0  0.40797639187E+02 -0.34618089125E+02  0.19332529107E+02  0.56891178047E+02  0.00000000000E+00 0.  1.
         21    1    1    2  503  502  0.36677023063E+02  0.11547186841E+02 -0.29314954266E+02  0.48351919180E+02  0.00000000000E+00 0. -1.
          1    1    1    2  501    0 -0.70403015572E+02 -0.10721912024E+03  0.13833197832E+02  0.12901116893E+03  0.00000000000E+00 0. -1.
<scales pt_clust_5="13000.00000" pt_clust_6="13000.00000" pt_clust_7="13000.00000" pt_clust_8="13000.00000" pt_clust_9="38.45181" pt_clust_10="107.72986"></scales>
<clustering>
<clus scale="   38.452">  2  9  1 -1</clus>
<clus scale="   70.938">  5  6 -1 -1</clus>
<clus scale="   91.449">  7  8 -1 -1</clus>
<clus scale="  115.537">  2  5  1 -1</clus>
<clus scale="  107.730">  1 10  2 -1</clus>
<clus scale="  107.730">  1  5  2 -1</clus>
</clustering>
</event>
<event>
10    4  0.7697601E-005  0.5219837E+03  0.7546771E-02  0.1070518E+00
          2   -1    0    0  503    0 -0.00000000000E+00  0.00000000000E+00  0.51377566641E+03  0.51377566641E+03  0.00000000000E+00 0. -1.
         21   -1    0    0  501  502  0.00000000000E+00 -0.00000000000E+00 -0.12394933208E+04  0.12394933208E+04  0.00000000000E+00 0. -1.
         24    2    1    2    0    0  0.40591252503E+01 -0.19068666901E+02 -0.59618647241E+02  0.10366815459E+03  0.82538552333E+02 0.  0.
         23    2    1    2    0    0 -0.36020190779E+03 -0.30423560635E+03  0.12614400407E+01  0.47829045573E+03  0.80345816761E+02 0.  0.
        -13    1    3    3    0    0  0.25291775525E+02 -0.44631427251E+02 -0.40248226507E+02  0.65203971847E+02  0.00000000000E+00 0.  1.
         14    1    3    3    0    0 -0.21232650275E+02  0.25562760350E+02 -0.19370420734E+02  0.38464182739E+02  0.00000000000E+00 0. -1.
        -13    1    4    4    0    0 -0.26179925204E+02 -0.84478548300E+01 -0.15944975312E+02  0.31796178585E+02  0.00000000000E+00 0.  1.
         13    1    4    4    0    0 -0.33402198258E+03 -0.29578775152E+03  0.17206415352E+02  0.44649427715E+03  0.00000000000E+00 0. -1.
         21    1    1    2  503  502 -0.84909336014E+02 -0.37176273924E+02 -0.58908395099E+03  0.59633176337E+03  0.00000000000E+00 0. -1.
          1    1    1    2  501    0  0.44105211855E+03  0.36048054717E+03 -0.78276496221E+02  0.57497861354E+03  0.00000000000E+00 0. -1.
<scales pt_clust_5="13000.00000" pt_clust_6="13000.00000" pt_clust_7="13000.00000" pt_clust_8="13000.00000" pt_clust_9="92.72033" pt_clust_10="515.76310"></scales>
<clustering>
<clus scale="   80.346">  7  8 -1 -1</clus>
<clus scale="   82.539">  5  6 -1 -1</clus>
<clus scale="   84.810">  1  5  2 -1</clus>
<clus scale="   92.720">  2  9  1 -1</clus>
<clus scale="  515.763">  2 10  1 -1</clus>
<clus scale="   92.720">  2  5  1 -1</clus>
</clustering>
</event>
<event>
10    4  0.7697601E-005  0.1437076E+03  0.7546771E-02  0.1230001E+00
          2   -1    0    0  503    0 -0.00000000000E+00  0.00000000000E+00  0.28812203931E+03  0.28812203931E+03  0.00000000000E+00 0. -1.
         21   -1    0    0  501  502  0.00000000000E+00 -0.00000000000E+00 -0.25279298320E+03  0.25279298320E+03  0.00000000000E+00 0. -1.
         24    2    1    2    0    0 -0.34942877704E+02  0.29344662316E+02 -0.94476970803E+01  0.91785222933E+02  0.79076888280E+02 0.  0.
         23    2    1    2    0    0 -0.75964417841E+02 -0.18330611302E-01  0.13335255727E+03  0.17715688499E+03  0.88493300625E+02 0.  0.
        -11    1    3    3    0    0 -0.21804994142E+02 -0.26235930550E+02 -0.17809455691E+01  0.34160702401E+02  0.00000000000E+00 0.  1.
         12    1    3    3    0    0 -0.13137883561E+02  0.55580592866E+02 -0.76667515111E+01  0.57624520532E+02  0.00000000000E+00 0. -1.
        -11    1    4    4    0    0  0.17979655213E+02  0.11627642829E+02  0.31688178290E+02  0.38244093958E+02  0.00000000000E+00 0.  1.
         11    1    4    4    0    0 -0.93944073054E+02 -0.11645973440E+02  0.10166437898E+03  0.13891279103E+03  0.00000000000E+00 0. -1.
         21    1    1    2  503  502  0.23803788453E+01  0.93141704470E+02 -0.38867978193E+02  0.10095426214E+03  0.00000000000E+00 0.  1.
          1    1    1    2  501    0  0.10852691670E+03 -0.12246803617E+03 -0.49707825884E+02  0.17101865245E+03  0.00000000000E+00 0. -1.
<scales pt_clust_5="13000.00000" pt_clust_6="13000.00000" pt_clust_7="13000.00000" pt_clust_8="13000.00000" pt_clust_9="96.85136" pt_clust_10="113.22895"></scales>
<clustering>
<clus scale="   79.077">  5  6 -1 -1</clus>
<clus scale="   88.493">  7  8 -1 -1</clus>
<clus scale="   91.298">  1  5  2 -1</clus>
<clus scale="   96.851">  2  9  1 -1</clus>
<clus scale="  113.229">  2 10  1 -1</clus>
<clus scale="   96.851">  2  5  1 -1</clus>
</clustering>
</event>
<event>
10    4  0.7697601E-005  0.1254834E+03  0.7546771E-02  0.1237362E+00
         -3   -1    0    0    0  501 -0.00000000000E+00  0.00000000000E+00  0.30840010140E+03  0.30840010140E+03  0.00000000000E+00 0.  1.
         21   -1    0    0  503  502  0.00000000000E+00 -0.00000000000E+00 -0.13922072355E+03  0.13922072355E+03  0.00000000000E+00 0. -1.
         23    2    1    2    0    0 -0.61615285004E+02  0.65282400300E+02  0.20142433580E+03  0.23875676485E+03  0.91513903723E+02 0.  0.
         24    2    1    2    0    0  0.61983944338E+02 -0.31505934797E+02 -0.64872463851E+02  0.12479345422E+03  0.80810496642E+02 0.  0.
        -11    1    4    4    0    0  0.12449612543E+02 -0.46361474099E+02 -0.93278613486E+01  0.48901821341E+02  0.00000000000E+00 0.  1.
         12    1    4    4    0    0  0.49534331795E+02  0.14855539302E+02 -0.55544602502E+02  0.75891632882E+02  0.00000000000E+00 0. -1.
        -13    1    3    3    0    0 -0.54050206848E+02  0.27608024034E+02  0.18879085698E+03  0.19830687212E+03  0.00000000000E+00 0. -1.
         13    1    3    3    0    0 -0.75650781567E+01  0.37674376266E+02  0.12633478816E+02  0.40449892726E+02  0.00000000000E+00 0.  1.
         21    1    1    2  503  501  0.17425013988E+02 -0.98658999001E+01 -0.16942584737E+02  0.26230102381E+02  0.00000000000E+00 0. -1.
         -4    1    1    2    0  502 -0.17793673322E+02 -0.23910565603E+02  0.49570090644E+02  0.57840503492E+02  0.00000000000E+00 0.  1.
<scales pt_clust_5="13000.00000" pt_clust_6="13000.00000" pt_clust_7="13000.00000" pt_clust_8="13000.00000" pt_clust_9="20.02416" pt_clust_10="29.72562"></scales>
<clustering>
<clus scale="   20.024">  2  9  1 -1</clus>
<clus scale="   29.726">  2 10  1 -1</clus>
<clus scale="   80.810">  5  6 -1 -1</clus>
<clus scale="   91.514">  7  8 -1 -1</clus>
<clus scale="  117.905">  2  5  1 -1</clus>
<clus scale="   20.024">  2  5  1 -1</clus>
</clustering>
</event>
<event>
10    4  0.7697601E-005  0.2208127E+03  0.7546771E-02  0.1168614E+00
         21   -1    0    0  503  502  0.00000000000E+00  0.00000000000E+00  0.41236707200E+03  0.41236707200E+03  0.00000000000E+00 0. -1.
          2   -1    0    0  502    0 -0.00000000000E+00 -0.00000000000E+00 -0.16500337601E+04  0.16500337601E+04  0.00000000000E+00 0. -1.
         24    2    1    2    0    0  0.48471820011E+02  0.82657303784E+01 -0.47378300972E+03  0.48335264286E+03  0.82107231240E+02 0.  0.
         23    2    1    2    0    0  0.97413535408E+02  0.86884512818E+02 -0.11633276044E+03  0.19742639933E+03  0.91681822372E+02 0.  0.
        -13    1    3    3    0    0 -0.18080177541E+02 -0.16590036481E+02 -0.13271249882E+03  0.13496195565E+03  0.00000000000E+00 0.  1.
         14    1    3    3    0    0  0.66551997552E+02  0.24855766859E+02 -0.34107051090E+03  0.34839068720E+03  0.00000000000E+00 0. -1.
        -11    1    4    4    0    0  0.29153243297E+02  0.47402965721E+02 -0.10352850430E+03  0.11753767037E+03  0.00000000000E+00 0.  1.
         11    1    4    4    0    0  0.68260292111E+02  0.39481547097E+02 -0.12804256147E+02  0.79888728966E+02  0.00000000000E+00 0. -1.
         21    1    1    2  503  501 -0.65783597166E+02  0.14603578683E+03  0.33254786312E+03  0.36910975868E+03  0.00000000000E+00 0. -1.
          1    1    1    2  501    0 -0.80101758253E+02 -0.24118603003E+03 -0.98009878101E+03  0.10125120312E+04  0.00000000000E+00 0. -1.
<scales pt_clust_5="13000.00000" pt_clust_6="13000.00000" pt_clust_7="13000.00000" pt_clust_8="13000.00000" pt_clust_9="159.97711" pt_clust_10="200.87995"></scales>
<clustering>
<clus scale="   82.107">  5  6 -1 -1</clus>
<clus scale="   91.682">  7  8 -1 -1</clus>
<clus scale="   95.705">  2  5  1 -1</clus>
<clus scale="  159.977">  1  9  2 -1</clus>
<clus scale="  200.880">  1 10  2 -1</clus>
<clus scale="  159.977">  1  5  2 -1</clus>
</clustering>
</event>
<event>
10    4  0.7697601E-005  0.9963097E+02  0.7546771E-02  0.1292836E+00
         21   -1    0    0  501  502  0.00000000000E+00  0.00000000000E+00  0.37411141124E+02  0.37411141124E+02  0.00000000000E+00 0.  1.
          2   -1    0    0  503    0 -0.00000000000E+00 -0.00000000000E+00 -0.80675697422E+03  0.80675697422E+03  0.00000000000E+00 0. -1.
         24    2    1    2    0    0  0.63456019553E+01  0.28521827005E+02 -0.34227703690E+03  0.35088997233E+03  0.71529304570E+02 0.  0.
         23    2    1    2    0    0  0.71512155344E+02 -0.43122667064E+02 -0.31854902474E+03  0.34221978589E+03  0.93098592422E+02 0.  0.
        -13    1    3    3    0    0 -0.18873606916E+02  0.40421344883E+02 -0.14663916216E+03  0.15327472733E+03  0.00000000000E+00 0.  1.
         14    1    3    3    0    0  0.25219208872E+02 -0.11899517879E+02 -0.19563787475E+03  0.19761524500E+03  0.00000000000E+00 0. -1.
        -11    1    4    4    0    0 -0.60602440467E+01 -0.43191575772E+02 -0.76684258174E+02  0.88219692967E+02  0.00000000000E+00 0.  1.
         11    1    4    4    0    0  0.77572399391E+02  0.68908707129E-01 -0.24186476657E+03  0.25400009292E+03  0.00000000000E+00 0. -1.
         21    1    1    2  503  502 -0.44074291772E+02  0.17469741944E+02 -0.12213553263E+02  0.48958206279E+02  0.00000000000E+00 0.  1.
          1    1    1    2  501    0 -0.33783465528E+02 -0.28689018845E+01 -0.96306218188E+02  0.10210015085E+03  0.00000000000E+00 0. -1.
<scales pt_clust_5="13000.00000" pt_clust_6="13000.00000" pt_clust_7="13000.00000" pt_clust_8="13000.00000" pt_clust_9="64.07276" pt_clust_10="33.90508"></scales>
<clustering>
<clus scale="   33.905">  1 10  2 -1</clus>
<clus scale="   64.073">  1  9  2 -1</clus>
<clus scale="   71.529">  5  6 -1 -1</clus>
<clus scale="   79.846">  2  5  1 -1</clus>
<clus scale="   93.099">  7  8 -1 -1</clus>
<clus scale="   33.905">  1  5  2 -1</clus>
</clustering>
</event>
<event>
10    4  0.7697601E-005  0.1039425E+03  0.7546771E-02  0.1277430E+00
         21   -1    0    0  503  502  0.00000000000E+00  0.00000000000E+00  0.76527544383E+02  0.76527544383E+02  0.00000000000E+00 0. -1.
          2   -1    0    0  502    0 -0.00000000000E+00 -0.00000000000E+00 -0.47929955512E+03  0.47929955512E+03  0.00000000000E+00 0. -1.
         24    2    1    2    0    0 -0.15470471858E+02 -0.26332053669E+02 -0.18036625593E+03  0.20002099080E+03  0.80893126610E+02 0.  0.
         23    2    1    2    0    0  0.98794122921E+02  0.14945975517E+02 -0.20237170398E+03  0.24380436107E+03  0.92209538531E+02 0.  0.
        -13    1    3    3    0    0 -0.34452869908E+02  0.11903939732E+02 -0.44045845022E+02  0.57172899959E+02  0.00000000000E+00 0.  1.
         14    1    3    3    0    0  0.18982398050E+02 -0.38235993401E+02 -0.13632041090E+03  0.14284809084E+03  0.00000000000E+00 0. -1.
        -13    1    4    4    0    0  0.87334848251E+02 -0.79440757668E+01 -0.79736169534E+02  0.11852569675E+03  0.00000000000E+00 0. -1.
         13    1    4    4    0    0  0.11459274670E+02  0.22890051283E+02 -0.12263553445E+03  0.12527866432E+03  0.00000000000E+00 0.  1.
         21    1    1    2  503  501 -0.71562502265E+01  0.19601969545E+02  0.16995367522E+02  0.26912666991E+02  0.00000000000E+00 0. -1.
          1    1    1    2  501    0 -0.76167400837E+02 -0.82158913927E+01 -0.37029418352E+02  0.85089080645E+02  0.00000000000E+00 0. -1.
<scales pt_clust_5="13000.00000" pt_clust_6="13000.00000" pt_clust_7="13000.00000" pt_clust_8="13000.00000" pt_clust_9="20.86742" pt_clust_10="79.31953"></scales>
<clustering>
<clus scale="   20.867">  1  9  2 -1</clus>
<clus scale="   79.320">  1 10  2 -1</clus>
<clus scale="   80.893">  5  6 -1 -1</clus>
<clus scale="   92.210">  7  8 -1 -1</clus>
<clus scale="   94.049">  2  5  1 -1</clus>
<clus scale="   20.867">  1  5  2 -1</clus>
</clustering>
</event>
<event>
10    4  0.7697601E-005  0.1243237E+03  0.7546771E-02  0.1249272E+00
         21   -1    0    0  501  502  0.00000000000E+00  0.00000000000E+00  0.15174338354E+03  0.15174338354E+03  0.00000000000E+00 0.  1.
         -1   -1    0    0    0  501 -0.00000000000E+00 -0.00000000000E+00 -0.30510554255E+03  0.30510554255E+03  0.00000000000E+00 0.  1.
         24    2    1    2    0    0  0.50841202541E+01 -0.26305078239E+02  0.56042154143E+02  0.10053947767E+03  0.79054779164E+02 0.  0.
         23    2    1    2    0    0 -0.43671151970E+02 -0.59531084154E+02 -0.11603015850E+03  0.16473161903E+03  0.90677390415E+02 0.  0.
        -13    1    3    3    0    0 -0.10289973573E+02 -0.23166484166E+02  0.73095151158E+02  0.77365823640E+02  0.00000000000E+00 0.  1.
         14    1    3    3    0    0  0.15374093827E+02 -0.31385940734E+01 -0.17052997015E+02  0.23173654027E+02  0.00000000000E+00 0. -1.
        -11    1    4    4    0    0  0.20014590900E+02 -0.35342230012E+02 -0.15885178857E+02  0.43611878869E+02  0.00000000000E+00 0. -1.
         11    1    4    4    0    0 -0.63685742871E+02 -0.24188854142E+02 -0.10014497964E+03  0.12111974016E+03  0.00000000000E+00 0.  1.
         21    1    1    2  503  502  0.54126498920E+02 -0.17491280053E+02 -0.96763693040E+01  0.57699695720E+02  0.00000000000E+00 0. -1.
         -2    1    1    2    0  503 -0.15539467204E+02  0.10332744245E+03 -0.83697785344E+02  0.13387813367E+03  0.00000000000E+00 0.  1.
<scales pt_clust_5="13000.00000" pt_clust_6="13000.00000" pt_clust_7="13000.00000" pt_clust_8="13000.00000" pt_clust_9="56.88253" pt_clust_10="85.05289"></scales>
<clustering>
<clus scale="   56.883">  1  9  2 -1</clus>
<clus scale="   79.055">  5  6 -1 -1</clus>
<clus scale="   90.677">  7  8 -1 -1</clus>
<clus scale="   95.312">  2  5  1 -1</clus>
<clus scale="   85.053">  1 10  2 -1</clus>
<clus scale="   56.883">  1  5  2 -1</clus>
</clustering>
</event>
<event>
10    4  0.7697601E-005  0.1295656E+03  0.7546771E-02  0.1230950E+00
         21   -1    0    0  501  502  0.00000000000E+00  0.00000000000E+00  0.22471448912E+03  0.22471448912E+03  0.00000000000E+00 0. -1.
          2   -1    0    0  503    0 -0.00000000000E+00 -0.00000000000E+00 -0.18128203564E+03  0.18128203564E+03  0.00000000000E+00 0. -1.
         24    2    1    2    0    0 -0.46962210732E+02 -0.69258961695E+02  0.36129374647E+02  0.12245693630E+03  0.81780905615E+02 0.  0.
         23    2    1    2    0    0  0.10085481335E+03  0.28587200829E+02 -0.69946046464E+01  0.13996563304E+03  0.92479903282E+02 0.  0.
        -11    1    3    3    0    0 -0.29750451718E+02  0.10650515902E+02  0.24301947714E+02  0.39863611591E+02  0.00000000000E+00 0.  1.
         12    1    3    3    0    0 -0.17211759014E+02 -0.79909477597E+02  0.11827426932E+02  0.82593324706E+02  0.00000000000E+00 0. -1.
        -13    1    4    4    0    0 -0.95255897189E-01 -0.21688531251E+02  0.13207746048E+02  0.25393818484E+02  0.00000000000E+00 0.  1.
         13    1    4    4    0    0  0.10095006924E+03  0.50275732081E+02 -0.20202350694E+02  0.11457181455E+03  0.00000000000E+00 0. -1.
         21    1    1    2  503  502  0.18701761376E+02  0.63891962863E+02  0.44264642162E+01  0.66719805024E+02  0.00000000000E+00 0.  1.
          1    1    1    2  501    0 -0.72594363991E+02 -0.23220201997E+02  0.98712192717E+01  0.76854150401E+02  0.00000000000E+00 0. -1.
<scales pt_clust_5="13000.00000" pt_clust_6="13000.00000" pt_clust_7="13000.00000" pt_clust_8="13000.00000" pt_clust_9="66.57281" pt_clust_10="69.00764"></scales>
<clustering>
<clus scale="   66.573">  2  9  1 -1</clus>
<clus scale="   69.008">  1 10  2 -1</clus>
<clus scale="   81.781">  5  6 -1 -1</clus>
<clus scale="   92.480">  7  8 -1 -1</clus>
<clus scale="  122.159">  2  5  1 -1</clus>
<clus scale="   69.008">  1  5  2 -1</clus>
</clustering>
</event>
<event>
10    4  0.7697601E-005  0.1546180E+03  0.7546771E-02  0.1196933E+00
         21   -1    0    0  501  502  0.00000000000E+00  0.00000000000E+00  0.34946624540E+03  0.34946624540E+03  0.00000000000E+00 0.  1.
         -1   -1    0    0    0  501 -0.00000000000E+00 -0.00000000000E+00 -0.33280647438E+03  0.33280647438E+03  0.00000000000E+00 0.  1.
         24    2    1    2    0    0  0.14053924712E+03  0.34751030390E+02 -0.38358149784E+02  0.16983305448E+03  0.80081237788E+02 0.  0.
         23    2    1    2    0    0 -0.38033232260E+02 -0.48722656250E+02  0.22738130035E+03  0.25290233342E+03  0.91852656525E+02 0.  0.
        -11    1    3    3    0    0  0.45115789366E+02  0.49289359112E+02 -0.25107758577E+01  0.66866877953E+02  0.00000000000E+00 0.  1.
         12    1    3    3    0    0  0.95423457751E+02 -0.14538328721E+02 -0.35847373926E+02  0.10296617653E+03  0.00000000000E+00 0. -1.
        -13    1    4    4    0    0 -0.41714675589E+02  0.16881917391E+02  0.93457442705E+02  0.10372756090E+03  0.00000000000E+00 0. -1.
         13    1    4    4    0    0  0.36814433289E+01 -0.65604573641E+02  0.13392385765E+03  0.14917477252E+03  0.00000000000E+00 0.  1.
         21    1    1    2  503  502 -0.22244579923E+02  0.21423996731E+02  0.29169989979E+02  0.42481728863E+02  0.00000000000E+00 0.  1.
         -2    1    1    2    0  503 -0.80261434934E+02 -0.74523708707E+01 -0.20153336953E+03  0.21705560302E+03  0.00000000000E+00 0.  1.
<scales pt_clust_5="13000.00000" pt_clust_6="13000.00000" pt_clust_7="13000.00000" pt_clust_8="13000.00000" pt_clust_9="30.88380" pt_clust_10="81.10786"></scales>
<clustering>
<clus scale="   30.884">  1  9  2 -1</clus>
<clus scale="   80.081">  5  6 -1 -1</clus>
<clus scale="   81.108">  1 10  2 -1</clus>
<clus scale="   91.853">  7  8 -1 -1</clus>
<clus scale="  147.928">  2  5  1 -1</clus>
<clus scale="   30.884">  1  5  2 -1</clus>
</clustering>
</event>
<event>
10    4  0.7697601E-005  0.2996358E+03  0.7546771E-02  0.1101933E+00
          2   -1    0    0  502    0 -0.00000000000E+00  0.00000000000E+00  0.26297279651E+04  0.26297279651E+04  0.00000000000E+00 0. -1.
         21   -1    0    0  503  502  0.00000000000E+00 -0.00000000000E+00 -0.14374554645E+03  0.14374554645E+03  0.00000000000E+00 0. -1.
         23    2    1    2    0    0  0.12153390452E+03 -0.14632116704E+03  0.49661365020E+02  0.21680807830E+03  0.91428211015E+02 0.  0.
         24    2    1    2    0    0  0.18743059476E+03 -0.65720045902E+02  0.14954635127E+04  0.15106154070E+04  0.78092495996E+02 0.  0.
        -13    1    4    4    0    0  0.74840789556E+02  0.11061716916E+02  0.45147726322E+03  0.45777202249E+03  0.00000000000E+00 0.  1.
         14    1    4    4    0    0  0.11258980520E+03 -0.76781762817E+02  0.10439862494E+04  0.10528433845E+04  0.00000000000E+00 0. -1.
        -13    1    3    3    0    0  0.59566398118E+01 -0.65191819929E+02 -0.43830414359E+01  0.65609953481E+02  0.00000000000E+00 0.  1.
         13    1    3    3    0    0  0.11557726471E+03 -0.81129347110E+02  0.54044406456E+02  0.15119812482E+03  0.00000000000E+00 0. -1.
         21    1    1    2  503  501 -0.15345300053E+02  0.23050590730E+02 -0.12776878712E+02  0.30496829283E+02  0.00000000000E+00 0. -1.
          1    1    1    2  501    0 -0.29361919923E+03  0.18899062221E+03  0.95363441970E+03  0.10155531970E+04  0.00000000000E+00 0. -1.
<scales pt_clust_5="13000.00000" pt_clust_6="13000.00000" pt_clust_7="13000.00000" pt_clust_8="13000.00000" pt_clust_9="27.69130" pt_clust_10="289.28045"></scales>
<clustering>
<clus scale="   27.691">  2  9  1 -1</clus>
<clus scale="   78.092">  5  6 -1 -1</clus>
<clus scale="   91.428">  7  8 -1 -1</clus>
<clus scale="  194.240">  1  7  2 -1</clus>
<clus scale="  289.280">  2 10  1 -1</clus>
<clus scale="   27.691">  2  5  1 -1</clus>
</clustering>
</event>
<event>
10    4  0.7697601E-005  0.2130642E+03  0.7546771E-02  0.1170360E+00
          2   -1    0    0  503    0 -0.00000000000E+00  0.00000000000E+00  0.11090346121E+04  0.11090346121E+04  0.00000000000E+00 0. -1.
         21   -1    0    0  501  502  0.00000000000E+00 -0.00000000000E+00 -0.24415134382E+03  0.24415134382E+03  0.00000000000E+00 0.  1.
         24    2    1    2    0    0 -0.24676010009E+02 -0.59317311921E+02  0.37828165394E+03  0.39201146499E+03  0.80302739755E+02 0.  0.
         23    2    1    2    0    0 -0.14348278797E+03 -0.50796876573E+02  0.54545571244E+03  0.57380145022E+03  0.92512360969E+02 0.  0.
        -13    1    3    3    0    0 -0.29884315453E+02 -0.27984062530E+02  0.63003574170E+02  0.75137410283E+02  0.00000000000E+00 0.  1.
         14    1    3    3    0    0  0.52083054444E+01 -0.31333249391E+02  0.31527807977E+03  0.31687405470E+03  0.00000000000E+00 0. -1.
        -13    1    4    4    0    0 -0.10422225160E+03  0.10510685654E+01  0.24260611753E+03  0.26404755394E+03  0.00000000000E+00 0.  1.
         13    1    4    4    0    0 -0.39260536367E+02 -0.51847945139E+02  0.30284959490E+03  0.30975389629E+03  0.00000000000E+00 0. -1.
         21    1    1    2  503  502  0.21655789904E+03  0.60452540471E+02 -0.15189162656E+03  0.27133540039E+03  0.00000000000E+00 0.  1.
          1    1    1    2  501    0 -0.48399101060E+02  0.49661648024E+02  0.93037528458E+02  0.11603764031E+03  0.00000000000E+00 0. -1.
<scales pt_clust_5="13000.00000" pt_clust_6="13000.00000" pt_clust_7="13000.00000" pt_clust_8="13000.00000" pt_clust_9="191.93184" pt_clust_10="69.34520"></scales>
<clustering>
<clus scale="   69.345">  2 10  1 -1</clus>
<clus scale="   80.303">  5  6 -1 -1</clus>
<clus scale="   92.512">  7  8 -1 -1</clus>
<clus scale="  102.356">  1  5  2 -1</clus>
<clus scale="  191.932">  2  9  1 -1</clus>
<clus scale="   69.345">  2  5  1 -1</clus>
</clustering>
</event>
<event>
10    4  0.7697601E-005  0.3290164E+03  0.7546771E-02  0.1071573E+00
         21   -1    0    0  503  502  0.00000000000E+00  0.00000000000E+00  0.30609367458E+03  0.30609367458E+03  0.00000000000E+00 0. -1.
          2   -1    0    0  502    0 -0.00000000000E+00 -0.00000000000E+00 -0.70531613760E+03  0.70531613760E+03  0.00000000000E+00 0. -1.
         24    2    1    2    0    0 -0.73421104402E+02  0.61892955198E+02 -0.13308153307E+03  0.18301221751E+03  0.81002350818E+02 0.  0.
         23    2    1    2    0    0 -0.19017530522E+03  0.64403065670E-01 -0.29590085502E+03  0.36318366350E+03  0.90434543012E+02 0.  0.
        -13    1    3    3    0    0 -0.20771735716E+02  0.17449542697E+02 -0.10527295273E+03  0.10871221698E+03  0.00000000000E+00 0.  1.
         14    1    3    3    0    0 -0.52649368686E+02  0.44443412501E+02 -0.27808580344E+02  0.74300000528E+02  0.00000000000E+00 0. -1.
        -11    1    4    4    0    0 -0.23438783417E+02 -0.17252207400E+02 -0.82481977288E+01  0.30249760230E+02  0.00000000000E+00 0.  1.
         11    1    4    4    0    0 -0.16673652180E+03  0.17316610465E+02 -0.28765265729E+03  0.33293390327E+03  0.00000000000E+00 0. -1.
         21    1    1    2  503  501  0.22830425944E+02 -0.12271966949E+02  0.17684454595E+03  0.17873394460E+03  0.00000000000E+00 0. -1.
          1    1    1    2  501    0  0.24076598368E+03 -0.49685391315E+02 -0.14708462088E+03  0.28647998657E+03  0.00000000000E+00 0. -1.
<scales pt_clust_5="13000.00000" pt_clust_6="13000.00000" pt_clust_7="13000.00000" pt_clust_8="13000.00000" pt_clust_9="25.91967" pt_clust_10="259.36372"></scales>
<clustering>
<clus scale="   25.920">  1  9  2 -1</clus>
<clus scale="   81.002">  5  6 -1 -1</clus>
<clus scale="   90.435">  7  8 -1 -1</clus>
<clus scale="  113.434">  5  7 -1 -1</clus>
<clus scale="  259.364">  1 10  2 -1</clus>
<clus scale="   25.920">  1  5  2 -1</clus>
</clustering>
</event>
<event>
10    4  0.7697601E-005  0.1592430E+03  0.7546771E-02  0.1208794E+00
          2   -1    0    0  503    0 -0.00000000000E+00  0.00000000000E+00  0.13234108470E+04  0.13234108470E+04  0.00000000000E+00 0. -1.
         21   -1    0    0  501  502  0.00000000000E+00 -0.00000000000E+00 -0.26222190310E+03  0.26222190310E+03  0.00000000000E+00 0. -1.
         24    2    1    2    0    0  0.64908466624E+02  0.13078264642E+02  0.75804022881E+03  0.76521973297E+03  0.80945050456E+02 0.  0.
         23    2    1    2    0    0  0.12704181765E+02 -0.11848044275E+03  0.52681798676E+03  0.54798528006E+03  0.92475209849E+02 0.  0.
        -11    1    3    3    0    0 -0.69395174521E+00  0.22913562724E+02  0.63361260050E+02  0.67380725737E+02  0.00000000000E+00 0.  1.
         12    1    3    3    0    0  0.65602418369E+02 -0.98352980820E+01  0.69467896876E+03  0.69783900723E+03  0.00000000000E+00 0. -1.
        -11    1    4    4    0    0 -0.39683367863E+02 -0.44655377221E+02  0.18657118442E+03  0.19590221860E+03  0.00000000000E+00 0.  1.
         11    1    4    4    0    0  0.52387549629E+02 -0.73825065524E+02  0.34024680234E+03  0.35208306145E+03  0.00000000000E+00 0. -1.
         21    1    1    2  503  502  0.17765623906E+02  0.13925923833E+02 -0.43233775681E+02  0.48772001262E+02  0.00000000000E+00 0. -1.
          1    1    1    2  501    0 -0.95378272296E+02  0.91476254270E+02 -0.18043549602E+03  0.22365573578E+03  0.00000000000E+00 0. -1.
<scales pt_clust_5="13000.00000" pt_clust_6="13000.00000" pt_clust_7="13000.00000" pt_clust_8="13000.00000" pt_clust_9="22.57319" pt_clust_10="129.64049"></scales>
<clustering>
<clus scale="   22.573">  2  9  1 -1</clus>
<clus scale="   80.945">  5  6 -1 -1</clus>
<clus scale="   92.475">  7  8 -1 -1</clus>
<clus scale="  104.789">  1  5  2 -1</clus>
<clus scale="  129.640">  2 10  1 -1</clus>
<clus scale="   22.573">  2  5  1 -1</clus>
</clustering>
</event>
<event>
10    4  0.7697601E-005  0.1970477E+03  0.7546771E-02  0.1179190E+00
          2   -1    0    0  503    0 -0.00000000000E+00  0.00000000000E+00  0.55048910440E+03  0.55048910440E+03  0.00000000000E+00 0. -1.
         21   -1    0    0  501  502  0.00000000000E+00 -0.00000000000E+00 -0.81507504123E+03  0.81507504123E+03  0.00000000000E+00 0.  1.
         24    2    1    2    0    0  0.68877540026E+02  0.13394309936E+02  0.71917545350E+02  0.12802142080E+03  0.79333648574E+02 0.  0.
         23    2    1    2    0    0 -0.21826282622E+03 -0.17996865168E+03 -0.30727632048E+03  0.42752070442E+03  0.91256992523E+02 0.  0.
        -13    1    3    3    0    0  0.48977372880E+02  0.44684634509E+02  0.32270475790E+02  0.73735223761E+02  0.00000000000E+00 0.  1.
         14    1    3    3    0    0  0.19900167146E+02 -0.31290324573E+02  0.39647069559E+02  0.54286197039E+02  0.00000000000E+00 0. -1.
        -11    1    4    4    0    0  0.56716885874E+01 -0.21244065433E+02 -0.15325454715E+02  0.26802013539E+02  0.00000000000E+00 0. -1.
         11    1    4    4    0    0 -0.22393451480E+03 -0.15872458625E+03 -0.29195086577E+03  0.40071869088E+03  0.00000000000E+00 0.  1.
         21    1    1    2  503  502  0.12584108545E+03  0.36218068341E+02 -0.39757198112E+03  0.41858237831E+03  0.00000000000E+00 0. -1.
          1    1    1    2  501    0  0.23544200734E+02  0.13035627340E+03  0.36834481942E+03  0.39143964209E+03  0.00000000000E+00 0. -1.
<scales pt_clust_5="13000.00000" pt_clust_6="13000.00000" pt_clust_7="13000.00000" pt_clust_8="13000.00000" pt_clust_9="132.57922" pt_clust_10="174.64244"></scales>
<clustering>
<clus scale="   79.334">  5  6 -1 -1</clus>
<clus scale="   91.257">  7  8 -1 -1</clus>
<clus scale="  105.912">  1  5  2 -1</clus>
<clus scale="  132.579">  2  9  1 -1</clus>
<clus scale="  174.642">  2 10  1 -1</clus>
<clus scale="  132.579">  2  5  1 -1</clus>
</clustering>
</event>
<event>
10    4  0.7697601E-005  0.2601967E+03  0.7546771E-02  0.1107534E+00
         21   -1    0    0  501  502  0.00000000000E+00  0.00000000000E+00  0.12769488185E+03  0.12769488185E+03  0.00000000000E+00 0. -1.
          2   -1    0    0  503    0 -0.00000000000E+00 -0.00000000000E+00 -0.11302852184E+04  0.11302852184E+04  0.00000000000E+00 0. -1.
         23    2    1    2    0    0 -0.25146852754E+03 -0.30463058701E+02 -0.56965825154E+03  0.62994852574E+03  0.90333843294E+02 0.  0.
         24    2    1    2    0    0  0.22253354686E+03 -0.58608724429E+02 -0.89007931390E+02  0.25941731808E+03  0.80117232942E+02 0.  0.
        -11    1    4    4    0    0  0.10201339853E+03 -0.48791903534E+02 -0.69715997419E+01  0.11329601288E+03  0.00000000000E+00 0.  1.
         12    1    4    4    0    0  0.12052014832E+03 -0.98168208954E+01 -0.82036331648E+02  0.14612130520E+03  0.00000000000E+00 0. -1.
        -13    1    3    3    0    0 -0.19454256094E+03 -0.42196693849E+02 -0.34918085940E+03  0.40193860421E+03  0.00000000000E+00 0. -1.
         13    1    3    3    0    0 -0.56925966600E+02  0.11733635148E+02 -0.22047739215E+03  0.22800992153E+03  0.00000000000E+00 0.  1.
         21    1    1    2  503  502  0.11025585794E+02  0.27937946589E+02 -0.14988870690E+02  0.33567225776E+02  0.00000000000E+00 0.  1.
          1    1    1    2  501    0  0.17909394890E+02  0.61133836540E+02 -0.32893528293E+03  0.33504703065E+03  0.00000000000E+00 0. -1.
<scales pt_clust_5="13000.00000" pt_clust_6="13000.00000" pt_clust_7="13000.00000" pt_clust_8="13000.00000" pt_clust_9="30.03485" pt_clust_10="64.47518"></scales>
<clustering>
<clus scale="   30.035">  1  9  2 -1</clus>
<clus scale="   64.475">  1 10  2 -1</clus>
<clus scale="   80.117">  5  6 -1 -1</clus>
<clus scale="   90.334">  7  8 -1 -1</clus>
<clus scale="  256.829">  1  5  2 -1</clus>
<clus scale="   30.035">  1  5  2 -1</clus>
</clustering>
</event>
<event>
10    4  0.7697601E-005  0.3869511E+03  0.7546771E-02  0.1057601E+00
          2   -1    0    0  503    0 -0.00000000000E+00  0.00000000000E+00  0.14267318093E+04  0.14267318093E+04  0.00000000000E+00 0. -1.
         21   -1    0    0  501  502  0.00000000000E+00 -0.00000000000E+00 -0.26735662605E+03  0.26735662605E+03  0.00000000000E+00 0. -1.
         24    2    1    2    0    0  0.27044349396E+03 -0.96918410922E+02  0.22082148984E+03  0.37102071675E+03  0.79758260288E+02 0.  0.
         23    2    1    2    0    0  0.28077119514E+02 -0.30930675717E+03  0.30019623225E+03  0.44217874124E+03  0.94579419959E+02 0.  0.
        -13    1    3    3    0    0  0.18471385946E+03 -0.10392639965E+03  0.15097057253E+03  0.26021533428E+03  0.00000000000E+00 0.  1.
         14    1    3    3    0    0  0.85729634493E+02  0.70079887297E+01  0.69850917307E+02  0.11080538247E+03  0.00000000000E+00 0. -1.
        -11    1    4    4    0    0 -0.18964700123E+02 -0.32068605625E+02  0.11090361791E+02  0.38872245138E+02  0.00000000000E+00 0.  1.
         11    1    4    4    0    0  0.47041819636E+02 -0.27723815155E+03  0.28910587046E+03  0.40330649610E+03  0.00000000000E+00 0. -1.
         21    1    1    2  503  502 -0.12411805778E+02 -0.31381937298E+02 -0.20731380524E+02  0.39606426874E+02  0.00000000000E+00 0. -1.
          1    1    1    2  501    0 -0.28610880769E+03  0.43760710539E+03  0.65908884172E+03  0.84128255052E+03  0.00000000000E+00 0. -1.
<scales pt_clust_5="13000.00000" pt_clust_6="13000.00000" pt_clust_7="13000.00000" pt_clust_8="13000.00000" pt_clust_9="33.74728" pt_clust_10="375.21459"></scales>
<clustering>
<clus scale="   33.747">  2  9  1 -1</clus>
<clus scale="   79.758">  5  6 -1 -1</clus>
<clus scale="   94.579">  7  8 -1 -1</clus>
<clus scale="  298.008">  1  5  2 -1</clus>
<clus scale="  375.215">  2 10  1 -1</clus>
<clus scale="   33.747">  2  5  1 -1</clus>
</clustering>
</event>
<event>
10    4  0.7697601E-005  0.1061482E+03  0.7546771E-02  0.1272636E+00
         21   -1    0    0  501  502  0.00000000000E+00  0.00000000000E+00  0.37538030084E+03  0.37538030084E+03  0.00000000000E+00 0. -1.
          2   -1    0    0  503    0 -0.00000000000E+00 -0.00000000000E+00 -0.26177487607E+03  0.26177487607E+03  0.00000000000E+00 0. -1.
         24    2    1    2    0    0  0.58039333250E+01  0.44302816031E+02 -0.11234246780E+03  0.14503525372E+03  0.80112231268E+02 0.  0.
         23    2    1    2    0    0 -0.97208614631E+02 -0.11606996823E+03  0.77273257831E+02  0.19288741762E+03  0.91173719987E+02 0.  0.
        -11    1    3    3    0    0  0.19930234610E+02  0.58709787526E+02 -0.50437122990E+02  0.79924694422E+02  0.00000000000E+00 0.  1.
         12    1    3    3    0    0 -0.14126301285E+02 -0.14406971494E+02 -0.61905344808E+02  0.65110559293E+02  0.00000000000E+00 0. -1.
        -13    1    4    4    0    0 -0.51960461876E+02  0.38116805800E-01  0.19042158697E+02  0.55339812605E+02  0.00000000000E+00 0.  1.
         13    1    4    4    0    0 -0.45248152754E+02 -0.11610808504E+03  0.58231099134E+02  0.13754760501E+03  0.00000000000E+00 0. -1.
         21    1    1    2  503  502  0.82473082799E+02 -0.14136388164E+02  0.18690658834E+03  0.20478212721E+03  0.00000000000E+00 0.  1.
          1    1    1    2  501    0  0.89315985067E+01  0.85903540365E+02 -0.38231953603E+02  0.94450378376E+02  0.00000000000E+00 0. -1.
<scales pt_clust_5="13000.00000" pt_clust_6="13000.00000" pt_clust_7="13000.00000" pt_clust_8="13000.00000" pt_clust_9="83.67584" pt_clust_10="86.49411"></scales>
<clustering>
<clus scale="   80.112">  5  6 -1 -1</clus>
<clus scale="   83.676">  1  9  2 -1</clus>
<clus scale="   86.494">  1 10  2 -1</clus>
<clus scale="   91.174">  7  8 -1 -1</clus>
<clus scale="   96.813">  2  5  1 -1</clus>
<clus scale="   83.676">  1  5  2 -1</clus>
</clustering>
</event>
<event>
10    4  0.7697601E-005  0.1460272E+03  0.7546771E-02  0.1222443E+00
          2   -1    0    0  503    0 -0.00000000000E+00  0.00000000000E+00  0.38354436653E+03  0.38354436653E+03  0.00000000000E+00 0. -1.
         21   -1    0    0  501  502  0.00000000000E+00 -0.00000000000E+00 -0.51202677488E+03  0.51202677488E+03  0.00000000000E+00 0. -1.
         23    2    1    2    0    0  0.40248182814E+02 -0.69236495164E+02  0.62459368435E+02  0.13667903509E+03  0.91467903912E+02 0.  0.
         24    2    1    2    0    0 -0.36255449577E+02 -0.13308297449E+03  0.14884696338E+03  0.21810621815E+03  0.79933523422E+02 0.  0.
        -13    1    4    4    0    0 -0.57450456665E+02 -0.60650672947E+02  0.70374397364E+02  0.10923193171E+03  0.00000000000E+00 0.  1.
         14    1    4    4    0    0  0.21195007088E+02 -0.72432301540E+02  0.78472566014E+02  0.10887428644E+03  0.00000000000E+00 0. -1.
        -13    1    3    3    0    0  0.32507913331E+02  0.15828396611E+02  0.18596928115E+02  0.40658926494E+02  0.00000000000E+00 0.  1.
         13    1    3    3    0    0  0.77402694833E+01 -0.85064891775E+02  0.43862440321E+02  0.96020108598E+02  0.00000000000E+00 0. -1.
         21    1    1    2  503  502 -0.33009191242E+02  0.96846267997E+02 -0.40208538418E+03  0.41489934021E+03  0.00000000000E+00 0. -1.
          1    1    1    2  501    0  0.29016458005E+02  0.10547320165E+03  0.62296644023E+02  0.12588654797E+03  0.00000000000E+00 0. -1.
<scales pt_clust_5="13000.00000" pt_clust_6="13000.00000" pt_clust_7="13000.00000" pt_clust_8="13000.00000" pt_clust_9="102.31718" pt_clust_10="122.20716"></scales>
<clustering>
<clus scale="   79.934">  5  6 -1 -1</clus>
<clus scale="   91.468">  7  8 -1 -1</clus>
<clus scale="  102.317">  2  9  1 -1</clus>
<clus scale="  101.813">  1  7  2 -1</clus>
<clus scale="  122.207">  2 10  1 -1</clus>
<clus scale="  102.317">  2  5  1 -1</clus>
</clustering>
</event>
<event>
10    4  0.7697601E-005  0.1788315E+03  0.7546771E-02  0.1170338E+00
         21   -1    0    0  503  502  0.00000000000E+00  0.00000000000E+00  0.47734491257E+02  0.47734491257E+02  0.00000000000E+00 0.  1.
          2   -1    0    0  502    0 -0.00000000000E+00 -0.00000000000E+00 -0.10567561307E+04  0.10567561307E+04  0.00000000000E+00 0. -1.
         23    2    1    2    0    0  0.11351120912E+03 -0.67627875284E+02 -0.36336700406E+03  0.39751000145E+03  0.92305457585E+02 0.  0.
         24    2    1    2    0    0 -0.12048437566E+03  0.13463629978E+03 -0.48894429368E+03  0.52749056805E+03  0.80847752383E+02 0.  0.
        -13    1    4    4    0    0 -0.95945057330E+02  0.13834748667E+03 -0.37791395677E+03  0.41372024342E+03  0.00000000000E+00 0.  1.
         14    1    4    4    0    0 -0.24539318330E+02 -0.37111868941E+01 -0.11103033691E+03  0.11377032463E+03  0.00000000000E+00 0. -1.
        -11    1    3    3    0    0  0.34288230064E+02  0.21017919203E+01 -0.23469323914E+02  0.41604199490E+02  0.00000000000E+00 0.  1.
         11    1    3    3    0    0  0.79222979061E+02 -0.69729667204E+02 -0.33989768014E+03  0.35590580196E+03  0.00000000000E+00 0. -1.
         21    1    1    2  503  501  0.25407139276E+02 -0.96169684762E+01 -0.45467141781E+02  0.52964797655E+02  0.00000000000E+00 0.  1.
          1    1    1    2  501    0 -0.18433972741E+02 -0.57391456020E+02 -0.11124319997E+03  0.12652525485E+03  0.00000000000E+00 0. -1.
<scales pt_clust_5="13000.00000" pt_clust_6="13000.00000" pt_clust_7="13000.00000" pt_clust_8="13000.00000" pt_clust_9="27.16632" pt_clust_10="60.70337"></scales>
<clustering>
<clus scale="   27.166">  1  9  2 -1</clus>
<clus scale="   60.703">  1 10  2 -1</clus>
<clus scale="   80.848">  5  6 -1 -1</clus>
<clus scale="   92.305">  7  8 -1 -1</clus>
<clus scale="  173.196">  1  5  2 -1</clus>
<clus scale="   27.166">  1  5  2 -1</clus>
</clustering>
</event>
<event>
10    4  0.7697601E-005  0.2437450E+03  0.7546771E-02  0.1146185E+00
         21   -1    0    0  501  502  0.00000000000E+00  0.00000000000E+00  0.51666816619E+03  0.51666816619E+03  0.00000000000E+00 0. -1.
          2   -1    0    0  503    0 -0.00000000000E+00 -0.00000000000E+00 -0.55964734714E+03  0.55964734714E+03  0.00000000000E+00 0. -1.
         23    2    1    2    0    0 -0.35183871229E+02 -0.11495107961E+01  0.33231618031E+03  0.34540741095E+03  0.87367097219E+02 0.  0.
         24    2    1    2    0    0 -0.26818025467E+02  0.20189590511E+03 -0.19185186357E+03  0.29326243488E+03  0.87832540490E+02 0.  0.
        -11    1    4    4    0    0  0.70220918460E+01  0.51443153379E+02 -0.10284572801E+03  0.11520829646E+03  0.00000000000E+00 0.  1.
         12    1    4    4    0    0 -0.33840117313E+02  0.15045275173E+03 -0.89006135565E+02  0.17805413843E+03  0.00000000000E+00 0. -1.
        -13    1    3    3    0    0 -0.60135926026E+02 -0.17697922818E+02  0.25236273261E+03  0.26003171899E+03  0.00000000000E+00 0. -1.
         13    1    3    3    0    0  0.24952054797E+02  0.16548412022E+02  0.79953447697E+02  0.85375691960E+02  0.00000000000E+00 0.  1.
         21    1    1    2  503  502 -0.58591103573E+02  0.30825944568E+02  0.53460452821E+02  0.85095101459E+02  0.00000000000E+00 0.  1.
          1    1    1    2  501    0  0.12059300027E+03 -0.23157233888E+03 -0.23690395051E+03  0.35255056604E+03  0.00000000000E+00 0. -1.
<scales pt_clust_5="13000.00000" pt_clust_6="13000.00000" pt_clust_7="13000.00000" pt_clust_8="13000.00000" pt_clust_9="66.20541" pt_clust_10="227.37003"></scales>
<clustering>
<clus scale="   66.205">  1  9  2 -1</clus>
<clus scale="   87.367">  7  8 -1 -1</clus>
<clus scale="   87.833">  5  6 -1 -1</clus>
<clus scale="  120.233">  2  7  1 -1</clus>
<clus scale="  227.370">  1 10  2 -1</clus>
<clus scale="   66.205">  1  5  2 -1</clus>
</clustering>
</event>
<event>
10    4  0.7697601E-005  0.2220233E+03  0.7546771E-02  0.1134862E+00
         21   -1    0    0  501  502  0.00000000000E+00  0.00000000000E+00  0.72394430865E+03  0.72394430865E+03  0.00000000000E+00 0. -1.
          2   -1    0    0  503    0 -0.00000000000E+00 -0.00000000000E+00 -0.16429660638E+03  0.16429660638E+03  0.00000000000E+00 0. -1.
         24    2    1    2    0    0  0.12185793787E+03 -0.11514017289E+03  0.16450628030E+03  0.24828424428E+03  0.80474426156E+02 0.  0.
         23    2    1    2    0    0 -0.15918157709E+03  0.19312376175E+03  0.44483775446E+03  0.52211900941E+03  0.10996395027E+03 0.  0.
        -11    1    3    3    0    0  0.35510504484E+02 -0.78623724331E+02  0.47944889450E+02  0.98698522687E+02  0.00000000000E+00 0.  1.
         12    1    3    3    0    0  0.86347433384E+02 -0.36516448558E+02  0.11656139085E+03  0.14958572159E+03  0.00000000000E+00 0. -1.
        -13    1    4    4    0    0  0.56634353953E+01  0.62170825984E+02  0.90141364419E+02  0.10964830908E+03  0.00000000000E+00 0. -1.
         13    1    4    4    0    0 -0.16484501249E+03  0.13095293577E+03  0.35469639004E+03  0.41247070034E+03  0.00000000000E+00 0.  1.
         21    1    1    2  503  502 -0.13993186438E+02 -0.17432157978E+02  0.30164562831E+01  0.22556338510E+02  0.00000000000E+00 0.  1.
          1    1    1    2  501    0  0.51316825660E+02 -0.60551430888E+02 -0.52712788781E+02  0.95281322826E+02  0.00000000000E+00 0. -1.
<scales pt_clust_5="13000.00000" pt_clust_6="13000.00000" pt_clust_7="13000.00000" pt_clust_8="13000.00000" pt_clust_9="22.35373" pt_clust_10="82.08333"></scales>
<clustering>
<clus scale="   22.354">  2  9  1 -1</clus>
<clus scale="   80.474">  5  6 -1 -1</clus>
<clus scale="   82.083">  1 10  2 -1</clus>
<clus scale="  109.964">  7  8 -1 -1</clus>
<clus scale="  208.994">  2  5  1 -1</clus>
<clus scale="   82.083">  1  5  2 -1</clus>
</clustering>
</event>
<event>
10    4  0.7697601E-005  0.2949152E+03  0.7546771E-02  0.1125779E+00
         21   -1    0    0  501  502  0.00000000000E+00  0.00000000000E+00  0.50668896834E+03  0.50668896834E+03  0.00000000000E+00 0.  1.
          2   -1    0    0  503    0 -0.00000000000E+00 -0.00000000000E+00 -0.23956466164E+04  0.23956466164E+04  0.00000000000E+00 0. -1.
         24    2    1    2    0    0  0.14888408430E+03 -0.13863385994E+03  0.33555700830E+03  0.40030292055E+03  0.79108183525E+02 0.  0.
         23    2    1    2    0    0 -0.83665884293E+02  0.29855394002E+03 -0.10023664923E+04  0.10530210890E+04  0.89333049280E+02 0.  0.
        -11    1    3    3    0    0  0.84069533018E+02 -0.12099021543E+03  0.19387143694E+03  0.24350041617E+03  0.00000000000E+00 0.  1.
         12    1    3    3    0    0  0.64814551281E+02 -0.17643644515E+02  0.14168557136E+03  0.15680250439E+03  0.00000000000E+00 0. -1.
        -13    1    4    4    0    0 -0.24128571531E+02  0.19260998667E+03 -0.50500284461E+03  0.54102557055E+03  0.00000000000E+00 0.  1.
         13    1    4    4    0    0 -0.59537312762E+02  0.10594395334E+03 -0.49736364771E+03  0.51199551846E+03  0.00000000000E+00 0. -1.
         21    1    1    2  503  502 -0.12638665645E+03  0.74657645875E+02  0.49154758430E+02  0.15480161916E+03  0.00000000000E+00 0.  1.
          1    1    1    2  501    0  0.61168456447E+02 -0.23457772595E+03 -0.12713029224E+04  0.12942099560E+04  0.00000000000E+00 0. -1.
<scales pt_clust_5="13000.00000" pt_clust_6="13000.00000" pt_clust_7="13000.00000" pt_clust_8="13000.00000" pt_clust_9="146.79016" pt_clust_10="281.05988"></scales>
<clustering>
<clus scale="   79.108">  5  6 -1 -1</clus>
<clus scale="   89.333">  7  8 -1 -1</clus>
<clus scale="  146.790">  1  9  2 -1</clus>
<clus scale="  111.446">  2  5  1 -1</clus>
<clus scale="  281.060">  1 10  2 -1</clus>
<clus scale="  146.790">  1  5  2 -1</clus>
</clustering>
</event>
<event>
10    4  0.7697601E-005  0.1092852E+03  0.7546771E-02  0.1271299E+00
          2   -1    0    0  502    0 -0.00000000000E+00  0.00000000000E+00  0.39879697878E+03  0.39879697878E+03  0.00000000000E+00 0. -1.
         21   -1    0    0  503  502  0.00000000000E+00 -0.00000000000E+00 -0.24443391276E+03  0.24443391276E+03  0.00000000000E+00 0. -1.
         24    2    1    2    0    0 -0.24367445953E+01 -0.40555635858E+02  0.71623268548E+02  0.11582852280E+03  0.81459540709E+02 0.  0.
         23    2    1    2    0    0  0.30782473377E+02  0.34032290935E+02  0.22498453368E+03  0.24926701901E+03  0.97006437298E+02 0.  0.
        -13    1    3    3    0    0 -0.20822482031E+02  0.15702413268E+02  0.42503426506E+02  0.49866650229E+02  0.00000000000E+00 0.  1.
         14    1    3    3    0    0  0.18385737436E+02 -0.56258049125E+02  0.29119842042E+02  0.65961872571E+02  0.00000000000E+00 0. -1.
        -11    1    4    4    0    0  0.92860264836E+01  0.66885955480E+02  0.13011389297E+03  0.14659326885E+03  0.00000000000E+00 0. -1.
         11    1    4    4    0    0  0.21496446894E+02 -0.32853664544E+02  0.94870640719E+02  0.10267375017E+03  0.00000000000E+00 0.  1.
         21    1    1    2  503  501  0.64405737645E+02  0.83260141629E+02 -0.11263846961E+03  0.15416800921E+03  0.00000000000E+00 0. -1.
          1    1    1    2  501    0 -0.92751466427E+02 -0.76736796707E+02 -0.29606266609E+02  0.12396734052E+03  0.00000000000E+00 0. -1.
<scales pt_clust_5="13000.00000" pt_clust_6="13000.00000" pt_clust_7="13000.00000" pt_clust_8="13000.00000" pt_clust_9="109.28519" pt_clust_10="13000.00000"></scales>
<clustering>
<clus scale="   81.460">  5  6 -1 -1</clus>
<clus scale="   91.029">  1  5  2 -1</clus>
<clus scale="   97.006">  7  8 -1 -1</clus>
<clus scale="  101.248">  1  7  2 -1</clus>
<clus scale="  109.285">  2  9  1 -1</clus>
<clus scale="  109.285">  2  5  1 -1</clus>
</clustering>
</event>
<event>
10    4  0.9660259E-005  0.2771429E+03  0.7546771E-02  0.1132299E+00
         21   -1    0    0  503  502  0.00000000000E+00  0.00000000000E+00  0.32676400439E+03  0.32676400439E+03  0.00000000000E+00 0. -1.
          2   -1    0    0  502    0 -0.00000000000E+00 -0.00000000000E+00 -0.40645966850E+03  0.40645966850E+03  0.00000000000E+00 0. -1.
         24    2    1    2    0    0 -0.27143929150E+02  0.74215356514E+02 -0.31147945813E+02  0.11900346577E+03  0.83348175174E+02 0.  0.
         23    2    1    2    0    0 -0.69472803584E+02 -0.27644792414E+03  0.10414738346E+03  0.32004818771E+03  0.10165746295E+03 0.  0.
        -11    1    3    3    0    0 -0.38484794965E+02  0.87931629116E+02 -0.20133897224E+02  0.98073567590E+02  0.00000000000E+00 0.  1.
         12    1    3    3    0    0  0.11340865814E+02 -0.13716272602E+02 -0.11014048589E+02  0.20929898180E+02  0.00000000000E+00 0. -1.
        -11    1    4    4    0    0 -0.13078932412E+02 -0.56010818958E+02  0.68974221130E+02  0.89809317411E+02  0.00000000000E+00 0.  1.
         11    1    4    4    0    0 -0.56393871172E+02 -0.22043710519E+03  0.35173162333E+02  0.23023887030E+03  0.00000000000E+00 0. -1.
         21    1    1    2  503  501  0.21976166172E+02  0.24986542307E+01  0.11615991057E+02  0.24982521906E+02  0.00000000000E+00 0. -1.
          1    1    1    2  501    0  0.74640566563E+02  0.19973391340E+03 -0.16431109283E+03  0.26918949750E+03  0.00000000000E+00 0. -1.
<scales pt_clust_5="13000.00000" pt_clust_6="13000.00000" pt_clust_7="13000.00000" pt_clust_8="13000.00000" pt_clust_9="22.11776" pt_clust_10="257.82555"></scales>
<clustering>
<clus scale="   22.118">  1  9  2 -1</clus>
<clus scale="   83.348">  5  6 -1 -1</clus>
<clus scale="  101.657">  7  8 -1 -1</clus>
<clus scale="  114.387">  2  5  1 -1</clus>
<clus scale="  257.826">  1 10  2 -1</clus>
<clus scale="   22.118">  1  5  2 -1</clus>
</clustering>
</event>
<event>
10    4  0.7697601E-005  0.2513363E+03  0.7546771E-02  0.1112463E+00
          2   -1    0    0  502    0 -0.00000000000E+00  0.00000000000E+00  0.12380800735E+04  0.12380800735E+04  0.00000000000E+00 0. -1.
         21   -1    0    0  503  502  0.00000000000E+00 -0.00000000000E+00 -0.42943882986E+02  0.42943882986E+02  0.00000000000E+00 0.  1.
         24    2    1    2    0    0 -0.95746119720E+02 -0.63904828884E+02  0.62668263597E+03  0.64185345102E+03  0.77418213385E+02 0.  0.
         23    2    1    2    0    0 -0.18881366756E+02 -0.31442774028E+02  0.24998956761E+03  0.26881800648E+03  0.91777898456E+02 0.  0.
        -13    1    3    3    0    0 -0.63668080372E+02 -0.73224448688E+02  0.54556711205E+03  0.55412897244E+03  0.00000000000E+00 0.  1.
         14    1    3    3    0    0 -0.32078039349E+02  0.93196198038E+01  0.81115523916E+02  0.87724478579E+02  0.00000000000E+00 0. -1.
        -13    1    4    4    0    0  0.20063084449E+02 -0.42955871795E+02  0.19363990272E+03  0.19935933940E+03  0.00000000000E+00 0. -1.
         13    1    4    4    0    0 -0.38944451205E+02  0.11513097767E+02  0.56349664894E+02  0.69458667087E+02  0.00000000000E+00 0.  1.
         21    1    1    2  503  501 -0.20765146493E+02 -0.31750763877E+01  0.26940103950E+02  0.34161990864E+02  0.00000000000E+00 0. -1.
          1    1    1    2  501    0  0.13539263297E+03  0.98522679300E+02  0.29152388295E+03  0.33619050809E+03  0.00000000000E+00 0. -1.
<scales pt_clust_5="13000.00000" pt_clust_6="13000.00000" pt_clust_7="13000.00000" pt_clust_8="13000.00000" pt_clust_9="21.00649" pt_clust_10="156.94656"></scales>
<clustering>
<clus scale="   21.006">  2  9  1 -1</clus>
<clus scale="   77.418">  5  6 -1 -1</clus>
<clus scale="   91.778">  7  8 -1 -1</clus>
<clus scale="   97.378">  5  7 -1 -1</clus>
<clus scale="  156.947">  2 10  1 -1</clus>
<clus scale="   21.006">  2  5  1 -1</clus>
</clustering>
</event>
<event>
10    4  0.7697601E-005  0.1048842E+03  0.7546771E-02  0.1277991E+00
          4   -1    0    0  503    0 -0.00000000000E+00  0.00000000000E+00  0.12357033908E+03  0.12357033908E+03  0.00000000000E+00 0. -1.
         21   -1    0    0  501  502  0.00000000000E+00 -0.00000000000E+00 -0.52041407551E+03  0.52041407551E+03  0.00000000000E+00 0.  1.
         24    2    1    2    0    0  0.33829802442E+02 -0.25274451582E+02  0.44024626801E+02  0.99807122042E+02  0.78993926408E+02 0.  0.
         23    2    1    2    0    0 -0.10112376122E+03 -0.18920936360E+02 -0.38877575510E+03  0.41324306816E+03  0.95074858477E+02 0.  0.
        -13    1    3    3    0    0  0.47888959246E+02  0.47364769385E-01  0.94717939820E+00  0.47898348718E+02  0.00000000000E+00 0.  1.
         14    1    3    3    0    0 -0.14059156804E+02 -0.25321816351E+02  0.43077447402E+02  0.51908773325E+02  0.00000000000E+00 0. -1.
        -11    1    4    4    0    0 -0.89538726722E+02  0.39850313773E+01 -0.37184305803E+03  0.38249225334E+03  0.00000000000E+00 0.  1.
         11    1    4    4    0    0 -0.11585034497E+02 -0.22905967738E+02 -0.16932697070E+02  0.30750814824E+02  0.00000000000E+00 0. -1.
         21    1    1    2  503  502  0.12119304366E+02  0.38314719987E+02 -0.62670418541E+02  0.74447811695E+02  0.00000000000E+00 0. -1.
          3    1    1    2  501    0  0.55174654411E+02  0.58806679549E+01  0.10577810412E+02  0.56486412685E+02  0.00000000000E+00 0. -1.
<scales pt_clust_5="13000.00000" pt_clust_6="13000.00000" pt_clust_7="13000.00000" pt_clust_8="13000.00000" pt_clust_9="40.18576" pt_clust_10="56.33672"></scales>
<clustering>
<clus scale="   40.186">  2  9  1 -1</clus>
<clus scale="   56.337">  2 10  1 -1</clus>
<clus scale="   78.994">  5  6 -1 -1</clus>
<clus scale="   90.562">  1  5  2 -1</clus>
<clus scale="   95.075">  7  8 -1 -1</clus>
<clus scale="   40.186">  2  5  1 -1</clus>
</clustering>
</event>
<event>
10    4  0.7697601E-005  0.2382940E+03  0.7546771E-02  0.1120935E+00
         21   -1    0    0  503  502  0.00000000000E+00  0.00000000000E+00  0.33203501777E+02  0.33203501777E+02  0.00000000000E+00 0.  1.
          2   -1    0    0  502    0 -0.00000000000E+00 -0.00000000000E+00 -0.12273534508E+04  0.12273534508E+04  0.00000000000E+00 0. -1.
         24    2    1    2    0    0  0.84744504859E+02 -0.41745465541E+02 -0.22811742413E+03  0.25960051063E+03  0.80190715976E+02 0.  0.
         23    2    1    2    0    0  0.53098454129E+02  0.24751608319E+02 -0.30338674654E+03  0.32287756542E+03  0.93671320741E+02 0.  0.
        -11    1    3    3    0    0  0.80160129903E+02 -0.22806519569E+02 -0.10075853148E+03  0.13075957107E+03  0.00000000000E+00 0.  1.
         12    1    3    3    0    0  0.45843749567E+01 -0.18938945972E+02 -0.12735889265E+03  0.12884093956E+03  0.00000000000E+00 0. -1.
        -11    1    4    4    0    0 -0.51751898068E+01 -0.25254969719E+02 -0.33451068601E+02  0.42232334479E+02  0.00000000000E+00 0.  1.
         11    1    4    4    0    0  0.58273643935E+02  0.50006578038E+02 -0.26993567794E+03  0.28064523094E+03  0.00000000000E+00 0. -1.
         21    1    1    2  503  501 -0.60115358821E+02  0.24728481606E+02 -0.26728056405E+03  0.27507136181E+03  0.00000000000E+00 0. -1.
          1    1    1    2  501    0 -0.77727600167E+02 -0.77346243841E+01 -0.39536521434E+03  0.40300751475E+03  0.00000000000E+00 0. -1.
<scales pt_clust_5="13000.00000" pt_clust_6="13000.00000" pt_clust_7="13000.00000" pt_clust_8="13000.00000" pt_clust_9="34.15797" pt_clust_10="143.84560"></scales>
<clustering>
<clus scale="   34.158">  9 10 -1 -1</clus>
<clus scale="   80.191">  5  6 -1 -1</clus>
<clus scale="   93.671">  7  8 -1 -1</clus>
<clus scale="  109.429">  5  7 -1 -1</clus>
<clus scale="  143.846">  1  9  2 -1</clus>
<clus scale="  143.846">  1  5  2 -1</clus>
</clustering>
</event>
<event>
10    4  0.7697601E-005  0.2902417E+03  0.7546771E-02  0.1135524E+00
         21   -1    0    0  503  502  0.00000000000E+00  0.00000000000E+00  0.10664297762E+03  0.10664297762E+03  0.00000000000E+00 0. -1.
          2   -1    0    0  502    0 -0.00000000000E+00 -0.00000000000E+00 -0.12159810884E+04  0.12159810884E+04  0.00000000000E+00 0. -1.
         24    2    1    2    0    0  0.40973308644E+02 -0.14618040133E+02 -0.26216178558E+03  0.27785491862E+03  0.81129864201E+02 0.  0.
         23    2    1    2    0    0  0.22833476218E+03  0.11192463643E+03 -0.60815653572E+03  0.66546505372E+03  0.91244056923E+02 0.  0.
        -13    1    3    3    0    0  0.25495480442E+02 -0.77586485162E+01 -0.15942853076E+02  0.31054640780E+02  0.00000000000E+00 0.  1.
         14    1    3    3    0    0  0.15477828202E+02 -0.68593916171E+01 -0.24621893250E+03  0.24680027784E+03  0.00000000000E+00 0. -1.
        -11    1    4    4    0    0  0.58379211634E+02  0.76966928075E+02 -0.21142524209E+03  0.23244929202E+03  0.00000000000E+00 0. -1.
         11    1    4    4    0    0  0.16995555054E+03  0.34957708359E+02 -0.39673129362E+03  0.43301576169E+03  0.00000000000E+00 0.  1.
         21    1    1    2  503  501 -0.16070377855E+03 -0.58509139353E+02 -0.97927204634E+02  0.19707552166E+03  0.00000000000E+00 0. -1.
          1    1    1    2  501    0 -0.10860429227E+03 -0.38797456947E+02 -0.14109258483E+03  0.18222857202E+03  0.00000000000E+00 0. -1.
<scales pt_clust_5="13000.00000" pt_clust_6="13000.00000" pt_clust_7="13000.00000" pt_clust_8="13000.00000" pt_clust_9="56.57017" pt_clust_10="284.00792"></scales>
<clustering>
<clus scale="   56.570">  9 10 -1 -1</clus>
<clus scale="   81.130">  5  6 -1 -1</clus>
<clus scale="   91.244">  7  8 -1 -1</clus>
<clus scale="   92.057">  2  5  1 -1</clus>
<clus scale="  284.008">  1  9  2 -1</clus>
<clus scale="  284.008">  1  5  2 -1</clus>
</clustering>
</event>
<event>
10    4  0.7697601E-005  0.1105643E+03  0.7546771E-02  0.1268342E+00
          2   -1    0    0  503    0 -0.00000000000E+00  0.00000000000E+00  0.18615256508E+03  0.18615256508E+03  0.00000000000E+00 0. -1.
         21   -1    0    0  501  502  0.00000000000E+00 -0.00000000000E+00 -0.24594607944E+03  0.24594607944E+03  0.00000000000E+00 0. -1.
         23    2    1    2    0    0 -0.43664950183E+02  0.11349781233E+02  0.36713629919E+02  0.11291252595E+03  0.96777592895E+02 0.  0.
         24    2    1    2    0    0  0.58154426254E+02 -0.29906405104E+02 -0.14702162815E+01  0.10041815034E+03  0.76192604781E+02 0.  0.
        -13    1    4    4    0    0  0.13649503805E+02 -0.16167753954E+02  0.35246025051E+02  0.41109457598E+02  0.00000000000E+00 0.  1.
         14    1    4    4    0    0  0.44504922449E+02 -0.13738651149E+02 -0.36716241333E+02  0.59308692746E+02  0.00000000000E+00 0. -1.
        -11    1    3    3    0    0 -0.51588761137E+02 -0.25557322094E+02  0.46398434072E+02  0.73941812749E+02  0.00000000000E+00 0. -1.
         11    1    3    3    0    0  0.79238109548E+01  0.36907103328E+02 -0.96848041529E+01  0.38970713203E+02  0.00000000000E+00 0.  1.
         21    1    1    2  503  502 -0.11867010962E+02 -0.17036698578E+02 -0.15098492238E+03  0.15240578018E+03  0.00000000000E+00 0. -1.
          1    1    1    2  501    0 -0.26224651090E+01  0.35593322448E+02  0.55947994385E+02  0.66362188043E+02  0.00000000000E+00 0. -1.
<scales pt_clust_5="13000.00000" pt_clust_6="13000.00000" pt_clust_7="13000.00000" pt_clust_8="13000.00000" pt_clust_9="20.76235" pt_clust_10="34.80682"></scales>
<clustering>
<clus scale="   20.762">  2  9  1 -1</clus>
<clus scale="   34.807">  2 10  1 -1</clus>
<clus scale="   76.193">  5  6 -1 -1</clus>
<clus scale="   93.080">  2  5  1 -1</clus>
<clus scale="   96.778">  7  8 -1 -1</clus>
<clus scale="   20.762">  2  5  1 -1</clus>
</clustering>
</event>
<event>
10    4  0.7697601E-005  0.1546327E+03  0.7546771E-02  0.1196926E+00
         21   -1    0    0  501  502  0.00000000000E+00  0.00000000000E+00  0.25110362243E+03  0.25110362243E+03  0.00000000000E+00 0. -1.
          2   -1    0    0  503    0 -0.00000000000E+00 -0.00000000000E+00 -0.47480909699E+03  0.47480909699E+03  0.00000000000E+00 0. -1.
         23    2    1    2    0    0  0.90466706621E+02 -0.78419966852E+02 -0.34102283629E+03  0.37268193465E+03  0.90891877139E+02 0.  0.
         24    2    1    2    0    0 -0.14072929685E+03  0.11255043584E+03  0.10214356469E+03  0.22165810698E+03  0.78909270584E+02 0.  0.
        -11    1    4    4    0    0 -0.62219604281E+02  0.85742195407E+02  0.87528680294E+02  0.13742006078E+03  0.00000000000E+00 0.  1.
         12    1    4    4    0    0 -0.78509692569E+02  0.26808240432E+02  0.14614884392E+02  0.84238046203E+02  0.00000000000E+00 0. -1.
        -13    1    3    3    0    0 -0.90850206515E+01 -0.29690735600E+02 -0.32938005267E+02  0.45265766001E+02  0.00000000000E+00 0.  1.
         13    1    3    3    0    0  0.99551727272E+02 -0.48729231252E+02 -0.30808483103E+03  0.32741616864E+03  0.00000000000E+00 0. -1.
         21    1    1    2  503  502  0.46985169932E+02 -0.58732023621E+02  0.48890010998E+02  0.89706688533E+02  0.00000000000E+00 0. -1.
          1    1    1    2  501    0  0.32774202973E+01  0.24601554633E+02 -0.33716213952E+02  0.41865989268E+02  0.00000000000E+00 0. -1.
<scales pt_clust_5="13000.00000" pt_clust_6="13000.00000" pt_clust_7="13000.00000" pt_clust_8="13000.00000" pt_clust_9="70.57805" pt_clust_10="24.81892"></scales>
<clustering>
<clus scale="   24.819">  1 10  2 -1</clus>
<clus scale="   70.578">  1  9  2 -1</clus>
<clus scale="   78.909">  5  6 -1 -1</clus>
<clus scale="   90.892">  7  8 -1 -1</clus>
<clus scale="  147.907">  1  5  2 -1</clus>
<clus scale="   24.819">  1  5  2 -1</clus>
</clustering>
</event>
<event>
10    4  0.7697601E-005  0.1865227E+03  0.7546771E-02  0.1188047E+00
          2   -1    0    0  503    0 -0.00000000000E+00  0.00000000000E+00  0.72684664794E+03  0.72684664794E+03  0.00000000000E+00 0. -1.
         21   -1    0    0  501  502  0.00000000000E+00 -0.00000000000E+00 -0.17235660161E+03  0.17235660161E+03  0.00000000000E+00 0. -1.
         24    2    1    2    0    0  0.58030144961E+02  0.56864112707E+01  0.16936747981E+03  0.19639063059E+03  0.80523931656E+02 0.  0.
         23    2    1    2    0    0  0.29941998548E+01  0.18632744118E+03  0.28886518242E+03  0.35575506306E+03  0.91606171764E+02 0.  0.
        -11    1    3    3    0    0  0.49709077727E+02  0.38313068804E+01  0.33070981663E+02  0.59827762361E+02  0.00000000000E+00 0.  1.
         12    1    3    3    0    0  0.83210672340E+01  0.18551043903E+01  0.13629649815E+03  0.13656286823E+03  0.00000000000E+00 0. -1.
        -13    1    4    4    0    0  0.38191108797E+02  0.51904705549E+02  0.12710399842E+03  0.14250644078E+03  0.00000000000E+00 0. -1.
         13    1    4    4    0    0 -0.35196908942E+02  0.13442273563E+03  0.16176118400E+03  0.21324862228E+03  0.00000000000E+00 0.  1.
         21    1    1    2  503  502  0.28588548227E+02 -0.63892795347E+02 -0.83407788456E+02  0.10888734344E+03  0.00000000000E+00 0. -1.
          1    1    1    2  501    0 -0.89612893043E+02 -0.12812105710E+03  0.17966517255E+03  0.23817021245E+03  0.00000000000E+00 0. -1.
<scales pt_clust_5="13000.00000" pt_clust_6="13000.00000" pt_clust_7="13000.00000" pt_clust_8="13000.00000" pt_clust_9="69.99710" pt_clust_10="162.47790"></scales>
<clustering>
<clus scale="   69.997">  2  9  1 -1</clus>
<clus scale="   80.524">  5  6 -1 -1</clus>
<clus scale="   91.606">  7  8 -1 -1</clus>
<clus scale="  102.457">  1  5  2 -1</clus>
<clus scale="  162.478">  2 10  1 -1</clus>
<clus scale="   69.997">  2  5  1 -1</clus>
</clustering>
</event>
<event>
10    4  0.1354485E-004  0.1241473E+03  0.7546771E-02  0.1253379E+00
         21   -1    0    0  501  502  0.00000000000E+00  0.00000000000E+00  0.45825810102E+03  0.45825810102E+03  0.00000000000E+00 0. -1.
          2   -1    0    0  503    0 -0.00000000000E+00 -0.00000000000E+00 -0.64252170098E+03  0.64252170098E+03  0.00000000000E+00 0. -1.
         24    2    1    2    0    0 -0.37974372031E+02 -0.44113387651E+01 -0.48243820012E+03  0.49046875708E+03  0.79696122191E+02 0.  0.
         23    2    1    2    0    0 -0.58594961359E+02  0.33850944232E+02 -0.64766509035E+02  0.13063602794E+03  0.91059404681E+02 0.  0.
        -11    1    3    3    0    0  0.11767916939E+02  0.23744826533E+02 -0.87785993849E+02  0.91698862437E+02  0.00000000000E+00 0.  1.
         12    1    3    3    0    0 -0.49742288970E+02 -0.28156165298E+02 -0.39465220627E+03  0.39876989464E+03  0.00000000000E+00 0. -1.
        -13    1    4    4    0    0 -0.77253959413E+02  0.46938290659E+02 -0.55211124082E+02  0.10592282850E+03  0.00000000000E+00 0. -1.
         13    1    4    4    0    0  0.18658998054E+02 -0.13087346427E+02 -0.95553849531E+01  0.24713199439E+02  0.00000000000E+00 0.  1.
         21    1    1    2  503  502  0.45239116649E+02 -0.26676364964E+02  0.40797054719E+03  0.41133705583E+03  0.00000000000E+00 0. -1.
          1    1    1    2  501    0  0.51330216741E+02 -0.27632405029E+01 -0.45029437993E+02  0.68337961155E+02  0.00000000000E+00 0. -1.
<scales pt_clust_5="13000.00000" pt_clust_6="13000.00000" pt_clust_7="13000.00000" pt_clust_8="13000.00000" pt_clust_9="84.38451" pt_clust_10="51.40456"></scales>
<clustering>
<clus scale="   51.405">  1 10  2 -1</clus>
<clus scale="   79.696">  5  6 -1 -1</clus>
<clus scale="   88.195">  2  5  1 -1</clus>
<clus scale="   84.385">  1  9  2 -1</clus>
<clus scale="   91.059">  7  8 -1 -1</clus>
<clus scale="   51.405">  1  5  2 -1</clus>
</clustering>
</event>
<event>
10    4  0.7697601E-005  0.9647435E+02  0.7546771E-02  0.1296443E+00
          2   -1    0    0  502    0 -0.00000000000E+00  0.00000000000E+00  0.42176565871E+03  0.42176565871E+03  0.00000000000E+00 0. -1.
         21   -1    0    0  503  502  0.00000000000E+00 -0.00000000000E+00 -0.81875761271E+02  0.81875761271E+02  0.00000000000E+00 0. -1.
         23    2    1    2    0    0  0.26539139732E+02  0.24115864062E+02  0.15194217661E+03  0.18117289929E+03  0.91930917351E+02 0.  0.
         24    2    1    2    0    0 -0.26055271295E+02  0.49800684076E+02  0.14029723656E+03  0.16955695364E+03  0.76858705721E+02 0.  0.
        -11    1    4    4    0    0 -0.89631127835E+01  0.42292675452E+02  0.19674893751E+02  0.47498518206E+02  0.00000000000E+00 0.  1.
         12    1    4    4    0    0 -0.17092158511E+02  0.75080086242E+01  0.12062234281E+03  0.12205843544E+03  0.00000000000E+00 0. -1.
        -13    1    3    3    0    0  0.45127089829E+02  0.12305823914E+02  0.26393913817E+02  0.53707785518E+02  0.00000000000E+00 0. -1.
         13    1    3    3    0    0 -0.18587950097E+02  0.11810040148E+02  0.12554826280E+03  0.12746511377E+03  0.00000000000E+00 0.  1.
         21    1    1    2  503  501  0.33618262950E+02  0.19839395756E+02  0.34849004037E+02  0.52328217150E+02  0.00000000000E+00 0. -1.
          1    1    1    2  501    0 -0.34102131388E+02 -0.93755943893E+02  0.12801480222E+02  0.10058334990E+03  0.00000000000E+00 0. -1.
<scales pt_clust_5="13000.00000" pt_clust_6="13000.00000" pt_clust_7="13000.00000" pt_clust_8="13000.00000" pt_clust_9="39.03574" pt_clust_10="83.02619"></scales>
<clustering>
<clus scale="   39.036">  2  9  1 -1</clus>
<clus scale="   76.859">  5  6 -1 -1</clus>
<clus scale="   83.026">  2 10  1 -1</clus>
<clus scale="   82.239">  2  5  1 -1</clus>
<clus scale="   91.931">  7  8 -1 -1</clus>
<clus scale="   39.036">  2  5  1 -1</clus>
</clustering>
</event>
<event>
10    4  0.7697601E-005  0.2152717E+03  0.7546771E-02  0.1162195E+00
         21   -1    0    0  501  502  0.00000000000E+00  0.00000000000E+00  0.16537048466E+03  0.16537048466E+03  0.00000000000E+00 0. -1.
         -3   -1    0    0    0  501 -0.00000000000E+00 -0.00000000000E+00 -0.65433590291E+03  0.65433590291E+03  0.00000000000E+00 0.  1.
         23    2    1    2    0    0 -0.35618777415E+02 -0.56668455056E+02 -0.74494899378E+02  0.13537603919E+03  0.91088807489E+02 0.  0.
         24    2    1    2    0    0  0.57441379251E+02  0.24027044980E+03 -0.26926179872E+03  0.37642386328E+03  0.90352683950E+02 0.  0.
        -13    1    4    4    0    0  0.62298200707E+02  0.12824782569E+03 -0.19642180722E+03  0.24271402299E+03  0.00000000000E+00 0.  1.
         14    1    4    4    0    0 -0.48568214567E+01  0.11202262411E+03 -0.72839991503E+02  0.13370984029E+03  0.00000000000E+00 0. -1.
        -11    1    3    3    0    0 -0.18050236839E+02  0.18076457446E+02 -0.47597314890E+02  0.54019197962E+02  0.00000000000E+00 0.  1.
         11    1    3    3    0    0 -0.17568540576E+02 -0.74744912502E+02 -0.26897584488E+02  0.81356841225E+02  0.00000000000E+00 0. -1.
         21    1    1    2  503  502 -0.39527680610E+02 -0.22277803718E+02  0.40821332378E+02  0.61033755005E+02  0.00000000000E+00 0. -1.
         -4    1    1    2    0  503  0.17705078774E+02 -0.16132419103E+03 -0.18603005252E+03  0.24687273010E+03  0.00000000000E+00 0.  1.
<scales pt_clust_5="13000.00000" pt_clust_6="13000.00000" pt_clust_7="13000.00000" pt_clust_8="13000.00000" pt_clust_9="45.37332" pt_clust_10="195.39267"></scales>
<clustering>
<clus scale="   45.373">  1  9  2 -1</clus>
<clus scale="   90.353">  5  6 -1 -1</clus>
<clus scale="   91.089">  7  8 -1 -1</clus>
<clus scale="  119.764">  2  7  1 -1</clus>
<clus scale="  195.393">  1 10  2 -1</clus>
<clus scale="   45.373">  1  5  2 -1</clus>
</clustering>
</event>
<event>
10    4  0.7697601E-005  0.1899681E+03  0.7546771E-02  0.1185497E+00
          2   -1    0    0  502    0 -0.00000000000E+00  0.00000000000E+00  0.14153768742E+04  0.14153768742E+04  0.00000000000E+00 0. -1.
         21   -1    0    0  503  502  0.00000000000E+00 -0.00000000000E+00 -0.13038411954E+03  0.13038411954E+03  0.00000000000E+00 0. -1.
         23    2    1    2    0    0 -0.50559437152E+02  0.17405218757E+02  0.15040532992E+03  0.18208646356E+03  0.87604329905E+02 0.  0.
         24    2    1    2    0    0  0.16962226719E+03  0.13898460574E+03  0.56185660103E+03  0.60888744049E+03  0.83502340654E+02 0.  0.
        -13    1    4    4    0    0  0.10997605350E+03  0.36190161448E+02  0.28190255297E+03  0.30475155373E+03  0.00000000000E+00 0.  1.
         14    1    4    4    0    0  0.59646213691E+02  0.10279444430E+03  0.27995404806E+03  0.30413588675E+03  0.00000000000E+00 0. -1.
        -11    1    3    3    0    0  0.47601088070E+01 -0.22721739297E+02  0.82660906942E+02  0.85858963475E+02  0.00000000000E+00 0.  1.
         11    1    3    3    0    0 -0.55319545959E+02  0.40126958054E+02  0.67744422974E+02  0.96227500081E+02  0.00000000000E+00 0. -1.
         21    1    1    2  503  501  0.10193802227E+02 -0.11504741581E+03 -0.43779731599E+02  0.12351715018E+03  0.00000000000E+00 0. -1.
          1    1    1    2  501    0 -0.12925663227E+03 -0.41342408687E+02  0.61651055527E+03  0.63126993949E+03  0.00000000000E+00 0. -1.
<scales pt_clust_5="13000.00000" pt_clust_6="13000.00000" pt_clust_7="13000.00000" pt_clust_8="13000.00000" pt_clust_9="114.81294" pt_clust_10="170.63197"></scales>
<clustering>
<clus scale="   83.502">  5  6 -1 -1</clus>
<clus scale="   87.604">  7  8 -1 -1</clus>
<clus scale="  102.634">  1  7  2 -1</clus>
<clus scale="  114.813">  2  9  1 -1</clus>
<clus scale="  170.632">  2 10  1 -1</clus>
<clus scale="  114.813">  2  5  1 -1</clus>
</clustering>
</event>
<event>
10    4  0.1312928E-004  0.1435533E+03  0.7546771E-02  0.1211403E+00
          2   -1    0    0  503    0 -0.00000000000E+00  0.00000000000E+00  0.60374884997E+03  0.60374884997E+03  0.00000000000E+00 0. -1.
         21   -1    0    0  501  502  0.00000000000E+00 -0.00000000000E+00 -0.21611365217E+03  0.21611365217E+03  0.00000000000E+00 0. -1.
         24    2    1    2    0    0 -0.62377896505E+02  0.58104216353E+02 -0.19493944279E+02  0.11797882917E+03  0.79195254512E+02 0.  0.
         23    2    1    2    0    0  0.10804219357E+03 -0.11319920359E+03 -0.68257655592E+02  0.19422390600E+03  0.92610165904E+02 0.  0.
        -13    1    3    3    0    0 -0.65451904778E+02  0.84491571267E+01 -0.17083878831E+02  0.68170367544E+02  0.00000000000E+00 0.  1.
         14    1    3    3    0    0  0.30740082726E+01  0.49655059226E+02 -0.24100654482E+01  0.49808461621E+02  0.00000000000E+00 0. -1.
        -13    1    4    4    0    0  0.27973676801E+02 -0.13100196036E+02  0.21591642514E+02  0.37687408460E+02  0.00000000000E+00 0.  1.
         13    1    4    4    0    0  0.80068516770E+02 -0.10009900756E+03 -0.89849298106E+02  0.15653649754E+03  0.00000000000E+00 0. -1.
         21    1    1    2  503  502 -0.20606354491E+02 -0.50978745369E+01 -0.58558161133E+01  0.22020462133E+02  0.00000000000E+00 0. -1.
          1    1    1    2  501    0 -0.25057942575E+02  0.60192861776E+02  0.48124261378E+03  0.48563930485E+03  0.00000000000E+00 0. -1.
<scales pt_clust_5="13000.00000" pt_clust_6="13000.00000" pt_clust_7="13000.00000" pt_clust_8="13000.00000" pt_clust_9="21.22758" pt_clust_10="65.23568"></scales>
<clustering>
<clus scale="   21.228">  2  9  1 -1</clus>
<clus scale="   65.236">  2 10  1 -1</clus>
<clus scale="   79.195">  5  6 -1 -1</clus>
<clus scale="   92.610">  7  8 -1 -1</clus>
<clus scale="  135.288">  1  5  2 -1</clus>
<clus scale="   21.228">  2  5  1 -1</clus>
</clustering>
</event>
<event>
10    4  0.7697601E-005  0.4087880E+03  0.7546771E-02  0.1093663E+00
         21   -1    0    0  501  502  0.00000000000E+00  0.00000000000E+00  0.60319610773E+03  0.60319610773E+03  0.00000000000E+00 0. -1.
          2   -1    0    0  503    0 -0.00000000000E+00 -0.00000000000E+00 -0.87600928395E+03  0.87600928395E+03  0.00000000000E+00 0. -1.
         23    2    1    2    0    0  0.92263425096E+01  0.22297789084E+02 -0.79844011966E+02  0.12400783149E+03  0.91763605153E+02 0.  0.
         24    2    1    2    0    0 -0.16933075202E+03  0.25557996217E+03  0.11300935405E+03  0.33631935135E+03  0.79659094579E+02 0.  0.
        -11    1    4    4    0    0 -0.77757989999E+02  0.72757275991E+02  0.88825554463E+01  0.10685890702E+03  0.00000000000E+00 0.  1.
         12    1    4    4    0    0 -0.91572762021E+02  0.18282268618E+03  0.10412679860E+03  0.22946044433E+03  0.00000000000E+00 0. -1.
        -13    1    3    3    0    0  0.34809293701E+02  0.26569071704E+02 -0.41421100571E+01  0.43985902002E+02  0.00000000000E+00 0.  1.
         13    1    3    3    0    0 -0.25582951192E+02 -0.42712826200E+01 -0.75701901909E+02  0.80021929492E+02  0.00000000000E+00 0. -1.
         21    1    1    2  503  502  0.15491447227E+03 -0.52007961333E+03  0.94499192928E+02  0.55082791812E+03  0.00000000000E+00 0. -1.
          1    1    1    2  501    0  0.51899372449E+01  0.24220186207E+03 -0.40047771123E+03  0.46805029071E+03  0.00000000000E+00 0. -1.
<scales pt_clust_5="13000.00000" pt_clust_6="13000.00000" pt_clust_7="13000.00000" pt_clust_8="13000.00000" pt_clust_9="400.95149" pt_clust_10="254.92199"></scales>
<clustering>
<clus scale="   79.659">  5  6 -1 -1</clus>
<clus scale="   91.764">  7  8 -1 -1</clus>
<clus scale="   94.883">  2  7  1 -1</clus>
<clus scale="  254.922">  1 10  2 -1</clus>
<clus scale="  400.951">  1  9  2 -1</clus>
<clus scale="  254.922">  1  5  2 -1</clus>
</clustering>
</event>
<event>
10    4  0.7697601E-005  0.2020694E+03  0.7546771E-02  0.1178619E+00
          2   -1    0    0  502    0 -0.00000000000E+00  0.00000000000E+00  0.24761001777E+04  0.24761001777E+04  0.00000000000E+00 0. -1.
         21   -1    0    0  503  502  0.00000000000E+00 -0.00000000000E+00 -0.86630870147E+02  0.86630870147E+02  0.00000000000E+00 0. -1.
         23    2    1    2    0    0  0.26662075403E+02 -0.50725050281E+01  0.40957299775E+03  0.42148127381E+03  0.95706985730E+02 0.  0.
         24    2    1    2    0    0  0.91067841237E+02  0.13434502862E+03  0.47250691409E+03  0.50559609000E+03  0.77605952972E+02 0.  0.
        -11    1    4    4    0    0  0.80811974880E+02  0.12303652615E+03  0.31892570886E+03  0.35125798187E+03  0.00000000000E+00 0.  1.
         12    1    4    4    0    0  0.10255866357E+02  0.11308502468E+02  0.15358120522E+03  0.15433810813E+03  0.00000000000E+00 0. -1.
        -13    1    3    3    0    0  0.54447564866E+02 -0.29988526109E+02  0.25561331156E+03  0.26306275689E+03  0.00000000000E+00 0.  1.
         13    1    3    3    0    0 -0.27785489464E+02  0.24916021081E+02  0.15395968619E+03  0.15841851692E+03  0.00000000000E+00 0. -1.
         21    1    1    2  503  501  0.96751185320E+02 -0.55409014256E+02  0.20537380687E+00  0.11149436264E+03  0.00000000000E+00 0. -1.
          1    1    1    2  501    0 -0.21448110196E+03 -0.73863509335E+02  0.15071840219E+04  0.15241593214E+04  0.00000000000E+00 0. -1.
<scales pt_clust_5="13000.00000" pt_clust_6="13000.00000" pt_clust_7="13000.00000" pt_clust_8="13000.00000" pt_clust_9="112.18985" pt_clust_10="186.57274"></scales>
<clustering>
<clus scale="   77.606">  5  6 -1 -1</clus>
<clus scale="   95.707">  7  8 -1 -1</clus>
<clus scale="   99.481">  1  7  2 -1</clus>
<clus scale="  112.190">  2  9  1 -1</clus>
<clus scale="  186.573">  2 10  1 -1</clus>
<clus scale="  112.190">  2  5  1 -1</clus>
</clustering>
</event>
<event>
10    4  0.7697601E-005  0.2726715E+03  0.7546771E-02  0.1099760E+00
          2   -1    0    0  503    0 -0.00000000000E+00  0.00000000000E+00  0.59215560957E+03  0.59215560957E+03  0.00000000000E+00 0. -1.
         21   -1    0    0  501  502  0.00000000000E+00 -0.00000000000E+00 -0.36709972624E+03  0.36709972624E+03  0.00000000000E+00 0.  1.
         24    2    1    2    0    0 -0.72461412642E+01  0.85327653420E+02  0.92676906662E+02  0.14675778843E+03  0.74936802939E+02 0.  0.
         23    2    1    2    0    0  0.35307229465E+02  0.11736024185E+03  0.21843505320E+03  0.26837948978E+03  0.96403585238E+02 0.  0.
        -11    1    3    3    0    0 -0.23123355818E+02  0.13104819627E+02  0.60562292344E+02  0.66137864614E+02  0.00000000000E+00 0.  1.
         12    1    3    3    0    0  0.15877214553E+02  0.72222833794E+02  0.32114614318E+02  0.80619923815E+02  0.00000000000E+00 0. -1.
        -13    1    4    4    0    0  0.31062144298E+02 -0.67153661450E+01  0.44252841831E+02  0.54481803944E+02  0.00000000000E+00 0.  1.
         13    1    4    4    0    0  0.42450851669E+01  0.12407560799E+03  0.17418221137E+03  0.21389768583E+03  0.00000000000E+00 0. -1.
         21    1    1    2  503  502 -0.70165309505E+02 -0.17528015676E+03 -0.28337112085E+03  0.34050770350E+03  0.00000000000E+00 0.  1.
          1    1    1    2  501    0  0.42104221304E+02 -0.27407738509E+02  0.19731504432E+03  0.20361035410E+03  0.00000000000E+00 0. -1.
<scales pt_clust_5="13000.00000" pt_clust_6="13000.00000" pt_clust_7="13000.00000" pt_clust_8="13000.00000" pt_clust_9="201.67114" pt_clust_10="50.23895"></scales>
<clustering>
<clus scale="   50.239">  2 10  1 -1</clus>
<clus scale="   74.937">  5  6 -1 -1</clus>
<clus scale="   96.404">  7  8 -1 -1</clus>
<clus scale="  106.932">  5  7 -1 -1</clus>
<clus scale="  201.671">  2  9  1 -1</clus>
<clus scale="   50.239">  2  5  1 -1</clus>
</clustering>
</event>
<event>
10    4  0.7697601E-005  0.9279018E+02  0.7546771E-02  0.1304185E+00
          2   -1    0    0  502    0 -0.00000000000E+00  0.00000000000E+00  0.54337192165E+03  0.54337192165E+03  0.00000000000E+00 0. -1.
         21   -1    0    0  503  502  0.00000000000E+00 -0.00000000000E+00 -0.13141144116E+03  0.13141144116E+03  0.00000000000E+00 0.  1.
         24    2    1    2    0    0  0.13145991765E+02  0.23448076340E+02  0.45108524078E+03  0.45834057276E+03  0.76652180666E+02 0.  0.
         23    2    1    2    0    0 -0.10664778420E+01  0.13765506965E+02  0.21247593720E+02  0.93302559730E+02  0.89795773043E+02 0.  0.
        -11    1    3    3    0    0 -0.26115312611E+02 -0.11621827566E+02  0.15986702233E+03  0.16240240533E+03  0.00000000000E+00 0.  1.
         12    1    3    3    0    0  0.39261304376E+02  0.35069903905E+02  0.29121821846E+03  0.29593816743E+03  0.00000000000E+00 0. -1.
        -13    1    4    4    0    0  0.40512165215E+01  0.45367322258E+02 -0.12046780552E+02  0.47114023452E+02  0.00000000000E+00 0.  1.
         13    1    4    4    0    0 -0.51176943635E+01 -0.31601815293E+02  0.33294374272E+02  0.46188536279E+02  0.00000000000E+00 0. -1.
         21    1    1    2  503  501  0.34791513984E+02 -0.24255935756E+01 -0.54190649197E+02  0.64443459015E+02  0.00000000000E+00 0.  1.
          1    1    1    2  501    0 -0.46871027907E+02 -0.34787989729E+02 -0.61817048166E+01  0.58696771298E+02  0.00000000000E+00 0. -1.
<scales pt_clust_5="13000.00000" pt_clust_6="13000.00000" pt_clust_7="13000.00000" pt_clust_8="13000.00000" pt_clust_9="34.87597" pt_clust_10="47.55834"></scales>
<clustering>
<clus scale="   34.876">  2  9  1 -1</clus>
<clus scale="   47.558">  2 10  1 -1</clus>
<clus scale="   76.652">  5  6 -1 -1</clus>
<clus scale="   80.139">  1  5  2 -1</clus>
<clus scale="   89.796">  7  8 -1 -1</clus>
<clus scale="   34.876">  2  5  1 -1</clus>
</clustering>
</event>
<event>
10    4  0.7697601E-005  0.2391232E+03  0.7546771E-02  0.1120799E+00
          2   -1    0    0  503    0 -0.00000000000E+00  0.00000000000E+00  0.21671096685E+04  0.21671096685E+04  0.00000000000E+00 0. -1.
         21   -1    0    0  501  502  0.00000000000E+00 -0.00000000000E+00 -0.85005067156E+02  0.85005067156E+02  0.00000000000E+00 0.  1.
         24    2    1    2    0    0 -0.21341892168E+03 -0.86883263513E+02  0.15220280219E+04  0.15415903017E+04  0.82674187035E+02 0.  0.
         23    2    1    2    0    0  0.11749604346E+03  0.15635050901E+03  0.14707403532E+03  0.26058838702E+03  0.89580877908E+02 0.  0.
        -13    1    3    3    0    0 -0.83326373642E+02 -0.63780285693E+02  0.48797839383E+03  0.49913337119E+03  0.00000000000E+00 0.  1.
         14    1    3    3    0    0 -0.13009254804E+03 -0.23102977819E+02  0.10340496281E+04  0.10424569305E+04  0.00000000000E+00 0. -1.
        -11    1    4    4    0    0  0.10202225012E+03  0.63420237733E+02  0.71359716278E+02  0.13972428272E+03  0.00000000000E+00 0.  1.
         11    1    4    4    0    0  0.15473793335E+02  0.92930271274E+02  0.75714319047E+02  0.12086410430E+03  0.00000000000E+00 0. -1.
         21    1    1    2  503  502  0.52334531504E+02  0.27147759072E+02  0.73221370339E+02  0.94006771484E+02  0.00000000000E+00 0. -1.
          1    1    1    2  501    0  0.43588346722E+02 -0.96615004567E+02  0.33978117372E+03  0.35592927541E+03  0.00000000000E+00 0. -1.
<scales pt_clust_5="13000.00000" pt_clust_6="13000.00000" pt_clust_7="13000.00000" pt_clust_8="13000.00000" pt_clust_9="58.95680" pt_clust_10="105.83555"></scales>
<clustering>
<clus scale="   58.957">  2  9  1 -1</clus>
<clus scale="   82.674">  5  6 -1 -1</clus>
<clus scale="   89.581">  7  8 -1 -1</clus>
<clus scale="  105.836">  2 10  1 -1</clus>
<clus scale="  236.623">  1  5  2 -1</clus>
<clus scale="   58.957">  2  5  1 -1</clus>
</clustering>
</event>
<event>
10    4  0.7697601E-005  0.1630584E+03  0.7546771E-02  0.1219361E+00
          2   -1    0    0  503    0 -0.00000000000E+00  0.00000000000E+00  0.82476916887E+03  0.82476916887E+03  0.00000000000E+00 0. -1.
         21   -1    0    0  501  502  0.00000000000E+00 -0.00000000000E+00 -0.14257749834E+03  0.14257749834E+03  0.00000000000E+00 0. -1.
         23    2    1    2    0    0  0.19344669885E+02 -0.39099120029E+02 -0.57205723219E+02  0.10548474835E+03  0.77146483565E+02 0.  0.
         24    2    1    2    0    0 -0.90803856749E+02  0.97986925483E+02  0.37857433639E+03  0.40944746208E+03  0.80510360010E+02 0.  0.
        -13    1    4    4    0    0 -0.49686174374E+02  0.86271144696E+02  0.17413334006E+03  0.20058376417E+03  0.00000000000E+00 0.  1.
         14    1    4    4    0    0 -0.41117682374E+02  0.11715780787E+02  0.20444099633E+03  0.20886369791E+03  0.00000000000E+00 0. -1.
        -13    1    3    3    0    0 -0.52970139007E+01  0.22059435820E+02 -0.14257561899E+02  0.26794684851E+02  0.00000000000E+00 0.  1.
         13    1    3    3    0    0  0.24641683786E+02 -0.61158555850E+02 -0.42948161319E+02  0.78690063503E+02  0.00000000000E+00 0. -1.
         21    1    1    2  503  502 -0.38310800701E+02  0.43015966596E+02 -0.43012452776E+01  0.57763236955E+02  0.00000000000E+00 0.  1.
          1    1    1    2  501    0  0.10976998757E+03 -0.10190377205E+03  0.36512430264E+03  0.39465121982E+03  0.00000000000E+00 0. -1.
<scales pt_clust_5="13000.00000" pt_clust_6="13000.00000" pt_clust_7="13000.00000" pt_clust_8="13000.00000" pt_clust_9="57.60287" pt_clust_10="141.79601"></scales>
<clustering>
<clus scale="   57.603">  2  9  1 -1</clus>
<clus scale="   77.146">  7  8 -1 -1</clus>
<clus scale="   78.008">  1  7  2 -1</clus>
<clus scale="   80.510">  5  6 -1 -1</clus>
<clus scale="  141.796">  2 10  1 -1</clus>
<clus scale="   57.603">  2  5  1 -1</clus>
</clustering>
</event>
<event>
10    4  0.7697601E-005  0.1102619E+03  0.7546771E-02  0.1260373E+00
          2   -1    0    0  503    0 -0.00000000000E+00  0.00000000000E+00  0.66258853512E+03  0.66258853512E+03  0.00000000000E+00 0. -1.
         21   -1    0    0  501  502  0.00000000000E+00 -0.00000000000E+00 -0.83271312823E+02  0.83271312823E+02  0.00000000000E+00 0.  1.
         24    2    1    2    0    0  0.12480123379E+01  0.31452259400E+02  0.13990122626E+03  0.16505075830E+03  0.81722686877E+02 0.  0.
         23    2    1    2    0    0  0.10788879138E+02 -0.13146049154E+03  0.32437748919E+03  0.35976953532E+03  0.82553632884E+02 0.  0.
        -11    1    3    3    0    0 -0.26815913335E+02  0.16931794016E+02  0.13000403861E+02  0.34275200322E+02  0.00000000000E+00 0.  1.
         12    1    3    3    0    0  0.28063925673E+02  0.14520465384E+02  0.12690082239E+03  0.13077555797E+03  0.00000000000E+00 0. -1.
        -11    1    4    4    0    0  0.33826011206E+02 -0.92193183628E+02  0.14804243485E+03  0.17765231397E+03  0.00000000000E+00 0.  1.
         11    1    4    4    0    0 -0.23037132068E+02 -0.39267307915E+02  0.17633505434E+03  0.18211722135E+03  0.00000000000E+00 0. -1.
         21    1    1    2  503  502  0.66349057427E+02  0.49626004541E+02  0.14775167093E+02  0.84162006338E+02  0.00000000000E+00 0.  1.
          1    1    1    2  501    0 -0.78385948903E+02  0.50382227601E+02  0.10026333976E+03  0.13687754799E+03  0.00000000000E+00 0. -1.
<scales pt_clust_5="13000.00000" pt_clust_6="13000.00000" pt_clust_7="13000.00000" pt_clust_8="13000.00000" pt_clust_9="82.85492" pt_clust_10="87.30543"></scales>
<clustering>
<clus scale="   81.723">  5  6 -1 -1</clus>
<clus scale="   82.554">  7  8 -1 -1</clus>
<clus scale="   82.855">  2  9  1 -1</clus>
<clus scale="   87.305">  2 10  1 -1</clus>
<clus scale="  109.641">  1  5  2 -1</clus>
<clus scale="   82.855">  2  5  1 -1</clus>
</clustering>
</event>
<event>
10    4  0.7697601E-005  0.1080209E+03  0.7546771E-02  0.1269794E+00
         21   -1    0    0  503  502  0.00000000000E+00  0.00000000000E+00  0.18036724722E+03  0.18036724722E+03  0.00000000000E+00 0. -1.
          2   -1    0    0  502    0 -0.00000000000E+00 -0.00000000000E+00 -0.84163103827E+03  0.84163103827E+03  0.00000000000E+00 0. -1.
         23    2    1    2    0    0  0.34266453031E+02 -0.14996663909E+02 -0.43321130981E+03  0.44473132615E+03  0.93353220511E+02 0.  0.
         24    2    1    2    0    0 -0.38334203508E+02  0.96442496766E+02 -0.34042273452E+03  0.36485893774E+03  0.80397387575E+02 0.  0.
        -11    1    4    4    0    0 -0.35661733130E+02  0.12496711534E+01 -0.10535173988E+03  0.11123088592E+03  0.00000000000E+00 0.  1.
         12    1    4    4    0    0 -0.26724703779E+01  0.95192825613E+02 -0.23507099464E+03  0.25362805181E+03  0.00000000000E+00 0. -1.
        -11    1    3    3    0    0  0.21499530528E+01  0.37958616845E+02 -0.18926870927E+03  0.19304953561E+03  0.00000000000E+00 0. -1.
         11    1    3    3    0    0  0.32116499978E+02 -0.52955280754E+02 -0.24394260055E+03  0.25168179054E+03  0.00000000000E+00 0.  1.
         21    1    1    2  503  501  0.25905161073E+02 -0.13031392358E+02  0.13424032736E+03  0.13733666680E+03  0.00000000000E+00 0. -1.
          1    1    1    2  501    0 -0.21837410596E+02 -0.68414440500E+02 -0.21870074084E+02  0.75071354796E+02  0.00000000000E+00 0. -1.
<scales pt_clust_5="13000.00000" pt_clust_6="13000.00000" pt_clust_7="13000.00000" pt_clust_8="13000.00000" pt_clust_9="28.99818" pt_clust_10="76.45703"></scales>
<clustering>
<clus scale="   28.998">  1  9  2 -1</clus>
<clus scale="   76.457">  1 10  2 -1</clus>
<clus scale="   80.397">  5  6 -1 -1</clus>
<clus scale="   93.353">  7  8 -1 -1</clus>
<clus scale="   97.043">  1  5  2 -1</clus>
<clus scale="   28.998">  1  5  2 -1</clus>
</clustering>
</event>
<event>
10    4  0.7697601E-005  0.1387271E+03  0.7546771E-02  0.1215749E+00
          2   -1    0    0  503    0 -0.00000000000E+00  0.00000000000E+00  0.81640907573E+03  0.81640907573E+03  0.00000000000E+00 0. -1.
         21   -1    0    0  501  502  0.00000000000E+00 -0.00000000000E+00 -0.18848357488E+03  0.18848357488E+03  0.00000000000E+00 0.  1.
         23    2    1    2    0    0  0.25382323264E+02 -0.10891456886E+03  0.63978318130E+03  0.65521264147E+03  0.86454848535E+02 0.  0.
         24    2    1    2    0    0 -0.96658541918E+02  0.60177698059E+02  0.32187621914E+02  0.14462216417E+03  0.83158272557E+02 0.  0.
        -11    1    4    4    0    0 -0.10003359902E+03  0.47879478523E+02  0.97625683380E+00  0.11090589919E+03  0.00000000000E+00 0.  1.
         12    1    4    4    0    0  0.33750571026E+01  0.12298219535E+02  0.31211365080E+02  0.33716264982E+02  0.00000000000E+00 0. -1.
        -11    1    3    3    0    0  0.51432817178E+02 -0.33097168863E+02  0.27081221284E+03  0.27763287250E+03  0.00000000000E+00 0.  1.
         11    1    3    3    0    0 -0.26050493914E+02 -0.75817399999E+02  0.36897096846E+03  0.37757976898E+03  0.00000000000E+00 0. -1.
         21    1    1    2  503  502  0.50447532943E+02  0.61114021290E+01 -0.11153263053E+03  0.12256357734E+03  0.00000000000E+00 0.  1.
          1    1    1    2  501    0  0.20828685711E+02  0.42625468674E+02  0.67487328168E+02  0.82494267628E+02  0.00000000000E+00 0. -1.
<scales pt_clust_5="13000.00000" pt_clust_6="13000.00000" pt_clust_7="13000.00000" pt_clust_8="13000.00000" pt_clust_9="72.24855" pt_clust_10="47.44225"></scales>
<clustering>
<clus scale="   47.442">  2 10  1 -1</clus>
<clus scale="   72.249">  2  9  1 -1</clus>
<clus scale="   83.158">  5  6 -1 -1</clus>
<clus scale="   86.455">  7  8 -1 -1</clus>
<clus scale="  136.697">  2  5  1 -1</clus>
<clus scale="   47.442">  2  5  1 -1</clus>
</clustering>
</event>
<event>
10    4  0.7697601E-005  0.1619822E+03  0.7546771E-02  0.1186498E+00
         21   -1    0    0  503  502  0.00000000000E+00  0.00000000000E+00  0.31423180520E+03  0.31423180520E+03  0.00000000000E+00 0. -1.
         -3   -1    0    0    0  501 -0.00000000000E+00 -0.00000000000E+00 -0.10743277130E+04  0.10743277130E+04  0.00000000000E+00 0.  1.
         23    2    1    2    0    0  0.19480275741E+01 -0.13765422224E+03 -0.76188530827E+03  0.77833419203E+03  0.79889998197E+02 0.  0.
         24    2    1    2    0    0 -0.55150464685E+02  0.14809402749E+03 -0.26304446807E+03  0.31713267366E+03  0.80045773083E+02 0.  0.
        -11    1    4    4    0    0  0.91780219022E+01  0.33635724644E+02 -0.11047470211E+03  0.11584583663E+03  0.00000000000E+00 0.  1.
         12    1    4    4    0    0 -0.64328486587E+02  0.11445830284E+03 -0.15256976596E+03  0.20128683703E+03  0.00000000000E+00 0. -1.
        -13    1    3    3    0    0 -0.26898152984E+02 -0.11134375576E+03 -0.64522880889E+03  0.65531760117E+03  0.00000000000E+00 0.  1.
         13    1    3    3    0    0  0.28846180558E+02 -0.26310466480E+02 -0.11665649938E+03  0.12301659086E+03  0.00000000000E+00 0. -1.
         21    1    1    2  503  501  0.55307531530E+02 -0.56248833992E+02  0.15087186370E+03  0.17025032636E+03  0.00000000000E+00 0. -1.
         -4    1    1    2    0  502 -0.21050944198E+01  0.45809028745E+02  0.11396200485E+03  0.12284232612E+03  0.00000000000E+00 0.  1.
<scales pt_clust_5="13000.00000" pt_clust_6="13000.00000" pt_clust_7="13000.00000" pt_clust_8="13000.00000" pt_clust_9="56.74766" pt_clust_10="45.85737"></scales>
<clustering>
<clus scale="   45.857">  1 10  2 -1</clus>
<clus scale="   56.748">  1  9  2 -1</clus>
<clus scale="   79.890">  7  8 -1 -1</clus>
<clus scale="   80.046">  5  6 -1 -1</clus>
<clus scale="  161.905">  2  7  1 -1</clus>
<clus scale="   45.857">  1  5  2 -1</clus>
</clustering>
</event>
<event>
10    4  0.7697601E-005  0.1241724E+03  0.7546771E-02  0.1239150E+00
         21   -1    0    0  501  502  0.00000000000E+00  0.00000000000E+00  0.58945481678E+03  0.58945481678E+03  0.00000000000E+00 0. -1.
          2   -1    0    0  503    0 -0.00000000000E+00 -0.00000000000E+00 -0.15055092330E+03  0.15055092330E+03  0.00000000000E+00 0. -1.
         23    2    1    2    0    0  0.69329289048E+02 -0.82495026038E+02 -0.37464032578E+02  0.14650405292E+03  0.91912480901E+02 0.  0.
         24    2    1    2    0    0 -0.60472686476E+02  0.77731071517E+01  0.43160383805E+02  0.11124251752E+03  0.82430042888E+02 0.  0.
        -11    1    4    4    0    0  0.18706593896E+02 -0.97484718206E+01  0.12659611177E+02  0.24601526644E+02  0.00000000000E+00 0.  1.
         12    1    4    4    0    0 -0.79179280372E+02  0.17521578972E+02  0.30500772628E+02  0.86640990881E+02  0.00000000000E+00 0. -1.
        -11    1    3    3    0    0  0.33484557135E+02 -0.89393585509E+02 -0.18071634957E+01  0.95476146427E+02  0.00000000000E+00 0. -1.
         11    1    3    3    0    0  0.35844731913E+02  0.68985594713E+01 -0.35656869083E+02  0.51027906497E+02  0.00000000000E+00 0.  1.
         21    1    1    2  503  502  0.11802723013E+02  0.92922984299E+02  0.44318356307E+03  0.45297423311E+03  0.00000000000E+00 0. -1.
          1    1    1    2  501    0 -0.20659325584E+02 -0.18201065413E+02 -0.99760208150E+01  0.29284936521E+02  0.00000000000E+00 0. -1.
<scales pt_clust_5="13000.00000" pt_clust_6="13000.00000" pt_clust_7="13000.00000" pt_clust_8="13000.00000" pt_clust_9="78.96673" pt_clust_10="27.53338"></scales>
<clustering>
<clus scale="   27.533">  1 10  2 -1</clus>
<clus scale="   78.967">  1  9  2 -1</clus>
<clus scale="   82.430">  5  6 -1 -1</clus>
<clus scale="   91.912">  7  8 -1 -1</clus>
<clus scale="  117.327">  1  5  2 -1</clus>
<clus scale="   27.533">  1  5  2 -1</clus>
</clustering>
</event>
<event>
10    4  0.7697601E-005  0.1122366E+03  0.7546771E-02  0.1261512E+00
          2   -1    0    0  503    0 -0.00000000000E+00  0.00000000000E+00  0.15353978804E+04  0.15353978804E+04  0.00000000000E+00 0. -1.
         21   -1    0    0  501  502  0.00000000000E+00 -0.00000000000E+00 -0.34797484423E+02  0.34797484423E+02  0.00000000000E+00 0. -1.
         24    2    1    2    0    0 -0.10704237818E+02 -0.76992688555E+02  0.93199364619E+03  0.93869110236E+03  0.80538030277E+02 0.  0.
         23    2    1    2    0    0 -0.14725023170E+02  0.39457866918E+02  0.51573583464E+03  0.52583866340E+03  0.93536619718E+02 0.  0.
        -11    1    3    3    0    0  0.20093113269E+02 -0.12209015623E+02  0.72670454302E+02  0.76379239272E+02  0.00000000000E+00 0.  1.
         12    1    3    3    0    0 -0.30797351087E+02 -0.64783672932E+02  0.85932319189E+03  0.86231186309E+03  0.00000000000E+00 0. -1.
        -11    1    4    4    0    0  0.26930464192E+02  0.52055106023E+02  0.32006250718E+03  0.32538437649E+03  0.00000000000E+00 0.  1.
         11    1    4    4    0    0 -0.41655487362E+02 -0.12597239105E+02  0.19567332746E+03  0.20045428691E+03  0.00000000000E+00 0. -1.
         21    1    1    2  503  502  0.80650304976E+00 -0.21451376786E+02  0.31791668680E+02  0.38360425058E+02  0.00000000000E+00 0. -1.
          1    1    1    2  501    0  0.24622757938E+02  0.58986198423E+02  0.21079246441E+02  0.67305173972E+02  0.00000000000E+00 0. -1.
<scales pt_clust_5="13000.00000" pt_clust_6="13000.00000" pt_clust_7="13000.00000" pt_clust_8="13000.00000" pt_clust_9="21.46653" pt_clust_10="50.06570"></scales>
<clustering>
<clus scale="   21.467">  2  9  1 -1</clus>
<clus scale="   50.066">  2 10  1 -1</clus>
<clus scale="   80.538">  5  6 -1 -1</clus>
<clus scale="   93.537">  7  8 -1 -1</clus>
<clus scale="  101.658">  1  5  2 -1</clus>
<clus scale="   21.467">  2  5  1 -1</clus>
</clustering>
</event>
<event>
10    4  0.7697601E-005  0.1365186E+03  0.7546771E-02  0.1233198E+00
          2   -1    0    0  503    0 -0.00000000000E+00  0.00000000000E+00  0.34480289991E+03  0.34480289991E+03  0.00000000000E+00 0. -1.
         21   -1    0    0  501  502  0.00000000000E+00 -0.00000000000E+00 -0.13095620945E+03  0.13095620945E+03  0.00000000000E+00 0.  1.
         24    2    1    2    0    0  0.48449180055E+02  0.31049120144E+02  0.16449890346E+02  0.97471832879E+02  0.76933662351E+02 0.  0.
         23    2    1    2    0    0  0.54082109684E+02 -0.54869818550E+01  0.17947654742E+03  0.20816598296E+03  0.90367382546E+02 0.  0.
        -13    1    3    3    0    0  0.23026034794E+01 -0.23185936626E+02 -0.33992002246E+01  0.23546638872E+02  0.00000000000E+00 0.  1.
         14    1    3    3    0    0  0.46146576575E+02  0.54235056770E+02  0.19849090571E+02  0.73925194007E+02  0.00000000000E+00 0. -1.
        -13    1    4    4    0    0  0.27045085089E+01  0.31312647823E+02  0.10929330973E+03  0.11372257398E+03  0.00000000000E+00 0.  1.
         13    1    4    4    0    0  0.51377601175E+02 -0.36799629678E+02  0.70183237689E+02  0.94443408978E+02  0.00000000000E+00 0. -1.
         21    1    1    2  503  502  0.29006693172E+02 -0.21856342080E+02 -0.46290998753E+01  0.36613064656E+02  0.00000000000E+00 0.  1.
          1    1    1    2  501    0 -0.13153798291E+03 -0.37057962091E+01  0.22549352563E+02  0.13350822887E+03  0.00000000000E+00 0. -1.
<scales pt_clust_5="13000.00000" pt_clust_6="13000.00000" pt_clust_7="13000.00000" pt_clust_8="13000.00000" pt_clust_9="36.31925" pt_clust_10="102.32823"></scales>
<clustering>
<clus scale="   36.319">  2  9  1 -1</clus>
<clus scale="   76.934">  5  6 -1 -1</clus>
<clus scale="   90.367">  7  8 -1 -1</clus>
<clus scale="   99.708">  1  5  2 -1</clus>
<clus scale="  102.328">  2 10  1 -1</clus>
<clus scale="   36.319">  2  5  1 -1</clus>
</clustering>
</event>
<event>
10    4  0.7697601E-005  0.9258441E+02  0.7546771E-02  0.1301266E+00
          2   -1    0    0  503    0 -0.00000000000E+00  0.00000000000E+00  0.28763165622E+03  0.28763165622E+03  0.00000000000E+00 0. -1.
         21   -1    0    0  501  502  0.00000000000E+00 -0.00000000000E+00 -0.24850176765E+03  0.24850176765E+03  0.00000000000E+00 0.  1.
         23    2    1    2    0    0 -0.67511190672E+01 -0.28015092414E+02  0.11706060569E+03  0.15053488303E+03  0.90150666065E+02 0.  0.
         24    2    1    2    0    0 -0.22730063274E+02 -0.16688811961E+02 -0.68476209015E+02  0.11083410754E+03  0.82462330624E+02 0.  0.
        -13    1    4    4    0    0 -0.24253887966E+02 -0.11235679341E+02 -0.87235569625E+02  0.91238896198E+02  0.00000000000E+00 0.  1.
         14    1    4    4    0    0  0.15238246919E+01 -0.54531326202E+01  0.18759360609E+02  0.19595211342E+02  0.00000000000E+00 0. -1.
        -13    1    3    3    0    0 -0.46402429508E+02 -0.16762055102E+02  0.85141730812E+02  0.98403588762E+02  0.00000000000E+00 0. -1.
         13    1    3    3    0    0  0.39651310440E+02 -0.11253037313E+02  0.31918874878E+02  0.52131294266E+02  0.00000000000E+00 0.  1.
         21    1    1    2  503  502  0.56515132664E+02  0.27836968789E+02 -0.13300527819E+03  0.14717085675E+03  0.00000000000E+00 0.  1.
          1    1    1    2  501    0 -0.27033950323E+02  0.16866935587E+02  0.12355077008E+03  0.12759357654E+03  0.00000000000E+00 0. -1.
<scales pt_clust_5="13000.00000" pt_clust_6="13000.00000" pt_clust_7="13000.00000" pt_clust_8="13000.00000" pt_clust_9="55.62242" pt_clust_10="31.86423"></scales>
<clustering>
<clus scale="   31.864">  2 10  1 -1</clus>
<clus scale="   55.622">  2  9  1 -1</clus>
<clus scale="   82.462">  5  6 -1 -1</clus>
<clus scale="   85.116">  2  5  1 -1</clus>
<clus scale="   90.151">  7  8 -1 -1</clus>
<clus scale="   31.864">  2  5  1 -1</clus>
</clustering>
</event>
<event>
10    4  0.7697601E-005  0.1056141E+03  0.7546771E-02  0.1272108E+00
          2   -1    0    0  502    0 -0.00000000000E+00  0.00000000000E+00  0.10064331686E+03  0.10064331686E+03  0.00000000000E+00 0. -1.
         21   -1    0    0  503  502  0.00000000000E+00 -0.00000000000E+00 -0.24925508201E+03  0.24925508201E+03  0.00000000000E+00 0. -1.
         24    2    1    2    0    0  0.25143148256E+02 -0.29725520045E+02 -0.15115315516E+02  0.93703675737E+02  0.83881592959E+02 0.  0.
         23    2    1    2    0    0 -0.55694885481E+02  0.74254543076E+02 -0.12379611791E+03  0.17964467488E+03  0.91274711541E+02 0.  0.
        -13    1    3    3    0    0  0.35417207206E+02  0.20681606872E+02 -0.76614854009E+01  0.41722964751E+02  0.00000000000E+00 0.  1.
         14    1    3    3    0    0 -0.10274058949E+02 -0.50407126917E+02 -0.74538301148E+01  0.51980710987E+02  0.00000000000E+00 0. -1.
        -11    1    4    4    0    0 -0.13653769118E+02 -0.21549359340E+02 -0.22390200725E+02  0.33942913658E+02  0.00000000000E+00 0.  1.
         11    1    4    4    0    0 -0.42041116363E+02  0.95803902415E+02 -0.10140591718E+03  0.14570176122E+03  0.00000000000E+00 0. -1.
         21    1    1    2  503  501  0.19986491837E+02 -0.12950419799E+02 -0.29419063648E+02  0.37850423179E+02  0.00000000000E+00 0.  1.
          1    1    1    2  501    0  0.10565245388E+02 -0.31578603232E+02  0.19718731921E+02  0.38699625073E+02  0.00000000000E+00 0. -1.
<scales pt_clust_5="13000.00000" pt_clust_6="13000.00000" pt_clust_7="13000.00000" pt_clust_8="13000.00000" pt_clust_9="23.81540" pt_clust_10="34.12508"></scales>
<clustering>
<clus scale="   23.815">  2  9  1 -1</clus>
<clus scale="   34.125">  2 10  1 -1</clus>
<clus scale="   83.882">  5  6 -1 -1</clus>
<clus scale="   91.275">  7  8 -1 -1</clus>
<clus scale="   99.294">  1  5  2 -1</clus>
<clus scale="   23.815">  2  5  1 -1</clus>
</clustering>
</event>
<event>
10    4  0.7697601E-005  0.1404190E+03  0.7546771E-02  0.1237388E+00
         21   -1    0    0  503  502  0.00000000000E+00  0.00000000000E+00  0.18207516336E+03  0.18207516336E+03  0.00000000000E+00 0. -1.
          2   -1    0    0  502    0 -0.00000000000E+00 -0.00000000000E+00 -0.42859033074E+03  0.42859033074E+03  0.00000000000E+00 0. -1.
         24    2    1    2    0    0 -0.56638573372E+01  0.26345475653E+02 -0.30329201720E+03  0.31473570909E+03  0.79664016409E+02 0.  0.
         23    2    1    2    0    0  0.32062790187E+02  0.83052032646E+02 -0.51514351949E+02  0.13695875838E+03  0.90434011289E+02 0.  0.
        -11    1    3    3    0    0 -0.31941380501E+02 -0.85807891424E+01 -0.70454064885E+02  0.77830951359E+02  0.00000000000E+00 0.  1.
         12    1    3    3    0    0  0.26277523164E+02  0.34926264795E+02 -0.23283795232E+03  0.23690475773E+03  0.00000000000E+00 0. -1.
        -11    1    4    4    0    0 -0.23229675269E+02  0.58406643872E+02 -0.10226739828E+02  0.63683122325E+02  0.00000000000E+00 0. -1.
         11    1    4    4    0    0  0.55292465456E+02  0.24645388774E+02 -0.41287612121E+02  0.73275636051E+02  0.00000000000E+00 0.  1.
         21    1    1    2  503  501 -0.21300227388E+02 -0.42638560762E+02  0.58910328538E+02  0.75777129525E+02  0.00000000000E+00 0. -1.
          1    1    1    2  501    0 -0.50987054613E+01 -0.66758947538E+02  0.49380873236E+02  0.83193897103E+02  0.00000000000E+00 0. -1.
<scales pt_clust_5="13000.00000" pt_clust_6="13000.00000" pt_clust_7="13000.00000" pt_clust_8="13000.00000" pt_clust_9="25.03029" pt_clust_10="111.44172"></scales>
<clustering>
<clus scale="   25.030">  9 10 -1 -1</clus>
<clus scale="   79.664">  5  6 -1 -1</clus>
<clus scale="   84.098">  2  5  1 -1</clus>
<clus scale="   90.434">  7  8 -1 -1</clus>
<clus scale="  111.442">  1  9  2 -1</clus>
<clus scale="  111.442">  1  5  2 -1</clus>
</clustering>
</event>
<event>
10    4  0.7697601E-005  0.8744225E+02  0.7546771E-02  0.1312085E+00
         21   -1    0    0  501  502  0.00000000000E+00  0.00000000000E+00  0.52854429389E+02  0.52854429389E+02  0.00000000000E+00 0.  1.
          2   -1    0    0  503    0 -0.00000000000E+00 -0.00000000000E+00 -0.47713106263E+03  0.47713106263E+03  0.00000000000E+00 0. -1.
         24    2    1    2    0    0  0.47323698475E+01 -0.88332813375E+01 -0.28115288114E+03  0.29301104502E+03  0.81903038693E+02 0.  0.
         23    2    1    2    0    0 -0.13214110216E+02  0.23355741191E+02 -0.48717727827E+02  0.10280823550E+03  0.86463940041E+02 0.  0.
        -11    1    3    3    0    0 -0.73052031307E+01  0.32926168715E+02 -0.73638688833E+02  0.80994784227E+02  0.00000000000E+00 0.  1.
         12    1    3    3    0    0  0.12037572978E+02 -0.41759450052E+02 -0.20751419231E+03  0.21201626079E+03  0.00000000000E+00 0. -1.
        -11    1    4    4    0    0 -0.33138277855E+02  0.31100298101E+02  0.42940667378E+01  0.45648800754E+02  0.00000000000E+00 0.  1.
         11    1    4    4    0    0  0.19924167639E+02 -0.77445569100E+01 -0.53011794565E+02  0.57159434749E+02  0.00000000000E+00 0. -1.
         21    1    1    2  503  502  0.84839894590E+00  0.20639392847E+02  0.10563587745E+02  0.23201157383E+02  0.00000000000E+00 0.  1.
          1    1    1    2  501    0  0.76333414230E+01 -0.35161852700E+02 -0.10496961202E+03  0.11096505411E+03  0.00000000000E+00 0. -1.
<scales pt_clust_5="13000.00000" pt_clust_6="13000.00000" pt_clust_7="13000.00000" pt_clust_8="13000.00000" pt_clust_9="20.65682" pt_clust_10="34.31782"></scales>
<clustering>
<clus scale="   20.657">  1  9  2 -1</clus>
<clus scale="   34.318">  1 10  2 -1</clus>
<clus scale="   81.903">  5  6 -1 -1</clus>
<clus scale="   82.935">  2  5  1 -1</clus>
<clus scale="   86.464">  7  8 -1 -1</clus>
<clus scale="   20.657">  1  5  2 -1</clus>
</clustering>
</event>
<event>
10    4  0.7697601E-005  0.1930441E+03  0.7546771E-02  0.1156883E+00
         21   -1    0    0  503  502  0.00000000000E+00  0.00000000000E+00  0.23345743408E+03  0.23345743408E+03  0.00000000000E+00 0. -1.
          2   -1    0    0  502    0 -0.00000000000E+00 -0.00000000000E+00 -0.71471960230E+03  0.71471960230E+03  0.00000000000E+00 0. -1.
         24    2    1    2    0    0 -0.91028247226E+02  0.15969921966E+03 -0.81311369064E+02  0.21649588506E+03  0.80429764116E+02 0.  0.
         23    2    1    2    0    0 -0.11311504716E+03 -0.18553090498E+03  0.36402024280E+02  0.23863856506E+03  0.91687113405E+02 0.  0.
        -13    1    3    3    0    0  0.92464422457E+01  0.29679248273E+02 -0.33009868135E+02  0.45343200885E+02  0.00000000000E+00 0.  1.
         14    1    3    3    0    0 -0.10027468947E+03  0.13001997139E+03 -0.48301500929E+02  0.17115268418E+03  0.00000000000E+00 0. -1.
        -13    1    4    4    0    0 -0.39065409309E+02 -0.47363568587E+02  0.52861861015E+02  0.81017221526E+02  0.00000000000E+00 0.  1.
         13    1    4    4    0    0 -0.74049637853E+02 -0.13816733639E+03 -0.16459836735E+02  0.15762134353E+03  0.00000000000E+00 0. -1.
         21    1    1    2  503  501  0.15975764416E+02 -0.14793603211E+02 -0.76077721229E+01  0.23064126719E+02  0.00000000000E+00 0. -1.
          1    1    1    2  501    0  0.18816752997E+03  0.40625288526E+02 -0.42874505131E+03  0.46997845954E+03  0.00000000000E+00 0. -1.
<scales pt_clust_5="13000.00000" pt_clust_6="13000.00000" pt_clust_7="13000.00000" pt_clust_8="13000.00000" pt_clust_9="21.77328" pt_clust_10="193.65114"></scales>
<clustering>
<clus scale="   21.773">  1  9  2 -1</clus>
<clus scale="   80.430">  5  6 -1 -1</clus>
<clus scale="   91.687">  7  8 -1 -1</clus>
<clus scale="  193.651">  1 10  2 -1</clus>
<clus scale="  187.959">  2  5  1 -1</clus>
<clus scale="   21.773">  1  5  2 -1</clus>
</clustering>
</event>
<event>
10    4  0.7697601E-005  0.2632043E+03  0.7546771E-02  0.1116273E+00
         -1   -1    0    0    0  501 -0.00000000000E+00  0.00000000000E+00  0.15810276654E+04  0.15810276654E+04  0.00000000000E+00 0.  1.
         21   -1    0    0  501  502  0.00000000000E+00 -0.00000000000E+00 -0.15913203209E+03  0.15913203209E+03  0.00000000000E+00 0.  1.
         24    2    1    2    0    0 -0.18322455232E+03 -0.12552366477E+02  0.95027071869E+03  0.97091168713E+03  0.76982250771E+02 0.  0.
         23    2    1    2    0    0  0.14885620681E+03 -0.20305576561E+03  0.98175687656E+02  0.28497018432E+03  0.90441837965E+02 0.  0.
        -11    1    3    3    0    0 -0.16057602840E+03 -0.24402774016E+02  0.89975346458E+03  0.91429560499E+03  0.00000000000E+00 0.  1.
         12    1    3    3    0    0 -0.22648523920E+02  0.11850407540E+02  0.50517254111E+02  0.56616082146E+02  0.00000000000E+00 0. -1.
        -13    1    4    4    0    0  0.11044522015E+03 -0.19658026164E+03  0.67438680921E+02  0.23535063544E+03  0.00000000000E+00 0.  1.
         13    1    4    4    0    0  0.38410986664E+02 -0.64755039690E+01  0.30737006735E+02  0.49619548881E+02  0.00000000000E+00 0. -1.
         21    1    1    2  503  502  0.83127654919E+01 -0.35625364073E+02  0.40840516781E+01  0.36809619851E+02  0.00000000000E+00 0.  1.
         -2    1    1    2    0  503  0.26055580022E+02  0.25123349616E+03  0.36936517532E+03  0.44746820623E+03  0.00000000000E+00 0.  1.
<scales pt_clust_5="13000.00000" pt_clust_6="13000.00000" pt_clust_7="13000.00000" pt_clust_8="13000.00000" pt_clust_9="36.58235" pt_clust_10="247.17777"></scales>
<clustering>
<clus scale="   36.582">  2  9  1 -1</clus>
<clus scale="   76.982">  5  6 -1 -1</clus>
<clus scale="   90.442">  7  8 -1 -1</clus>
<clus scale="  198.762">  1  5  2 -1</clus>
<clus scale="  247.178">  2 10  1 -1</clus>
<clus scale="   36.582">  2  5  1 -1</clus>
</clustering>
</event>
<event>
10    4  0.7697601E-005  0.1405591E+03  0.7546771E-02  0.1239719E+00
          2   -1    0    0  502    0 -0.00000000000E+00  0.00000000000E+00  0.92489769780E+02  0.92489769780E+02  0.00000000000E+00 0. -1.
         21   -1    0    0  503  502  0.00000000000E+00 -0.00000000000E+00 -0.38334203925E+03  0.38334203925E+03  0.00000000000E+00 0.  1.
         24    2    1    2    0    0  0.47801184319E+01  0.16683241638E+02 -0.70063496884E+02  0.10679066855E+03  0.78703069886E+02 0.  0.
         23    2    1    2    0    0 -0.11695383047E+03  0.22396588697E+02 -0.10568230074E+03  0.18428022023E+03  0.92793562452E+02 0.  0.
        -11    1    3    3    0    0  0.28133587868E+02 -0.17689584011E+02 -0.51466395180E+02  0.61263447354E+02  0.00000000000E+00 0.  1.
         12    1    3    3    0    0 -0.23353469436E+02  0.34372825650E+02 -0.18597101704E+02  0.45527221194E+02  0.00000000000E+00 0. -1.
        -13    1    4    4    0    0 -0.71393712962E+02 -0.11845518313E+02 -0.10204633537E+02  0.73085655913E+02  0.00000000000E+00 0. -1.
         13    1    4    4    0    0 -0.45560117509E+02  0.34242107010E+02 -0.95477667204E+02  0.11119456432E+03  0.00000000000E+00 0.  1.
         21    1    1    2  503  501  0.16766956894E+02 -0.21960129392E+02 -0.74879990385E+02  0.79814729759E+02  0.00000000000E+00 0.  1.
          1    1    1    2  501    0  0.95406755145E+02 -0.17119700943E+02 -0.40226481461E+02  0.10494619049E+03  0.00000000000E+00 0. -1.
<scales pt_clust_5="13000.00000" pt_clust_6="13000.00000" pt_clust_7="13000.00000" pt_clust_8="13000.00000" pt_clust_9="27.62930" pt_clust_10="105.57564"></scales>
<clustering>
<clus scale="   27.629">  2  9  1 -1</clus>
<clus scale="   78.703">  5  6 -1 -1</clus>
<clus scale="   79.961">  1  5  2 -1</clus>
<clus scale="   92.794">  7  8 -1 -1</clus>
<clus scale="  105.576">  2 10  1 -1</clus>
<clus scale="   27.629">  2  5  1 -1</clus>
</clustering>
</event>
<event>
10    4  0.7697601E-005  0.1330816E+03  0.7546771E-02  0.1240860E+00
         21   -1    0    0  503  502  0.00000000000E+00  0.00000000000E+00  0.36022854123E+03  0.36022854123E+03  0.00000000000E+00 0. -1.
          2   -1    0    0  502    0 -0.00000000000E+00 -0.00000000000E+00 -0.16865960849E+03  0.16865960849E+03  0.00000000000E+00 0. -1.
         24    2    1    2    0    0 -0.61391885073E+02 -0.86225973675E+01  0.83476153333E+02  0.13154028162E+03  0.80568385710E+02 0.  0.
         23    2    1    2    0    0  0.98907600306E+02  0.69472136755E+02 -0.56466062189E+02  0.15807775547E+03  0.84800173426E+02 0.  0.
        -13    1    3    3    0    0 -0.39912511338E+02 -0.69449403604E+01 -0.46873207887E+01  0.40782492986E+02  0.00000000000E+00 0.  1.
         14    1    3    3    0    0 -0.21479373734E+02 -0.16776570070E+01  0.88163474122E+02  0.90757788637E+02  0.00000000000E+00 0. -1.
        -11    1    4    4    0    0  0.82098813936E+02  0.65375136671E+01 -0.27991050175E+02  0.86985362129E+02  0.00000000000E+00 0.  1.
         11    1    4    4    0    0  0.16808786370E+02  0.62934623088E+02 -0.28475012013E+02  0.71092393346E+02  0.00000000000E+00 0. -1.
         21    1    1    2  503  501  0.41504397292E+02  0.23380294810E+02  0.89915230628E+02  0.10175461601E+03  0.00000000000E+00 0. -1.
          1    1    1    2  501    0 -0.79020112525E+02 -0.84229834198E+02  0.74643610967E+02  0.13751549662E+03  0.00000000000E+00 0. -1.
<scales pt_clust_5="13000.00000" pt_clust_6="13000.00000" pt_clust_7="13000.00000" pt_clust_8="13000.00000" pt_clust_9="47.63668" pt_clust_10="102.56530"></scales>
<clustering>
<clus scale="   47.637">  1  9  2 -1</clus>
<clus scale="   80.568">  5  6 -1 -1</clus>
<clus scale="   84.800">  7  8 -1 -1</clus>
<clus scale="   92.053">  2  5  1 -1</clus>
<clus scale="  102.565">  1 10  2 -1</clus>
<clus scale="   47.637">  1  5  2 -1</clus>
</clustering>
</event>
<event>
10    4  0.7697601E-005  0.1990325E+03  0.7546771E-02  0.1151459E+00
         21   -1    0    0  503  502  0.00000000000E+00  0.00000000000E+00  0.19067307476E+03  0.19067307476E+03  0.00000000000E+00 0. -1.
          2   -1    0    0  502    0 -0.00000000000E+00 -0.00000000000E+00 -0.29473839920E+03  0.29473839920E+03  0.00000000000E+00 0. -1.
         23    2    1    2    0    0 -0.16290226818E+03 -0.20801370039E+01 -0.67206853457E+02  0.19857921611E+03  0.91517582856E+02 0.  0.
         24    2    1    2    0    0  0.19341362887E+03 -0.87252387881E+00 -0.60324451435E+02  0.21856781281E+03  0.81995464667E+02 0.  0.
        -13    1    4    4    0    0  0.11763475815E+02 -0.21466181257E+02  0.39285611700E+01  0.24791326989E+02  0.00000000000E+00 0.  1.
         14    1    4    4    0    0  0.18165015305E+03  0.20593657378E+02 -0.64253012605E+02  0.19377648582E+03  0.00000000000E+00 0. -1.
        -13    1    3    3    0    0 -0.12753164637E+03  0.29583160971E+02 -0.21484850064E+02  0.13266907334E+03  0.00000000000E+00 0. -1.
         13    1    3    3    0    0 -0.35370621809E+02 -0.31663297974E+02 -0.45722003393E+02  0.65910142770E+02  0.00000000000E+00 0.  1.
         21    1    1    2  503  501 -0.18237778006E+01  0.21792444491E+02  0.25851891307E+02  0.33860848875E+02  0.00000000000E+00 0. -1.
          1    1    1    2  501    0 -0.28687582893E+02 -0.18839783608E+02 -0.23859108599E+01  0.34403596168E+02  0.00000000000E+00 0. -1.
<scales pt_clust_5="13000.00000" pt_clust_6="13000.00000" pt_clust_7="13000.00000" pt_clust_8="13000.00000" pt_clust_9="21.86863" pt_clust_10="33.33661"></scales>
<clustering>
<clus scale="   21.869">  1  9  2 -1</clus>
<clus scale="   33.337">  1 10  2 -1</clus>
<clus scale="   81.995">  5  6 -1 -1</clus>
<clus scale="   91.518">  7  8 -1 -1</clus>
<clus scale="  194.838">  1  5  2 -1</clus>
<clus scale="   21.869">  1  5  2 -1</clus>
</clustering>
</event>
<event>
10    4  0.7697601E-005  0.2714474E+03  0.7546771E-02  0.1101036E+00
          2   -1    0    0  503    0 -0.00000000000E+00  0.00000000000E+00  0.12856393101E+04  0.12856393101E+04  0.00000000000E+00 0. -1.
         21   -1    0    0  501  502  0.00000000000E+00 -0.00000000000E+00 -0.38192892139E+03  0.38192892139E+03  0.00000000000E+00 0.  1.
         23    2    1    2    0    0 -0.22686323124E+03  0.10276816893E+03  0.10143306017E+04  0.10484860496E+04  0.91805253489E+02 0.  0.
         24    2    1    2    0    0  0.29205941394E+03 -0.19308215641E+03 -0.10894855731E+03  0.37508275111E+03  0.78980134505E+02 0.  0.
        -11    1    4    4    0    0  0.19767132076E+03 -0.12914248866E+03 -0.11133823923E+03  0.26105159824E+03  0.00000000000E+00 0.  1.
         12    1    4    4    0    0  0.94388093181E+02 -0.63939667747E+02  0.23896819156E+01  0.11403115287E+03  0.00000000000E+00 0. -1.
        -11    1    3    3    0    0 -0.20081375042E+03  0.11863959751E+03  0.85392772839E+03  0.88520849621E+03  0.00000000000E+00 0. -1.
         11    1    3    3    0    0 -0.26049480824E+02 -0.15871428579E+02  0.16040287327E+03  0.16327755342E+03  0.00000000000E+00 0.  1.
         21    1    1    2  503  502 -0.13492380767E+03  0.27368476854E+02 -0.38732493206E+02  0.14301633973E+03  0.00000000000E+00 0.  1.
          1    1    1    2  501    0  0.69727624966E+02  0.62945510619E+02  0.37060837568E+02  0.10098309102E+03  0.00000000000E+00 0. -1.
<scales pt_clust_5="13000.00000" pt_clust_6="13000.00000" pt_clust_7="13000.00000" pt_clust_8="13000.00000" pt_clust_9="124.72885" pt_clust_10="93.93657"></scales>
<clustering>
<clus scale="   78.980">  5  6 -1 -1</clus>
<clus scale="   91.805">  7  8 -1 -1</clus>
<clus scale="   93.937">  2 10  1 -1</clus>
<clus scale="  124.729">  2  9  1 -1</clus>
<clus scale="  267.382">  2  5  1 -1</clus>
<clus scale="   93.937">  2  5  1 -1</clus>
</clustering>
</event>
<event>
10    4  0.7697601E-005  0.9513923E+02  0.7546771E-02  0.1296640E+00
         21   -1    0    0  501  502  0.00000000000E+00  0.00000000000E+00  0.38721094331E+03  0.38721094331E+03  0.00000000000E+00 0. -1.
         -1   -1    0    0    0  501 -0.00000000000E+00 -0.00000000000E+00 -0.11195274485E+03  0.11195274485E+03  0.00000000000E+00 0.  1.
         23    2    1    2    0    0  0.34553297498E+02 -0.71323000646E+01  0.42604567531E+02  0.10723277735E+03  0.91863590673E+02 0.  0.
         24    2    1    2    0    0  0.31666569634E+02 -0.88570491272E+02  0.19852126847E+03  0.23440372507E+03  0.81773520999E+02 0.  0.
        -13    1    4    4    0    0  0.50210853724E+02 -0.21928821299E+02  0.99948496086E+02  0.11398116031E+03  0.00000000000E+00 0.  1.
         14    1    4    4    0    0 -0.18544284090E+02 -0.66641669973E+02  0.98572772384E+02  0.12042256477E+03  0.00000000000E+00 0. -1.
        -13    1    3    3    0    0  0.16226422837E+01 -0.46256477993E+02  0.27810982410E+02  0.53997643161E+02  0.00000000000E+00 0.  1.
         13    1    3    3    0    0  0.32930655214E+02  0.39124177928E+02  0.14793585121E+02  0.53235134189E+02  0.00000000000E+00 0. -1.
         21    1    1    2  503  502 -0.32669589306E+02  0.14609696215E+02  0.56574806865E+02  0.66943663335E+02  0.00000000000E+00 0. -1.
         -2    1    1    2    0  503 -0.33550277826E+02  0.81093095122E+02 -0.22442444407E+02  0.90583522395E+02  0.00000000000E+00 0.  1.
<scales pt_clust_5="13000.00000" pt_clust_6="13000.00000" pt_clust_7="13000.00000" pt_clust_8="13000.00000" pt_clust_9="35.78750" pt_clust_10="90.51685"></scales>
<clustering>
<clus scale="   35.788">  1  9  2 -1</clus>
<clus scale="   81.774">  5  6 -1 -1</clus>
<clus scale="   90.517">  1 10  2 -1</clus>
<clus scale="   85.437">  1  5  2 -1</clus>
<clus scale="   91.864">  7  8 -1 -1</clus>
<clus scale="   35.788">  1  5  2 -1</clus>
</clustering>
</event>
<event>
10    4  0.7697601E-005  0.1800916E+03  0.7546771E-02  0.1178268E+00
          4   -1    0    0  503    0 -0.00000000000E+00  0.00000000000E+00  0.13101983652E+03  0.13101983652E+03  0.00000000000E+00 0. -1.
         21   -1    0    0  501  502  0.00000000000E+00 -0.00000000000E+00 -0.68913607480E+03  0.68913607480E+03  0.00000000000E+00 0.  1.
         24    2    1    2    0    0 -0.76063206423E+02 -0.64184341289E+02 -0.17512155289E+03  0.21748779678E+03  0.82025254787E+02 0.  0.
         23    2    1    2    0    0 -0.72323241182E+01  0.18699947030E+03 -0.21946739804E+03  0.30337008000E+03  0.94055080838E+02 0.  0.
        -13    1    3    3    0    0 -0.73983402430E+02 -0.14097882944E+02 -0.79423518613E+02  0.10945496539E+03  0.00000000000E+00 0.  1.
         14    1    3    3    0    0 -0.20798039924E+01 -0.50086458345E+02 -0.95698034282E+02  0.10803283140E+03  0.00000000000E+00 0. -1.
        -13    1    4    4    0    0  0.47219872959E+01  0.14816489945E+03 -0.21681883605E+03  0.26265098945E+03  0.00000000000E+00 0.  1.
         13    1    4    4    0    0 -0.11954311414E+02  0.38834570853E+02 -0.26485619916E+01  0.40719090551E+02  0.00000000000E+00 0. -1.
         21    1    1    2  503  502 -0.67246550500E+02 -0.47531682614E+02 -0.54957525977E+02  0.99003480079E+02  0.00000000000E+00 0.  1.
          3    1    1    2  501    0  0.15054208104E+03 -0.75283446397E+02 -0.10856976136E+03  0.20029455447E+03  0.00000000000E+00 0. -1.
<scales pt_clust_5="13000.00000" pt_clust_6="13000.00000" pt_clust_7="13000.00000" pt_clust_8="13000.00000" pt_clust_9="82.34901" pt_clust_10="153.57950"></scales>
<clustering>
<clus scale="   82.025">  5  6 -1 -1</clus>
<clus scale="   82.349">  1  9  2 -1</clus>
<clus scale="   94.055">  7  8 -1 -1</clus>
<clus scale="  141.646">  1  5  2 -1</clus>
<clus scale="  153.580">  2 10  1 -1</clus>
<clus scale="  153.580">  2  5  1 -1</clus>
</clustering>
</event>
<event>
10    4  0.7697601E-005  0.3828631E+03  0.7546771E-02  0.1078542E+00
          2   -1    0    0  502    0 -0.00000000000E+00  0.00000000000E+00  0.11971450644E+04  0.11971450644E+04  0.00000000000E+00 0. -1.
         21   -1    0    0  503  502  0.00000000000E+00 -0.00000000000E+00 -0.25195883909E+03  0.25195883909E+03  0.00000000000E+00 0. -1.
         24    2    1    2    0    0 -0.11792637398E+03  0.10524396831E+03  0.24943292766E+03  0.30602479324E+03  0.80321019215E+02 0.  0.
         23    2    1    2    0    0 -0.60617241754E+02  0.34178184466E+03  0.13939125523E+03  0.38458145441E+03  0.89351517635E+02 0.  0.
        -13    1    3    3    0    0 -0.70038753422E+02  0.18612328985E+02  0.14519425474E+03  0.16227512865E+03  0.00000000000E+00 0.  1.
         14    1    3    3    0    0 -0.47887620560E+02  0.86631639320E+02  0.10423867293E+03  0.14374966458E+03  0.00000000000E+00 0. -1.
        -11    1    4    4    0    0  0.19072865361E+02  0.38976177026E+02  0.30628630665E+02  0.53113365409E+02  0.00000000000E+00 0.  1.
         11    1    4    4    0    0 -0.79690107115E+02  0.30280566764E+03  0.10876262456E+03  0.33146808900E+03  0.00000000000E+00 0. -1.
         21    1    1    2  503  501  0.46468661101E+02 -0.11570396889E+02  0.12723228901E+02  0.49548875894E+02  0.00000000000E+00 0. -1.
          1    1    1    2  501    0  0.13207495464E+03 -0.43545541608E+03  0.54363881357E+03  0.70894877999E+03  0.00000000000E+00 0. -1.
<scales pt_clust_5="13000.00000" pt_clust_6="13000.00000" pt_clust_7="13000.00000" pt_clust_8="13000.00000" pt_clust_9="47.88748" pt_clust_10="372.29102"></scales>
<clustering>
<clus scale="   47.887">  2  9  1 -1</clus>
<clus scale="   80.321">  5  6 -1 -1</clus>
<clus scale="   89.352">  7  8 -1 -1</clus>
<clus scale="  172.757">  1  5  2 -1</clus>
<clus scale="  372.291">  2 10  1 -1</clus>
<clus scale="   47.887">  2  5  1 -1</clus>
</clustering>
</event>
<event>
10    4  0.7697601E-005  0.1351857E+03  0.7546771E-02  0.1242035E+00
         21   -1    0    0  501  502  0.00000000000E+00  0.00000000000E+00  0.30790756671E+02  0.30790756671E+02  0.00000000000E+00 0. -1.
          2   -1    0    0  503    0 -0.00000000000E+00 -0.00000000000E+00 -0.18778137998E+04  0.18778137998E+04  0.00000000000E+00 0. -1.
         24    2    1    2    0    0 -0.18870461903E+01  0.30829763001E+02 -0.78080795208E+03  0.78560476414E+03  0.80992296957E+02 0.  0.
         23    2    1    2    0    0 -0.81599468511E+02 -0.51595606512E+02 -0.49686476918E+03  0.51390483703E+03  0.88898834619E+02 0.  0.
        -11    1    3    3    0    0  0.25281247032E+02 -0.19818111231E+01 -0.90559772953E+02  0.94043295902E+02  0.00000000000E+00 0.  1.
         12    1    3    3    0    0 -0.27168293222E+02  0.32811574124E+02 -0.69024817913E+03  0.69156146823E+03  0.00000000000E+00 0. -1.
        -11    1    4    4    0    0 -0.36047421424E+02  0.11315531719E+02 -0.65605045559E+02  0.75706537711E+02  0.00000000000E+00 0.  1.
         11    1    4    4    0    0 -0.45552047087E+02 -0.62911138231E+02 -0.43125972362E+03  0.43819829932E+03  0.00000000000E+00 0. -1.
         21    1    1    2  503  502 -0.12109384281E+02 -0.18771904340E+02  0.70966796233E+01  0.23438951382E+02  0.00000000000E+00 0. -1.
          1    1    1    2  501    0  0.95595898982E+02  0.39537747852E+02 -0.57644700153E+03  0.58565600397E+03  0.00000000000E+00 0. -1.
<scales pt_clust_5="13000.00000" pt_clust_6="13000.00000" pt_clust_7="13000.00000" pt_clust_8="13000.00000" pt_clust_9="22.33879" pt_clust_10="101.84396"></scales>
<clustering>
<clus scale="   22.339">  1  9  2 -1</clus>
<clus scale="   80.992">  5  6 -1 -1</clus>
<clus scale="   85.755">  2  5  1 -1</clus>
<clus scale="   88.899">  7  8 -1 -1</clus>
<clus scale="  101.844">  1 10  2 -1</clus>
<clus scale="   22.339">  1  5  2 -1</clus>
</clustering>
</event>
<event>
10    4  0.7697601E-005  0.1283336E+03  0.7546771E-02  0.1240958E+00
          2   -1    0    0  502    0 -0.00000000000E+00  0.00000000000E+00  0.28275982000E+03  0.28275982000E+03  0.00000000000E+00 0. -1.
         21   -1    0    0  503  502  0.00000000000E+00 -0.00000000000E+00 -0.12305427093E+03  0.12305427093E+03  0.00000000000E+00 0. -1.
         23    2    1    2    0    0  0.23313626597E+02 -0.41629376885E+02  0.42569315807E+01  0.10275633644E+03  0.90907716988E+02 0.  0.
         24    2    1    2    0    0  0.83875469917E+02 -0.24450620733E+02  0.91496192427E+02  0.14996555289E+03  0.80530655758E+02 0.  0.
        -11    1    4    4    0    0 -0.11481496504E+02 -0.20345962483E+02  0.17136154807E+02  0.28972931382E+02  0.00000000000E+00 0.  1.
         12    1    4    4    0    0  0.95356966421E+02 -0.41046582501E+01  0.74360037620E+02  0.12099262151E+03  0.00000000000E+00 0. -1.
        -11    1    3    3    0    0  0.41329405425E+02 -0.56125455058E+02 -0.16562151341E+02  0.71641407826E+02  0.00000000000E+00 0. -1.
         11    1    3    3    0    0 -0.18015778829E+02  0.14496078173E+02  0.20819082921E+02  0.31114928618E+02  0.00000000000E+00 0.  1.
         21    1    1    2  503  501 -0.19266310870E+02 -0.73195382537E+01 -0.23640394285E+01  0.20745000776E+02  0.00000000000E+00 0.  1.
          1    1    1    2  501    0 -0.87922785643E+02  0.73399535871E+02  0.66316464488E+02  0.13234720082E+03  0.00000000000E+00 0. -1.
<scales pt_clust_5="13000.00000" pt_clust_6="13000.00000" pt_clust_7="13000.00000" pt_clust_8="13000.00000" pt_clust_9="20.60986" pt_clust_10="99.92159"></scales>
<clustering>
<clus scale="   20.610">  2  9  1 -1</clus>
<clus scale="   80.531">  5  6 -1 -1</clus>
<clus scale="   90.908">  7  8 -1 -1</clus>
<clus scale="  102.450">  1  7  2 -1</clus>
<clus scale="   99.922">  2 10  1 -1</clus>
<clus scale="   20.610">  2  5  1 -1</clus>
</clustering>
</event>
<event>
10    4  0.7697601E-005  0.2287931E+03  0.7546771E-02  0.1144127E+00
          2   -1    0    0  502    0 -0.00000000000E+00  0.00000000000E+00  0.17089139808E+04  0.17089139808E+04  0.00000000000E+00 0. -1.
         21   -1    0    0  503  502  0.00000000000E+00 -0.00000000000E+00 -0.29081166823E+03  0.29081166823E+03  0.00000000000E+00 0. -1.
         24    2    1    2    0    0  0.50993443684E+02 -0.11957023662E+03  0.83116386692E+03  0.84512670086E+03  0.80674618350E+02 0.  0.
         23    2    1    2    0    0 -0.13270314765E+03 -0.11158261143E+03  0.28945792435E+03  0.34731467073E+03  0.82345527882E+02 0.  0.
        -11    1    3    3    0    0  0.27023832240E+02  0.37932798623E+01  0.14197303263E+03  0.14457184538E+03  0.00000000000E+00 0.  1.
         12    1    3    3    0    0  0.23969611444E+02 -0.12336351648E+03  0.68919083429E+03  0.70055485548E+03  0.00000000000E+00 0. -1.
        -13    1    4    4    0    0 -0.34895188432E+01 -0.46957537883E+02  0.80869777016E+02  0.93579420496E+02  0.00000000000E+00 0.  1.
         13    1    4    4    0    0 -0.12921362881E+03 -0.64625073549E+02  0.20858814734E+03  0.25373525023E+03  0.00000000000E+00 0. -1.
         21    1    1    2  503  501 -0.42194893382E+02 -0.13533796398E+02 -0.21849497188E+03  0.22294309904E+03  0.00000000000E+00 0. -1.
          1    1    1    2  501    0  0.12390459735E+03  0.24468664445E+03  0.51597549316E+03  0.58434117839E+03  0.00000000000E+00 0. -1.
<scales pt_clust_5="13000.00000" pt_clust_6="13000.00000" pt_clust_7="13000.00000" pt_clust_8="13000.00000" pt_clust_9="44.31222" pt_clust_10="213.46085"></scales>
<clustering>
<clus scale="   44.312">  2  9  1 -1</clus>
<clus scale="   80.675">  5  6 -1 -1</clus>
<clus scale="   82.346">  7  8 -1 -1</clus>
<clus scale="  152.706">  1  5  2 -1</clus>
<clus scale="  213.461">  2 10  1 -1</clus>
<clus scale="   44.312">  2  5  1 -1</clus>
</clustering>
</event>
<event>
10    4  0.7697601E-005  0.1084672E+03  0.7546771E-02  0.1272546E+00
          2   -1    0    0  503    0 -0.00000000000E+00  0.00000000000E+00  0.10915451373E+03  0.10915451373E+03  0.00000000000E+00 0. -1.
         21   -1    0    0  501  502  0.00000000000E+00 -0.00000000000E+00 -0.34943845143E+03  0.34943845143E+03  0.00000000000E+00 0.  1.
         24    2    1    2    0    0 -0.29469139704E+02  0.41587977200E+02  0.31266278774E+02  0.10109981139E+03  0.81520559563E+02 0.  0.
         23    2    1    2    0    0  0.69649092481E+01  0.27926587149E+02 -0.17350127864E+03  0.20268281928E+03  0.10074337353E+03 0.  0.
        -13    1    3    3    0    0  0.12582822190E+02  0.50572008213E+02  0.24441076648E+02  0.57560591177E+02  0.00000000000E+00 0.  1.
         14    1    3    3    0    0 -0.42051961894E+02 -0.89840310124E+01  0.68252021264E+01  0.43539220210E+02  0.00000000000E+00 0. -1.
        -13    1    4    4    0    0  0.37170971468E+02  0.30956554090E+02 -0.16382933321E+03  0.17082166075E+03  0.00000000000E+00 0.  1.
         13    1    4    4    0    0 -0.30206062220E+02 -0.30299669407E+01 -0.96719454296E+01  0.31861158530E+02  0.00000000000E+00 0. -1.
         21    1    1    2  503  502  0.32955408270E+02  0.85987098132E+01 -0.55846075471E+02  0.65412390953E+02  0.00000000000E+00 0.  1.
          1    1    1    2  501    0 -0.10451177813E+02 -0.78113274163E+02 -0.42202862370E+02  0.89397943546E+02  0.00000000000E+00 0. -1.
<scales pt_clust_5="13000.00000" pt_clust_6="13000.00000" pt_clust_7="13000.00000" pt_clust_8="13000.00000" pt_clust_9="34.05872" pt_clust_10="76.21104"></scales>
<clustering>
<clus scale="   34.059">  2  9  1 -1</clus>
<clus scale="   76.211">  2 10  1 -1</clus>
<clus scale="   81.521">  5  6 -1 -1</clus>
<clus scale="   90.893">  1  5  2 -1</clus>
<clus scale="  100.743">  7  8 -1 -1</clus>
<clus scale="   34.059">  2  5  1 -1</clus>
</clustering>
</event>
<event>
10    4  0.7697601E-005  0.3626765E+03  0.7546771E-02  0.1057529E+00
          2   -1    0    0  502    0 -0.00000000000E+00  0.00000000000E+00  0.10224628137E+04  0.10224628137E+04  0.00000000000E+00 0. -1.
         21   -1    0    0  503  502  0.00000000000E+00 -0.00000000000E+00 -0.14462426118E+03  0.14462426118E+03  0.00000000000E+00 0. -1.
         24    2    1    2    0    0 -0.29539420261E+02  0.51947004870E+02  0.12524257033E+03  0.16018389406E+03  0.80013185340E+02 0.  0.
         23    2    1    2    0    0 -0.12962807380E+03  0.21403017119E+03  0.22629242137E+03  0.34894766280E+03  0.89128332789E+02 0.  0.
        -11    1    3    3    0    0 -0.94508347691E+01 -0.19834561288E+02  0.13262261492E+02  0.25663508708E+02  0.00000000000E+00 0.  1.
         12    1    3    3    0    0 -0.20088585492E+02  0.71781566158E+02  0.11198030884E+03  0.13452038535E+03  0.00000000000E+00 0. -1.
        -13    1    4    4    0    0 -0.11768818562E+03  0.13232038485E+03  0.11814824741E+03  0.21288072164E+03  0.00000000000E+00 0. -1.
         13    1    4    4    0    0 -0.11939888183E+02  0.81709786343E+02  0.10814417397E+03  0.13606694116E+03  0.00000000000E+00 0.  1.
         21    1    1    2  503  501 -0.19130742184E+02 -0.24146917894E+02 -0.18399772244E+02  0.35883290804E+02  0.00000000000E+00 0.  1.
          1    1    1    2  501    0  0.17829823625E+03 -0.24183025817E+03  0.54470333306E+03  0.62207222721E+03  0.00000000000E+00 0. -1.
<scales pt_clust_5="13000.00000" pt_clust_6="13000.00000" pt_clust_7="13000.00000" pt_clust_8="13000.00000" pt_clust_9="30.80680" pt_clust_10="303.27284"></scales>
<clustering>
<clus scale="   30.807">  2  9  1 -1</clus>
<clus scale="   80.013">  5  6 -1 -1</clus>
<clus scale="   89.128">  7  8 -1 -1</clus>
<clus scale="   90.636">  5  7 -1 -1</clus>
<clus scale="  303.273">  2 10  1 -1</clus>
<clus scale="   30.807">  2  5  1 -1</clus>
</clustering>
</event>
<event>
10    4  0.7697601E-005  0.1542847E+03  0.7546771E-02  0.1206409E+00
         -3   -1    0    0    0  501 -0.00000000000E+00  0.00000000000E+00  0.53281391625E+03  0.53281391625E+03  0.00000000000E+00 0.  1.
         21   -1    0    0  503  502  0.00000000000E+00 -0.00000000000E+00 -0.12259523579E+03  0.12259523579E+03  0.00000000000E+00 0. -1.
         23    2    1    2    0    0 -0.31513829004E+02 -0.71503495007E+02  0.23641682876E+03  0.26547892825E+03  0.92088398900E+02 0.  0.
         24    2    1    2    0    0  0.14400466725E+03  0.46060390104E+02  0.13844640310E+03  0.22005951852E+03  0.79999258960E+02 0.  0.
        -13    1    4    4    0    0  0.10606414608E+03  0.46783399773E+02  0.14038687398E+03  0.18206252762E+03  0.00000000000E+00 0.  1.
         14    1    4    4    0    0  0.37940521175E+02 -0.72300966879E+00 -0.19404708879E+01  0.37996990897E+02  0.00000000000E+00 0. -1.
        -13    1    3    3    0    0 -0.20779984669E+02  0.14161098377E+02  0.10694843996E+03  0.10986497750E+03  0.00000000000E+00 0. -1.
         13    1    3    3    0    0 -0.10733844335E+02 -0.85664593384E+02  0.12946838879E+03  0.15561395076E+03  0.00000000000E+00 0.  1.
         21    1    1    2  503  501  0.19556586580E+02 -0.14106204853E+02 -0.79424744876E+01  0.25387555908E+02  0.00000000000E+00 0. -1.
         -4    1    1    2    0  502 -0.13204742483E+03  0.39549309755E+02  0.43297923097E+02  0.14448314936E+03  0.00000000000E+00 0.  1.
<scales pt_clust_5="13000.00000" pt_clust_6="13000.00000" pt_clust_7="13000.00000" pt_clust_8="13000.00000" pt_clust_9="24.11317" pt_clust_10="131.92382"></scales>
<clustering>
<clus scale="   24.113">  2  9  1 -1</clus>
<clus scale="   79.999">  5  6 -1 -1</clus>
<clus scale="   92.088">  7  8 -1 -1</clus>
<clus scale="  121.263">  1  7  2 -1</clus>
<clus scale="  131.924">  2 10  1 -1</clus>
<clus scale="   24.113">  2  5  1 -1</clus>
</clustering>
</event>
<event>
10    4  0.7697601E-005  0.1033373E+03  0.7546771E-02  0.1276424E+00
          2   -1    0    0  502    0 -0.00000000000E+00  0.00000000000E+00  0.63390279512E+03  0.63390279512E+03  0.00000000000E+00 0. -1.
         21   -1    0    0  503  502  0.00000000000E+00 -0.00000000000E+00 -0.78156345459E+03  0.78156345459E+03  0.00000000000E+00 0. -1.
         23    2    1    2    0    0 -0.34494369714E+02  0.12502512335E+02  0.34100534553E+02  0.10335725578E+03  0.90408525640E+02 0.  0.
         24    2    1    2    0    0  0.58734425170E+02 -0.62501671554E+02  0.53771227783E+03  0.55055704708E+03  0.81377986654E+02 0.  0.
        -11    1    4    4    0    0  0.22292005721E+02  0.12068429940E+02  0.52526275871E+02  0.58323153011E+02  0.00000000000E+00 0.  1.
         12    1    4    4    0    0  0.36442419449E+02 -0.74570101493E+02  0.48518600196E+03  0.49223389407E+03  0.00000000000E+00 0. -1.
        -11    1    3    3    0    0 -0.13232212541E+01 -0.37401219208E+02  0.97319990358E+01  0.38669289080E+02  0.00000000000E+00 0. -1.
         11    1    3    3    0    0 -0.33171148460E+02  0.49903731543E+02  0.24368535517E+02  0.64687966697E+02  0.00000000000E+00 0.  1.
         21    1    1    2  503  501 -0.36011293670E+02 -0.92072836504E+02 -0.39422680992E+03  0.40643449430E+03  0.00000000000E+00 0. -1.
          1    1    1    2  501    0  0.11771238214E+02  0.14207199572E+03 -0.32524666193E+03  0.35511745256E+03  0.00000000000E+00 0. -1.
<scales pt_clust_5="13000.00000" pt_clust_6="13000.00000" pt_clust_7="13000.00000" pt_clust_8="13000.00000" pt_clust_9="98.87540" pt_clust_10="63.68840"></scales>
<clustering>
<clus scale="   81.378">  5  6 -1 -1</clus>
<clus scale="   90.409">  7  8 -1 -1</clus>
<clus scale="   97.570">  1  7  2 -1</clus>
<clus scale="   98.875">  2  9  1 -1</clus>
<clus scale="   63.688">  2 10  1 -1</clus>
<clus scale="   98.875">  2  5  1 -1</clus>
</clustering>
</event>
<event>
10    4  0.7697601E-005  0.1278908E+03  0.7546771E-02  0.1244466E+00
         21   -1    0    0  503  502  0.00000000000E+00  0.00000000000E+00  0.76509232695E+02  0.76509232695E+02  0.00000000000E+00 0. -1.
          2   -1    0    0  502    0 -0.00000000000E+00 -0.00000000000E+00 -0.54146247411E+03  0.54146247411E+03  0.00000000000E+00 0. -1.
         24    2    1    2    0    0 -0.23505534509E+02  0.35682500585E+02 -0.12583307956E+03  0.15466542824E+03  0.79130776437E+02 0.  0.
         23    2    1    2    0    0  0.49278492243E+02 -0.82229081933E+02 -0.71297309249E+02  0.16611007722E+03  0.11540909727E+03 0.  0.
        -11    1    3    3    0    0  0.17236632170E+02 -0.12805654857E+02 -0.58074294431E+02  0.61916960184E+02  0.00000000000E+00 0.  1.
         12    1    3    3    0    0 -0.40742166679E+02  0.48488155442E+02 -0.67758785130E+02  0.92748468052E+02  0.00000000000E+00 0. -1.
        -13    1    4    4    0    0  0.57556472452E+02  0.81720567293E+01 -0.37826473955E+02  0.69356846556E+02  0.00000000000E+00 0.  1.
         13    1    4    4    0    0 -0.82779802097E+01 -0.90401138663E+02 -0.33470835294E+02  0.96753230660E+02  0.00000000000E+00 0. -1.
         21    1    1    2  503  501 -0.26995508133E+02  0.33136254000E+01 -0.13450193705E+01  0.27231354167E+02  0.00000000000E+00 0.  1.
          1    1    1    2  501    0  0.12225503995E+01  0.43232955949E+02 -0.26647783323E+03  0.26996484718E+03  0.00000000000E+00 0. -1.
<scales pt_clust_5="13000.00000" pt_clust_6="13000.00000" pt_clust_7="13000.00000" pt_clust_8="13000.00000" pt_clust_9="27.19812" pt_clust_10="43.32655"></scales>
<clustering>
<clus scale="   27.198">  1  9  2 -1</clus>
<clus scale="   43.327">  1 10  2 -1</clus>
<clus scale="   79.131">  5  6 -1 -1</clus>
<clus scale="   96.429">  2  5  1 -1</clus>
<clus scale="  115.409">  7  8 -1 -1</clus>
<clus scale="   27.198">  1  5  2 -1</clus>
</clustering>
</event>
<event>
10    4  0.7697601E-005  0.2887407E+03  0.7546771E-02  0.1136305E+00
          2   -1    0    0  503    0 -0.00000000000E+00  0.00000000000E+00  0.16401700378E+04  0.16401700378E+04  0.00000000000E+00 0. -1.
         21   -1    0    0  501  502  0.00000000000E+00 -0.00000000000E+00 -0.29248633892E+03  0.29248633892E+03  0.00000000000E+00 0. -1.
         23    2    1    2    0    0  0.74515396519E+01 -0.50733354443E+01  0.79729942179E+02  0.12082100612E+03  0.90330435975E+02 0.  0.
         24    2    1    2    0    0  0.17804749200E+03  0.18771976248E+03  0.53800572617E+03  0.60224734574E+03  0.79448633894E+02 0.  0.
        -11    1    4    4    0    0  0.17006488219E+03  0.18558374192E+03  0.46487523563E+03  0.52865146753E+03  0.00000000000E+00 0.  1.
         12    1    4    4    0    0  0.79826098121E+01  0.21360205588E+01  0.73130490533E+02  0.73595878206E+02  0.00000000000E+00 0. -1.
        -11    1    3    3    0    0  0.25186878683E+02 -0.41350958988E+02  0.30816498898E+02  0.57392832927E+02  0.00000000000E+00 0. -1.
         11    1    3    3    0    0 -0.17735339032E+02  0.36277623544E+02  0.48913443281E+02  0.63428173190E+02  0.00000000000E+00 0.  1.
         21    1    1    2  503  502  0.31308742330E+02  0.16435387240E+02 -0.21601430031E+03  0.21888932646E+03  0.00000000000E+00 0. -1.
          1    1    1    2  501    0 -0.21680777398E+03 -0.19908181428E+03  0.94596233082E+03  0.99069869838E+03  0.00000000000E+00 0. -1.
<scales pt_clust_5="13000.00000" pt_clust_6="13000.00000" pt_clust_7="13000.00000" pt_clust_8="13000.00000" pt_clust_9="35.36042" pt_clust_10="277.59534"></scales>
<clustering>
<clus scale="   35.360">  2  9  1 -1</clus>
<clus scale="   79.449">  5  6 -1 -1</clus>
<clus scale="   90.330">  7  8 -1 -1</clus>
<clus scale="   91.743">  1  7  2 -1</clus>
<clus scale="  277.595">  2 10  1 -1</clus>
<clus scale="   35.360">  2  5  1 -1</clus>
</clustering>
</event>
<event>
10    4  0.9992062E-005  0.9217814E+02  0.7546771E-02  0.1307428E+00
         21   -1    0    0  501  502  0.00000000000E+00  0.00000000000E+00  0.42287278362E+03  0.42287278362E+03  0.00000000000E+00 0. -1.
          4   -1    0    0  503    0 -0.00000000000E+00 -0.00000000000E+00 -0.45276195120E+03  0.45276195120E+03  0.00000000000E+00 0. -1.
         24    2    1    2    0    0 -0.53697442094E+01  0.56559785586E+01 -0.40338651664E+03  0.41067803971E+03  0.76648197940E+02 0.  0.
         23    2    1    2    0    0  0.13706657055E+02  0.26485279663E+01  0.34974581030E+02  0.99267082133E+02  0.91846856935E+02 0.  0.
        -13    1    3    3    0    0  0.26388113692E+02 -0.20830143201E+02 -0.13492780711E+03  0.13905301342E+03  0.00000000000E+00 0.  1.
         14    1    3    3    0    0 -0.31757857902E+02  0.26486121759E+02 -0.26845870953E+03  0.27162502629E+03  0.00000000000E+00 0. -1.
        -11    1    4    4    0    0  0.57967574646E+01 -0.35749548104E+02  0.45996152549E+02  0.58542964019E+02  0.00000000000E+00 0. -1.
         11    1    4    4    0    0  0.79098995903E+01  0.38398076070E+02 -0.11021571519E+02  0.40724118114E+02  0.00000000000E+00 0.  1.
         21    1    1    2  503  502 -0.53831178242E+02 -0.32098335778E+02  0.28386100447E+03  0.29069772749E+03  0.00000000000E+00 0. -1.
          3    1    1    2  501    0  0.45494265396E+02  0.23793829253E+02  0.54661763554E+02  0.74991885490E+02  0.00000000000E+00 0. -1.
<scales pt_clust_5="13000.00000" pt_clust_6="13000.00000" pt_clust_7="13000.00000" pt_clust_8="13000.00000" pt_clust_9="21.66733" pt_clust_10="51.34077"></scales>
<clustering>
<clus scale="   51.341">  1 10  2 -1</clus>
<clus scale="   21.667">  1  9  2 -1</clus>
<clus scale="   76.648">  5  6 -1 -1</clus>
<clus scale="   77.045">  2  5  1 -1</clus>
<clus scale="   91.847">  7  8 -1 -1</clus>
<clus scale="   51.341">  1  5  2 -1</clus>
</clustering>
</event>
<event>
10    4  0.7697601E-005  0.1343656E+03  0.7546771E-02  0.1237400E+00
         21   -1    0    0  501  502  0.00000000000E+00  0.00000000000E+00  0.65893702155E+03  0.65893702155E+03  0.00000000000E+00 0. -1.
          4   -1    0    0  503    0 -0.00000000000E+00 -0.00000000000E+00 -0.19300213842E+03  0.19300213842E+03  0.00000000000E+00 0. -1.
         24    2    1    2    0    0  0.73712742774E+02  0.40697798110E+02  0.35780315025E+03  0.37543011968E+03  0.76385870552E+02 0.  0.
         23    2    1    2    0    0 -0.11319408345E+02 -0.11235754120E+03 -0.11481043550E+03  0.18489717427E+03  0.90847030127E+02 0.  0.
        -13    1    3    3    0    0  0.10105062642E+01  0.26498854992E+02  0.33244276466E+02  0.42525196726E+02  0.00000000000E+00 0.  1.
         14    1    3    3    0    0  0.72702236510E+02  0.14198943118E+02  0.32455887378E+03  0.33290492296E+03  0.00000000000E+00 0. -1.
        -11    1    4    4    0    0  0.13384750365E+01 -0.48038132905E+02 -0.10895568750E+03  0.11908314560E+03  0.00000000000E+00 0. -1.
         11    1    4    4    0    0 -0.12657883382E+02 -0.64319408295E+02 -0.58547480030E+01  0.65814028667E+02  0.00000000000E+00 0.  1.
         21    1    1    2  503  502 -0.27103456499E+02 -0.21905216841E+02  0.17904043911E+03  0.18240042411E+03  0.00000000000E+00 0. -1.
          3    1    1    2  501    0 -0.35289877929E+02  0.93564959932E+02  0.43901729280E+02  0.10921144191E+03  0.00000000000E+00 0. -1.
<scales pt_clust_5="13000.00000" pt_clust_6="13000.00000" pt_clust_7="13000.00000" pt_clust_8="13000.00000" pt_clust_9="34.84876" pt_clust_10="98.99959"></scales>
<clustering>
<clus scale="   34.849">  1  9  2 -1</clus>
<clus scale="   76.386">  5  6 -1 -1</clus>
<clus scale="   90.847">  7  8 -1 -1</clus>
<clus scale="   95.960">  2  5  1 -1</clus>
<clus scale="   99.000">  1 10  2 -1</clus>
<clus scale="   34.849">  1  5  2 -1</clus>
</clustering>
</event>
<event>
10    4  0.7697601E-005  0.1090903E+03  0.7546771E-02  0.1266352E+00
         21   -1    0    0  501  502  0.00000000000E+00  0.00000000000E+00  0.47876547670E+02  0.47876547670E+02  0.00000000000E+00 0. -1.
          2   -1    0    0  503    0 -0.00000000000E+00 -0.00000000000E+00 -0.15047595214E+04  0.15047595214E+04  0.00000000000E+00 0. -1.
         23    2    1    2    0    0  0.33777065744E+02 -0.48947909118E+02 -0.60186938366E+03  0.61170250653E+03  0.91631945988E+02 0.  0.
         24    2    1    2    0    0 -0.57424459794E+02  0.29020016529E+02 -0.91280141015E+02  0.13824866914E+03  0.81491720037E+02 0.  0.
        -13    1    4    4    0    0  0.20624363816E+02  0.11602944378E+02 -0.17360894937E+02  0.29349503813E+02  0.00000000000E+00 0.  1.
         14    1    4    4    0    0 -0.78048823610E+02  0.17417072151E+02 -0.73919246078E+02  0.10889916533E+03  0.00000000000E+00 0. -1.
        -11    1    3    3    0    0  0.46837267099E+02 -0.70126384742E+02 -0.45883138597E+03  0.46651653795E+03  0.00000000000E+00 0.  1.
         11    1    3    3    0    0 -0.13060201355E+02  0.21178475625E+02 -0.14303799769E+03  0.14518596858E+03  0.00000000000E+00 0. -1.
         21    1    1    2  503  502  0.99039494401E+02 -0.19549519873E+02 -0.13687355265E+03  0.17007461478E+03  0.00000000000E+00 0. -1.
          1    1    1    2  501    0 -0.75392100351E+02  0.39477412461E+02 -0.62685989643E+03  0.63261027864E+03  0.00000000000E+00 0. -1.
<scales pt_clust_5="13000.00000" pt_clust_6="13000.00000" pt_clust_7="13000.00000" pt_clust_8="13000.00000" pt_clust_9="71.40248" pt_clust_10="85.10254"></scales>
<clustering>
<clus scale="   81.492">  5  6 -1 -1</clus>
<clus scale="   85.103">  1 10  2 -1</clus>
<clus scale="   71.402">  1  9  2 -1</clus>
<clus scale="   91.632">  7  8 -1 -1</clus>
<clus scale="  100.723">  1  5  2 -1</clus>
<clus scale="   85.103">  1  5  2 -1</clus>
</clustering>
</event>
<event>
10    4  0.7697601E-005  0.3214297E+03  0.7546771E-02  0.1091150E+00
         21   -1    0    0  501  502  0.00000000000E+00  0.00000000000E+00  0.79890866786E+03  0.79890866786E+03  0.00000000000E+00 0.  1.
         -3   -1    0    0    0  501 -0.00000000000E+00 -0.00000000000E+00 -0.71868229259E+03  0.71868229259E+03  0.00000000000E+00 0.  1.
         23    2    1    2    0    0 -0.10373904768E+03 -0.10014750296E+03  0.54816591694E+03  0.57441357168E+03  0.93133057843E+02 0.  0.
         24    2    1    2    0    0  0.40387005395E+03 -0.32247313918E+02 -0.20133866628E+03  0.45954351321E+03  0.80573396712E+02 0.  0.
        -13    1    4    4    0    0  0.11045847233E+03 -0.45262331089E+02 -0.56290529979E+02  0.13197869711E+03  0.00000000000E+00 0.  1.
         14    1    4    4    0    0  0.29341158162E+03  0.13015017170E+02 -0.14504813630E+03  0.32756481610E+03  0.00000000000E+00 0. -1.
        -11    1    3    3    0    0 -0.27193725418E+02  0.65833128210E+01  0.35554500314E+02  0.45243355339E+02  0.00000000000E+00 0. -1.
         11    1    3    3    0    0 -0.76545322264E+02 -0.10673081578E+03  0.51261141663E+03  0.52917021634E+03  0.00000000000E+00 0.  1.
         21    1    1    2  503  502 -0.92286831952E+02  0.45658798510E+02  0.33632251583E+02  0.10831765128E+03  0.00000000000E+00 0.  1.
         -4    1    1    2    0  503 -0.20784417431E+03  0.86736018370E+02 -0.30023312697E+03  0.37531622428E+03  0.00000000000E+00 0.  1.
<scales pt_clust_5="13000.00000" pt_clust_6="13000.00000" pt_clust_7="13000.00000" pt_clust_8="13000.00000" pt_clust_9="102.96400" pt_clust_10="311.16729"></scales>
<clustering>
<clus scale="   80.573">  5  6 -1 -1</clus>
<clus scale="   93.133">  7  8 -1 -1</clus>
<clus scale="  102.964">  1  9  2 -1</clus>
<clus scale="  208.521">  2  7  1 -1</clus>
<clus scale="  311.167">  1 10  2 -1</clus>
<clus scale="  102.964">  1  5  2 -1</clus>
</clustering>
</event>
<event>
10    4  0.7697601E-005  0.1739891E+03  0.7546771E-02  0.1176578E+00
          2   -1    0    0  503    0 -0.00000000000E+00  0.00000000000E+00  0.78586191567E+03  0.78586191567E+03  0.00000000000E+00 0. -1.
         21   -1    0    0  501  502  0.00000000000E+00 -0.00000000000E+00 -0.26817365587E+03  0.26817365587E+03  0.00000000000E+00 0.  1.
         24    2    1    2    0    0  0.11675115139E+03 -0.69344184517E+02  0.48058395494E+01  0.15757534374E+03  0.79796275505E+02 0.  0.
         23    2    1    2    0    0 -0.12450143442E+03 -0.65975148777E+02  0.99101317432E+02  0.19486279466E+03  0.91088474560E+02 0.  0.
        -11    1    3    3    0    0  0.76103909164E+02 -0.56077406265E+02 -0.33375317426E+02  0.10025164486E+03  0.00000000000E+00 0.  1.
         12    1    3    3    0    0  0.40647242222E+02 -0.13266778252E+02  0.38181156975E+02  0.57323698881E+02  0.00000000000E+00 0. -1.
        -13    1    4    4    0    0 -0.52500808061E+02  0.17106343666E+02  0.17415980430E+02  0.57898861950E+02  0.00000000000E+00 0. -1.
         13    1    4    4    0    0 -0.72000626360E+02 -0.83081492443E+02  0.81685337002E+02  0.13696393271E+03  0.00000000000E+00 0.  1.
         21    1    1    2  503  502 -0.18682042663E+02 -0.45783727227E+02 -0.12401585926E+03  0.13351068026E+03  0.00000000000E+00 0.  1.
          1    1    1    2  501    0  0.26432325698E+02  0.18110306052E+03  0.53779696208E+03  0.56808675288E+03  0.00000000000E+00 0. -1.
<scales pt_clust_5="13000.00000" pt_clust_6="13000.00000" pt_clust_7="13000.00000" pt_clust_8="13000.00000" pt_clust_9="49.44864" pt_clust_10="148.24008"></scales>
<clustering>
<clus scale="   49.449">  2  9  1 -1</clus>
<clus scale="   79.796">  5  6 -1 -1</clus>
<clus scale="   91.088">  7  8 -1 -1</clus>
<clus scale="  163.187">  1  5  2 -1</clus>
<clus scale="  148.240">  2 10  1 -1</clus>
<clus scale="   49.449">  2  5  1 -1</clus>
</clustering>
</event>
<event>
10    4  0.7697601E-005  0.1918948E+03  0.7546771E-02  0.1180091E+00
         21   -1    0    0  501  502  0.00000000000E+00  0.00000000000E+00  0.21749406744E+03  0.21749406744E+03  0.00000000000E+00 0.  1.
          2   -1    0    0  503    0 -0.00000000000E+00 -0.00000000000E+00 -0.55699407531E+03  0.55699407531E+03  0.00000000000E+00 0. -1.
         24    2    1    2    0    0  0.69172136585E+02 -0.34663153005E+02 -0.30498373578E+03  0.32480009166E+03  0.80583508213E+02 0.  0.
         23    2    1    2    0    0 -0.73704174203E+02 -0.11412907695E+03  0.60791005081E+02  0.17378811270E+03  0.89716276763E+02 0.  0.
        -13    1    3    3    0    0  0.43088524698E+02 -0.16244034491E+02 -0.50586710183E+02  0.68406906554E+02  0.00000000000E+00 0.  1.
         14    1    3    3    0    0  0.26083611887E+02 -0.18419118514E+02 -0.25439702560E+03  0.25639318511E+03  0.00000000000E+00 0. -1.
        -11    1    4    4    0    0 -0.51218512507E+02 -0.12079025122E+03  0.69864126291E+02  0.14864258123E+03  0.00000000000E+00 0.  1.
         11    1    4    4    0    0 -0.22485661696E+02  0.66611742631E+01 -0.90731212096E+01  0.25145531470E+02  0.00000000000E+00 0. -1.
         21    1    1    2  503  502 -0.71821635022E+01 -0.53931586558E+02 -0.85264528913E+01  0.55071770447E+02  0.00000000000E+00 0. -1.
          1    1    1    2  501    0  0.11714201120E+02  0.20272381652E+03 -0.86780824282E+02  0.22082816794E+03  0.00000000000E+00 0. -1.
<scales pt_clust_5="13000.00000" pt_clust_6="13000.00000" pt_clust_7="13000.00000" pt_clust_8="13000.00000" pt_clust_9="54.40772" pt_clust_10="169.63090"></scales>
<clustering>
<clus scale="   54.408">  1  9  2 -1</clus>
<clus scale="   80.584">  5  6 -1 -1</clus>
<clus scale="   89.716">  7  8 -1 -1</clus>
<clus scale="  112.373">  2  5  1 -1</clus>
<clus scale="  169.631">  1 10  2 -1</clus>
<clus scale="   54.408">  1  5  2 -1</clus>
</clustering>
</event>
<event>
10    4  0.7697601E-005  0.9810849E+02  0.7546771E-02  0.1291101E+00
         -1   -1    0    0    0  501 -0.00000000000E+00  0.00000000000E+00  0.90705439767E+02  0.90705439767E+02  0.00000000000E+00 0.  1.
         21   -1    0    0  503  502  0.00000000000E+00 -0.00000000000E+00 -0.39129961980E+03  0.39129961980E+03  0.00000000000E+00 0.  1.
         24    2    1    2    0    0  0.11915719701E+01 -0.37472513263E+02  0.49126859668E+01  0.88050540224E+02  0.79518262407E+02 0.  0.
         23    2    1    2    0    0  0.33732135085E+02  0.16440907502E+02 -0.14804664238E+03  0.17836482769E+03  0.92130576145E+02 0.  0.
        -11    1    3    3    0    0  0.36125811571E+02 -0.38619439703E+02  0.11411757847E+01  0.52894590147E+02  0.00000000000E+00 0.  1.
         12    1    3    3    0    0 -0.34934239601E+02  0.11469264404E+01  0.37715101821E+01  0.35155950077E+02  0.00000000000E+00 0. -1.
        -11    1    4    4    0    0  0.35824216215E+02  0.38803295132E+02 -0.35583560314E+02  0.63680922929E+02  0.00000000000E+00 0. -1.
         11    1    4    4    0    0 -0.20920811298E+01 -0.22362387629E+02 -0.11246308207E+03  0.11468390476E+03  0.00000000000E+00 0.  1.
         21    1    1    2  503  501 -0.75086881395E+02 -0.21808779788E+02 -0.12774963964E+03  0.14977861350E+03  0.00000000000E+00 0.  1.
         -2    1    1    2    0  502  0.40163174340E+02  0.42840385549E+02 -0.29710583977E+02  0.65811078150E+02  0.00000000000E+00 0.  1.
<scales pt_clust_5="13000.00000" pt_clust_6="13000.00000" pt_clust_7="13000.00000" pt_clust_8="13000.00000" pt_clust_9="59.03604" pt_clust_10="58.72293"></scales>
<clustering>
<clus scale="   58.723">  2 10  1 -1</clus>
<clus scale="   59.036">  2  9  1 -1</clus>
<clus scale="   79.518">  5  6 -1 -1</clus>
<clus scale="   86.374">  1  5  2 -1</clus>
<clus scale="   92.131">  7  8 -1 -1</clus>
<clus scale="   58.723">  2  5  1 -1</clus>
</clustering>
</event>
<event>
10    4  0.7697601E-005  0.1828800E+03  0.7546771E-02  0.1165474E+00
          2   -1    0    0  503    0 -0.00000000000E+00  0.00000000000E+00  0.10906821386E+04  0.10906821386E+04  0.00000000000E+00 0. -1.
         21   -1    0    0  501  502  0.00000000000E+00 -0.00000000000E+00 -0.12678396445E+03  0.12678396445E+03  0.00000000000E+00 0.  1.
         24    2    1    2    0    0  0.13089666455E+03  0.67270894995E+02  0.34469657740E+03  0.38133089919E+03  0.70272427766E+02 0.  0.
         23    2    1    2    0    0 -0.16116753255E+03 -0.20673019464E+03  0.21551994932E+03  0.34560574551E+03  0.65438030605E+02 0.  0.
        -11    1    3    3    0    0  0.43752638167E+02  0.17233038145E+02  0.19806525323E+03  0.20357091022E+03  0.00000000000E+00 0.  1.
         12    1    3    3    0    0  0.87144026380E+02  0.50037856850E+02  0.14663132417E+03  0.17775998897E+03  0.00000000000E+00 0. -1.
        -13    1    4    4    0    0 -0.14379697909E+03 -0.18979511123E+03  0.16540751370E+03  0.28992999333E+03  0.00000000000E+00 0.  1.
         13    1    4    4    0    0 -0.17370553461E+02 -0.16935083414E+02  0.50112435612E+02  0.55675752180E+02  0.00000000000E+00 0. -1.
         21    1    1    2  503  502  0.38381663655E+02 -0.16543607390E+01 -0.20410499112E+02  0.43502614730E+02  0.00000000000E+00 0.  1.
          1    1    1    2  501    0 -0.81107956531E+01  0.14111366039E+03  0.42409214656E+03  0.44702684363E+03  0.00000000000E+00 0. -1.
<scales pt_clust_5="13000.00000" pt_clust_6="13000.00000" pt_clust_7="13000.00000" pt_clust_8="13000.00000" pt_clust_9="38.41730" pt_clust_10="140.95637"></scales>
<clustering>
<clus scale="   38.417">  2  9  1 -1</clus>
<clus scale="   65.438">  7  8 -1 -1</clus>
<clus scale="   70.272">  5  6 -1 -1</clus>
<clus scale="  140.956">  2 10  1 -1</clus>
<clus scale="  181.077">  2  7  1 -1</clus>
<clus scale="   38.417">  2  5  1 -1</clus>
</clustering>
</event>
<event>
10    4  0.7697601E-005  0.9037011E+02  0.7546771E-02  0.1304651E+00
          2   -1    0    0  502    0 -0.00000000000E+00  0.00000000000E+00  0.65761653421E+03  0.65761653421E+03  0.00000000000E+00 0. -1.
         21   -1    0    0  503  502  0.00000000000E+00 -0.00000000000E+00 -0.35027009439E+02  0.35027009439E+02  0.00000000000E+00 0.  1.
         24    2    1    2    0    0 -0.41008854272E+01  0.22930493515E+02  0.44304980381E+03  0.45151872216E+03  0.83865386228E+02 0.  0.
         23    2    1    2    0    0 -0.24727575656E+02 -0.63724996504E+01  0.14872359679E+03  0.17484977054E+03  0.88327075494E+02 0.  0.
        -11    1    3    3    0    0  0.33228518527E+02  0.31933409069E+01  0.90703697755E+02  0.96651397590E+02  0.00000000000E+00 0.  1.
         12    1    3    3    0    0 -0.37329403954E+02  0.19737152608E+02  0.35234610606E+03  0.35486732457E+03  0.00000000000E+00 0. -1.
        -13    1    4    4    0    0 -0.55366700377E+02  0.36965381182E+01  0.67015403170E+02  0.87006897237E+02  0.00000000000E+00 0. -1.
         13    1    4    4    0    0  0.30639124720E+02 -0.10069037769E+02  0.81708193621E+02  0.87842873302E+02  0.00000000000E+00 0.  1.
         21    1    1    2  503  501  0.11117003974E+02  0.17206165005E+02  0.12235173593E+02  0.23860833271E+02  0.00000000000E+00 0.  1.
          1    1    1    2  501    0  0.17711457109E+02 -0.33764158869E+02  0.18580950572E+02  0.42414217678E+02  0.00000000000E+00 0. -1.
<scales pt_clust_5="13000.00000" pt_clust_6="13000.00000" pt_clust_7="13000.00000" pt_clust_8="13000.00000" pt_clust_9="20.48511" pt_clust_10="34.78824"></scales>
<clustering>
<clus scale="   20.485">  2  9  1 -1</clus>
<clus scale="   34.788">  2 10  1 -1</clus>
<clus scale="   83.865">  5  6 -1 -1</clus>
<clus scale="   86.014">  1  5  2 -1</clus>
<clus scale="   88.327">  7  8 -1 -1</clus>
<clus scale="   20.485">  2  5  1 -1</clus>
</clustering>
</event>
<event>
10    4  0.7697601E-005  0.5387058E+03  0.7546771E-02  0.1034563E+00
         21   -1    0    0  503  502  0.00000000000E+00  0.00000000000E+00  0.95645511889E+03  0.95645511889E+03  0.00000000000E+00 0.  1.
         -1   -1    0    0    0  501 -0.00000000000E+00 -0.00000000000E+00 -0.18332111165E+04  0.18332111165E+04  0.00000000000E+00 0.  1.
         24    2    1    2    0    0 -0.19921604307E+03  0.17580671826E+01 -0.10729371370E+04  0.10942207010E+04  0.80216705137E+02 0.  0.
         23    2    1    2    0    0 -0.33397634927E+03  0.21568994600E+03 -0.54093050579E+03  0.67745471606E+03  0.90976510892E+02 0.  0.
        -11    1    3    3    0    0 -0.16107248020E+03 -0.12272230710E+02 -0.66824019085E+03  0.68748811204E+03  0.00000000000E+00 0.  1.
         12    1    3    3    0    0 -0.38143562865E+02  0.14030297893E+02 -0.40469694619E+03  0.40673258894E+03  0.00000000000E+00 0. -1.
        -13    1    4    4    0    0 -0.24211539638E+03  0.15333107850E+03 -0.31589727283E+03  0.42652241650E+03  0.00000000000E+00 0.  1.
         13    1    4    4    0    0 -0.91860952888E+02  0.62358867503E+02 -0.22503323296E+03  0.25093229956E+03  0.00000000000E+00 0. -1.
         21    1    1    2  503  501  0.33381853059E+02 -0.32500198468E+02  0.36510060031E+03  0.36806121687E+03  0.00000000000E+00 0.  1.
         -2    1    1    2    0  502  0.49981053928E+03 -0.18494781471E+03  0.37201104491E+03  0.64992960148E+03  0.00000000000E+00 0.  1.
<scales pt_clust_5="13000.00000" pt_clust_6="13000.00000" pt_clust_7="13000.00000" pt_clust_8="13000.00000" pt_clust_9="46.58982" pt_clust_10="530.96814"></scales>
<clustering>
<clus scale="   46.590">  1  9  2 -1</clus>
<clus scale="   80.217">  5  6 -1 -1</clus>
<clus scale="   90.977">  7  8 -1 -1</clus>
<clus scale="  214.204">  2  5  1 -1</clus>
<clus scale="  530.968">  1 10  2 -1</clus>
<clus scale="   46.590">  1  5  2 -1</clus>
</clustering>
</event>
<event>
10    4  0.7697601E-005  0.2924560E+03  0.7546771E-02  0.1135358E+00
         21   -1    0    0  503  502  0.00000000000E+00  0.00000000000E+00  0.30142507328E+03  0.30142507328E+03  0.00000000000E+00 0. -1.
          2   -1    0    0  502    0 -0.00000000000E+00 -0.00000000000E+00 -0.18579056595E+04  0.18579056595E+04  0.00000000000E+00 0. -1.
         23    2    1    2    0    0 -0.61259425727E+01  0.10043936731E+02 -0.10828563464E+03  0.14102493026E+03  0.89575914446E+02 0.  0.
         24    2    1    2    0    0 -0.24930634357E+03 -0.13461465193E+03 -0.10787127842E+04  0.11182275314E+04  0.80850378766E+02 0.  0.
        -13    1    4    4    0    0 -0.43248214474E+02 -0.44014272223E+02 -0.14162773973E+03  0.15448650710E+03  0.00000000000E+00 0.  1.
         14    1    4    4    0    0 -0.20605812910E+03 -0.90600379703E+02 -0.93708504448E+03  0.96374102432E+03  0.00000000000E+00 0. -1.
        -11    1    3    3    0    0 -0.33548917022E+02  0.24313025167E+02 -0.10113866471E+03  0.10929630610E+03  0.00000000000E+00 0.  1.
         11    1    3    3    0    0  0.27422974449E+02 -0.14269088435E+02 -0.71469699258E+01  0.31728624167E+02  0.00000000000E+00 0. -1.
         21    1    1    2  503  501  0.23248316173E+03 -0.20239108661E+03  0.10304164756E+03  0.32500485159E+03  0.00000000000E+00 0. -1.
          1    1    1    2  501    0  0.22949124417E+02  0.32696180180E+03 -0.47252381492E+03  0.57507341950E+03  0.00000000000E+00 0. -1.
<scales pt_clust_5="13000.00000" pt_clust_6="13000.00000" pt_clust_7="13000.00000" pt_clust_8="13000.00000" pt_clust_9="13000.00000" pt_clust_10="292.45596"></scales>
<clustering>
<clus scale="   80.850">  5  6 -1 -1</clus>
<clus scale="   89.576">  7  8 -1 -1</clus>
<clus scale="   90.345">  2  7  1 -1</clus>
<clus scale="  295.109">  2  5  1 -1</clus>
<clus scale="  292.456">  2 10  1 -1</clus>
<clus scale="  292.456">  1  5  2 -1</clus>
</clustering>
</event>
<event>
10    4  0.7697601E-005  0.1294062E+03  0.7546771E-02  0.1249597E+00
         21   -1    0    0  501  502  0.00000000000E+00  0.00000000000E+00  0.19225343271E+03  0.19225343271E+03  0.00000000000E+00 0. -1.
          2   -1    0    0  503    0 -0.00000000000E+00 -0.00000000000E+00 -0.54768974594E+03  0.54768974594E+03  0.00000000000E+00 0. -1.
         24    2    1    2    0    0  0.32626467294E+02  0.78982701409E+00 -0.24677852474E+03  0.26048092682E+03  0.76717421571E+02 0.  0.
         23    2    1    2    0    0 -0.37502550295E+02  0.75322323534E+02 -0.20496551876E+03  0.24044195520E+03  0.93389379693E+02 0.  0.
        -13    1    3    3    0    0 -0.23174799483E+02 -0.11986104751E+02 -0.80780104142E+02  0.84889123351E+02  0.00000000000E+00 0.  1.
         14    1    3    3    0    0  0.55801266777E+02  0.12775931766E+02 -0.16599842060E+03  0.17559180347E+03  0.00000000000E+00 0. -1.
        -11    1    4    4    0    0 -0.63432565353E+02  0.55129263003E+02 -0.10092855683E+03  0.13133735025E+03  0.00000000000E+00 0. -1.
         11    1    4    4    0    0  0.25930015058E+02  0.20193060531E+02 -0.10403696192E+03  0.10910460495E+03  0.00000000000E+00 0.  1.
         21    1    1    2  503  502  0.20070714969E+02  0.65840532144E+02  0.60961313799E+02  0.91946131254E+02  0.00000000000E+00 0. -1.
          1    1    1    2  501    0 -0.15194631968E+02 -0.14195268269E+03  0.35346416468E+02  0.14707416538E+03  0.00000000000E+00 0. -1.
<scales pt_clust_5="13000.00000" pt_clust_6="13000.00000" pt_clust_7="13000.00000" pt_clust_8="13000.00000" pt_clust_9="68.83175" pt_clust_10="89.57897"></scales>
<clustering>
<clus scale="   68.832">  1  9  2 -1</clus>
<clus scale="   76.717">  5  6 -1 -1</clus>
<clus scale="   83.970">  2  5  1 -1</clus>
<clus scale="   89.579">  1 10  2 -1</clus>
<clus scale="   93.389">  7  8 -1 -1</clus>
<clus scale="   68.832">  1  5  2 -1</clus>
</clustering>
</event>
<event>
10    4  0.7697601E-005  0.9532748E+02  0.7546771E-02  0.1292341E+00
         21   -1    0    0  503  502  0.00000000000E+00  0.00000000000E+00  0.63702091112E+02  0.63702091112E+02  0.00000000000E+00 0.  1.
         -1   -1    0    0    0  501 -0.00000000000E+00 -0.00000000000E+00 -0.67583226293E+03  0.67583226293E+03  0.00000000000E+00 0.  1.
         23    2    1    2    0    0 -0.21865771791E+02  0.10000636063E+02 -0.32746467062E+03  0.33962575103E+03  0.86801011277E+02 0.  0.
         24    2    1    2    0    0 -0.44225834461E+02 -0.12269832212E+02 -0.88077188709E+02  0.12951922448E+03  0.83133417605E+02 0.  0.
        -13    1    4    4    0    0 -0.59678384557E+02 -0.22309868573E+02 -0.33640537188E+02  0.72048078125E+02  0.00000000000E+00 0.  1.
         14    1    4    4    0    0  0.15452550096E+02  0.10040036361E+02 -0.54436651520E+02  0.57471146355E+02  0.00000000000E+00 0. -1.
        -13    1    3    3    0    0 -0.43249031522E+02 -0.21932541734E+02 -0.13717379849E+03  0.14549283868E+03  0.00000000000E+00 0.  1.
         13    1    3    3    0    0  0.21383259731E+02  0.31933177798E+02 -0.19029087213E+03  0.19413291235E+03  0.00000000000E+00 0. -1.
         21    1    1    2  503  501  0.90335680059E+02  0.30124738940E+02 -0.21041293643E+03  0.23095808885E+03  0.00000000000E+00 0.  1.
         -2    1    1    2    0  502 -0.24244073806E+02 -0.27855542791E+02  0.13824623943E+02  0.39431289683E+02  0.00000000000E+00 0.  1.
<scales pt_clust_5="13000.00000" pt_clust_6="13000.00000" pt_clust_7="13000.00000" pt_clust_8="13000.00000" pt_clust_9="86.56809" pt_clust_10="36.92840"></scales>
<clustering>
<clus scale="   36.928">  1 10  2 -1</clus>
<clus scale="   83.133">  5  6 -1 -1</clus>
<clus scale="   86.568">  2  9  1 -1</clus>
<clus scale="   86.801">  7  8 -1 -1</clus>
<clus scale="   92.000">  1  5  2 -1</clus>
<clus scale="   36.928">  1  5  2 -1</clus>
</clustering>
</event>
<event>
10    4  0.7697601E-005  0.3182083E+03  0.7546771E-02  0.1105150E+00
          2   -1    0    0  503    0 -0.00000000000E+00  0.00000000000E+00  0.57447919092E+03  0.57447919092E+03  0.00000000000E+00 0. -1.
         21   -1    0    0  501  502  0.00000000000E+00 -0.00000000000E+00 -0.32511904351E+03  0.32511904351E+03  0.00000000000E+00 0. -1.
         24    2    1    2    0    0 -0.11216649452E+03  0.44885039175E+02  0.18818472400E+01  0.14693782861E+03  0.83613365516E+02 0.  0.
         23    2    1    2    0    0 -0.23495532702E+03 -0.54435978389E+02  0.24831168696E+03  0.35748703300E+03  0.89280476282E+02 0.  0.
        -13    1    3    3    0    0 -0.63519980270E+00  0.31758680598E+02  0.12499747846E+02  0.34135919035E+02  0.00000000000E+00 0.  1.
         14    1    3    3    0    0 -0.11153129471E+03  0.13126358577E+02 -0.10617900606E+02  0.11280190957E+03  0.00000000000E+00 0. -1.
        -13    1    4    4    0    0 -0.15344054128E+03  0.67423506142E+01  0.16883851754E+03  0.22824527160E+03  0.00000000000E+00 0.  1.
         13    1    4    4    0    0 -0.81514785739E+02 -0.61178329003E+02  0.79473169417E+02  0.12924176140E+03  0.00000000000E+00 0. -1.
         21    1    1    2  503  502 -0.37441676894E+01  0.19879977621E+02 -0.37130573171E+02  0.42283705678E+02  0.00000000000E+00 0.  1.
          1    1    1    2  501    0  0.35086598923E+03 -0.10329038407E+02  0.36297186380E+02  0.35288966714E+03  0.00000000000E+00 0. -1.
<scales pt_clust_5="13000.00000" pt_clust_6="13000.00000" pt_clust_7="13000.00000" pt_clust_8="13000.00000" pt_clust_9="20.22949" pt_clust_10="305.42677"></scales>
<clustering>
<clus scale="   20.229">  2  9  1 -1</clus>
<clus scale="   83.613">  5  6 -1 -1</clus>
<clus scale="   89.280">  7  8 -1 -1</clus>
<clus scale="  149.267">  1  5  2 -1</clus>
<clus scale="  305.427">  2 10  1 -1</clus>
<clus scale="   20.229">  2  5  1 -1</clus>
</clustering>
</event>
<event>
10    4  0.7697601E-005  0.2335116E+03  0.7546771E-02  0.1124192E+00
         21   -1    0    0  503  502  0.00000000000E+00  0.00000000000E+00  0.33397381026E+02  0.33397381026E+02  0.00000000000E+00 0.  1.
          2   -1    0    0  502    0 -0.00000000000E+00 -0.00000000000E+00 -0.16409519617E+04  0.16409519617E+04  0.00000000000E+00 0. -1.
         24    2    1    2    0    0 -0.37868844049E+02  0.40540022502E+02 -0.19736627393E+03  0.22185935477E+03  0.84797313863E+02 0.  0.
         23    2    1    2    0    0 -0.73981277922E+01  0.78864022183E+02 -0.29559413346E+03  0.31885366342E+03  0.89540497255E+02 0.  0.
        -11    1    3    3    0    0 -0.38439649801E+02 -0.13574410969E+02 -0.47908151122E+02  0.62905184634E+02  0.00000000000E+00 0.  1.
         12    1    3    3    0    0  0.57080575131E+00  0.54114433472E+02 -0.14945812281E+03  0.15895417013E+03  0.00000000000E+00 0. -1.
        -13    1    4    4    0    0  0.21319315393E+02  0.16839289760E+02 -0.17114905002E+02  0.32109108703E+02  0.00000000000E+00 0.  1.
         13    1    4    4    0    0 -0.28717443186E+02  0.62024732423E+02 -0.27847922846E+03  0.28674455472E+03  0.00000000000E+00 0. -1.
         21    1    1    2  503  501 -0.18365907522E+01  0.23708254635E+02 -0.28391286209E+02  0.37034032133E+02  0.00000000000E+00 0.  1.
          1    1    1    2  501    0  0.47103562594E+02 -0.14311229932E+03 -0.10862028870E+04  0.10966022924E+04  0.00000000000E+00 0. -1.
<scales pt_clust_5="13000.00000" pt_clust_6="13000.00000" pt_clust_7="13000.00000" pt_clust_8="13000.00000" pt_clust_9="23.77929" pt_clust_10="146.53843"></scales>
<clustering>
<clus scale="   23.779">  1  9  2 -1</clus>
<clus scale="   84.797">  5  6 -1 -1</clus>
<clus scale="   89.540">  7  8 -1 -1</clus>
<clus scale="   99.582">  5  7 -1 -1</clus>
<clus scale="  146.538">  1 10  2 -1</clus>
<clus scale="   23.779">  1  5  2 -1</clus>
</clustering>
</event>
<event>
10    4  0.7697601E-005  0.1746171E+03  0.7546771E-02  0.1173444E+00
          2   -1    0    0  503    0 -0.00000000000E+00  0.00000000000E+00  0.59107826466E+03  0.59107826466E+03  0.00000000000E+00 0. -1.
         21   -1    0    0  501  502  0.00000000000E+00 -0.00000000000E+00 -0.12189415071E+03  0.12189415071E+03  0.00000000000E+00 0. -1.
         24    2    1    2    0    0 -0.75342415364E+02 -0.15654730866E+03  0.37030991364E+03  0.41695903164E+03  0.80881781144E+02 0.  0.
         23    2    1    2    0    0  0.65551513239E+02  0.82427296380E+02  0.21994641803E+02  0.13626437770E+03  0.83623897810E+02 0.  0.
        -13    1    3    3    0    0 -0.74076060420E+02 -0.67071453478E+02  0.22675630536E+03  0.24779883902E+03  0.00000000000E+00 0.  1.
         14    1    3    3    0    0 -0.12663549444E+01 -0.89475855187E+02  0.14355360828E+03  0.16916019261E+03  0.00000000000E+00 0. -1.
        -11    1    4    4    0    0  0.50266456666E+02  0.53086489801E+02  0.53489275446E+02  0.90586945268E+02  0.00000000000E+00 0.  1.
         11    1    4    4    0    0  0.15285056573E+02  0.29340806579E+02 -0.31494633643E+02  0.45677432430E+02  0.00000000000E+00 0. -1.
         21    1    1    2  503  502  0.22447370023E+02  0.94543587532E+01 -0.27233250958E+02  0.36536547157E+02  0.00000000000E+00 0.  1.
          1    1    1    2  501    0 -0.12656467898E+02  0.64665653531E+02  0.10411280947E+03  0.12321245888E+03  0.00000000000E+00 0. -1.
<scales pt_clust_5="13000.00000" pt_clust_6="13000.00000" pt_clust_7="13000.00000" pt_clust_8="13000.00000" pt_clust_9="24.35712" pt_clust_10="66.46774"></scales>
<clustering>
<clus scale="   24.357">  2  9  1 -1</clus>
<clus scale="   66.468">  2 10  1 -1</clus>
<clus scale="   80.882">  5  6 -1 -1</clus>
<clus scale="   83.624">  7  8 -1 -1</clus>
<clus scale="  173.321">  1  5  2 -1</clus>
<clus scale="   24.357">  2  5  1 -1</clus>
</clustering>
</event>
<event>
10    4  0.7697601E-005  0.9967388E+02  0.7546771E-02  0.1283153E+00
          2   -1    0    0  503    0 -0.00000000000E+00  0.00000000000E+00  0.91215911252E+03  0.91215911252E+03  0.00000000000E+00 0. -1.
         21   -1    0    0  501  502  0.00000000000E+00 -0.00000000000E+00 -0.12855381513E+03  0.12855381513E+03  0.00000000000E+00 0. -1.
         24    2    1    2    0    0 -0.34854396299E+02 -0.29880782769E+02  0.57731499110E+03  0.58546515226E+03  0.85843785076E+02 0.  0.
         23    2    1    2    0    0 -0.34089471739E+02  0.63370068774E+02  0.19151953062E+03  0.22363313511E+03  0.90300558191E+02 0.  0.
        -11    1    3    3    0    0 -0.34261621724E+02 -0.50467928360E+02  0.24381149301E+03  0.25132631108E+03  0.00000000000E+00 0.  1.
         12    1    3    3    0    0 -0.59277457510E+00  0.20587145591E+02  0.33350349809E+03  0.33413884118E+03  0.00000000000E+00 0. -1.
        -13    1    4    4    0    0  0.30841800642E+02  0.23234002803E+02  0.54636723784E+02  0.66904462773E+02  0.00000000000E+00 0.  1.
         13    1    4    4    0    0 -0.64931272381E+02  0.40136065971E+02  0.13688280684E+03  0.15672867234E+03  0.00000000000E+00 0. -1.
         21    1    1    2  503  502 -0.10531038968E+02  0.31145221505E+02 -0.83451210264E+02  0.89694102922E+02  0.00000000000E+00 0. -1.
          1    1    1    2  501    0  0.79474907006E+02 -0.64634507510E+02  0.98221985931E+02  0.14192053736E+03  0.00000000000E+00 0. -1.
<scales pt_clust_5="13000.00000" pt_clust_6="13000.00000" pt_clust_7="13000.00000" pt_clust_8="13000.00000" pt_clust_9="32.87746" pt_clust_10="88.43119"></scales>
<clustering>
<clus scale="   32.877">  2  9  1 -1</clus>
<clus scale="   85.844">  5  6 -1 -1</clus>
<clus scale="   88.431">  2 10  1 -1</clus>
<clus scale="   90.301">  7  8 -1 -1</clus>
<clus scale="   95.655">  1  5  2 -1</clus>
<clus scale="   32.877">  2  5  1 -1</clus>
</clustering>
</event>
<event>
10    4  0.7697601E-005  0.1735509E+03  0.7546771E-02  0.1197118E+00
          2   -1    0    0  502    0 -0.00000000000E+00  0.00000000000E+00  0.10026156162E+03  0.10026156162E+03  0.00000000000E+00 0. -1.
         21   -1    0    0  503  502  0.00000000000E+00 -0.00000000000E+00 -0.92561653824E+03  0.92561653824E+03  0.00000000000E+00 0. -1.
         23    2    1    2    0    0 -0.31858440524E+02 -0.20483075249E+02 -0.27844404750E+03  0.29622743124E+03  0.93728793987E+02 0.  0.
         24    2    1    2    0    0  0.15110052440E+03  0.88401845110E+02 -0.47612080504E+03  0.51361627172E+03  0.80401485649E+02 0.  0.
        -11    1    4    4    0    0  0.39336760173E+02 -0.45431915688E+00 -0.46596648082E+02  0.60982249215E+02  0.00000000000E+00 0.  1.
         12    1    4    4    0    0  0.11176376423E+03  0.88856164267E+02 -0.42952415696E+03  0.45263402251E+03  0.00000000000E+00 0. -1.
        -13    1    3    3    0    0 -0.10590306195E+02  0.37658618287E+02 -0.11295476836E+03  0.11953704786E+03  0.00000000000E+00 0. -1.
         13    1    3    3    0    0 -0.21268134329E+02 -0.58141693535E+02 -0.16548927915E+03  0.17669038337E+03  0.00000000000E+00 0.  1.
         21    1    1    2  503  501 -0.27857128281E+02  0.53330315305E+01 -0.92648155531E+02  0.96892422535E+02  0.00000000000E+00 0. -1.
          1    1    1    2  501    0 -0.91384955596E+02 -0.73251801391E+02  0.21858031455E+02  0.11914197436E+03  0.00000000000E+00 0. -1.
<scales pt_clust_5="13000.00000" pt_clust_6="13000.00000" pt_clust_7="13000.00000" pt_clust_8="13000.00000" pt_clust_9="28.36302" pt_clust_10="153.80352"></scales>
<clustering>
<clus scale="   28.363">  2  9  1 -1</clus>
<clus scale="   80.401">  5  6 -1 -1</clus>
<clus scale="   93.729">  7  8 -1 -1</clus>
<clus scale="  104.183">  1  7  2 -1</clus>
<clus scale="  153.804">  2 10  1 -1</clus>
<clus scale="   28.363">  2  5  1 -1</clus>
</clustering>
</event>
<event>
10    4  0.7697601E-005  0.9218596E+02  0.7546771E-02  0.1303558E+00
         21   -1    0    0  501  502  0.00000000000E+00  0.00000000000E+00  0.13710162017E+03  0.13710162017E+03  0.00000000000E+00 0. -1.
          4   -1    0    0  503    0 -0.00000000000E+00 -0.00000000000E+00 -0.25200289657E+03  0.25200289657E+03  0.00000000000E+00 0. -1.
         24    2    1    2    0    0  0.10794771423E+02  0.64182894676E+01 -0.12868987043E+03  0.15260154750E+03  0.81045839003E+02 0.  0.
         23    2    1    2    0    0 -0.47297441455E+02  0.59064471684E+02  0.22403382911E+02  0.12024893584E+03  0.90731666033E+02 0.  0.
        -13    1    3    3    0    0  0.31106432156E+02  0.34623938538E+02 -0.63597154597E+02  0.78810058458E+02  0.00000000000E+00 0.  1.
         14    1    3    3    0    0 -0.20311660733E+02 -0.28205649070E+02 -0.65092715829E+02  0.73791489043E+02  0.00000000000E+00 0. -1.
        -11    1    4    4    0    0 -0.53152304219E+02  0.87518751062E+01 -0.16547249535E+02  0.56352233575E+02  0.00000000000E+00 0. -1.
         11    1    4    4    0    0  0.58548627641E+01  0.50312596578E+02  0.38950632446E+02  0.63896702265E+02  0.00000000000E+00 0.  1.
         21    1    1    2  503  502  0.10227899124E+02 -0.63509187644E+02  0.28809919347E+02  0.70484312357E+02  0.00000000000E+00 0. -1.
          3    1    1    2  501    0  0.26274770908E+02 -0.19735735085E+01 -0.37424708226E+02  0.45769721044E+02  0.00000000000E+00 0. -1.
<scales pt_clust_5="13000.00000" pt_clust_6="13000.00000" pt_clust_7="13000.00000" pt_clust_8="13000.00000" pt_clust_9="67.29958" pt_clust_10="26.34880"></scales>
<clustering>
<clus scale="   26.349">  1 10  2 -1</clus>
<clus scale="   67.300">  1  9  2 -1</clus>
<clus scale="   81.046">  5  6 -1 -1</clus>
<clus scale="   82.671">  2  5  1 -1</clus>
<clus scale="   90.732">  7  8 -1 -1</clus>
<clus scale="   26.349">  1  5  2 -1</clus>
</clustering>
</event>
<event>
10    4  0.7697601E-005  0.1480931E+03  0.7546771E-02  0.1205054E+00
          2   -1    0    0  503    0 -0.00000000000E+00  0.00000000000E+00  0.11059493977E+04  0.11059493977E+04  0.00000000000E+00 0. -1.
         21   -1    0    0  501  502  0.00000000000E+00 -0.00000000000E+00 -0.11218945101E+03  0.11218945101E+03  0.00000000000E+00 0. -1.
         24    2    1    2    0    0 -0.97207642550E+01  0.13098321955E+03  0.10784622127E+03  0.18819465573E+03  0.80841350442E+02 0.  0.
         23    2    1    2    0    0 -0.12172038170E+03 -0.72502592000E+02  0.91776895520E+02  0.19243851689E+03  0.92396466727E+02 0.  0.
        -13    1    3    3    0    0 -0.38666739911E+02  0.30428859268E+02  0.40805227881E+02  0.63922600652E+02  0.00000000000E+00 0.  1.
         14    1    3    3    0    0  0.28945975656E+02  0.10055436028E+03  0.67040993393E+02  0.12427205508E+03  0.00000000000E+00 0. -1.
        -13    1    4    4    0    0 -0.39179674694E+02  0.19221028715E+02  0.11164400801E+02  0.45045962075E+02  0.00000000000E+00 0.  1.
         13    1    4    4    0    0 -0.82540707007E+02 -0.91723620715E+02  0.80612494718E+02  0.14739255482E+03  0.00000000000E+00 0. -1.
         21    1    1    2  503  502  0.94814467502E+01 -0.67837514737E+02  0.53710540686E+02  0.87043945332E+02  0.00000000000E+00 0. -1.
          1    1    1    2  501    0  0.12195969921E+03  0.93568871902E+01  0.74042628925E+03  0.75046173079E+03  0.00000000000E+00 0. -1.
<scales pt_clust_5="13000.00000" pt_clust_6="13000.00000" pt_clust_7="13000.00000" pt_clust_8="13000.00000" pt_clust_9="68.49691" pt_clust_10="122.59478"></scales>
<clustering>
<clus scale="   68.497">  2  9  1 -1</clus>
<clus scale="   80.841">  5  6 -1 -1</clus>
<clus scale="   92.396">  7  8 -1 -1</clus>
<clus scale="  122.595">  2 10  1 -1</clus>
<clus scale="  141.173">  1  5  2 -1</clus>
<clus scale="   68.497">  2  5  1 -1</clus>
</clustering>
</event>
<event>
10    4  0.7697601E-005  0.1703428E+03  0.7546771E-02  0.1179490E+00
         21   -1    0    0  503  502  0.00000000000E+00  0.00000000000E+00  0.16209429174E+03  0.16209429174E+03  0.00000000000E+00 0. -1.
          2   -1    0    0  502    0 -0.00000000000E+00 -0.00000000000E+00 -0.81539442308E+03  0.81539442308E+03  0.00000000000E+00 0. -1.
         24    2    1    2    0    0 -0.67488479183E+02  0.74388203262E+02 -0.22972630858E+03  0.26349673906E+03  0.81043537891E+02 0.  0.
         23    2    1    2    0    0  0.14661557289E+03 -0.21632097117E+03 -0.34449142160E+03  0.44275691222E+03  0.95228435758E+02 0.  0.
        -11    1    3    3    0    0 -0.54932105326E+02  0.23379759496E+02 -0.18536037135E+03  0.19473730155E+03  0.00000000000E+00 0.  1.
         12    1    3    3    0    0 -0.12556373857E+02  0.51008443766E+02 -0.44365937235E+02  0.68759437509E+02  0.00000000000E+00 0. -1.
        -11    1    4    4    0    0 -0.60876335410E+00 -0.53360260430E+02 -0.37182770034E+02  0.65040344198E+02  0.00000000000E+00 0.  1.
         11    1    4    4    0    0  0.14722433625E+03 -0.16296071073E+03 -0.30730865157E+03  0.37771656802E+03  0.00000000000E+00 0. -1.
         21    1    1    2  503  501 -0.30563847039E+02  0.70901077827E+02  0.66649588333E+02  0.10199646664E+03  0.00000000000E+00 0. -1.
          1    1    1    2  501    0 -0.48563246670E+02  0.71031690077E+02 -0.14573198949E+03  0.16923859690E+03  0.00000000000E+00 0. -1.
<scales pt_clust_5="13000.00000" pt_clust_6="13000.00000" pt_clust_7="13000.00000" pt_clust_8="13000.00000" pt_clust_9="77.20824" pt_clust_10="97.52379"></scales>
<clustering>
<clus scale="   77.208">  1  9  2 -1</clus>
<clus scale="   81.044">  5  6 -1 -1</clus>
<clus scale="   95.228">  7  8 -1 -1</clus>
<clus scale="   97.524">  1 10  2 -1</clus>
<clus scale="  162.838">  2  5  1 -1</clus>
<clus scale="   77.208">  1  5  2 -1</clus>
</clustering>
</event>
<event>
10    4  0.7697601E-005  0.1372356E+03  0.7546771E-02  0.1241460E+00
         21   -1    0    0  501  502  0.00000000000E+00  0.00000000000E+00  0.26885746764E+03  0.26885746764E+03  0.00000000000E+00 0. -1.
          2   -1    0    0  503    0 -0.00000000000E+00 -0.00000000000E+00 -0.37812552247E+03  0.37812552247E+03  0.00000000000E+00 0. -1.
         24    2    1    2    0    0 -0.18092175916E+01 -0.14346444471E+02  0.95385242222E+02  0.12618000016E+03  0.81326221298E+02 0.  0.
         23    2    1    2    0    0 -0.12171257393E+02 -0.51475695810E+02 -0.29159894391E+03  0.31009161971E+03  0.91263255259E+02 0.  0.
        -11    1    3    3    0    0 -0.21705617803E+02  0.25838121189E+02  0.60854646531E+02  0.69584699146E+02  0.00000000000E+00 0.  1.
         12    1    3    3    0    0  0.19896400211E+02 -0.40184565660E+02  0.34530595691E+02  0.56595301019E+02  0.00000000000E+00 0. -1.
        -13    1    4    4    0    0 -0.92512441506E+01  0.24831667348E+02 -0.48318235122E+02  0.55107613511E+02  0.00000000000E+00 0.  1.
         13    1    4    4    0    0 -0.29200132424E+01 -0.76307363158E+02 -0.24328070879E+03  0.25498400620E+03  0.00000000000E+00 0. -1.
         21    1    1    2  503  502  0.13736938015E+02 -0.40111896976E+02 -0.30740007580E+02  0.52369989604E+02  0.00000000000E+00 0. -1.
          1    1    1    2  501    0  0.24353696925E+00  0.10593403726E+03  0.11768565444E+03  0.15834138063E+03  0.00000000000E+00 0. -1.
<scales pt_clust_5="13000.00000" pt_clust_6="13000.00000" pt_clust_7="13000.00000" pt_clust_8="13000.00000" pt_clust_9="42.39891" pt_clust_10="102.49209"></scales>
<clustering>
<clus scale="   42.399">  2  9  1 -1</clus>
<clus scale="   81.326">  5  6 -1 -1</clus>
<clus scale="   82.929">  2  5  1 -1</clus>
<clus scale="   91.263">  7  8 -1 -1</clus>
<clus scale="  102.492">  1 10  2 -1</clus>
<clus scale="  102.492">  1  5  2 -1</clus>
</clustering>
</event>
<event>
10    4  0.7697601E-005  0.9404850E+02  0.7546771E-02  0.1299467E+00
          2   -1    0    0  502    0 -0.00000000000E+00  0.00000000000E+00  0.10379224201E+04  0.10379224201E+04  0.00000000000E+00 0. -1.
         21   -1    0    0  503  502  0.00000000000E+00 -0.00000000000E+00 -0.17065588709E+02  0.17065588709E+02  0.00000000000E+00 0. -1.
         24    2    1    2    0    0  0.94459283007E+01  0.33727389608E+02  0.48579479378E+03  0.49291141327E+03  0.75751681810E+02 0.  0.
         23    2    1    2    0    0 -0.58150897815E+02 -0.12118634154E+02  0.30580132526E+03  0.32338896966E+03  0.86819277572E+02 0.  0.
        -11    1    3    3    0    0  0.28525912532E+02  0.45535071355E+00  0.73599904308E+02  0.78935929361E+02  0.00000000000E+00 0.  1.
         12    1    3    3    0    0 -0.19079984231E+02  0.33272038895E+02  0.41219488947E+03  0.41397548391E+03  0.00000000000E+00 0. -1.
        -11    1    4    4    0    0 -0.24702948233E+02  0.29083977497E+02  0.21379895616E+03  0.21717759335E+03  0.00000000000E+00 0.  1.
         11    1    4    4    0    0 -0.33447949581E+02 -0.41202611651E+02  0.92002369102E+02  0.10621137631E+03  0.00000000000E+00 0. -1.
         21    1    1    2  503  501  0.23146548362E+02 -0.50322639621E+01  0.36352021786E+02  0.43388430136E+02  0.00000000000E+00 0. -1.
          1    1    1    2  501    0  0.25558421151E+02 -0.16576491492E+02  0.19290869057E+03  0.19529919575E+03  0.00000000000E+00 0. -1.
<scales pt_clust_5="13000.00000" pt_clust_6="13000.00000" pt_clust_7="13000.00000" pt_clust_8="13000.00000" pt_clust_9="23.68726" pt_clust_10="32.42669"></scales>
<clustering>
<clus scale="   23.687">  2  9  1 -1</clus>
<clus scale="   32.427">  2 10  1 -1</clus>
<clus scale="   75.752">  5  6 -1 -1</clus>
<clus scale="   83.940">  1  5  2 -1</clus>
<clus scale="   86.819">  7  8 -1 -1</clus>
<clus scale="   23.687">  2  5  1 -1</clus>
</clustering>
</event>
<event>
10    4  0.7697601E-005  0.2677705E+03  0.7546771E-02  0.1102829E+00
         21   -1    0    0  501  502  0.00000000000E+00  0.00000000000E+00  0.23813398215E+03  0.23813398215E+03  0.00000000000E+00 0.  1.
          2   -1    0    0  503    0 -0.00000000000E+00 -0.00000000000E+00 -0.10525016920E+04  0.10525016920E+04  0.00000000000E+00 0. -1.
         24    2    1    2    0    0 -0.23284229361E+03 -0.33892452100E+02 -0.60634004617E+03  0.65578485786E+03  0.83912431807E+02 0.  0.
         23    2    1    2    0    0  0.32722361899E+03 -0.79466887883E+01 -0.17413598668E+03  0.38142449296E+03  0.89570392929E+02 0.  0.
        -11    1    3    3    0    0 -0.54956009025E+02 -0.44515949790E+01 -0.25485164020E+03  0.26074765222E+03  0.00000000000E+00 0.  1.
         12    1    3    3    0    0 -0.17788628458E+03 -0.29440857121E+02 -0.35148840597E+03  0.39503720564E+03  0.00000000000E+00 0. -1.
        -11    1    4    4    0    0  0.18214913877E+03  0.40107093454E+02 -0.97545218506E+02  0.21048030158E+03  0.00000000000E+00 0.  1.
         11    1    4    4    0    0  0.14507448022E+03 -0.48053782242E+02 -0.76590768170E+02  0.17094419138E+03  0.00000000000E+00 0. -1.
         21    1    1    2  503  502  0.21238753569E+02 -0.99671330450E+00  0.81696999154E+02  0.84418468129E+02  0.00000000000E+00 0.  1.
          1    1    1    2  501    0 -0.11562007895E+03  0.42835854193E+02 -0.11558867613E+03  0.16900785517E+03  0.00000000000E+00 0. -1.
<scales pt_clust_5="13000.00000" pt_clust_6="13000.00000" pt_clust_7="13000.00000" pt_clust_8="13000.00000" pt_clust_9="21.26213" pt_clust_10="119.81538"></scales>
<clustering>
<clus scale="   21.262">  1  9  2 -1</clus>
<clus scale="   83.912">  5  6 -1 -1</clus>
<clus scale="   89.570">  7  8 -1 -1</clus>
<clus scale="  119.815">  1 10  2 -1</clus>
<clus scale="  265.931">  2  5  1 -1</clus>
<clus scale="   21.262">  1  5  2 -1</clus>
</clustering>
</event>
<event>
10    4  0.7697601E-005  0.1217318E+03  0.7546771E-02  0.1244530E+00
          2   -1    0    0  503    0 -0.00000000000E+00  0.00000000000E+00  0.20031142836E+03  0.20031142836E+03  0.00000000000E+00 0. -1.
         21   -1    0    0  501  502  0.00000000000E+00 -0.00000000000E+00 -0.53066259405E+03  0.53066259405E+03  0.00000000000E+00 0.  1.
         24    2    1    2    0    0 -0.76066497706E+02 -0.58144601314E+01  0.13903530618E+03  0.17773722773E+03  0.80248275602E+02 0.  0.
         23    2    1    2    0    0  0.84126620307E+02  0.39903935650E+02 -0.11203019120E+03  0.17322736561E+03  0.93740834917E+02 0.  0.
        -11    1    3    3    0    0 -0.15492048708E+02  0.22882725076E+02  0.91453764167E+02  0.95537498713E+02  0.00000000000E+00 0.  1.
         12    1    3    3    0    0 -0.60574448998E+02 -0.28697185207E+02  0.47581542012E+02  0.82199729017E+02  0.00000000000E+00 0. -1.
        -11    1    4    4    0    0  0.41727184651E+02 -0.48357987666E+01  0.36348377116E+01  0.42163431238E+02  0.00000000000E+00 0. -1.
         11    1    4    4    0    0  0.42399435657E+02  0.44739734417E+02 -0.11566502891E+03  0.13106393437E+03  0.00000000000E+00 0.  1.
         21    1    1    2  503  502  0.52755643536E+01 -0.80278015657E+02 -0.20385061171E+03  0.21915169010E+03  0.00000000000E+00 0.  1.
          1    1    1    2  501    0 -0.13335686955E+02  0.46188540138E+02 -0.15350566895E+03  0.16085773897E+03  0.00000000000E+00 0. -1.
<scales pt_clust_5="13000.00000" pt_clust_6="13000.00000" pt_clust_7="13000.00000" pt_clust_8="13000.00000" pt_clust_9="54.16943" pt_clust_10="48.07517"></scales>
<clustering>
<clus scale="   48.075">  2 10  1 -1</clus>
<clus scale="   54.169">  2  9  1 -1</clus>
<clus scale="   80.248">  5  6 -1 -1</clus>
<clus scale="   93.741">  7  8 -1 -1</clus>
<clus scale="  111.674">  1  5  2 -1</clus>
<clus scale="   48.075">  2  5  1 -1</clus>
</clustering>
</event>
<event>
10    4  0.7697601E-005  0.1376306E+03  0.7546771E-02  0.1219060E+00
          2   -1    0    0  503    0 -0.00000000000E+00  0.00000000000E+00  0.93559569468E+03  0.93559569468E+03  0.00000000000E+00 0. -1.
         21   -1    0    0  501  502  0.00000000000E+00 -0.00000000000E+00 -0.35613681727E+02  0.35613681727E+02  0.00000000000E+00 0.  1.
         23    2    1    2    0    0 -0.11260784322E+02 -0.97188539718E+02  0.43702608188E+03  0.45772713032E+03  0.94603974924E+02 0.  0.
         24    2    1    2    0    0 -0.25022862552E+02  0.10358251868E+03  0.30907051158E+03  0.33753657569E+03  0.83969500279E+02 0.  0.
        -11    1    4    4    0    0 -0.58039263033E+01  0.38803032993E+02  0.27351398021E+02  0.47827396999E+02  0.00000000000E+00 0.  1.
         12    1    4    4    0    0 -0.19218936248E+02  0.64779485687E+02  0.28171911355E+03  0.28970917869E+03  0.00000000000E+00 0. -1.
        -11    1    3    3    0    0 -0.37225003079E+02 -0.42574252859E+02  0.96312618318E+02  0.11168880118E+03  0.00000000000E+00 0.  1.
         11    1    3    3    0    0  0.25964218757E+02 -0.54614286860E+02  0.34071346356E+03  0.34603832914E+03  0.00000000000E+00 0. -1.
         21    1    1    2  503  502 -0.20356277570E+02 -0.17145104450E+02  0.36562645147E+02  0.45223441524E+02  0.00000000000E+00 0.  1.
          1    1    1    2  501    0  0.56639924443E+02  0.10751125488E+02  0.11732277436E+03  0.13072222888E+03  0.00000000000E+00 0. -1.
<scales pt_clust_5="13000.00000" pt_clust_6="13000.00000" pt_clust_7="13000.00000" pt_clust_8="13000.00000" pt_clust_9="26.61452" pt_clust_10="52.75748"></scales>
<clustering>
<clus scale="   26.615">  2  9  1 -1</clus>
<clus scale="   52.757">  2 10  1 -1</clus>
<clus scale="   83.970">  5  6 -1 -1</clus>
<clus scale="   94.604">  7  8 -1 -1</clus>
<clus scale="  130.549">  2  5  1 -1</clus>
<clus scale="   26.615">  2  5  1 -1</clus>
</clustering>
</event>
<event>
10    4  0.7697601E-005  0.1523528E+03  0.7546771E-02  0.1231336E+00
         21   -1    0    0  501  502  0.00000000000E+00  0.00000000000E+00  0.81294033602E+02  0.81294033602E+02  0.00000000000E+00 0.  1.
         -1   -1    0    0    0  501 -0.00000000000E+00 -0.00000000000E+00 -0.69867094376E+03  0.69867094376E+03  0.00000000000E+00 0.  1.
         24    2    1    2    0    0  0.14485917184E+02 -0.68873230762E+01 -0.27146360365E+03  0.28160500324E+03  0.73154717741E+02 0.  0.
         23    2    1    2    0    0  0.55436550979E+02 -0.10349121511E+03 -0.29319251452E+03  0.32765883620E+03  0.87262933580E+02 0.  0.
        -13    1    3    3    0    0  0.42051810211E+02 -0.16914518907E+02 -0.17547910679E+03  0.18123844131E+03  0.00000000000E+00 0.  1.
         14    1    3    3    0    0 -0.27565893026E+02  0.10027195830E+02 -0.95984496864E+02  0.10036656193E+03  0.00000000000E+00 0. -1.
        -13    1    4    4    0    0  0.59523598383E+01 -0.29383766006E+02 -0.11337097135E+02  0.32052551595E+02  0.00000000000E+00 0. -1.
         13    1    4    4    0    0  0.49484191140E+02 -0.74107449103E+02 -0.28185541739E+03  0.29560628460E+03  0.00000000000E+00 0.  1.
         21    1    1    2  503  502 -0.33281119424E+02 -0.92776421640E+01 -0.24673969958E+02  0.42456004849E+02  0.00000000000E+00 0.  1.
         -2    1    1    2    0  503 -0.36641348739E+02  0.11965618035E+03 -0.28046822034E+02  0.12824513308E+03  0.00000000000E+00 0.  1.
<scales pt_clust_5="13000.00000" pt_clust_6="13000.00000" pt_clust_7="13000.00000" pt_clust_8="13000.00000" pt_clust_9="34.55007" pt_clust_10="124.88621"></scales>
<clustering>
<clus scale="   34.550">  1  9  2 -1</clus>
<clus scale="   73.155">  5  6 -1 -1</clus>
<clus scale="   74.540">  2  5  1 -1</clus>
<clus scale="   87.263">  7  8 -1 -1</clus>
<clus scale="  124.886">  1 10  2 -1</clus>
<clus scale="   34.550">  1  5  2 -1</clus>
</clustering>
</event>
<event>
10    4  0.7697601E-005  0.1791109E+03  0.7546771E-02  0.1180852E+00
          2   -1    0    0  503    0 -0.00000000000E+00  0.00000000000E+00  0.61089305188E+03  0.61089305188E+03  0.00000000000E+00 0. -1.
         21   -1    0    0  501  502  0.00000000000E+00 -0.00000000000E+00 -0.25375915088E+03  0.25375915088E+03  0.00000000000E+00 0. -1.
         23    2    1    2    0    0 -0.10451854223E+03 -0.12723074575E+01  0.39710119942E+03  0.42023157730E+03  0.89327887855E+02 0.  0.
         24    2    1    2    0    0  0.14962365005E+03  0.14646160983E+03  0.32161820148E+02  0.22603459231E+03  0.78860728113E+02 0.  0.
        -11    1    4    4    0    0  0.21322796252E+02  0.72148975400E+02  0.15707422266E+02  0.76856095435E+02  0.00000000000E+00 0.  1.
         12    1    4    4    0    0  0.12830085380E+03  0.74312634428E+02  0.16454397881E+02  0.14917849688E+03  0.00000000000E+00 0. -1.
        -11    1    3    3    0    0 -0.35134379772E+02  0.32174853794E+02  0.24665826947E+03  0.25121693366E+03  0.00000000000E+00 0.  1.
         11    1    3    3    0    0 -0.69384162457E+02 -0.33447161251E+02  0.15044292995E+03  0.16901464365E+03  0.00000000000E+00 0. -1.
         21    1    1    2  503  502  0.34228532352E+02 -0.37692264526E+02 -0.67702600626E+02  0.84710928242E+02  0.00000000000E+00 0. -1.
          1    1    1    2  501    0 -0.79333640171E+02 -0.10749703784E+03 -0.44265179412E+01  0.13367510490E+03  0.00000000000E+00 0. -1.
<scales pt_clust_5="13000.00000" pt_clust_6="13000.00000" pt_clust_7="13000.00000" pt_clust_8="13000.00000" pt_clust_9="50.91463" pt_clust_10="160.81571"></scales>
<clustering>
<clus scale="   50.915">  2  9  1 -1</clus>
<clus scale="   78.861">  5  6 -1 -1</clus>
<clus scale="   89.328">  7  8 -1 -1</clus>
<clus scale="  135.854">  1  7  2 -1</clus>
<clus scale="  160.816">  2 10  1 -1</clus>
<clus scale="   50.915">  2  5  1 -1</clus>
</clustering>
</event>
<event>
10    4  0.8254481E-005  0.3232179E+03  0.7546771E-02  0.1120476E+00
         -3   -1    0    0    0  501 -0.00000000000E+00  0.00000000000E+00  0.16193713158E+04  0.16193713158E+04  0.00000000000E+00 0.  1.
         21   -1    0    0  503  502  0.00000000000E+00 -0.00000000000E+00 -0.13114109237E+03  0.13114109237E+03  0.00000000000E+00 0.  1.
         24    2    1    2    0    0 -0.57200489905E+02 -0.26154713275E+01  0.26776941570E+03  0.28461955038E+03  0.77647226224E+02 0.  0.
         23    2    1    2    0    0 -0.28863044655E+03  0.41520763158E+02  0.18306899626E+03  0.35615526791E+03  0.91108775746E+02 0.  0.
        -11    1    3    3    0    0 -0.50821948252E+02 -0.34001544687E+01  0.27212827544E+03  0.27685416697E+03  0.00000000000E+00 0.  1.
         12    1    3    3    0    0 -0.63785416535E+01  0.78468314120E+00 -0.43588597429E+01  0.77653834107E+01  0.00000000000E+00 0. -1.
        -11    1    4    4    0    0 -0.20929172466E+03 -0.18349087877E+01  0.94690529689E+02  0.22972307093E+03  0.00000000000E+00 0.  1.
         11    1    4    4    0    0 -0.79338721887E+02  0.43355671946E+02  0.88378466566E+02  0.12643219698E+03  0.00000000000E+00 0. -1.
         21    1    1    2  503  501 -0.36757587967E+01  0.27203954665E+02  0.26762045418E+02  0.38337624171E+02  0.00000000000E+00 0.  1.
         -4    1    1    2    0  502  0.34950669525E+03 -0.66109246496E+02  0.10106297661E+04  0.10713999657E+04  0.00000000000E+00 0.  1.
<scales pt_clust_5="13000.00000" pt_clust_6="13000.00000" pt_clust_7="13000.00000" pt_clust_8="13000.00000" pt_clust_9="27.45116" pt_clust_10="310.11144"></scales>
<clustering>
<clus scale="   27.451">  2  9  1 -1</clus>
<clus scale="   77.647">  5  6 -1 -1</clus>
<clus scale="   91.109">  7  8 -1 -1</clus>
<clus scale="   96.592">  1  5  2 -1</clus>
<clus scale="  310.111">  2 10  1 -1</clus>
<clus scale="   27.451">  2  5  1 -1</clus>
</clustering>
</event>
<event>
10    4  0.7697601E-005  0.1652769E+03  0.7546771E-02  0.1187840E+00
         21   -1    0    0  503  502  0.00000000000E+00  0.00000000000E+00  0.44303397033E+03  0.44303397033E+03  0.00000000000E+00 0.  1.
          2   -1    0    0  502    0 -0.00000000000E+00 -0.00000000000E+00 -0.24746070405E+03  0.24746070405E+03  0.00000000000E+00 0. -1.
         24    2    1    2    0    0 -0.87634236825E+02 -0.96391990082E+02  0.53501962759E+01  0.15559244390E+03  0.84907059683E+02 0.  0.
         23    2    1    2    0    0 -0.13119657822E+03 -0.33085874864E+02  0.18835511063E+03  0.24893373719E+03  0.90460712778E+02 0.  0.
        -13    1    3    3    0    0 -0.93797714855E+02 -0.57016753176E+02 -0.15093162578E+02  0.11080038363E+03  0.00000000000E+00 0.  1.
         14    1    3    3    0    0  0.61634780301E+01 -0.39375236906E+02  0.20443358854E+02  0.44792060280E+02  0.00000000000E+00 0. -1.
        -13    1    4    4    0    0 -0.88636640673E+02  0.20452585735E+02  0.13202551143E+03  0.16032934230E+03  0.00000000000E+00 0.  1.
         13    1    4    4    0    0 -0.42559937548E+02 -0.53538460600E+02  0.56329599199E+02  0.88604394887E+02  0.00000000000E+00 0. -1.
         21    1    1    2  503  501  0.19712999251E+02  0.41839179608E+02  0.44609842848E+02  0.64258519813E+02  0.00000000000E+00 0.  1.
          1    1    1    2  501    0  0.19911781580E+03  0.87638685339E+02 -0.42741883475E+02  0.22170997348E+03  0.00000000000E+00 0. -1.
<scales pt_clust_5="13000.00000" pt_clust_6="13000.00000" pt_clust_7="13000.00000" pt_clust_8="13000.00000" pt_clust_9="46.25061" pt_clust_10="138.32334"></scales>
<clustering>
<clus scale="   46.251">  1  9  2 -1</clus>
<clus scale="   84.907">  5  6 -1 -1</clus>
<clus scale="   90.461">  7  8 -1 -1</clus>
<clus scale="  147.940">  2  5  1 -1</clus>
<clus scale="  138.323">  1 10  2 -1</clus>
<clus scale="   46.251">  1  5  2 -1</clus>
</clustering>
</event>
<event>
10    4  0.7697601E-005  0.1045259E+03  0.7546771E-02  0.1280744E+00
         21   -1    0    0  503  502  0.00000000000E+00  0.00000000000E+00  0.36887723799E+03  0.36887723799E+03  0.00000000000E+00 0.  1.
         -3   -1    0    0    0  501 -0.00000000000E+00 -0.00000000000E+00 -0.83323093937E+02  0.83323093937E+02  0.00000000000E+00 0.  1.
         23    2    1    2    0    0 -0.70228122655E+02 -0.35212524681E+02  0.33219519283E+02  0.13093675669E+03  0.99342773687E+02 0.  0.
         24    2    1    2    0    0 -0.14780840426E+01 -0.21472531306E+02  0.76743958515E+02  0.11328854096E+03  0.80507167446E+02 0.  0.
        -11    1    4    4    0    0  0.17391912158E+02 -0.23073064523E+02  0.87055711894E+02  0.91725361206E+02  0.00000000000E+00 0.  1.
         12    1    4    4    0    0 -0.18869996200E+02  0.16005332172E+01 -0.10311753379E+02  0.21563179750E+02  0.00000000000E+00 0. -1.
        -11    1    3    3    0    0 -0.36639393258E+02 -0.51594537179E+02 -0.19588547653E+02  0.66243132506E+02  0.00000000000E+00 0.  1.
         11    1    3    3    0    0 -0.33588729396E+02  0.16382012498E+02  0.52808066936E+02  0.64693624179E+02  0.00000000000E+00 0. -1.
         21    1    1    2  503  501  0.15554535984E+02  0.35382461200E+02  0.25472799704E+02  0.46289584951E+02  0.00000000000E+00 0.  1.
         -4    1    1    2    0  502  0.56151670713E+02  0.21302594788E+02  0.15011786656E+03  0.16168544934E+03  0.00000000000E+00 0.  1.
<scales pt_clust_5="13000.00000" pt_clust_6="13000.00000" pt_clust_7="13000.00000" pt_clust_8="13000.00000" pt_clust_9="38.65051" pt_clust_10="62.24428"></scales>
<clustering>
<clus scale="   38.651">  2  9  1 -1</clus>
<clus scale="   62.244">  1 10  2 -1</clus>
<clus scale="   80.507">  5  6 -1 -1</clus>
<clus scale="   86.822">  1  5  2 -1</clus>
<clus scale="   99.343">  7  8 -1 -1</clus>
<clus scale="   62.244">  1  5  2 -1</clus>
</clustering>
</event>
<event>
10    4  0.7697601E-005  0.3930644E+03  0.7546771E-02  0.1105764E+00
          2   -1    0    0  503    0 -0.00000000000E+00  0.00000000000E+00  0.24271101887E+04  0.24271101887E+04  0.00000000000E+00 0. -1.
         21   -1    0    0  501  502  0.00000000000E+00 -0.00000000000E+00 -0.10262096641E+03  0.10262096641E+03  0.00000000000E+00 0. -1.
         24    2    1    2    0    0  0.18703185024E+02  0.68161423984E+01  0.29306337711E+03  0.30341588216E+03  0.76018324195E+02 0.  0.
         23    2    1    2    0    0  0.34390841614E+03 -0.15615941934E+03  0.14493260346E+04  0.15005936295E+04  0.92609521885E+02 0.  0.
        -13    1    3    3    0    0  0.89301895194E+01  0.30419275915E+02  0.51293731786E+02  0.60300311381E+02  0.00000000000E+00 0.  1.
         14    1    3    3    0    0  0.97729955050E+01 -0.23603133516E+02  0.24176964533E+03  0.24311557078E+03  0.00000000000E+00 0. -1.
        -13    1    4    4    0    0  0.32249296436E+03 -0.16849778295E+03  0.13709020200E+04  0.14183672173E+04  0.00000000000E+00 0. -1.
         13    1    4    4    0    0  0.21415451782E+02  0.12338363611E+02  0.78424014634E+02  0.82226412198E+02  0.00000000000E+00 0.  1.
         21    1    1    2  503  502 -0.38232488013E+02 -0.39760803451E+02  0.10484795842E+03  0.11847252430E+03  0.00000000000E+00 0. -1.
          1    1    1    2  501    0 -0.32437911315E+03  0.18910408039E+03  0.47725185220E+03  0.60724911914E+03  0.00000000000E+00 0. -1.
<scales pt_clust_5="13000.00000" pt_clust_6="13000.00000" pt_clust_7="13000.00000" pt_clust_8="13000.00000" pt_clust_9="55.16017" pt_clust_10="381.99885"></scales>
<clustering>
<clus scale="   55.160">  2  9  1 -1</clus>
<clus scale="   76.018">  5  6 -1 -1</clus>
<clus scale="   77.958">  1  5  2 -1</clus>
<clus scale="   92.610">  7  8 -1 -1</clus>
<clus scale="  381.999">  2 10  1 -1</clus>
<clus scale="   55.160">  2  5  1 -1</clus>
</clustering>
</event>
<event>
10    4  0.7697601E-005  0.1363154E+03  0.7546771E-02  0.1221883E+00
         21   -1    0    0  503  502  0.00000000000E+00  0.00000000000E+00  0.22529974124E+03  0.22529974124E+03  0.00000000000E+00 0. -1.
          2   -1    0    0  502    0 -0.00000000000E+00 -0.00000000000E+00 -0.13906635286E+04  0.13906635286E+04  0.00000000000E+00 0. -1.
         24    2    1    2    0    0  0.14531561567E+02 -0.10299636405E+03 -0.11685411306E+04  0.11761893466E+04  0.84342089323E+02 0.  0.
         23    2    1    2    0    0 -0.40493040401E+02  0.12335105355E+03 -0.17865481951E+03  0.23095767573E+03  0.67592416063E+02 0.  0.
        -13    1    3    3    0    0 -0.30052945164E+02 -0.25370287678E+02 -0.22503417570E+03  0.22844520403E+03  0.00000000000E+00 0.  1.
         14    1    3    3    0    0  0.44584506731E+02 -0.77626076368E+02 -0.94350695487E+03  0.94774414261E+03  0.00000000000E+00 0. -1.
        -11    1    4    4    0    0 -0.46292001914E+02  0.76915051105E+02 -0.15351368906E+03  0.17783511256E+03  0.00000000000E+00 0. -1.
         11    1    4    4    0    0  0.57989615128E+01  0.46436002444E+02 -0.25141130449E+02  0.53122563171E+02  0.00000000000E+00 0.  1.
         21    1    1    2  503  501 -0.91732832477E+00  0.24016569783E+02  0.14035004675E+03  0.14239302208E+03  0.00000000000E+00 0. -1.
          1    1    1    2  501    0  0.26878807159E+02 -0.44371259286E+02  0.41482115977E+02  0.66423225387E+02  0.00000000000E+00 0. -1.
<scales pt_clust_5="13000.00000" pt_clust_6="13000.00000" pt_clust_7="13000.00000" pt_clust_8="13000.00000" pt_clust_9="24.03408" pt_clust_10="39.09219"></scales>
<clustering>
<clus scale="   24.034">  1  9  2 -1</clus>
<clus scale="   39.092">  1 10  2 -1</clus>
<clus scale="   67.592">  7  8 -1 -1</clus>
<clus scale="   84.342">  5  6 -1 -1</clus>
<clus scale="  126.637">  1  7  2 -1</clus>
<clus scale="   24.034">  1  5  2 -1</clus>
</clustering>
</event>
<event>
10    4  0.7697601E-005  0.5794968E+03  0.7546771E-02  0.9948881E-01
         21   -1    0    0  503  502  0.00000000000E+00  0.00000000000E+00  0.65238067094E+03  0.65238067094E+03  0.00000000000E+00 0. -1.
          2   -1    0    0  502    0 -0.00000000000E+00 -0.00000000000E+00 -0.62178936244E+03  0.62178936244E+03  0.00000000000E+00 0. -1.
         24    2    1    2    0    0 -0.32230927526E+02  0.11979940261E+03  0.14279625453E+02  0.14771908082E+03  0.78906841155E+02 0.  0.
         23    2    1    2    0    0 -0.36830432616E+03  0.16571838169E+03 -0.56401372493E+02  0.41799367664E+03  0.91798367097E+02 0.  0.
        -11    1    3    3    0    0 -0.62030351281E+01  0.99763804629E+02 -0.18116164904E+02  0.10158488957E+03  0.00000000000E+00 0.  1.
         12    1    3    3    0    0 -0.26027892398E+02  0.20035597977E+02  0.32395790357E+02  0.46134191245E+02  0.00000000000E+00 0. -1.
        -13    1    4    4    0    0 -0.62969523234E+02  0.61557894188E+02  0.99772808753E+01  0.88623255000E+02  0.00000000000E+00 0.  1.
         13    1    4    4    0    0 -0.30533480292E+03  0.10416048750E+03 -0.66378653368E+02  0.32937042165E+03  0.00000000000E+00 0. -1.
         21    1    1    2  503  501  0.27654069691E+02  0.88410704217E+02  0.14844734160E+03  0.17497946571E+03  0.00000000000E+00 0.  1.
          1    1    1    2  501    0  0.37288118399E+03 -0.37392848851E+03 -0.75734286068E+02  0.53347781020E+03  0.00000000000E+00 0. -1.
<scales pt_clust_5="13000.00000" pt_clust_6="13000.00000" pt_clust_7="13000.00000" pt_clust_8="13000.00000" pt_clust_9="92.63477" pt_clust_10="509.42023"></scales>
<clustering>
<clus scale="   78.907">  5  6 -1 -1</clus>
<clus scale="   91.798">  7  8 -1 -1</clus>
<clus scale="   92.635">  1  9  2 -1</clus>
<clus scale="  149.238">  5  7 -1 -1</clus>
<clus scale="  509.420">  1 10  2 -1</clus>
<clus scale="   92.635">  1  5  2 -1</clus>
</clustering>
</event>
<event>
10    4  0.7697601E-005  0.9068208E+02  0.7546771E-02  0.1307718E+00
          2   -1    0    0  503    0 -0.00000000000E+00  0.00000000000E+00  0.89651487637E+03  0.89651487637E+03  0.00000000000E+00 0. -1.
         21   -1    0    0  501  502  0.00000000000E+00 -0.00000000000E+00 -0.99396287078E+02  0.99396287078E+02  0.00000000000E+00 0. -1.
         24    2    1    2    0    0 -0.17715069514E+02 -0.11903011617E+01  0.68982603002E+03  0.69444273727E+03  0.77945642277E+02 0.  0.
         23    2    1    2    0    0  0.24981535660E+02  0.39544924250E+02  0.18223668246E+03  0.20788804247E+03  0.88427097725E+02 0.  0.
        -11    1    3    3    0    0 -0.35034369016E+02  0.23648984488E+02  0.24767636153E+03  0.25125736117E+03  0.00000000000E+00 0.  1.
         12    1    3    3    0    0  0.17319299501E+02 -0.24839285649E+02  0.44214966848E+03  0.44318537610E+03  0.00000000000E+00 0. -1.
        -11    1    4    4    0    0  0.56422215209E+02  0.13222729066E+02  0.91370162345E+02  0.10819802909E+03  0.00000000000E+00 0.  1.
         11    1    4    4    0    0 -0.31440679550E+02  0.26322195183E+02  0.90866520115E+02  0.99690013379E+02  0.00000000000E+00 0. -1.
         21    1    1    2  503  502 -0.21851203329E+02 -0.11109181107E+02 -0.26323260496E+02  0.35969473653E+02  0.00000000000E+00 0. -1.
          1    1    1    2  501    0  0.14584737183E+02 -0.27245441981E+02 -0.48620862693E+02  0.57610910048E+02  0.00000000000E+00 0. -1.
<scales pt_clust_5="13000.00000" pt_clust_6="13000.00000" pt_clust_7="13000.00000" pt_clust_8="13000.00000" pt_clust_9="24.51304" pt_clust_10="35.97279"></scales>
<clustering>
<clus scale="   24.513">  2  9  1 -1</clus>
<clus scale="   35.973">  2 10  1 -1</clus>
<clus scale="   77.946">  5  6 -1 -1</clus>
<clus scale="   80.495">  1  5  2 -1</clus>
<clus scale="   88.427">  7  8 -1 -1</clus>
<clus scale="   24.513">  2  5  1 -1</clus>
</clustering>
</event>
<event>
10    4  0.7697601E-005  0.2860277E+03  0.7546771E-02  0.1135459E+00
         -1   -1    0    0    0  501 -0.00000000000E+00  0.00000000000E+00  0.73395797669E+03  0.73395797669E+03  0.00000000000E+00 0.  1.
         21   -1    0    0  503  502  0.00000000000E+00 -0.00000000000E+00 -0.53015857859E+03  0.53015857859E+03  0.00000000000E+00 0.  1.
         24    2    1    2    0    0 -0.13812996822E+02 -0.52808335456E+02  0.96843392726E+02  0.13867824986E+03  0.82906544346E+02 0.  0.
         23    2    1    2    0    0 -0.13574395115E+03  0.24622668255E+03  0.36749956698E+03  0.47863912479E+03  0.12241519749E+03 0.  0.
        -11    1    3    3    0    0 -0.22915213346E+02 -0.66812624962E+02  0.43902890937E+02  0.83165483764E+02  0.00000000000E+00 0.  1.
         12    1    3    3    0    0  0.91022165231E+01  0.14004289507E+02  0.52940501790E+02  0.55512766099E+02  0.00000000000E+00 0. -1.
        -11    1    4    4    0    0 -0.64028098537E+02  0.16673363481E+02  0.79410339933E+02  0.10336150415E+03  0.00000000000E+00 0. -1.
         11    1    4    4    0    0 -0.71715852612E+02  0.22955331907E+03  0.28808922705E+03  0.37527762064E+03  0.00000000000E+00 0.  1.
         21    1    1    2  503  501  0.38942859178E+02  0.34705297497E+02 -0.36782698139E+03  0.37150732455E+03  0.00000000000E+00 0.  1.
         -2    1    1    2    0  502  0.11061408879E+03 -0.22812364460E+03  0.10728341978E+03  0.27529185608E+03  0.00000000000E+00 0.  1.
<scales pt_clust_5="13000.00000" pt_clust_6="13000.00000" pt_clust_7="13000.00000" pt_clust_8="13000.00000" pt_clust_9="52.16324" pt_clust_10="258.50792"></scales>
<clustering>
<clus scale="   52.163">  2  9  1 -1</clus>
<clus scale="   82.907">  5  6 -1 -1</clus>
<clus scale="   96.339">  1  5  2 -1</clus>
<clus scale="  122.415">  7  8 -1 -1</clus>
<clus scale="  258.508">  2 10  1 -1</clus>
<clus scale="   52.163">  2  5  1 -1</clus>
</clustering>
</event>
<event>
10    4  0.7697601E-005  0.1328607E+03  0.7546771E-02  0.1233729E+00
         -1   -1    0    0    0  501 -0.00000000000E+00  0.00000000000E+00  0.66279200419E+03  0.66279200419E+03  0.00000000000E+00 0.  1.
         21   -1    0    0  501  502  0.00000000000E+00 -0.00000000000E+00 -0.61297634902E+02  0.61297634902E+02  0.00000000000E+00 0. -1.
         24    2    1    2    0    0  0.31791220812E+02  0.54401523625E+02  0.14910750732E+03  0.18010345498E+03  0.78955672764E+02 0.  0.
         23    2    1    2    0    0  0.44333058526E+02 -0.60969848842E+02  0.15331297049E+03  0.19481757854E+03  0.93628411512E+02 0.  0.
        -11    1    3    3    0    0  0.52695904975E+02  0.20647561183E+02  0.11325096973E+03  0.12660553830E+03  0.00000000000E+00 0.  1.
         12    1    3    3    0    0 -0.20904684163E+02  0.33753962442E+02  0.35856537588E+02  0.53497916673E+02  0.00000000000E+00 0. -1.
        -11    1    4    4    0    0  0.23387204732E+02 -0.32648418758E+02  0.28228226288E+01  0.40259768009E+02  0.00000000000E+00 0. -1.
         11    1    4    4    0    0  0.20945853794E+02 -0.28321430084E+02  0.15049014786E+03  0.15455781053E+03  0.00000000000E+00 0.  1.
         21    1    1    2  503  502  0.50349643251E+02  0.18611513738E+01  0.57514047838E+02  0.76461860810E+02  0.00000000000E+00 0. -1.
         -2    1    1    2    0  503 -0.12647392259E+03  0.47071738433E+01  0.24155984363E+03  0.27270674476E+03  0.00000000000E+00 0.  1.
<scales pt_clust_5="13000.00000" pt_clust_6="13000.00000" pt_clust_7="13000.00000" pt_clust_8="13000.00000" pt_clust_9="50.38403" pt_clust_10="94.26390"></scales>
<clustering>
<clus scale="   50.384">  2  9  1 -1</clus>
<clus scale="   78.956">  5  6 -1 -1</clus>
<clus scale="   93.628">  7  8 -1 -1</clus>
<clus scale="  107.001">  1  5  2 -1</clus>
<clus scale="   94.264">  2 10  1 -1</clus>
<clus scale="   50.384">  2  5  1 -1</clus>
</clustering>
</event>
<event>
10    4  0.7697601E-005  0.1280304E+03  0.7546771E-02  0.1244569E+00
         21   -1    0    0  503  502  0.00000000000E+00  0.00000000000E+00  0.10957124927E+03  0.10957124927E+03  0.00000000000E+00 0. -1.
          2   -1    0    0  502    0 -0.00000000000E+00 -0.00000000000E+00 -0.88993539845E+03  0.88993539845E+03  0.00000000000E+00 0. -1.
         23    2    1    2    0    0 -0.16096489906E+02 -0.41114279344E+01 -0.15766358641E+03  0.18256706804E+03  0.90536882124E+02 0.  0.
         24    2    1    2    0    0  0.23748082074E+02  0.11056768139E+03 -0.62097375567E+03  0.63627288987E+03  0.80284503999E+02 0.  0.
        -11    1    4    4    0    0  0.19437332245E+02  0.15143988449E+02 -0.36459489033E+02  0.44005052113E+02  0.00000000000E+00 0.  1.
         12    1    4    4    0    0  0.43107498289E+01  0.95423692941E+02 -0.58451426664E+03  0.59226783776E+03  0.00000000000E+00 0. -1.
        -11    1    3    3    0    0  0.18234017178E+02 -0.38081056952E+02 -0.57172645024E+02  0.71072903557E+02  0.00000000000E+00 0.  1.
         11    1    3    3    0    0 -0.34330507084E+02  0.33969629017E+02 -0.10049094139E+03  0.11149416448E+03  0.00000000000E+00 0. -1.
         21    1    1    2  503  501 -0.70308492450E+02 -0.26587986671E+02  0.17910176894E+02  0.77272113871E+02  0.00000000000E+00 0.  1.
          1    1    1    2  501    0  0.62656900282E+02 -0.79868266785E+02 -0.19636983984E+02  0.10339457593E+03  0.00000000000E+00 0. -1.
<scales pt_clust_5="13000.00000" pt_clust_6="13000.00000" pt_clust_7="13000.00000" pt_clust_8="13000.00000" pt_clust_9="75.16785" pt_clust_10="99.73058"></scales>
<clustering>
<clus scale="   75.168">  1  9  2 -1</clus>
<clus scale="   80.285">  5  6 -1 -1</clus>
<clus scale="   90.537">  7  8 -1 -1</clus>
<clus scale="   95.915">  2  7  1 -1</clus>
<clus scale="   99.731">  1 10  2 -1</clus>
<clus scale="   75.168">  1  5  2 -1</clus>
</clustering>
</event>
<event>
10    4  0.7697601E-005  0.1528866E+03  0.7546771E-02  0.1214876E+00
          2   -1    0    0  502    0 -0.00000000000E+00  0.00000000000E+00  0.12601077839E+04  0.12601077839E+04  0.00000000000E+00 0. -1.
         21   -1    0    0  503  502  0.00000000000E+00 -0.00000000000E+00 -0.36014660423E+02  0.36014660423E+02  0.00000000000E+00 0.  1.
         24    2    1    2    0    0 -0.57135360324E+02  0.26054244327E+01  0.25170589681E+03  0.27128708267E+03  0.83484040989E+02 0.  0.
         23    2    1    2    0    0  0.21649194607E+02  0.12426914284E+03  0.62078451963E+03  0.64033047154E+03  0.93478262134E+02 0.  0.
        -13    1    3    3    0    0 -0.58814899724E+02  0.41309252572E+01  0.25797144819E+03  0.26462336453E+03  0.00000000000E+00 0.  1.
         14    1    3    3    0    0  0.16795394002E+01 -0.15255008244E+01 -0.62655513817E+01  0.66637181422E+01  0.00000000000E+00 0. -1.
        -11    1    4    4    0    0  0.43182135131E+02  0.28089090748E+02  0.31121512659E+03  0.31544975643E+03  0.00000000000E+00 0.  1.
         11    1    4    4    0    0 -0.21532940524E+02  0.96180052096E+02  0.30956939303E+03  0.32488071511E+03  0.00000000000E+00 0. -1.
         21    1    1    2  503  501 -0.15382549056E+02 -0.13325570729E+02  0.13994538379E+02  0.24699003121E+02  0.00000000000E+00 0.  1.
          1    1    1    2  501    0  0.50868714774E+02 -0.11354899655E+03  0.33760816862E+03  0.35980588695E+03  0.00000000000E+00 0. -1.
<scales pt_clust_5="13000.00000" pt_clust_6="13000.00000" pt_clust_7="13000.00000" pt_clust_8="13000.00000" pt_clust_9="20.35175" pt_clust_10="120.97982"></scales>
<clustering>
<clus scale="   20.352">  2  9  1 -1</clus>
<clus scale="   83.484">  5  6 -1 -1</clus>
<clus scale="   93.478">  7  8 -1 -1</clus>
<clus scale="  104.030">  1  5  2 -1</clus>
<clus scale="  120.980">  2 10  1 -1</clus>
<clus scale="   20.352">  2  5  1 -1</clus>
</clustering>
</event>
<event>
10    4  0.7697601E-005  0.2019327E+03  0.7546771E-02  0.1179385E+00
         -1   -1    0    0    0  501 -0.00000000000E+00  0.00000000000E+00  0.24748059528E+03  0.24748059528E+03  0.00000000000E+00 0.  1.
         21   -1    0    0  503  502  0.00000000000E+00 -0.00000000000E+00 -0.40218196871E+03  0.40218196871E+03  0.00000000000E+00 0.  1.
         24    2    1    2    0    0 -0.12663121913E+02  0.53376031780E+02  0.91257812224E+02  0.13369705066E+03  0.80855164579E+02 0.  0.
         23    2    1    2    0    0 -0.12966349453E+03  0.69955845719E+02 -0.65353804975E+01  0.17214251765E+03  0.88791289111E+02 0.  0.
        -13    1    3    3    0    0 -0.27980030392E+02  0.18630291618E+02  0.89589627691E+02  0.95688407115E+02  0.00000000000E+00 0.  1.
         14    1    3    3    0    0  0.15316908479E+02  0.34745740162E+02  0.16681845330E+01  0.38008643548E+02  0.00000000000E+00 0. -1.
        -13    1    4    4    0    0 -0.67578320872E+02  0.38266533194E+02  0.40954418944E+02  0.87797616400E+02  0.00000000000E+00 0.  1.
         13    1    4    4    0    0 -0.62085173657E+02  0.31689312525E+02 -0.47489799441E+02  0.84344901252E+02  0.00000000000E+00 0. -1.
         21    1    1    2  503  501 -0.29751728918E+02  0.42579759424E+00 -0.56449401454E+02  0.63811296819E+02  0.00000000000E+00 0.  1.
         -2    1    1    2    0  502  0.17207834536E+03 -0.12375767509E+03 -0.18297440370E+03  0.28001169885E+03  0.00000000000E+00 0.  1.
<scales pt_clust_5="13000.00000" pt_clust_6="13000.00000" pt_clust_7="13000.00000" pt_clust_8="13000.00000" pt_clust_9="29.75478" pt_clust_10="181.36411"></scales>
<clustering>
<clus scale="   29.755">  2  9  1 -1</clus>
<clus scale="   80.855">  5  6 -1 -1</clus>
<clus scale="   88.791">  7  8 -1 -1</clus>
<clus scale="   97.979">  1  5  2 -1</clus>
<clus scale="  181.364">  2 10  1 -1</clus>
<clus scale="   29.755">  2  5  1 -1</clus>
</clustering>
</event>
<event>
10    4  0.7697601E-005  0.1907452E+03  0.7546771E-02  0.1167382E+00
         21   -1    0    0  503  502  0.00000000000E+00  0.00000000000E+00  0.17406432268E+03  0.17406432268E+03  0.00000000000E+00 0.  1.
          2   -1    0    0  502    0 -0.00000000000E+00 -0.00000000000E+00 -0.57420632640E+03  0.57420632640E+03  0.00000000000E+00 0. -1.
         23    2    1    2    0    0  0.86345064794E+02  0.81349605296E+02 -0.13574989545E+03  0.20177155419E+03  0.90611795429E+02 0.  0.
         24    2    1    2    0    0  0.10876662069E+03 -0.14376072409E+03 -0.71828313849E+02  0.21033658525E+03  0.81147081615E+02 0.  0.
        -13    1    4    4    0    0  0.10024876324E+03 -0.14171417483E+03 -0.41104223117E+02  0.17838800139E+03  0.00000000000E+00 0.  1.
         14    1    4    4    0    0  0.85178574516E+01 -0.20465492572E+01 -0.30724090732E+02  0.31948583861E+02  0.00000000000E+00 0. -1.
        -11    1    3    3    0    0  0.10441007816E+03  0.71155470235E+02 -0.12734225627E+03  0.17938956379E+03  0.00000000000E+00 0.  1.
         11    1    3    3    0    0 -0.18065013369E+02  0.10194135061E+02 -0.84076391791E+01  0.22381990399E+02  0.00000000000E+00 0. -1.
         21    1    1    2  503  501  0.19759782686E+01  0.24420013683E+02  0.28492819922E+02  0.37577684142E+02  0.00000000000E+00 0.  1.
          1    1    1    2  501    0 -0.19708766376E+03  0.37991105112E+02 -0.22105661435E+03  0.29858482550E+03  0.00000000000E+00 0. -1.
<scales pt_clust_5="13000.00000" pt_clust_6="13000.00000" pt_clust_7="13000.00000" pt_clust_8="13000.00000" pt_clust_9="24.49983" pt_clust_10="172.62365"></scales>
<clustering>
<clus scale="   24.500">  1  9  2 -1</clus>
<clus scale="   81.147">  5  6 -1 -1</clus>
<clus scale="   90.612">  7  8 -1 -1</clus>
<clus scale="  152.730">  2  7  1 -1</clus>
<clus scale="  172.624">  1 10  2 -1</clus>
<clus scale="   24.500">  1  5  2 -1</clus>
</clustering>
</event>
<event>
10    4  0.7697601E-005  0.9409461E+02  0.7546771E-02  0.1300249E+00
          4   -1    0    0  503    0 -0.00000000000E+00  0.00000000000E+00  0.80061496083E+03  0.80061496083E+03  0.00000000000E+00 0. -1.
         21   -1    0    0  501  502  0.00000000000E+00 -0.00000000000E+00 -0.46519096752E+02  0.46519096752E+02  0.00000000000E+00 0. -1.
         24    2    1    2    0    0  0.27333981046E+02  0.82838781217E+01  0.37418273076E+03  0.38358131695E+03  0.79411218077E+02 0.  0.
         23    2    1    2    0    0  0.59600116012E+01 -0.15752039823E+02  0.98385923190E+02  0.13526987028E+03  0.91293479644E+02 0.  0.
        -11    1    3    3    0    0 -0.12464292561E+02 -0.27399901812E+02  0.10994918313E+03  0.11399533358E+03  0.00000000000E+00 0.  1.
         12    1    3    3    0    0  0.39798273607E+02  0.35683779934E+02  0.26423354764E+03  0.26958598337E+03  0.00000000000E+00 0. -1.
        -13    1    4    4    0    0  0.22116523224E+01  0.35269919678E+02  0.17183909087E+02  0.39295615170E+02  0.00000000000E+00 0.  1.
         13    1    4    4    0    0  0.37483592788E+01 -0.51021959501E+02  0.81202014103E+02  0.95974255105E+02  0.00000000000E+00 0. -1.
         21    1    1    2  503  502  0.21234607829E+02 -0.38020372338E+01 -0.15191715639E+02  0.26384697853E+02  0.00000000000E+00 0. -1.
          3    1    1    2  501    0 -0.54528600476E+02  0.11270198935E+02  0.29671892576E+03  0.30189817250E+03  0.00000000000E+00 0. -1.
<scales pt_clust_5="13000.00000" pt_clust_6="13000.00000" pt_clust_7="13000.00000" pt_clust_8="13000.00000" pt_clust_9="21.57230" pt_clust_10="53.51084"></scales>
<clustering>
<clus scale="   21.572">  2  9  1 -1</clus>
<clus scale="   53.511">  2 10  1 -1</clus>
<clus scale="   79.411">  5  6 -1 -1</clus>
<clus scale="   82.616">  1  5  2 -1</clus>
<clus scale="   91.293">  7  8 -1 -1</clus>
<clus scale="   21.572">  2  5  1 -1</clus>
</clustering>
</event>
<event>
10    4  0.7697601E-005  0.1777039E+03  0.7546771E-02  0.1171258E+00
         21   -1    0    0  501  502  0.00000000000E+00  0.00000000000E+00  0.27476017599E+03  0.27476017599E+03  0.00000000000E+00 0.  1.
         -1   -1    0    0    0  501 -0.00000000000E+00 -0.00000000000E+00 -0.44488345408E+03  0.44488345408E+03  0.00000000000E+00 0.  1.
         24    2    1    2    0    0 -0.12775786525E+03  0.11119283201E+03 -0.12888466528E+03  0.22877082585E+03  0.83898246652E+02 0.  0.
         23    2    1    2    0    0 -0.46001461694E+02 -0.17744322753E+03  0.18560508676E+02  0.20661506222E+03  0.93504320635E+02 0.  0.
        -11    1    3    3    0    0 -0.47145410898E+02  0.82667052045E+02 -0.34042256621E+02  0.10107129414E+03  0.00000000000E+00 0.  1.
         12    1    3    3    0    0 -0.80612454356E+02  0.28525779966E+02 -0.94842408657E+02  0.12769953171E+03  0.00000000000E+00 0. -1.
        -13    1    4    4    0    0 -0.15165824130E+02 -0.17399788173E+03  0.17998057830E+02  0.17558244546E+03  0.00000000000E+00 0. -1.
         13    1    4    4    0    0 -0.30835637564E+02 -0.34453457991E+01  0.56245084584E+00  0.31032616754E+02  0.00000000000E+00 0.  1.
         21    1    1    2  503  502 -0.12621194188E+02  0.30215258117E+02  0.53836495871E+02  0.63012892756E+02  0.00000000000E+00 0.  1.
         -2    1    1    2    0  503  0.18638052114E+03  0.36035137403E+02 -0.11363561735E+03  0.22124484925E+03  0.00000000000E+00 0.  1.
<scales pt_clust_5="13000.00000" pt_clust_6="13000.00000" pt_clust_7="13000.00000" pt_clust_8="13000.00000" pt_clust_9="32.74533" pt_clust_10="188.34566"></scales>
<clustering>
<clus scale="   32.745">  1  9  2 -1</clus>
<clus scale="   83.898">  5  6 -1 -1</clus>
<clus scale="   93.504">  7  8 -1 -1</clus>
<clus scale="  188.346">  1 10  2 -1</clus>
<clus scale="  172.842">  2  5  1 -1</clus>
<clus scale="   32.745">  1  5  2 -1</clus>
</clustering>
</event>
<event>
10    4  0.7697601E-005  0.1528941E+03  0.7546771E-02  0.1216728E+00
          2   -1    0    0  503    0 -0.00000000000E+00  0.00000000000E+00  0.14927145672E+03  0.14927145672E+03  0.00000000000E+00 0. -1.
         21   -1    0    0  501  502  0.00000000000E+00 -0.00000000000E+00 -0.36829389165E+03  0.36829389165E+03  0.00000000000E+00 0.  1.
         23    2    1    2    0    0 -0.37434410081E+02  0.31334276243E+02 -0.47277233950E+02  0.11278811126E+03  0.90015827867E+02 0.  0.
         24    2    1    2    0    0  0.97615232193E+02  0.99698914934E+02 -0.16280517977E+03  0.22985121528E+03  0.82809706023E+02 0.  0.
        -11    1    4    4    0    0  0.81583329015E+02  0.51117403963E+02 -0.55877288696E+02  0.11131531769E+03  0.00000000000E+00 0.  1.
         12    1    4    4    0    0  0.16031903179E+02  0.48581510971E+02 -0.10692789108E+03  0.11853589759E+03  0.00000000000E+00 0. -1.
        -11    1    3    3    0    0  0.12731029584E+02 -0.23412792668E+02 -0.43066741157E+01  0.26996025943E+02  0.00000000000E+00 0.  1.
         11    1    3    3    0    0 -0.50165439665E+02  0.54747068910E+02 -0.42970559834E+02  0.85792085320E+02  0.00000000000E+00 0. -1.
         21    1    1    2  503  502  0.62679033319E+01 -0.26703860292E+02 -0.38954905364E+02  0.47643125617E+02  0.00000000000E+00 0. -1.
          1    1    1    2  501    0 -0.66448725444E+02 -0.10432933088E+03  0.30014884162E+02  0.12728289621E+03  0.00000000000E+00 0. -1.
<scales pt_clust_5="13000.00000" pt_clust_6="13000.00000" pt_clust_7="13000.00000" pt_clust_8="13000.00000" pt_clust_9="27.42960" pt_clust_10="128.52700"></scales>
<clustering>
<clus scale="   27.430">  2  9  1 -1</clus>
<clus scale="   82.810">  5  6 -1 -1</clus>
<clus scale="   90.016">  7  8 -1 -1</clus>
<clus scale="  100.020">  1  7  2 -1</clus>
<clus scale="  128.527">  2 10  1 -1</clus>
<clus scale="   27.430">  2  5  1 -1</clus>
</clustering>
</event>
<event>
10    4  0.7697601E-005  0.1256571E+03  0.7546771E-02  0.1236299E+00
          2   -1    0    0  503    0 -0.00000000000E+00  0.00000000000E+00  0.22157183986E+04  0.22157183986E+04  0.00000000000E+00 0. -1.
         21   -1    0    0  501  502  0.00000000000E+00 -0.00000000000E+00 -0.16283532187E+03  0.16283532187E+03  0.00000000000E+00 0. -1.
         24    2    1    2    0    0  0.76658674250E+02  0.33281556257E+02  0.17993273204E+04  0.18032196425E+04  0.83893140796E+02 0.  0.
         23    2    1    2    0    0 -0.12128396590E+03 -0.12798074621E+02  0.18666974179E+03  0.24114016836E+03  0.91811748698E+02 0.  0.
        -11    1    3    3    0    0  0.25188385808E+02  0.23625616399E+02  0.19476700600E+03  0.19780498264E+03  0.00000000000E+00 0.  1.
         12    1    3    3    0    0  0.51470288441E+02  0.96559398586E+01  0.16045603144E+04  0.16054146599E+04  0.00000000000E+00 0. -1.
        -13    1    4    4    0    0 -0.96589618268E+02  0.27820122257E+02  0.97198793970E+02  0.13982531641E+03  0.00000000000E+00 0.  1.
         13    1    4    4    0    0 -0.24694347634E+02 -0.40618196878E+02  0.89470947818E+02  0.10131485195E+03  0.00000000000E+00 0. -1.
         21    1    1    2  503  502  0.12959700538E+03  0.28750006734E+02 -0.81856719051E+02  0.15595662584E+03  0.00000000000E+00 0. -1.
          1    1    1    2  501    0 -0.84971713724E+02 -0.49233488371E+02  0.14874273365E+03  0.17823728376E+03  0.00000000000E+00 0. -1.
<scales pt_clust_5="13000.00000" pt_clust_6="13000.00000" pt_clust_7="13000.00000" pt_clust_8="13000.00000" pt_clust_9="62.30924" pt_clust_10="98.20452"></scales>
<clustering>
<clus scale="   83.893">  5  6 -1 -1</clus>
<clus scale="   91.812">  7  8 -1 -1</clus>
<clus scale="   98.205">  2 10  1 -1</clus>
<clus scale="   62.309">  2  9  1 -1</clus>
<clus scale="  119.993">  1  5  2 -1</clus>
<clus scale="   98.205">  2  5  1 -1</clus>
</clustering>
</event>
<event>
10    4  0.7697601E-005  0.2055526E+03  0.7546771E-02  0.1168006E+00
         21   -1    0    0  503  502  0.00000000000E+00  0.00000000000E+00  0.18725039285E+03  0.18725039285E+03  0.00000000000E+00 0.  1.
          2   -1    0    0  502    0 -0.00000000000E+00 -0.00000000000E+00 -0.22082488848E+04  0.22082488848E+04  0.00000000000E+00 0. -1.
         24    2    1    2    0    0 -0.15990813994E+03  0.48991730890E+01 -0.86664997259E+02  0.19831576320E+03  0.78890462460E+02 0.  0.
         23    2    1    2    0    0 -0.10928891403E+03  0.18212254314E+03 -0.16924830797E+03  0.28589143792E+03  0.89309781520E+02 0.  0.
        -13    1    3    3    0    0 -0.60215948934E+02  0.98859537809E+01 -0.76684727090E+02  0.98001224263E+02  0.00000000000E+00 0.  1.
         14    1    3    3    0    0 -0.99692191005E+02 -0.49867806919E+01 -0.99802701689E+01  0.10031453894E+03  0.00000000000E+00 0. -1.
        -11    1    4    4    0    0 -0.61430128114E+02  0.12338775462E+03 -0.54137730046E+02  0.14808474751E+03  0.00000000000E+00 0. -1.
         11    1    4    4    0    0 -0.47858785921E+02  0.58734788520E+02 -0.11511057792E+03  0.13780669041E+03  0.00000000000E+00 0.  1.
         21    1    1    2  503  501  0.14950917912E+03 -0.70571828620E+01 -0.17845595762E+02  0.15073574148E+03  0.00000000000E+00 0. -1.
          1    1    1    2  501    0  0.11968787486E+03 -0.17996453337E+03 -0.17472395910E+04  0.17605563351E+04  0.00000000000E+00 0. -1.
<scales pt_clust_5="13000.00000" pt_clust_6="13000.00000" pt_clust_7="13000.00000" pt_clust_8="13000.00000" pt_clust_9="149.67564" pt_clust_10="185.13692"></scales>
<clustering>
<clus scale="   78.890">  5  6 -1 -1</clus>
<clus scale="   89.310">  7  8 -1 -1</clus>
<clus scale="  149.676">  1  9  2 -1</clus>
<clus scale="  120.310">  2  5  1 -1</clus>
<clus scale="  185.137">  1 10  2 -1</clus>
<clus scale="  149.676">  1  5  2 -1</clus>
</clustering>
</event>
<event>
10    4  0.7697601E-005  0.2428326E+03  0.7546771E-02  0.1161866E+00
         21   -1    0    0  501  502  0.00000000000E+00  0.00000000000E+00  0.35209886386E+03  0.35209886386E+03  0.00000000000E+00 0. -1.
          2   -1    0    0  503    0 -0.00000000000E+00 -0.00000000000E+00 -0.49215179409E+03  0.49215179409E+03  0.00000000000E+00 0. -1.
         24    2    1    2    0    0 -0.12855238718E+02 -0.16157462354E+02 -0.77817698945E+02  0.11456279441E+03  0.81502876272E+02 0.  0.
         23    2    1    2    0    0  0.21888092948E+03  0.21242261169E+03 -0.24179758653E+02  0.31969347499E+03  0.92666228898E+02 0.  0.
        -13    1    3    3    0    0 -0.36745550160E+02  0.16545067972E+02 -0.54661916128E+02  0.67910969699E+02  0.00000000000E+00 0.  1.
         14    1    3    3    0    0  0.23890311442E+02 -0.32702530326E+02 -0.23155782818E+02  0.46651824706E+02  0.00000000000E+00 0. -1.
        -13    1    4    4    0    0  0.89690248675E+02  0.13461389940E+03  0.18878274992E+02  0.16285463422E+03  0.00000000000E+00 0.  1.
         13    1    4    4    0    0  0.12919068081E+03  0.77808712288E+02 -0.43058033645E+02  0.15683884078E+03  0.00000000000E+00 0. -1.
         21    1    1    2  503  502 -0.29363853862E+02 -0.12626237610E+03  0.10927488336E+03  0.16954475417E+03  0.00000000000E+00 0. -1.
          1    1    1    2  501    0 -0.17666183690E+03 -0.70002773230E+02 -0.14733035599E+03  0.24044963438E+03  0.00000000000E+00 0. -1.
<scales pt_clust_5="13000.00000" pt_clust_6="13000.00000" pt_clust_7="13000.00000" pt_clust_8="13000.00000" pt_clust_9="131.05294" pt_clust_10="224.45638"></scales>
<clustering>
<clus scale="   81.503">  5  6 -1 -1</clus>
<clus scale="   84.078">  2  5  1 -1</clus>
<clus scale="   92.666">  7  8 -1 -1</clus>
<clus scale="  131.053">  1  9  2 -1</clus>
<clus scale="  224.456">  1 10  2 -1</clus>
<clus scale="  131.053">  1  5  2 -1</clus>
</clustering>
</event>
<event>
10    4  0.7706232E-005  0.9766830E+02  0.7546771E-02  0.1290521E+00
          2   -1    0    0  502    0 -0.00000000000E+00  0.00000000000E+00  0.68614003612E+03  0.68614003612E+03  0.00000000000E+00 0. -1.
         21   -1    0    0  503  502  0.00000000000E+00 -0.00000000000E+00 -0.51000507746E+03  0.51000507746E+03  0.00000000000E+00 0. -1.
         24    2    1    2    0    0  0.17599531183E+02  0.27231762247E+02  0.44947363571E+03  0.45785871387E+03  0.80973701217E+02 0.  0.
         23    2    1    2    0    0 -0.70177410088E+02 -0.17806804249E+02  0.93847739978E+02  0.14937388694E+03  0.90902192696E+02 0.  0.
        -13    1    3    3    0    0  0.50164587062E+02  0.18105850653E+02  0.28406553309E+03  0.28902860536E+03  0.00000000000E+00 0.  1.
         14    1    3    3    0    0 -0.32565055879E+02  0.91259115940E+01  0.16540810262E+03  0.16883010851E+03  0.00000000000E+00 0. -1.
        -13    1    4    4    0    0  0.18964513072E+01 -0.36380632038E+02  0.53462374706E+02  0.64694454355E+02  0.00000000000E+00 0.  1.
         13    1    4    4    0    0 -0.72073861395E+02  0.18573827789E+02  0.40385365272E+02  0.84679432587E+02  0.00000000000E+00 0. -1.
         21    1    1    2  503  501  0.58159656110E+01 -0.63196611441E+02 -0.46421177735E+03  0.46852984045E+03  0.00000000000E+00 0. -1.
          1    1    1    2  501    0  0.46761913294E+02  0.53771653443E+02  0.97025360326E+02  0.12038267232E+03  0.00000000000E+00 0. -1.
<scales pt_clust_5="13000.00000" pt_clust_6="13000.00000" pt_clust_7="13000.00000" pt_clust_8="13000.00000" pt_clust_9="63.46367" pt_clust_10="60.77115"></scales>
<clustering>
<clus scale="   63.464">  2  9  1 -1</clus>
<clus scale="   60.771">  2 10  1 -1</clus>
<clus scale="   80.974">  5  6 -1 -1</clus>
<clus scale="   88.502">  1  5  2 -1</clus>
<clus scale="   90.902">  7  8 -1 -1</clus>
<clus scale="   63.464">  2  5  1 -1</clus>
</clustering>
</event>
<event>
10    4  0.7697601E-005  0.9940102E+02  0.7546771E-02  0.1289810E+00
          2   -1    0    0  503    0 -0.00000000000E+00  0.00000000000E+00  0.66621957518E+03  0.66621957518E+03  0.00000000000E+00 0. -1.
         21   -1    0    0  501  502  0.00000000000E+00 -0.00000000000E+00 -0.51663656071E+02  0.51663656071E+02  0.00000000000E+00 0.  1.
         24    2    1    2    0    0 -0.38748040100E+02  0.64396969468E+02  0.26340181972E+03  0.28560437191E+03  0.80876191405E+02 0.  0.
         23    2    1    2    0    0 -0.23617486599E+02  0.38641411784E+02  0.15565613608E+03  0.18831538270E+03  0.95827481897E+02 0.  0.
        -11    1    3    3    0    0 -0.41990003030E+02  0.82015437349E+02  0.22839065995E+03  0.24627623895E+03  0.00000000000E+00 0.  1.
         12    1    3    3    0    0  0.32419629300E+01 -0.17618467881E+02  0.35011159764E+02  0.39328132960E+02  0.00000000000E+00 0. -1.
        -11    1    4    4    0    0 -0.38976019768E+02 -0.54310131790E+01  0.12833902860E+03  0.13423685144E+03  0.00000000000E+00 0. -1.
         11    1    4    4    0    0  0.15358533170E+02  0.44072424963E+02  0.27317107475E+02  0.54078531267E+02  0.00000000000E+00 0.  1.
         21    1    1    2  503  502  0.25578318247E+02 -0.27089118430E+02  0.76552617389E+01  0.38035164440E+02  0.00000000000E+00 0.  1.
          1    1    1    2  501    0  0.36787208452E+02 -0.75949262822E+02  0.18784270158E+03  0.20592831220E+03  0.00000000000E+00 0. -1.
<scales pt_clust_5="13000.00000" pt_clust_6="13000.00000" pt_clust_7="13000.00000" pt_clust_8="13000.00000" pt_clust_9="37.25682" pt_clust_10="93.23982"></scales>
<clustering>
<clus scale="   37.257">  2  9  1 -1</clus>
<clus scale="   80.876">  5  6 -1 -1</clus>
<clus scale="   93.240">  2 10  1 -1</clus>
<clus scale="   85.080">  1  5  2 -1</clus>
<clus scale="   95.827">  7  8 -1 -1</clus>
<clus scale="   37.257">  2  5  1 -1</clus>
</clustering>
</event>
<event>
10    4  0.7697601E-005  0.1630665E+03  0.7546771E-02  0.1186748E+00
          2   -1    0    0  503    0 -0.00000000000E+00  0.00000000000E+00  0.15986796045E+04  0.15986796045E+04  0.00000000000E+00 0. -1.
         21   -1    0    0  501  502  0.00000000000E+00 -0.00000000000E+00 -0.88392588797E+02  0.88392588797E+02  0.00000000000E+00 0. -1.
         24    2    1    2    0    0 -0.18268733335E+02  0.13203930582E+03  0.11387971335E+04  0.11495947768E+04  0.83313351089E+02 0.  0.
         23    2    1    2    0    0 -0.29330138308E+02 -0.14067684270E+03  0.31030051421E+03  0.35434702702E+03  0.92871822185E+02 0.  0.
        -11    1    3    3    0    0  0.11003812862E+02  0.64000970230E+02  0.27225208930E+03  0.27988999306E+03  0.00000000000E+00 0.  1.
         12    1    3    3    0    0 -0.29272546197E+02  0.68038335588E+02  0.86654504425E+03  0.86970478370E+03  0.00000000000E+00 0. -1.
        -13    1    4    4    0    0  0.97133187643E+01 -0.12313353805E+03  0.18962216174E+03  0.22630241045E+03  0.00000000000E+00 0.  1.
         13    1    4    4    0    0 -0.39043457072E+02 -0.17543304656E+02  0.12067835247E+03  0.12804461657E+03  0.00000000000E+00 0. -1.
         21    1    1    2  503  502  0.30484837152E+02  0.21992202932E+02 -0.54065633048E+02  0.65848879739E+02  0.00000000000E+00 0. -1.
          1    1    1    2  501    0  0.17114034492E+02 -0.13354666046E+02  0.11525500098E+03  0.11728150976E+03  0.00000000000E+00 0. -1.
<scales pt_clust_5="13000.00000" pt_clust_6="13000.00000" pt_clust_7="13000.00000" pt_clust_8="13000.00000" pt_clust_9="44.13364" pt_clust_10="21.70801"></scales>
<clustering>
<clus scale="   21.708">  2 10  1 -1</clus>
<clus scale="   44.134">  2  9  1 -1</clus>
<clus scale="   83.313">  5  6 -1 -1</clus>
<clus scale="   92.872">  7  8 -1 -1</clus>
<clus scale="  157.818">  1  5  2 -1</clus>
<clus scale="   21.708">  2  5  1 -1</clus>
</clustering>
</event>
<event>
10    4  0.7697601E-005  0.2827810E+03  0.7546771E-02  0.1094180E+00
          2   -1    0    0  503    0 -0.00000000000E+00  0.00000000000E+00  0.65160164864E+03  0.65160164864E+03  0.00000000000E+00 0. -1.
         21   -1    0    0  501  502  0.00000000000E+00 -0.00000000000E+00 -0.18850648313E+03  0.18850648313E+03  0.00000000000E+00 0. -1.
         24    2    1    2    0    0  0.93560922621E+02 -0.30862391325E+02  0.13248988127E+03  0.18310983272E+03  0.79180229605E+02 0.  0.
         23    2    1    2    0    0  0.15099173606E+03 -0.76572892059E+02  0.29449164252E+03  0.35151323566E+03  0.90411919408E+02 0.  0.
        -11    1    3    3    0    0  0.82155381868E+01 -0.29115113429E+02  0.65288680698E+01  0.30948522032E+02  0.00000000000E+00 0.  1.
         12    1    3    3    0    0  0.85345384434E+02 -0.17472778956E+01  0.12596101320E+03  0.15216131069E+03  0.00000000000E+00 0. -1.
        -11    1    4    4    0    0  0.13699202901E+03 -0.26144385059E+02  0.20833972306E+03  0.25071056038E+03  0.00000000000E+00 0.  1.
         11    1    4    4    0    0  0.13999707048E+02 -0.50428507000E+02  0.86151919462E+02  0.10080267527E+03  0.00000000000E+00 0. -1.
         21    1    1    2  503  502 -0.85137033875E+02  0.42350775120E+02 -0.55848296789E+02  0.11027662919E+03  0.00000000000E+00 0. -1.
          1    1    1    2  501    0 -0.15941562481E+03  0.65084508263E+02  0.91961938512E+02  0.19520843420E+03  0.00000000000E+00 0. -1.
<scales pt_clust_5="13000.00000" pt_clust_6="13000.00000" pt_clust_7="13000.00000" pt_clust_8="13000.00000" pt_clust_9="95.08892" pt_clust_10="218.64315"></scales>
<clustering>
<clus scale="   79.180">  5  6 -1 -1</clus>
<clus scale="   90.412">  7  8 -1 -1</clus>
<clus scale="   95.089">  2  9  1 -1</clus>
<clus scale="   96.561">  5  7 -1 -1</clus>
<clus scale="  218.643">  2 10  1 -1</clus>
<clus scale="   95.089">  2  5  1 -1</clus>
</clustering>
</event>
<event>
10    4  0.7697601E-005  0.1971292E+03  0.7546771E-02  0.1183335E+00
          2   -1    0    0  502    0 -0.00000000000E+00  0.00000000000E+00  0.99521685652E+03  0.99521685652E+03  0.00000000000E+00 0. -1.
         21   -1    0    0  503  502  0.00000000000E+00 -0.00000000000E+00 -0.12138998915E+03  0.12138998915E+03  0.00000000000E+00 0. -1.
         24    2    1    2    0    0 -0.47179629691E+02  0.24753478034E+02  0.23408630294E+03  0.25315455005E+03  0.80325443403E+02 0.  0.
         23    2    1    2    0    0  0.24359337369E+03 -0.10417357955E+03  0.25458962216E+03  0.37871836901E+03  0.91770697582E+02 0.  0.
        -13    1    3    3    0    0 -0.65966520680E+02  0.99664971708E+01  0.12727860399E+03  0.14370370889E+03  0.00000000000E+00 0.  1.
         14    1    3    3    0    0  0.18786890989E+02  0.14786980863E+02  0.10680769895E+03  0.10945084116E+03  0.00000000000E+00 0. -1.
        -13    1    4    4    0    0  0.89475156856E+02  0.77435710326E+01  0.86347792891E+02  0.12458614660E+03  0.00000000000E+00 0.  1.
         13    1    4    4    0    0  0.15411821683E+03 -0.11191715058E+03  0.16824182927E+03  0.25413222242E+03  0.00000000000E+00 0. -1.
         21    1    1    2  503  501 -0.68471760803E+02  0.82106163325E+02  0.35901098696E+02  0.11277718285E+03  0.00000000000E+00 0. -1.
          1    1    1    2  501    0 -0.12794198319E+03 -0.26860618105E+01  0.34924984357E+03  0.37195674376E+03  0.00000000000E+00 0. -1.
<scales pt_clust_5="13000.00000" pt_clust_6="13000.00000" pt_clust_7="13000.00000" pt_clust_8="13000.00000" pt_clust_9="111.79741" pt_clust_10="174.46516"></scales>
<clustering>
<clus scale="   80.325">  5  6 -1 -1</clus>
<clus scale="   91.771">  7  8 -1 -1</clus>
<clus scale="   96.389">  1  5  2 -1</clus>
<clus scale="  111.797">  2  9  1 -1</clus>
<clus scale="  174.465">  2 10  1 -1</clus>
<clus scale="  111.797">  2  5  1 -1</clus>
</clustering>
</event>
<event>
10    4  0.7697601E-005  0.9468600E+02  0.7546771E-02  0.1298545E+00
         -3   -1    0    0    0  501 -0.00000000000E+00  0.00000000000E+00  0.70416040200E+02  0.70416040200E+02  0.00000000000E+00 0.  1.
         21   -1    0    0  503  502  0.00000000000E+00 -0.00000000000E+00 -0.55670990325E+03  0.55670990325E+03  0.00000000000E+00 0. -1.
         23    2    1    2    0    0  0.22334489176E+01 -0.17266122199E+02 -0.16576159738E+02  0.94607644777E+02  0.91502623508E+02 0.  0.
         24    2    1    2    0    0 -0.54628959147E+02  0.10465510255E+02 -0.96614201307E+02  0.13724352713E+03  0.80047684307E+02 0.  0.
        -13    1    4    4    0    0 -0.27844025521E+02 -0.32706666158E+02 -0.25858896631E+02  0.50136795903E+02  0.00000000000E+00 0.  1.
         14    1    4    4    0    0 -0.26784933626E+02  0.43172176413E+02 -0.70755304676E+02  0.87106731229E+02  0.00000000000E+00 0. -1.
        -13    1    3    3    0    0 -0.22360268558E+01  0.37137623476E+02 -0.14654010122E+02  0.39986784144E+02  0.00000000000E+00 0. -1.
         13    1    3    3    0    0  0.44694757734E+01 -0.54403745675E+02 -0.19221496164E+01  0.54620860633E+02  0.00000000000E+00 0.  1.
         21    1    1    2  503  501  0.76490391825E+02  0.46272830698E+01 -0.35938339214E+03  0.36746239853E+03  0.00000000000E+00 0. -1.
         -4    1    1    2    0  502 -0.24094881596E+02  0.21733288745E+01 -0.13720109863E+02  0.27812373005E+02  0.00000000000E+00 0.  1.
<scales pt_clust_5="13000.00000" pt_clust_6="13000.00000" pt_clust_7="13000.00000" pt_clust_8="13000.00000" pt_clust_9="60.46029" pt_clust_10="24.19271"></scales>
<clustering>
<clus scale="   24.193">  2 10  1 -1</clus>
<clus scale="   60.460">  2  9  1 -1</clus>
<clus scale="   80.048">  5  6 -1 -1</clus>
<clus scale="   83.668">  2  5  1 -1</clus>
<clus scale="   91.503">  7  8 -1 -1</clus>
<clus scale="   24.193">  2  5  1 -1</clus>
</clustering>
</event>
<event>
10    4  0.7697601E-005  0.1357235E+03  0.7546771E-02  0.1221741E+00
         -3   -1    0    0    0  501 -0.00000000000E+00  0.00000000000E+00  0.16455134182E+03  0.16455134182E+03  0.00000000000E+00 0.  1.
         21   -1    0    0  503  502  0.00000000000E+00 -0.00000000000E+00 -0.43437434156E+03  0.43437434156E+03  0.00000000000E+00 0.  1.
         24    2    1    2    0    0  0.72676210904E+02  0.41267108547E+02  0.40560076564E+02  0.12281094521E+03  0.80328093295E+02 0.  0.
         23    2    1    2    0    0 -0.11465392013E+03 -0.10062292039E+03 -0.56367949919E+02  0.18644592276E+03  0.91182469945E+02 0.  0.
        -11    1    3    3    0    0  0.38941058140E+02  0.26975662576E+02  0.63770318171E+02  0.79440203047E+02  0.00000000000E+00 0.  1.
         12    1    3    3    0    0  0.33735152764E+02  0.14291445971E+02 -0.23210241608E+02  0.43370742159E+02  0.00000000000E+00 0. -1.
        -11    1    4    4    0    0  0.29835830900E+01 -0.37474638080E+02  0.76700965005E+01  0.38367703184E+02  0.00000000000E+00 0. -1.
         11    1    4    4    0    0 -0.11763750322E+03 -0.63148282312E+02 -0.64038046420E+02  0.14807821957E+03  0.00000000000E+00 0.  1.
         21    1    1    2  503  501  0.31617685985E+02  0.13907599391E+02 -0.23782942763E+03  0.24032464717E+03  0.00000000000E+00 0.  1.
         -4    1    1    2    0  502  0.10360023240E+02  0.45448212454E+02 -0.16185698751E+02  0.49344168256E+02  0.00000000000E+00 0.  1.
<scales pt_clust_5="13000.00000" pt_clust_6="13000.00000" pt_clust_7="13000.00000" pt_clust_8="13000.00000" pt_clust_9="34.54127" pt_clust_10="50.28366"></scales>
<clustering>
<clus scale="   34.541">  2  9  1 -1</clus>
<clus scale="   50.284">  2 10  1 -1</clus>
<clus scale="   80.328">  5  6 -1 -1</clus>
<clus scale="   91.182">  7  8 -1 -1</clus>
<clus scale="  128.683">  1  5  2 -1</clus>
<clus scale="   34.541">  2  5  1 -1</clus>
</clustering>
</event>
<event>
10    4  0.7697601E-005  0.1183931E+03  0.7546771E-02  0.1249246E+00
         21   -1    0    0  503  502  0.00000000000E+00  0.00000000000E+00  0.10548258234E+03  0.10548258234E+03  0.00000000000E+00 0.  1.
         -3   -1    0    0    0  501 -0.00000000000E+00 -0.00000000000E+00 -0.36469561798E+03  0.36469561798E+03  0.00000000000E+00 0.  1.
         24    2    1    2    0    0 -0.18152110186E+02  0.40501370832E+02 -0.76112797883E+02  0.11883965142E+03  0.79748633867E+02 0.  0.
         23    2    1    2    0    0  0.11620820770E+03 -0.72769926548E+02 -0.15721974843E+03  0.22738000340E+03  0.90464395789E+02 0.  0.
        -13    1    3    3    0    0 -0.35793699021E+02  0.88230028950E+01 -0.27039480107E+01  0.36964112387E+02  0.00000000000E+00 0.  1.
         14    1    3    3    0    0  0.17641588835E+02  0.31678367937E+02 -0.73408849873E+02  0.81875539030E+02  0.00000000000E+00 0. -1.
        -11    1    4    4    0    0 -0.68308919749E+01 -0.31583437147E+02 -0.47549758029E+02  0.57490469435E+02  0.00000000000E+00 0. -1.
         11    1    4    4    0    0  0.12303909968E+03 -0.41186489401E+02 -0.10966999040E+03  0.16988953397E+03  0.00000000000E+00 0.  1.
         21    1    1    2  503  501 -0.30869092310E+02  0.39011542709E+02  0.44277140777E+01  0.49944028437E+02  0.00000000000E+00 0.  1.
         -4    1    1    2    0  502 -0.67187005206E+02 -0.67429869938E+01 -0.30308203409E+02  0.74014517063E+02  0.00000000000E+00 0.  1.
<scales pt_clust_5="13000.00000" pt_clust_6="13000.00000" pt_clust_7="13000.00000" pt_clust_8="13000.00000" pt_clust_9="49.74738" pt_clust_10="75.91605"></scales>
<clustering>
<clus scale="   49.747">  1  9  2 -1</clus>
<clus scale="   75.916">  1 10  2 -1</clus>
<clus scale="   79.749">  5  6 -1 -1</clus>
<clus scale="   90.464">  7  8 -1 -1</clus>
<clus scale="  110.422">  2  5  1 -1</clus>
<clus scale="   49.747">  1  5  2 -1</clus>
</clustering>
</event>
<event>
10    4  0.7697601E-005  0.3654638E+03  0.7546771E-02  0.1107618E+00
          2   -1    0    0  503    0 -0.00000000000E+00  0.00000000000E+00  0.11638247347E+04  0.11638247347E+04  0.00000000000E+00 0. -1.
         21   -1    0    0  501  502  0.00000000000E+00 -0.00000000000E+00 -0.18326438972E+03  0.18326438972E+03  0.00000000000E+00 0. -1.
         23    2    1    2    0    0 -0.36275081995E+01  0.84764895273E+01 -0.13005768796E+01  0.90822850958E+02  0.90344280756E+02 0.  0.
         24    2    1    2    0    0  0.28008579793E+03  0.20820331122E+03  0.37654153365E+03  0.51954358982E+03  0.79657655957E+02 0.  0.
        -11    1    4    4    0    0  0.92129351401E+02  0.26641879520E+02  0.86667735218E+02  0.12926292377E+03  0.00000000000E+00 0.  1.
         12    1    4    4    0    0  0.18795644653E+03  0.18156143170E+03  0.28987379844E+03  0.39028066605E+03  0.00000000000E+00 0. -1.
        -11    1    3    3    0    0 -0.94370332220E+01 -0.33005017139E+02 -0.25212415035E+02  0.42591720137E+02  0.00000000000E+00 0. -1.
         11    1    3    3    0    0  0.58095250226E+01  0.41481506666E+02  0.23911838155E+02  0.48231130820E+02  0.00000000000E+00 0.  1.
         21    1    1    2  503  502 -0.13336797820E+02  0.36527613101E+02  0.13218175662E+02  0.41071363050E+02  0.00000000000E+00 0.  1.
          1    1    1    2  501    0 -0.26312149191E+03 -0.25320741385E+03  0.59210121251E+03  0.69565132055E+03  0.00000000000E+00 0. -1.
<scales pt_clust_5="13000.00000" pt_clust_6="13000.00000" pt_clust_7="13000.00000" pt_clust_8="13000.00000" pt_clust_9="38.88620" pt_clust_10="356.67708"></scales>
<clustering>
<clus scale="   38.886">  2  9  1 -1</clus>
<clus scale="   79.658">  5  6 -1 -1</clus>
<clus scale="   90.344">  7  8 -1 -1</clus>
<clus scale="   92.487">  1  7  2 -1</clus>
<clus scale="  356.677">  2 10  1 -1</clus>
<clus scale="   38.886">  2  5  1 -1</clus>
</clustering>
</event>
<event>
10    4  0.7697601E-005  0.9932273E+02  0.7546771E-02  0.1289514E+00
         -3   -1    0    0    0  501 -0.00000000000E+00  0.00000000000E+00  0.13704499740E+03  0.13704499740E+03  0.00000000000E+00 0.  1.
         21   -1    0    0  501  502  0.00000000000E+00 -0.00000000000E+00 -0.29652566334E+03  0.29652566334E+03  0.00000000000E+00 0.  1.
         24    2    1    2    0    0 -0.60543659171E+01 -0.67169468112E+01  0.25463242523E+02  0.85068571703E+02  0.80662955876E+02 0.  0.
         23    2    1    2    0    0  0.79655447816E+02 -0.25209904894E+01 -0.85488512918E+01  0.12426602407E+03  0.94961129527E+02 0.  0.
        -13    1    3    3    0    0 -0.27575738309E+02 -0.13096161798E+02 -0.18507568887E+02  0.35699592480E+02  0.00000000000E+00 0.  1.
         14    1    3    3    0    0  0.21521372392E+02  0.63792149870E+01  0.43970811410E+02  0.49368979223E+02  0.00000000000E+00 0. -1.
        -11    1    4    4    0    0  0.94195156364E+02  0.19656475514E+02 -0.13869912000E+02  0.97218717184E+02  0.00000000000E+00 0.  1.
         11    1    4    4    0    0 -0.14539708548E+02 -0.22177466003E+02  0.53210607080E+01  0.27047306891E+02  0.00000000000E+00 0. -1.
         21    1    1    2  503  502 -0.13182371325E+02 -0.41809465970E+02 -0.11811311034E+03  0.12598616270E+03  0.00000000000E+00 0.  1.
         -4    1    1    2    0  503 -0.60418710574E+02  0.51047403270E+02 -0.58281946836E+02  0.98249902265E+02  0.00000000000E+00 0.  1.
<scales pt_clust_5="13000.00000" pt_clust_6="13000.00000" pt_clust_7="13000.00000" pt_clust_8="13000.00000" pt_clust_9="43.83841" pt_clust_10="73.77500"></scales>
<clustering>
<clus scale="   43.838">  2  9  1 -1</clus>
<clus scale="   73.775">  2 10  1 -1</clus>
<clus scale="   80.663">  5  6 -1 -1</clus>
<clus scale="   85.755">  1  5  2 -1</clus>
<clus scale="   94.961">  7  8 -1 -1</clus>
<clus scale="   43.838">  2  5  1 -1</clus>
</clustering>
</event>
<event>
10    4  0.7697601E-005  0.9601501E+02  0.7546771E-02  0.1298151E+00
          2   -1    0    0  503    0 -0.00000000000E+00  0.00000000000E+00  0.38024423869E+02  0.38024423869E+02  0.00000000000E+00 0. -1.
         21   -1    0    0  501  502  0.00000000000E+00 -0.00000000000E+00 -0.94437243663E+03  0.94437243663E+03  0.00000000000E+00 0. -1.
         23    2    1    2    0    0 -0.37123013657E+02  0.10793022305E+02 -0.74653006060E+02  0.12559652208E+03  0.93310275807E+02 0.  0.
         24    2    1    2    0    0 -0.27527534710E+02 -0.12210071205E+02 -0.26451926278E+03  0.27730551656E+03  0.77595477501E+02 0.  0.
        -11    1    4    4    0    0  0.25531325782E+02  0.68989259354E+01 -0.97437703910E+02  0.10096311167E+03  0.00000000000E+00 0.  1.
         12    1    4    4    0    0 -0.53058860492E+02 -0.19108997140E+02 -0.16708155887E+03  0.17634240489E+03  0.00000000000E+00 0. -1.
        -11    1    3    3    0    0  0.31058633406E+02 -0.36456110879E+01 -0.21571175152E+02  0.37990061683E+02  0.00000000000E+00 0.  1.
         11    1    3    3    0    0 -0.68181647063E+02  0.14438633393E+02 -0.53081830908E+02  0.87606460396E+02  0.00000000000E+00 0. -1.
         21    1    1    2  503  502 -0.26927090681E+02  0.39875970450E+01 -0.12571956984E+03  0.12863273061E+03  0.00000000000E+00 0.  1.
          1    1    1    2  501    0  0.91577639048E+02 -0.25705481452E+01 -0.44145617408E+03  0.45086209124E+03  0.00000000000E+00 0. -1.
<scales pt_clust_5="13000.00000" pt_clust_6="13000.00000" pt_clust_7="13000.00000" pt_clust_8="13000.00000" pt_clust_9="27.22075" pt_clust_10="76.87744"></scales>
<clustering>
<clus scale="   27.221">  2  9  1 -1</clus>
<clus scale="   76.877">  2 10  1 -1</clus>
<clus scale="   77.595">  5  6 -1 -1</clus>
<clus scale="   80.828">  2  5  1 -1</clus>
<clus scale="   93.310">  7  8 -1 -1</clus>
<clus scale="   27.221">  2  5  1 -1</clus>
</clustering>
</event>
<event>
10    4  0.7697601E-005  0.1432700E+03  0.7546771E-02  0.1211645E+00
          2   -1    0    0  503    0 -0.00000000000E+00  0.00000000000E+00  0.99901808985E+03  0.99901808985E+03  0.00000000000E+00 0. -1.
         21   -1    0    0  501  502  0.00000000000E+00 -0.00000000000E+00 -0.60967063211E+02  0.60967063211E+02  0.00000000000E+00 0. -1.
         24    2    1    2    0    0  0.11032493238E+03 -0.10746061187E+03  0.63308424375E+03  0.65628295460E+03  0.78691060541E+02 0.  0.
         23    2    1    2    0    0 -0.59094306952E+02  0.16699623872E+01  0.15938119907E+03  0.19309242734E+03  0.91582711197E+02 0.  0.
        -13    1    3    3    0    0  0.91088606251E+02 -0.34519460416E+02  0.34541328413E+03  0.35888586513E+03  0.00000000000E+00 0.  1.
         14    1    3    3    0    0  0.19236326132E+02 -0.72941151457E+02  0.28767095963E+03  0.29739708948E+03  0.00000000000E+00 0. -1.
        -11    1    4    4    0    0 -0.39938526805E+02  0.44888987444E+02  0.10552240953E+03  0.12142934583E+03  0.00000000000E+00 0.  1.
         11    1    4    4    0    0 -0.19155780147E+02 -0.43219025057E+02  0.53858789546E+02  0.71663081508E+02  0.00000000000E+00 0. -1.
         21    1    1    2  503  502 -0.26447370398E+02  0.12323172993E+02 -0.69619713540E+01  0.29996550447E+02  0.00000000000E+00 0. -1.
          1    1    1    2  501    0 -0.24783255033E+02  0.93467476492E+02  0.15254755517E+03  0.18061322067E+03  0.00000000000E+00 0. -1.
<scales pt_clust_5="13000.00000" pt_clust_6="13000.00000" pt_clust_7="13000.00000" pt_clust_8="13000.00000" pt_clust_9="29.17746" pt_clust_10="103.13608"></scales>
<clustering>
<clus scale="   29.177">  2  9  1 -1</clus>
<clus scale="   78.691">  5  6 -1 -1</clus>
<clus scale="   91.583">  7  8 -1 -1</clus>
<clus scale="  103.136">  2 10  1 -1</clus>
<clus scale="  135.393">  1  5  2 -1</clus>
<clus scale="   29.177">  2  5  1 -1</clus>
</clustering>
</event>
<event>
10    4  0.7697601E-005  0.1274060E+03  0.7546771E-02  0.1247186E+00
          2   -1    0    0  503    0 -0.00000000000E+00  0.00000000000E+00  0.66736610276E+03  0.66736610276E+03  0.00000000000E+00 0. -1.
         21   -1    0    0  501  502  0.00000000000E+00 -0.00000000000E+00 -0.52903760971E+02  0.52903760971E+02  0.00000000000E+00 0. -1.
         23    2    1    2    0    0 -0.86013167911E+01  0.60225915621E+01  0.20370021575E+03  0.22303004361E+03  0.90212904828E+02 0.  0.
         24    2    1    2    0    0 -0.78961519078E+02 -0.12097354343E+02  0.16190574271E+03  0.19644781001E+03  0.77440332253E+02 0.  0.
        -11    1    4    4    0    0 -0.60775522741E+01 -0.25567256377E+02  0.87756402544E+02  0.91606808850E+02  0.00000000000E+00 0.  1.
         12    1    4    4    0    0 -0.72883966804E+02  0.13469902034E+02  0.74149340166E+02  0.10484100116E+03  0.00000000000E+00 0. -1.
        -13    1    3    3    0    0 -0.44282716012E+01 -0.41760000232E+02  0.79912340454E+02  0.90274522239E+02  0.00000000000E+00 0. -1.
         13    1    3    3    0    0 -0.41730451899E+01  0.47782591794E+02  0.12378787530E+03  0.13275552137E+03  0.00000000000E+00 0.  1.
         21    1    1    2  503  502 -0.33605173123E+02  0.23651854092E+02  0.33308299038E+02  0.52897643118E+02  0.00000000000E+00 0. -1.
          1    1    1    2  501    0  0.12116800899E+03 -0.17577091311E+02  0.21554808429E+03  0.24789436698E+03  0.00000000000E+00 0. -1.
<scales pt_clust_5="13000.00000" pt_clust_6="13000.00000" pt_clust_7="13000.00000" pt_clust_8="13000.00000" pt_clust_9="41.09401" pt_clust_10="101.16965"></scales>
<clustering>
<clus scale="   41.094">  2  9  1 -1</clus>
<clus scale="   77.440">  5  6 -1 -1</clus>
<clus scale="   90.213">  7  8 -1 -1</clus>
<clus scale="   92.342">  1  7  2 -1</clus>
<clus scale="  101.170">  2 10  1 -1</clus>
<clus scale="   41.094">  2  5  1 -1</clus>
</clustering>
</event>
<event>
10    4  0.7697601E-005  0.2073102E+03  0.7546771E-02  0.1178107E+00
          2   -1    0    0  503    0 -0.00000000000E+00  0.00000000000E+00  0.40256617900E+03  0.40256617900E+03  0.00000000000E+00 0. -1.
         21   -1    0    0  501  502  0.00000000000E+00 -0.00000000000E+00 -0.99931079832E+03  0.99931079832E+03  0.00000000000E+00 0. -1.
         23    2    1    2    0    0  0.54204226696E+01  0.22908972416E+02 -0.64908338033E+00  0.93196671629E+02  0.90172037209E+02 0.  0.
         24    2    1    2    0    0 -0.33151262508E+02  0.75623190019E+02  0.22485589641E+03  0.25190186615E+03  0.77951927155E+02 0.  0.
        -11    1    4    4    0    0 -0.13070215715E+01  0.76872949297E+02  0.12184700765E+03  0.14407585472E+03  0.00000000000E+00 0.  1.
         12    1    4    4    0    0 -0.31844240936E+02 -0.12497592774E+01  0.10300888876E+03  0.10782601144E+03  0.00000000000E+00 0. -1.
        -11    1    3    3    0    0  0.33957389815E+02  0.23922408662E+02  0.30051900222E+02  0.51268924957E+02  0.00000000000E+00 0.  1.
         11    1    3    3    0    0 -0.28536967146E+02 -0.10134362453E+01 -0.30700983603E+02  0.41927746673E+02  0.00000000000E+00 0. -1.
         21    1    1    2  503  502 -0.79057983620E+02 -0.20136302610E+03 -0.87319494331E+03  0.89959248667E+03  0.00000000000E+00 0. -1.
          1    1    1    2  501    0  0.10678882346E+03  0.10283086367E+03  0.52243510959E+02  0.15718595286E+03  0.00000000000E+00 0. -1.
<scales pt_clust_5="13000.00000" pt_clust_6="13000.00000" pt_clust_7="13000.00000" pt_clust_8="13000.00000" pt_clust_9="207.31023" pt_clust_10="13000.00000"></scales>
<clustering>
<clus scale="   77.952">  5  6 -1 -1</clus>
<clus scale="   90.172">  7  8 -1 -1</clus>
<clus scale="   93.194">  1  7  2 -1</clus>
<clus scale="  123.370">  1  5  2 -1</clus>
<clus scale="  207.310">  2  9  1 -1</clus>
<clus scale="  207.310">  2  5  1 -1</clus>
</clustering>
</event>
<event>
10    4  0.7697601E-005  0.3931990E+03  0.7546771E-02  0.1055422E+00
          2   -1    0    0  503    0 -0.00000000000E+00  0.00000000000E+00  0.20951731749E+04  0.20951731749E+04  0.00000000000E+00 0. -1.
         21   -1    0    0  501  502  0.00000000000E+00 -0.00000000000E+00 -0.18933401061E+03  0.18933401061E+03  0.00000000000E+00 0.  1.
         24    2    1    2    0    0 -0.28290985625E+03 -0.23417453611E+02  0.59695789592E+03  0.66583349093E+03  0.79932122726E+02 0.  0.
         23    2    1    2    0    0 -0.20905015181E+03  0.24035549264E+03  0.34496138307E+03  0.47850619950E+03  0.92179706727E+02 0.  0.
        -11    1    3    3    0    0 -0.12895096856E+03 -0.50235243220E+02  0.29403008302E+03  0.32497018583E+03  0.00000000000E+00 0.  1.
         12    1    3    3    0    0 -0.15395888768E+03  0.26817789609E+02  0.30292781290E+03  0.34086330510E+03  0.00000000000E+00 0. -1.
        -13    1    4    4    0    0 -0.60468858613E+02  0.99178662338E+02  0.18530867742E+03  0.21870572890E+03  0.00000000000E+00 0. -1.
         13    1    4    4    0    0 -0.14858129319E+03  0.14117683030E+03  0.15965270565E+03  0.25980047060E+03  0.00000000000E+00 0.  1.
         21    1    1    2  503  502 -0.35544479234E+02 -0.34566923400E+02  0.60243025772E+02  0.78022460558E+02  0.00000000000E+00 0.  1.
          1    1    1    2  501    0  0.52750448728E+03 -0.18237111563E+03  0.90367685953E+03  0.10621450345E+04  0.00000000000E+00 0. -1.
<scales pt_clust_5="13000.00000" pt_clust_6="13000.00000" pt_clust_7="13000.00000" pt_clust_8="13000.00000" pt_clust_9="49.58107" pt_clust_10="382.24146"></scales>
<clustering>
<clus scale="   49.581">  2  9  1 -1</clus>
<clus scale="   79.932">  5  6 -1 -1</clus>
<clus scale="   92.180">  7  8 -1 -1</clus>
<clus scale="  302.014">  1  5  2 -1</clus>
<clus scale="  382.241">  2 10  1 -1</clus>
<clus scale="   49.581">  2  5  1 -1</clus>
</clustering>
</event>
<event>
10    4  0.7697601E-005  0.9097699E+02  0.7546771E-02  0.1308621E+00
         21   -1    0    0  503  502  0.00000000000E+00  0.00000000000E+00  0.17260145669E+03  0.17260145669E+03  0.00000000000E+00 0. -1.
          2   -1    0    0  502    0 -0.00000000000E+00 -0.00000000000E+00 -0.54115007151E+03  0.54115007151E+03  0.00000000000E+00 0. -1.
         24    2    1    2    0    0 -0.68181596300E+01 -0.16608256660E+01 -0.33841262048E+03  0.34738197003E+03  0.78114568180E+02 0.  0.
         23    2    1    2    0    0 -0.71038123832E+02 -0.36723297720E+02 -0.12624533727E+03  0.17482210151E+03  0.90718610888E+02 0.  0.
        -13    1    3    3    0    0  0.26520729110E+02 -0.25968615481E+02 -0.15396255833E+03  0.15837356923E+03  0.00000000000E+00 0.  1.
         14    1    3    3    0    0 -0.33338888740E+02  0.24307789815E+02 -0.18445006215E+03  0.18900840081E+03  0.00000000000E+00 0. -1.
        -11    1    4    4    0    0 -0.32395918027E+02  0.17778873810E+02 -0.93254957777E+02  0.10030987493E+03  0.00000000000E+00 0.  1.
         11    1    4    4    0    0 -0.38642205805E+02 -0.54502171530E+02 -0.32990379496E+02  0.74512226582E+02  0.00000000000E+00 0. -1.
         21    1    1    2  503  501  0.36590275536E+02 -0.22732615354E+01  0.12251533146E+03  0.12788284648E+03  0.00000000000E+00 0. -1.
          1    1    1    2  501    0  0.41266007927E+02  0.40657384921E+02 -0.26405988520E+02  0.63664610174E+02  0.00000000000E+00 0. -1.
<scales pt_clust_5="13000.00000" pt_clust_6="13000.00000" pt_clust_7="13000.00000" pt_clust_8="13000.00000" pt_clust_9="36.66082" pt_clust_10="68.39346"></scales>
<clustering>
<clus scale="   36.661">  1  9  2 -1</clus>
<clus scale="   68.393">  1 10  2 -1</clus>
<clus scale="   78.115">  5  6 -1 -1</clus>
<clus scale="   78.414">  2  5  1 -1</clus>
<clus scale="   90.719">  7  8 -1 -1</clus>
<clus scale="   36.661">  1  5  2 -1</clus>
</clustering>
</event>
<event>
10    4  0.7697601E-005  0.1153035E+03  0.7546771E-02  0.1259217E+00
          2   -1    0    0  503    0 -0.00000000000E+00  0.00000000000E+00  0.50761790847E+03  0.50761790847E+03  0.00000000000E+00 0. -1.
         21   -1    0    0  501  502  0.00000000000E+00 -0.00000000000E+00 -0.17228131434E+03  0.17228131434E+03  0.00000000000E+00 0.  1.
         23    2    1    2    0    0 -0.10832292294E+02  0.35822348396E+02  0.32938205084E+03  0.34367554500E+03  0.90662923044E+02 0.  0.
         24    2    1    2    0    0  0.58188563727E+01 -0.79083863222E+02 -0.11182733900E+02  0.11333955509E+03  0.80204019221E+02 0.  0.
        -11    1    4    4    0    0  0.40715176957E+02 -0.41003549320E+02 -0.19577149189E+02  0.61010502881E+02  0.00000000000E+00 0.  1.
         12    1    4    4    0    0 -0.34896320584E+02 -0.38080313902E+02  0.83944152890E+01  0.52329052210E+02  0.00000000000E+00 0. -1.
        -11    1    3    3    0    0  0.19843449357E+02 -0.19495368263E+02  0.49950459151E+02  0.57174122079E+02  0.00000000000E+00 0.  1.
         11    1    3    3    0    0 -0.30675741651E+02  0.55317716660E+02  0.27943159169E+03  0.28650142292E+03  0.00000000000E+00 0. -1.
         21    1    1    2  503  502  0.10571181633E+03  0.56268426260E+02 -0.90926395415E+00  0.11975788352E+03  0.00000000000E+00 0.  1.
          1    1    1    2  501    0 -0.10069838041E+03 -0.13006911435E+02  0.18046541140E+02  0.10312623919E+03  0.00000000000E+00 0. -1.
<scales pt_clust_5="13000.00000" pt_clust_6="13000.00000" pt_clust_7="13000.00000" pt_clust_8="13000.00000" pt_clust_9="82.83844" pt_clust_10="104.53488"></scales>
<clustering>
<clus scale="   80.204">  5  6 -1 -1</clus>
<clus scale="   90.663">  7  8 -1 -1</clus>
<clus scale="   98.083">  1  7  2 -1</clus>
<clus scale="  104.535">  2 10  1 -1</clus>
<clus scale="   82.838">  2  9  1 -1</clus>
<clus scale="  104.535">  2  5  1 -1</clus>
</clustering>
</event>
<event>
10    4  0.7697601E-005  0.1712071E+03  0.7546771E-02  0.1203944E+00
          2   -1    0    0  503    0 -0.00000000000E+00  0.00000000000E+00  0.14991138045E+04  0.14991138045E+04  0.00000000000E+00 0. -1.
         21   -1    0    0  501  502  0.00000000000E+00 -0.00000000000E+00 -0.37238349654E+02  0.37238349654E+02  0.00000000000E+00 0. -1.
         23    2    1    2    0    0 -0.20194319282E+02 -0.25458859546E+02  0.15042092119E+03  0.17748737106E+03  0.88427084610E+02 0.  0.
         24    2    1    2    0    0 -0.96084981985E+02 -0.90211106400E+02  0.82088295382E+03  0.83541152309E+03  0.81812111337E+02 0.  0.
        -11    1    4    4    0    0  0.88456794475E+01 -0.19678962201E+02  0.53564671727E+02  0.57746702550E+02  0.00000000000E+00 0.  1.
         12    1    4    4    0    0 -0.10493066143E+03 -0.70532144199E+02  0.76731828209E+03  0.77766482054E+03  0.00000000000E+00 0. -1.
        -13    1    3    3    0    0 -0.10906934152E+02 -0.56656154691E+02  0.69899673105E+02  0.90635784197E+02  0.00000000000E+00 0. -1.
         13    1    3    3    0    0 -0.92873851294E+01  0.31197295145E+02  0.80521248086E+02  0.86851586861E+02  0.00000000000E+00 0.  1.
         21    1    1    2  503  502 -0.11618937953E+02  0.18990865260E+02  0.58063285584E+02  0.62185189678E+02  0.00000000000E+00 0.  1.
          1    1    1    2  501    0  0.12789823922E+03  0.96679100686E+02  0.43250829424E+03  0.46126807031E+03  0.00000000000E+00 0. -1.
<scales pt_clust_5="13000.00000" pt_clust_6="13000.00000" pt_clust_7="13000.00000" pt_clust_8="13000.00000" pt_clust_9="22.26326" pt_clust_10="150.39500"></scales>
<clustering>
<clus scale="   22.263">  2  9  1 -1</clus>
<clus scale="   81.812">  5  6 -1 -1</clus>
<clus scale="   88.427">  7  8 -1 -1</clus>
<clus scale="   93.580">  1  7  2 -1</clus>
<clus scale="  150.395">  2 10  1 -1</clus>
<clus scale="   22.263">  2  5  1 -1</clus>
</clustering>
</event>
<event>
10    4  0.7697601E-005  0.1415872E+03  0.7546771E-02  0.1212083E+00
         21   -1    0    0  503  502  0.00000000000E+00  0.00000000000E+00  0.23452418042E+03  0.23452418042E+03  0.00000000000E+00 0.  1.
         -1   -1    0    0    0  501 -0.00000000000E+00 -0.00000000000E+00 -0.16328412539E+03  0.16328412539E+03  0.00000000000E+00 0.  1.
         23    2    1    2    0    0  0.91977333371E+02 -0.78784991521E+02 -0.14458407207E+01  0.15114550555E+03  0.90421063092E+02 0.  0.
         24    2    1    2    0    0 -0.57124694555E+02  0.80077050017E+02  0.18077045184E+02  0.13208364829E+03  0.86277145968E+02 0.  0.
        -13    1    4    4    0    0 -0.20785022943E+02  0.90641524226E+02  0.13220564782E+02  0.93929156420E+02  0.00000000000E+00 0.  1.
         14    1    4    4    0    0 -0.36339671613E+02 -0.10564474208E+02  0.48564804020E+01  0.38154491873E+02  0.00000000000E+00 0. -1.
        -11    1    3    3    0    0  0.54198868688E+01 -0.24829291501E+02  0.34631525453E+02  0.42955924449E+02  0.00000000000E+00 0.  1.
         11    1    3    3    0    0  0.86557446502E+02 -0.53955700021E+02 -0.36077366173E+02  0.10818958111E+03  0.00000000000E+00 0. -1.
         21    1    1    2  503  501 -0.78598722673E+01  0.23661363291E+02  0.70315037586E+02  0.74604572350E+02  0.00000000000E+00 0.  1.
         -2    1    1    2    0  502 -0.26992766549E+02 -0.24953421786E+02 -0.15706187018E+02  0.39974579616E+02  0.00000000000E+00 0.  1.
<scales pt_clust_5="13000.00000" pt_clust_6="13000.00000" pt_clust_7="13000.00000" pt_clust_8="13000.00000" pt_clust_9="24.93266" pt_clust_10="36.02949"></scales>
<clustering>
<clus scale="   24.933">  1  9  2 -1</clus>
<clus scale="   36.029">  1 10  2 -1</clus>
<clus scale="   86.277">  5  6 -1 -1</clus>
<clus scale="   90.421">  7  8 -1 -1</clus>
<clus scale="  138.977">  1  5  2 -1</clus>
<clus scale="   24.933">  1  5  2 -1</clus>
</clustering>
</event>
<event>
10    4  0.7697601E-005  0.1498400E+03  0.7546771E-02  0.1222731E+00
         21   -1    0    0  503  502  0.00000000000E+00  0.00000000000E+00  0.19793761639E+03  0.19793761639E+03  0.00000000000E+00 0.  1.
         -1   -1    0    0    0  501 -0.00000000000E+00 -0.00000000000E+00 -0.58032015862E+03  0.58032015862E+03  0.00000000000E+00 0.  1.
         23    2    1    2    0    0  0.95090753198E+01  0.51151256078E+02 -0.25139328869E+03  0.26924058740E+03  0.81148227304E+02 0.  0.
         24    2    1    2    0    0 -0.60250694746E+02  0.77567908572E+02 -0.19384408769E+03  0.23220474791E+03  0.81832682717E+02 0.  0.
        -11    1    4    4    0    0 -0.42821042615E+02 -0.53009071877E+01 -0.63938060210E+02  0.77135055916E+02  0.00000000000E+00 0.  1.
         12    1    4    4    0    0 -0.17429652131E+02  0.82868815759E+02 -0.12990602748E+03  0.15506969199E+03  0.00000000000E+00 0. -1.
        -13    1    3    3    0    0 -0.15828336292E+02  0.43418183616E+02 -0.23161540345E+03  0.23618079942E+03  0.00000000000E+00 0.  1.
         13    1    3    3    0    0  0.25337411612E+02  0.77330724615E+01 -0.19777885235E+02  0.33059787980E+02  0.00000000000E+00 0. -1.
         21    1    1    2  503  501 -0.75643934554E+02 -0.45848636814E+02  0.86644237571E+02  0.12381973282E+03  0.00000000000E+00 0.  1.
         -2    1    1    2    0  502  0.12638555398E+03 -0.82870527836E+02 -0.23789403418E+02  0.15299270686E+03  0.00000000000E+00 0.  1.
<scales pt_clust_5="13000.00000" pt_clust_6="13000.00000" pt_clust_7="13000.00000" pt_clust_8="13000.00000" pt_clust_9="88.45396" pt_clust_10="125.52072"></scales>
<clustering>
<clus scale="   81.148">  7  8 -1 -1</clus>
<clus scale="   81.833">  5  6 -1 -1</clus>
<clus scale="   88.454">  1  9  2 -1</clus>
<clus scale="   93.672">  2  7  1 -1</clus>
<clus scale="  125.521">  1 10  2 -1</clus>
<clus scale="   88.454">  1  5  2 -1</clus>
</clustering>
</event>
<event>
10    4  0.7697601E-005  0.1223721E+03  0.7546771E-02  0.1247836E+00
          2   -1    0    0  503    0 -0.00000000000E+00  0.00000000000E+00  0.15600839195E+04  0.15600839195E+04  0.00000000000E+00 0. -1.
         21   -1    0    0  501  502  0.00000000000E+00 -0.00000000000E+00 -0.41157227148E+02  0.41157227148E+02  0.00000000000E+00 0. -1.
         23    2    1    2    0    0  0.90199553399E+02 -0.14050752717E+02  0.28467768517E+03  0.31224826533E+03  0.90134408984E+02 0.  0.
         24    2    1    2    0    0  0.70025991550E+02 -0.64528988697E+02  0.38569382037E+03  0.40615842048E+03  0.84482599238E+02 0.  0.
        -11    1    4    4    0    0  0.74335142075E+02 -0.47650270135E+02  0.37598875171E+03  0.38621730024E+03  0.00000000000E+00 0.  1.
         12    1    4    4    0    0 -0.43091505256E+01 -0.16878718562E+02  0.97050686636E+01  0.19941120237E+02  0.00000000000E+00 0. -1.
        -13    1    3    3    0    0  0.79784735121E+02  0.19146039736E+02  0.25002256247E+03  0.26314151429E+03  0.00000000000E+00 0. -1.
         13    1    3    3    0    0  0.10414818278E+02 -0.33196792453E+02  0.34655122700E+02  0.49106751046E+02  0.00000000000E+00 0.  1.
         21    1    1    2  503  502 -0.88293971870E+02 -0.34139416233E+01  0.13737273450E+03  0.16333630537E+03  0.00000000000E+00 0. -1.
          1    1    1    2  501    0 -0.71931573079E+02  0.81993683037E+02  0.71118245227E+03  0.71949815544E+03  0.00000000000E+00 0. -1.
<scales pt_clust_5="13000.00000" pt_clust_6="13000.00000" pt_clust_7="13000.00000" pt_clust_8="13000.00000" pt_clust_9="88.35995" pt_clust_10="88.53040"></scales>
<clustering>
<clus scale="   84.483">  5  6 -1 -1</clus>
<clus scale="   88.360">  2  9  1 -1</clus>
<clus scale="   90.134">  7  8 -1 -1</clus>
<clus scale="  102.861">  1  7  2 -1</clus>
<clus scale="   88.530">  2 10  1 -1</clus>
<clus scale="   88.360">  2  5  1 -1</clus>
</clustering>
</event>
<event>
10    4  0.7697601E-005  0.2316851E+03  0.7546771E-02  0.1160439E+00
          2   -1    0    0  502    0 -0.00000000000E+00  0.00000000000E+00  0.69941399678E+02  0.69941399678E+02  0.00000000000E+00 0. -1.
         21   -1    0    0  503  502  0.00000000000E+00 -0.00000000000E+00 -0.13077779018E+04  0.13077779018E+04  0.00000000000E+00 0. -1.
         24    2    1    2    0    0  0.56498850448E+02 -0.11063671539E+02 -0.65769858510E+02  0.11974967412E+03  0.81852215820E+02 0.  0.
         23    2    1    2    0    0 -0.77236680023E+02 -0.20211791534E+03 -0.57121902635E+03  0.61749461416E+03  0.90505613182E+02 0.  0.
        -11    1    3    3    0    0  0.51501715918E+02  0.47574374194E+01 -0.81734777430E+02  0.96724525302E+02  0.00000000000E+00 0.  1.
         12    1    3    3    0    0  0.49971345302E+01 -0.15821108958E+02  0.15964918921E+02  0.23025148823E+02  0.00000000000E+00 0. -1.
        -13    1    4    4    0    0 -0.11190585935E+02 -0.10352831580E+03 -0.36506643141E+03  0.37962723918E+03  0.00000000000E+00 0. -1.
         13    1    4    4    0    0 -0.66046094088E+02 -0.98589599540E+02 -0.20615259494E+03  0.23786737498E+03  0.00000000000E+00 0.  1.
         21    1    1    2  503  501 -0.69069897953E+01  0.25043527375E+02 -0.13199967495E+03  0.13453177676E+03  0.00000000000E+00 0.  1.
          1    1    1    2  501    0  0.27644819370E+02  0.18813805951E+03 -0.46884794229E+03  0.50594323641E+03  0.00000000000E+00 0. -1.
<scales pt_clust_5="13000.00000" pt_clust_6="13000.00000" pt_clust_7="13000.00000" pt_clust_8="13000.00000" pt_clust_9="21.27756" pt_clust_10="220.90873"></scales>
<clustering>
<clus scale="   21.278">  9 10 -1 -1</clus>
<clus scale="   81.852">  5  6 -1 -1</clus>
<clus scale="   90.506">  7  8 -1 -1</clus>
<clus scale="  100.072">  1  5  2 -1</clus>
<clus scale="  220.909">  2  9  1 -1</clus>
<clus scale="  220.909">  2  5  1 -1</clus>
</clustering>
</event>
<event>
10    4  0.7697601E-005  0.2559630E+03  0.7546771E-02  0.1118255E+00
         21   -1    0    0  503  502  0.00000000000E+00  0.00000000000E+00  0.55910396478E+02  0.55910396478E+02  0.00000000000E+00 0. -1.
          2   -1    0    0  502    0 -0.00000000000E+00 -0.00000000000E+00 -0.36459139178E+04  0.36459139178E+04  0.00000000000E+00 0. -1.
         23    2    1    2    0    0 -0.18872916361E+03 -0.10901735425E+02 -0.42001838045E+03  0.46987746486E+03  0.92907733973E+02 0.  0.
         24    2    1    2    0    0 -0.19837293247E+02 -0.24319322658E+03 -0.12730759552E+04  0.12999309441E+04  0.97783476581E+02 0.  0.
        -13    1    4    4    0    0  0.17096419891E+02 -0.16083569071E+02 -0.47972209547E+02  0.53406943893E+02  0.00000000000E+00 0.  1.
         14    1    4    4    0    0 -0.36933713138E+02 -0.22710965751E+03 -0.12251037456E+04  0.12465240003E+04  0.00000000000E+00 0. -1.
        -11    1    3    3    0    0 -0.40557385148E+02  0.22186704865E+02 -0.18025279606E+03  0.18608659771E+03  0.00000000000E+00 0.  1.
         11    1    3    3    0    0 -0.14817177847E+03 -0.33088440290E+02 -0.23976558440E+03  0.28379086715E+03  0.00000000000E+00 0. -1.
         21    1    1    2  503  501  0.12272270513E+02  0.57598985678E+02 -0.12158505561E+03  0.13509691900E+03  0.00000000000E+00 0. -1.
          1    1    1    2  501    0  0.19629418635E+03  0.19649597633E+03 -0.17753241301E+04  0.17969189862E+04  0.00000000000E+00 0. -1.
<scales pt_clust_5="13000.00000" pt_clust_6="13000.00000" pt_clust_7="13000.00000" pt_clust_8="13000.00000" pt_clust_9="58.89187" pt_clust_10="236.54913"></scales>
<clustering>
<clus scale="   58.892">  1  9  2 -1</clus>
<clus scale="   92.908">  7  8 -1 -1</clus>
<clus scale="   97.783">  5  6 -1 -1</clus>
<clus scale="  205.610">  2  7  1 -1</clus>
<clus scale="  236.549">  1 10  2 -1</clus>
<clus scale="   58.892">  1  5  2 -1</clus>
</clustering>
</event>
<event>
10    4  0.7697601E-005  0.1757077E+03  0.7546771E-02  0.1187314E+00
          2   -1    0    0  503    0 -0.00000000000E+00  0.00000000000E+00  0.16779059411E+04  0.16779059411E+04  0.00000000000E+00 0. -1.
         21   -1    0    0  501  502  0.00000000000E+00 -0.00000000000E+00 -0.58054688916E+02  0.58054688916E+02  0.00000000000E+00 0. -1.
         24    2    1    2    0    0  0.89870984515E+02  0.28663188419E+02  0.89756100266E+03  0.90598897533E+03  0.79384492889E+02 0.  0.
         23    2    1    2    0    0  0.71633316268E+02 -0.73538707858E+02  0.42702590395E+03  0.44869633425E+03  0.91858609667E+02 0.  0.
        -13    1    3    3    0    0  0.14600034509E+02 -0.17095211677E+02  0.64940548186E+02  0.68721772887E+02  0.00000000000E+00 0.  1.
         14    1    3    3    0    0  0.75270950006E+02  0.45758400096E+02  0.83262045447E+03  0.83726720245E+03  0.00000000000E+00 0. -1.
        -13    1    4    4    0    0  0.85727645567E+02 -0.30832627414E+02  0.31707912492E+03  0.32990764099E+03  0.00000000000E+00 0. -1.
         13    1    4    4    0    0 -0.14094329299E+02 -0.42706080444E+02  0.10994677903E+03  0.11878869325E+03  0.00000000000E+00 0.  1.
         21    1    1    2  503  502  0.24998488563E+02 -0.19884386689E+02  0.83807221936E+01  0.33023473000E+02  0.00000000000E+00 0. -1.
          1    1    1    2  501    0 -0.18650278935E+03  0.64759906128E+02  0.28688362339E+03  0.34825184744E+03  0.00000000000E+00 0. -1.
<scales pt_clust_5="13000.00000" pt_clust_6="13000.00000" pt_clust_7="13000.00000" pt_clust_8="13000.00000" pt_clust_9="31.94234" pt_clust_10="149.78381"></scales>
<clustering>
<clus scale="   31.942">  2  9  1 -1</clus>
<clus scale="   79.384">  5  6 -1 -1</clus>
<clus scale="   91.859">  7  8 -1 -1</clus>
<clus scale="  124.571">  1  5  2 -1</clus>
<clus scale="  149.784">  2 10  1 -1</clus>
<clus scale="   31.942">  2  5  1 -1</clus>
</clustering>
</event>
<event>
10    4  0.7697601E-005  0.1324760E+03  0.7546771E-02  0.1233331E+00
         -1   -1    0    0    0  501 -0.00000000000E+00  0.00000000000E+00  0.46544644344E+03  0.46544644344E+03  0.00000000000E+00 0.  1.
         21   -1    0    0  503  502  0.00000000000E+00 -0.00000000000E+00 -0.98940077636E+02  0.98940077636E+02  0.00000000000E+00 0.  1.
         24    2    1    2    0    0  0.69532177859E+02 -0.49728177430E+02  0.48176221866E+02  0.12669186181E+03  0.80139029868E+02 0.  0.
         23    2    1    2    0    0  0.61826903488E+02 -0.19255835178E+02  0.17770668298E+03  0.20996044249E+03  0.91161225591E+02 0.  0.
        -11    1    3    3    0    0  0.57776693469E+02 -0.43683640672E+02 -0.43163304604E+01  0.72560577997E+02  0.00000000000E+00 0.  1.
         12    1    3    3    0    0  0.11755484389E+02 -0.60445367578E+01  0.52492552327E+02  0.54131283816E+02  0.00000000000E+00 0. -1.
        -13    1    4    4    0    0 -0.22502830853E+02 -0.14388613513E+02  0.33613760857E+02  0.42933605883E+02  0.00000000000E+00 0.  1.
         13    1    4    4    0    0  0.84329734341E+02 -0.48672216653E+01  0.14409292212E+03  0.16702683660E+03  0.00000000000E+00 0. -1.
         21    1    1    2  503  501 -0.13179756337E+02  0.22958287284E+02 -0.12192790143E+02  0.29145378083E+02  0.00000000000E+00 0. -1.
         -2    1    1    2    0  502 -0.11817932501E+03  0.46025725323E+02  0.15281625110E+03  0.19858883869E+03  0.00000000000E+00 0.  1.
<scales pt_clust_5="13000.00000" pt_clust_6="13000.00000" pt_clust_7="13000.00000" pt_clust_8="13000.00000" pt_clust_9="26.47242" pt_clust_10="96.12251"></scales>
<clustering>
<clus scale="   26.472">  2  9  1 -1</clus>
<clus scale="   80.139">  5  6 -1 -1</clus>
<clus scale="   91.161">  7  8 -1 -1</clus>
<clus scale="  108.819">  1  5  2 -1</clus>
<clus scale="   96.123">  2 10  1 -1</clus>
<clus scale="   26.472">  2  5  1 -1</clus>
</clustering>
</event>
<event>
10    4  0.7697601E-005  0.2582914E+03  0.7546771E-02  0.1134467E+00
         21   -1    0    0  501  502  0.00000000000E+00  0.00000000000E+00  0.67111706324E+03  0.67111706324E+03  0.00000000000E+00 0. -1.
          4   -1    0    0  503    0 -0.00000000000E+00 -0.00000000000E+00 -0.96097909471E+03  0.96097909471E+03  0.00000000000E+00 0. -1.
         23    2    1    2    0    0 -0.10755239790E+03 -0.35462241657E+02  0.12812504079E+03  0.18907906888E+03  0.80683203547E+02 0.  0.
         24    2    1    2    0    0  0.23119756652E+03  0.24322528909E+03 -0.84994530241E+03  0.91758820719E+03  0.83368128606E+02 0.  0.
        -11    1    4    4    0    0  0.65247743483E+02  0.66208141508E+02 -0.14680574275E+03  0.17376050223E+03  0.00000000000E+00 0.  1.
         12    1    4    4    0    0  0.16594982304E+03  0.17701714758E+03 -0.70313955966E+03  0.74382770495E+03  0.00000000000E+00 0. -1.
        -13    1    3    3    0    0 -0.79801136167E+02 -0.31626276345E+02  0.36518988527E+02  0.93284935612E+02  0.00000000000E+00 0.  1.
         13    1    3    3    0    0 -0.27751261728E+02 -0.38359653120E+01  0.91606052263E+02  0.95794133268E+02  0.00000000000E+00 0. -1.
         21    1    1    2  503  502  0.31998025965E+02 -0.26466121022E+02  0.15099779436E+03  0.15660352209E+03  0.00000000000E+00 0. -1.
          3    1    1    2  501    0 -0.15564319459E+03 -0.18129692641E+03  0.28096043579E+03  0.36882535979E+03  0.00000000000E+00 0. -1.
<scales pt_clust_5="13000.00000" pt_clust_6="13000.00000" pt_clust_7="13000.00000" pt_clust_8="13000.00000" pt_clust_9="41.52504" pt_clust_10="244.46718"></scales>
<clustering>
<clus scale="   41.525">  1  9  2 -1</clus>
<clus scale="   80.683">  7  8 -1 -1</clus>
<clus scale="   83.368">  5  6 -1 -1</clus>
<clus scale="  134.023">  2  7  1 -1</clus>
<clus scale="  244.467">  1 10  2 -1</clus>
<clus scale="   41.525">  1  5  2 -1</clus>
</clustering>
</event>
<event>
10    4  0.7697601E-005  0.1282135E+03  0.7546771E-02  0.1247440E+00
         21   -1    0    0  503  502  0.00000000000E+00  0.00000000000E+00  0.31699486643E+03  0.31699486643E+03  0.00000000000E+00 0.  1.
         -3   -1    0    0    0  501 -0.00000000000E+00 -0.00000000000E+00 -0.22043900596E+03  0.22043900596E+03  0.00000000000E+00 0.  1.
         24    2    1    2    0    0 -0.40045187531E+02 -0.32764674798E+02 -0.34417451746E+02  0.97861775853E+02  0.75599108654E+02 0.  0.
         23    2    1    2    0    0  0.67735567573E+01 -0.91161378732E+02  0.51628007643E+02  0.13970676094E+03  0.92175104212E+02 0.  0.
        -13    1    3    3    0    0 -0.37797517366E+02  0.62308738974E+01  0.91121364467E+01  0.39376479517E+02  0.00000000000E+00 0.  1.
         14    1    3    3    0    0 -0.22476701658E+01 -0.38995548695E+02 -0.43529588193E+02  0.58485296336E+02  0.00000000000E+00 0. -1.
        -11    1    4    4    0    0  0.11419723647E+02 -0.35580918894E+02 -0.24977960506E+02  0.44947863004E+02  0.00000000000E+00 0. -1.
         11    1    4    4    0    0 -0.46461668895E+01 -0.55580459837E+02  0.76605968150E+02  0.94758897939E+02  0.00000000000E+00 0.  1.
         21    1    1    2  503  501  0.41820548836E+02  0.69040527971E+02  0.17304091099E+03  0.19094163947E+03  0.00000000000E+00 0.  1.
         -4    1    1    2    0  502 -0.85489180621E+01  0.54885525558E+02 -0.93695606417E+02  0.10892369613E+03  0.00000000000E+00 0.  1.
<scales pt_clust_5="13000.00000" pt_clust_6="13000.00000" pt_clust_7="13000.00000" pt_clust_8="13000.00000" pt_clust_9="89.12048" pt_clust_10="55.54735"></scales>
<clustering>
<clus scale="   55.547">  1 10  2 -1</clus>
<clus scale="   75.599">  5  6 -1 -1</clus>
<clus scale="   90.146">  2  5  1 -1</clus>
<clus scale="   89.120">  1  9  2 -1</clus>
<clus scale="   92.175">  7  8 -1 -1</clus>
<clus scale="   55.547">  1  5  2 -1</clus>
</clustering>
</event>
<event>
10    4  0.7697601E-005  0.1176152E+03  0.7546771E-02  0.1261194E+00
         21   -1    0    0  503  502  0.00000000000E+00  0.00000000000E+00  0.41652426810E+03  0.41652426810E+03  0.00000000000E+00 0.  1.
          2   -1    0    0  502    0 -0.00000000000E+00 -0.00000000000E+00 -0.20145539841E+03  0.20145539841E+03  0.00000000000E+00 0. -1.
         24    2    1    2    0    0 -0.10873302138E+02  0.90824585278E+02  0.11147611561E+03  0.16545582056E+03  0.81125644626E+02 0.  0.
         23    2    1    2    0    0 -0.58309156661E+02  0.56154716462E+02  0.18637291149E+03  0.23195077920E+03  0.11186148535E+03 0.  0.
        -13    1    3    3    0    0  0.82367129515E+01  0.99682574190E+02  0.82634502512E+02  0.12974174364E+03  0.00000000000E+00 0.  1.
         14    1    3    3    0    0 -0.19110015089E+02 -0.88579889119E+01  0.28841613100E+02  0.35714076923E+02  0.00000000000E+00 0. -1.
        -11    1    4    4    0    0  0.24538848598E+02  0.39667852483E+02  0.10391956225E+03  0.11390772155E+03  0.00000000000E+00 0. -1.
         11    1    4    4    0    0 -0.82848005259E+02  0.16486863979E+02  0.82453349237E+02  0.11804305765E+03  0.00000000000E+00 0.  1.
         21    1    1    2  503  501  0.37631267413E+02 -0.55510779552E+02  0.28710891846E+02  0.72951177127E+02  0.00000000000E+00 0. -1.
          1    1    1    2  501    0  0.31551191386E+02 -0.91468522187E+02 -0.11149104926E+03  0.14762188962E+03  0.00000000000E+00 0. -1.
<scales pt_clust_5="13000.00000" pt_clust_6="13000.00000" pt_clust_7="13000.00000" pt_clust_8="13000.00000" pt_clust_9="67.06384" pt_clust_10="99.95960"></scales>
<clustering>
<clus scale="   67.064">  1  9  2 -1</clus>
<clus scale="   81.126">  5  6 -1 -1</clus>
<clus scale="   99.960">  1 10  2 -1</clus>
<clus scale="   88.892">  2  5  1 -1</clus>
<clus scale="  111.861">  7  8 -1 -1</clus>
<clus scale="   67.064">  1  5  2 -1</clus>
</clustering>
</event>
<event>
10    4  0.7697601E-005  0.1953112E+03  0.7546771E-02  0.1154563E+00
         21   -1    0    0  503  502  0.00000000000E+00  0.00000000000E+00  0.14199375267E+03  0.14199375267E+03  0.00000000000E+00 0. -1.
         -1   -1    0    0    0  501 -0.00000000000E+00 -0.00000000000E+00 -0.60652198107E+03  0.60652198107E+03  0.00000000000E+00 0.  1.
         23    2    1    2    0    0 -0.22111952959E+02  0.14451684954E+03 -0.15818642180E+03  0.23371531165E+03  0.90696442001E+02 0.  0.
         24    2    1    2    0    0  0.39298641942E+02 -0.22040231439E+03 -0.12665325842E+03  0.27012635406E+03  0.82496277745E+02 0.  0.
        -11    1    4    4    0    0  0.16667076867E+02 -0.96842963728E+02 -0.10128807203E+02  0.98787366653E+02  0.00000000000E+00 0.  1.
         12    1    4    4    0    0  0.22631565075E+02 -0.12355935066E+03 -0.11652445122E+03  0.17133898740E+03  0.00000000000E+00 0. -1.
        -13    1    3    3    0    0 -0.45189674234E+02  0.12677465986E+03 -0.15364023480E+03  0.20425288931E+03  0.00000000000E+00 0.  1.
         13    1    3    3    0    0  0.23077721274E+02  0.17742189679E+02 -0.45461869950E+01  0.29462422338E+02  0.00000000000E+00 0. -1.
         21    1    1    2  503  501  0.15574363543E+02  0.14484296955E+02  0.22429376904E+02  0.30910072895E+02  0.00000000000E+00 0. -1.
         -2    1    1    2    0  502 -0.32761052525E+02  0.61401167890E+02 -0.20211792508E+03  0.21376399514E+03  0.00000000000E+00 0.  1.
<scales pt_clust_5="13000.00000" pt_clust_6="13000.00000" pt_clust_7="13000.00000" pt_clust_8="13000.00000" pt_clust_9="21.26865" pt_clust_10="69.87728"></scales>
<clustering>
<clus scale="   21.269">  1  9  2 -1</clus>
<clus scale="   69.877">  1 10  2 -1</clus>
<clus scale="   82.496">  5  6 -1 -1</clus>
<clus scale="   90.696">  7  8 -1 -1</clus>
<clus scale="  191.641">  1  5  2 -1</clus>
<clus scale="   21.269">  1  5  2 -1</clus>
</clustering>
</event>
<event>
10    4  0.7697601E-005  0.1078993E+03  0.7546771E-02  0.1266159E+00
         -1   -1    0    0    0  501 -0.00000000000E+00  0.00000000000E+00  0.24130695170E+03  0.24130695170E+03  0.00000000000E+00 0.  1.
         21   -1    0    0  503  502  0.00000000000E+00 -0.00000000000E+00 -0.14100529002E+03  0.14100529002E+03  0.00000000000E+00 0.  1.
         23    2    1    2    0    0 -0.41645959446E+02  0.47387430189E+02  0.11211654711E+03  0.15618039837E+03  0.88556435237E+02 0.  0.
         24    2    1    2    0    0  0.54369772894E+02 -0.25983103268E+02 -0.46734125846E+02  0.11372387388E+03  0.84367334383E+02 0.  0.
        -13    1    4    4    0    0  0.27528200529E+02 -0.48863667026E+02 -0.53840508573E+02  0.77744839976E+02  0.00000000000E+00 0.  1.
         14    1    4    4    0    0  0.26841572365E+02  0.22880563758E+02  0.71063827265E+01  0.35979033900E+02  0.00000000000E+00 0. -1.
        -11    1    3    3    0    0 -0.25514895081E+02  0.66008013463E+02  0.11084785750E+03  0.13151165433E+03  0.00000000000E+00 0. -1.
         11    1    3    3    0    0 -0.16131064365E+02 -0.18620583274E+02  0.12686896026E+01  0.24668744036E+02  0.00000000000E+00 0.  1.
         21    1    1    2  503  501  0.10813588753E+02 -0.40669623052E+02 -0.22285680137E+02  0.47619360350E+02  0.00000000000E+00 0.  1.
         -2    1    1    2    0  502 -0.23537402201E+02  0.19265296131E+02  0.57204920553E+02  0.64788609129E+02  0.00000000000E+00 0.  1.
<scales pt_clust_5="13000.00000" pt_clust_6="13000.00000" pt_clust_7="13000.00000" pt_clust_8="13000.00000" pt_clust_9="36.08523" pt_clust_10="30.41647"></scales>
<clustering>
<clus scale="   30.416">  2 10  1 -1</clus>
<clus scale="   36.085">  2  9  1 -1</clus>
<clus scale="   84.367">  5  6 -1 -1</clus>
<clus scale="   88.556">  7  8 -1 -1</clus>
<clus scale="  104.489">  2  5  1 -1</clus>
<clus scale="   30.416">  2  5  1 -1</clus>
</clustering>
</event>
<event>
10    4  0.7697601E-005  0.1969738E+03  0.7546771E-02  0.1185929E+00
         21   -1    0    0  501  502  0.00000000000E+00  0.00000000000E+00  0.90873895994E+02  0.90873895994E+02  0.00000000000E+00 0. -1.
          2   -1    0    0  503    0 -0.00000000000E+00 -0.00000000000E+00 -0.10957796125E+04  0.10957796125E+04  0.00000000000E+00 0. -1.
         23    2    1    2    0    0 -0.26908000084E+02  0.10094964992E+01 -0.18847612573E+03  0.21008592937E+03  0.88813220830E+02 0.  0.
         24    2    1    2    0    0  0.26889621495E+02  0.15206694033E+03 -0.40265060845E+03  0.43954528669E+03  0.85000826361E+02 0.  0.
        -11    1    4    4    0    0 -0.25034149359E+02  0.14302646921E+02 -0.58185201891E+02  0.64936831322E+02  0.00000000000E+00 0.  1.
         12    1    4    4    0    0  0.51923770855E+02  0.13776429341E+03 -0.34446540656E+03  0.37460845537E+03  0.00000000000E+00 0. -1.
        -11    1    3    3    0    0  0.23168744989E+02  0.23496349009E+02 -0.40407365594E+02  0.52169189714E+02  0.00000000000E+00 0. -1.
         11    1    3    3    0    0 -0.50076745074E+02 -0.22486852510E+02 -0.14806876014E+03  0.15791673965E+03  0.00000000000E+00 0.  1.
         21    1    1    2  503  502  0.44791395786E+02  0.46988606467E+02  0.10544368789E+02  0.65767636322E+02  0.00000000000E+00 0. -1.
          1    1    1    2  501    0 -0.44773017198E+02 -0.20006504329E+03 -0.42432335115E+03  0.47125465616E+03  0.00000000000E+00 0. -1.
<scales pt_clust_5="13000.00000" pt_clust_6="13000.00000" pt_clust_7="13000.00000" pt_clust_8="13000.00000" pt_clust_9="64.91686" pt_clust_10="177.68950"></scales>
<clustering>
<clus scale="   64.917">  1  9  2 -1</clus>
<clus scale="   85.001">  5  6 -1 -1</clus>
<clus scale="   88.813">  7  8 -1 -1</clus>
<clus scale="   91.188">  2  7  1 -1</clus>
<clus scale="  177.689">  1 10  2 -1</clus>
<clus scale="   64.917">  1  5  2 -1</clus>
</clustering>
</event>
<event>
10    4  0.7697601E-005  0.2112112E+03  0.7546771E-02  0.1179429E+00
         21   -1    0    0  501  502  0.00000000000E+00  0.00000000000E+00  0.85499448772E+02  0.85499448772E+02  0.00000000000E+00 0. -1.
          2   -1    0    0  503    0 -0.00000000000E+00 -0.00000000000E+00 -0.11110407501E+04  0.11110407501E+04  0.00000000000E+00 0. -1.
         24    2    1    2    0    0  0.21932475929E+02 -0.22319048236E+02 -0.88126991619E+02  0.12469987247E+03  0.82489503130E+02 0.  0.
         23    2    1    2    0    0  0.15570257027E+03 -0.12846596197E+03 -0.32480510762E+03  0.39362741245E+03  0.93259788356E+02 0.  0.
        -13    1    3    3    0    0  0.31562729796E+02  0.18806574739E+02 -0.13872208779E+02  0.39272526556E+02  0.00000000000E+00 0.  1.
         14    1    3    3    0    0 -0.96302538674E+01 -0.41125622976E+02 -0.74254782840E+02  0.85427345910E+02  0.00000000000E+00 0. -1.
        -13    1    4    4    0    0 -0.99225072134E+01 -0.20834040926E+02 -0.51319491181E+02  0.56269028655E+02  0.00000000000E+00 0.  1.
         13    1    4    4    0    0  0.16562507749E+03 -0.10763192104E+03 -0.27348561644E+03  0.33735838379E+03  0.00000000000E+00 0. -1.
         21    1    1    2  503  502  0.18303933885E+01  0.72940864255E+02 -0.68785693086E+02  0.10027557824E+03  0.00000000000E+00 0. -1.
          1    1    1    2  501    0 -0.17946543959E+03  0.77844145949E+02 -0.54382350899E+03  0.57793733570E+03  0.00000000000E+00 0. -1.
<scales pt_clust_5="13000.00000" pt_clust_6="13000.00000" pt_clust_7="13000.00000" pt_clust_8="13000.00000" pt_clust_9="72.96383" pt_clust_10="189.50683"></scales>
<clustering>
<clus scale="   72.964">  1  9  2 -1</clus>
<clus scale="   82.490">  5  6 -1 -1</clus>
<clus scale="   85.540">  2  5  1 -1</clus>
<clus scale="   93.260">  7  8 -1 -1</clus>
<clus scale="  189.507">  1 10  2 -1</clus>
<clus scale="   72.964">  1  5  2 -1</clus>
</clustering>
</event>
<event>
10    4  0.7697601E-005  0.1008230E+03  0.7546771E-02  0.1288221E+00
         -1   -1    0    0    0  501 -0.00000000000E+00  0.00000000000E+00  0.10010033697E+03  0.10010033697E+03  0.00000000000E+00 0.  1.
         21   -1    0    0  503  502  0.00000000000E+00 -0.00000000000E+00 -0.51009689426E+03  0.51009689426E+03  0.00000000000E+00 0. -1.
         23    2    1    2    0    0 -0.20515899792E+02 -0.13954074976E+02  0.54387359392E+02  0.11500826147E+03  0.98251193341E+02 0.  0.
         24    2    1    2    0    0  0.20032824931E+02 -0.10223005403E+02 -0.13054245391E+03  0.15521157291E+03  0.80891755928E+02 0.  0.
        -13    1    4    4    0    0 -0.29394046968E+02  0.39419696251E+01 -0.68421184874E+02  0.74572164118E+02  0.00000000000E+00 0.  1.
         14    1    4    4    0    0  0.49426871898E+02 -0.14164975028E+02 -0.62121269039E+02  0.80639408791E+02  0.00000000000E+00 0. -1.
        -11    1    3    3    0    0 -0.35628798201E+02  0.32562070699E+02  0.43333255636E+02  0.64865019490E+02  0.00000000000E+00 0.  1.
         11    1    3    3    0    0  0.15112898408E+02 -0.46516145676E+02  0.11054103757E+02  0.50143241984E+02  0.00000000000E+00 0. -1.
         21    1    1    2  503  501  0.25339974485E+02  0.21178653264E+02 -0.25811879642E+03  0.26022290969E+03  0.00000000000E+00 0. -1.
         -2    1    1    2    0  502 -0.24856899623E+02  0.29984271155E+01 -0.75722666343E+02  0.79754487160E+02  0.00000000000E+00 0.  1.
<scales pt_clust_5="13000.00000" pt_clust_6="13000.00000" pt_clust_7="13000.00000" pt_clust_8="13000.00000" pt_clust_9="25.23664" pt_clust_10="25.03709"></scales>
<clustering>
<clus scale="   25.037">  2 10  1 -1</clus>
<clus scale="   25.237">  2  9  1 -1</clus>
<clus scale="   80.892">  5  6 -1 -1</clus>
<clus scale="   83.997">  2  5  1 -1</clus>
<clus scale="   98.251">  7  8 -1 -1</clus>
<clus scale="   25.037">  2  5  1 -1</clus>
</clustering>
</event>
<event>
10    4  0.7697601E-005  0.2080519E+03  0.7546771E-02  0.1177063E+00
          2   -1    0    0  502    0 -0.00000000000E+00  0.00000000000E+00  0.72923496247E+03  0.72923496247E+03  0.00000000000E+00 0. -1.
         21   -1    0    0  503  502  0.00000000000E+00 -0.00000000000E+00 -0.13196983810E+03  0.13196983810E+03  0.00000000000E+00 0.  1.
         23    2    1    2    0    0 -0.13103739883E+02 -0.17354894199E+02  0.24469936444E+03  0.26198685990E+03  0.91029860226E+02 0.  0.
         24    2    1    2    0    0 -0.19125163764E+03  0.30443897794E+02  0.88017388495E+02  0.22663276568E+03  0.78174995947E+02 0.  0.
        -13    1    4    4    0    0 -0.16739354204E+03  0.82335392030E+01  0.46652116401E+02  0.17396783912E+03  0.00000000000E+00 0.  1.
         14    1    4    4    0    0 -0.23858095603E+02  0.22210358591E+02  0.41365272095E+02  0.52664926564E+02  0.00000000000E+00 0. -1.
        -11    1    3    3    0    0 -0.24703945036E+02  0.31449888362E+02  0.14449282795E+03  0.14992517370E+03  0.00000000000E+00 0. -1.
         11    1    3    3    0    0  0.11600205153E+02 -0.48804782562E+02  0.10020653649E+03  0.11206168621E+03  0.00000000000E+00 0.  1.
         21    1    1    2  503  501  0.65313705175E+01 -0.57105736862E+02  0.39544066953E+02  0.69767164301E+02  0.00000000000E+00 0. -1.
          1    1    1    2  501    0  0.19782400700E+03  0.44016733268E+02  0.22500430449E+03  0.30281801068E+03  0.00000000000E+00 0. -1.
<scales pt_clust_5="13000.00000" pt_clust_6="13000.00000" pt_clust_7="13000.00000" pt_clust_8="13000.00000" pt_clust_9="57.47803" pt_clust_10="192.80634"></scales>
<clustering>
<clus scale="   57.478">  2  9  1 -1</clus>
<clus scale="   78.175">  5  6 -1 -1</clus>
<clus scale="   91.030">  7  8 -1 -1</clus>
<clus scale="   94.400">  1  7  2 -1</clus>
<clus scale="  192.806">  2 10  1 -1</clus>
<clus scale="   57.478">  2  5  1 -1</clus>
</clustering>
</event>
<event>
10    4  0.7697601E-005  0.1164846E+03  0.7546771E-02  0.1251515E+00
         21   -1    0    0  503  502  0.00000000000E+00  0.00000000000E+00  0.40070978573E+03  0.40070978573E+03  0.00000000000E+00 0. -1.
          4   -1    0    0  502    0 -0.00000000000E+00 -0.00000000000E+00 -0.26908310527E+03  0.26908310527E+03  0.00000000000E+00 0. -1.
         23    2    1    2    0    0 -0.45182400949E+02  0.55196041337E+02 -0.17547283110E+03  0.20954480793E+03  0.89611716551E+02 0.  0.
         24    2    1    2    0    0  0.91764416534E+02 -0.32280822382E+02  0.68065301693E+01  0.12746833643E+03  0.82091950305E+02 0.  0.
        -11    1    4    4    0    0  0.10379715515E+02 -0.31290061873E+02 -0.23642801602E+02  0.40568319336E+02  0.00000000000E+00 0.  1.
         12    1    4    4    0    0  0.81384701019E+02 -0.99076050921E+00  0.30449331771E+02  0.86900017098E+02  0.00000000000E+00 0. -1.
        -13    1    3    3    0    0 -0.11670052973E+01  0.62083648103E+02 -0.13801126611E+03  0.15133687864E+03  0.00000000000E+00 0. -1.
         13    1    3    3    0    0 -0.44015395652E+02 -0.68876067661E+01 -0.37461564994E+02  0.58207929298E+02  0.00000000000E+00 0.  1.
         21    1    1    2  503  501  0.26301453143E+02  0.30057827932E+02  0.16824616122E+03  0.17292197727E+03  0.00000000000E+00 0. -1.
          3    1    1    2  501    0 -0.72883468729E+02 -0.52973046887E+02  0.13204682017E+03  0.15985776937E+03  0.00000000000E+00 0. -1.
<scales pt_clust_5="13000.00000" pt_clust_6="13000.00000" pt_clust_7="13000.00000" pt_clust_8="13000.00000" pt_clust_9="39.94045" pt_clust_10="65.63961"></scales>
<clustering>
<clus scale="   39.940">  1  9  2 -1</clus>
<clus scale="   65.640">  1 10  2 -1</clus>
<clus scale="   82.092">  5  6 -1 -1</clus>
<clus scale="   89.612">  7  8 -1 -1</clus>
<clus scale="  110.804">  1  5  2 -1</clus>
<clus scale="   39.940">  1  5  2 -1</clus>
</clustering>
</event>
<event>
10    4  0.7697601E-005  0.1721820E+03  0.7546771E-02  0.1203863E+00
         21   -1    0    0  501  502  0.00000000000E+00  0.00000000000E+00  0.39090342830E+03  0.39090342830E+03  0.00000000000E+00 0. -1.
          2   -1    0    0  503    0 -0.00000000000E+00 -0.00000000000E+00 -0.67805877780E+03  0.67805877780E+03  0.00000000000E+00 0. -1.
         24    2    1    2    0    0 -0.11733797988E+02  0.56172813729E+02 -0.12082565968E+03  0.15314086078E+03  0.74566857158E+02 0.  0.
         23    2    1    2    0    0  0.15005383011E+03 -0.22850538502E+02 -0.47152229357E+03  0.50373026950E+03  0.91501978311E+02 0.  0.
        -13    1    3    3    0    0 -0.28177915149E+02 -0.44517588700E+01 -0.21930184644E+02  0.35982579920E+02  0.00000000000E+00 0.  1.
         14    1    3    3    0    0  0.16444117161E+02  0.60624572599E+02 -0.98895475035E+02  0.11715828086E+03  0.00000000000E+00 0. -1.
        -13    1    4    4    0    0  0.13406850860E+03 -0.66527457657E+01 -0.45798390617E+03  0.47725033508E+03  0.00000000000E+00 0.  1.
         13    1    4    4    0    0  0.15985321516E+02 -0.16197792737E+02 -0.13538387403E+02  0.26479934422E+02  0.00000000000E+00 0. -1.
         21    1    1    2  503  502  0.24204771902E+02 -0.27768781948E+02  0.22999584805E+03  0.23292716964E+03  0.00000000000E+00 0. -1.
          1    1    1    2  501    0 -0.16252480403E+03 -0.55534932794E+01  0.75196755701E+02  0.17916390618E+03  0.00000000000E+00 0. -1.
<scales pt_clust_5="13000.00000" pt_clust_6="13000.00000" pt_clust_7="13000.00000" pt_clust_8="13000.00000" pt_clust_9="36.83716" pt_clust_10="145.85619"></scales>
<clustering>
<clus scale="   36.837">  1  9  2 -1</clus>
<clus scale="   74.567">  5  6 -1 -1</clus>
<clus scale="   91.502">  7  8 -1 -1</clus>
<clus scale="   92.160">  2  5  1 -1</clus>
<clus scale="  145.856">  1 10  2 -1</clus>
<clus scale="   36.837">  1  5  2 -1</clus>
</clustering>
</event>
<event>
10    4  0.7697601E-005  0.2344214E+03  0.7546771E-02  0.1143936E+00
          2   -1    0    0  503    0 -0.00000000000E+00  0.00000000000E+00  0.71518396805E+03  0.71518396805E+03  0.00000000000E+00 0. -1.
         21   -1    0    0  501  502  0.00000000000E+00 -0.00000000000E+00 -0.24943765459E+03  0.24943765459E+03  0.00000000000E+00 0.  1.
         23    2    1    2    0    0 -0.35619923028E+02  0.98180855893E+02  0.21209311656E+03  0.25349709102E+03  0.91482379065E+02 0.  0.
         24    2    1    2    0    0  0.24663055168E+03 -0.17998570540E+03  0.30321605251E+03  0.43785967574E+03  0.80991591937E+02 0.  0.
        -13    1    4    4    0    0  0.23984582489E+03 -0.16396663407E+03  0.25488770824E+03  0.38649556351E+03  0.00000000000E+00 0.  1.
         14    1    4    4    0    0  0.67847267835E+01 -0.16019071339E+02  0.48328344273E+02  0.51364112221E+02  0.00000000000E+00 0. -1.
        -11    1    3    3    0    0  0.19975225267E+02  0.54708109685E+02  0.14441466264E+03  0.15571635006E+03  0.00000000000E+00 0. -1.
         11    1    3    3    0    0 -0.55595148295E+02  0.43472746209E+02  0.67678453923E+02  0.97780740958E+02  0.00000000000E+00 0.  1.
         21    1    1    2  503  502 -0.14967241545E+03  0.45912076309E+02 -0.10031282489E+03  0.18593658471E+03  0.00000000000E+00 0.  1.
          1    1    1    2  501    0 -0.61338213203E+02  0.35892773202E+02  0.50749969267E+02  0.87328271182E+02  0.00000000000E+00 0. -1.
<scales pt_clust_5="13000.00000" pt_clust_6="13000.00000" pt_clust_7="13000.00000" pt_clust_8="13000.00000" pt_clust_9="219.98578" pt_clust_10="71.06808"></scales>
<clustering>
<clus scale="   71.068">  2 10  1 -1</clus>
<clus scale="   80.992">  5  6 -1 -1</clus>
<clus scale="   91.482">  7  8 -1 -1</clus>
<clus scale="  142.620">  1  7  2 -1</clus>
<clus scale="  219.986">  2  9  1 -1</clus>
<clus scale="   71.068">  2  5  1 -1</clus>
</clustering>
</event>
<event>
10    4  0.7697601E-005  0.1463705E+03  0.7546771E-02  0.1222772E+00
          2   -1    0    0  502    0 -0.00000000000E+00  0.00000000000E+00  0.60313335936E+03  0.60313335936E+03  0.00000000000E+00 0. -1.
         21   -1    0    0  503  502  0.00000000000E+00 -0.00000000000E+00 -0.10902910347E+03  0.10902910347E+03  0.00000000000E+00 0. -1.
         23    2    1    2    0    0  0.26877924751E+02 -0.18460896798E+02  0.17709144096E+03  0.20204006727E+03  0.91627412765E+02 0.  0.
         24    2    1    2    0    0 -0.19015692777E+02  0.17455499157E+03  0.12004943881E+03  0.22788572149E+03  0.81786261964E+02 0.  0.
        -13    1    4    4    0    0 -0.30768358724E+02  0.16325799381E+02  0.25715884370E+02  0.43295846602E+02  0.00000000000E+00 0.  1.
         14    1    4    4    0    0  0.11752665947E+02  0.15822919219E+03  0.94333554437E+02  0.18458987489E+03  0.00000000000E+00 0. -1.
        -13    1    3    3    0    0  0.40209450162E+02  0.23320066305E+02  0.12817062438E+03  0.13633904184E+03  0.00000000000E+00 0.  1.
         13    1    3    3    0    0 -0.13331525411E+02 -0.41780963104E+02  0.48920816579E+02  0.65701025429E+02  0.00000000000E+00 0. -1.
         21    1    1    2  503  501  0.17219526918E+02 -0.62123168636E+02  0.21585444909E+01  0.64501624034E+02  0.00000000000E+00 0. -1.
          1    1    1    2  501    0 -0.25081758892E+02 -0.93970926137E+02  0.19480483163E+03  0.21773505004E+03  0.00000000000E+00 0. -1.
<scales pt_clust_5="13000.00000" pt_clust_6="13000.00000" pt_clust_7="13000.00000" pt_clust_8="13000.00000" pt_clust_9="64.46550" pt_clust_10="121.38924"></scales>
<clustering>
<clus scale="   64.465">  2  9  1 -1</clus>
<clus scale="   81.786">  5  6 -1 -1</clus>
<clus scale="   91.627">  7  8 -1 -1</clus>
<clus scale="  100.406">  1  7  2 -1</clus>
<clus scale="  121.389">  2 10  1 -1</clus>
<clus scale="   64.465">  2  5  1 -1</clus>
</clustering>
</event>
<event>
10    4  0.7697601E-005  0.1933946E+03  0.7546771E-02  0.1176070E+00
         21   -1    0    0  503  502  0.00000000000E+00  0.00000000000E+00  0.31985144667E+03  0.31985144667E+03  0.00000000000E+00 0.  1.
         -1   -1    0    0    0  501 -0.00000000000E+00 -0.00000000000E+00 -0.39488898658E+03  0.39488898658E+03  0.00000000000E+00 0.  1.
         23    2    1    2    0    0  0.29147895288E+02  0.68400009770E+02 -0.12262651989E+03  0.16944251001E+03  0.90251535632E+02 0.  0.
         24    2    1    2    0    0 -0.21976371770E+03 -0.83818026356E+02  0.14604293744E+03  0.28825618283E+03  0.80259168971E+02 0.  0.
        -13    1    4    4    0    0 -0.99531373315E+02 -0.11384031606E+02  0.25848804105E+02  0.10346135087E+03  0.00000000000E+00 0.  1.
         14    1    4    4    0    0 -0.12023234438E+03 -0.72433994750E+02  0.12019413334E+03  0.18479483196E+03  0.00000000000E+00 0. -1.
        -11    1    3    3    0    0 -0.26184914341E+01  0.50306424086E+02 -0.12296465804E+03  0.13288303100E+03  0.00000000000E+00 0. -1.
         11    1    3    3    0    0  0.31766386722E+02  0.18093585684E+02  0.33813815034E+00  0.36559479013E+02  0.00000000000E+00 0.  1.
         21    1    1    2  503  501  0.46403628080E+02  0.44335357348E+02  0.21036842790E+02  0.67538650895E+02  0.00000000000E+00 0. -1.
         -2    1    1    2    0  502  0.14421219433E+03 -0.28917340762E+02 -0.11949080025E+03  0.18950308951E+03  0.00000000000E+00 0.  1.
<scales pt_clust_5="13000.00000" pt_clust_6="13000.00000" pt_clust_7="13000.00000" pt_clust_8="13000.00000" pt_clust_9="64.17882" pt_clust_10="175.95449"></scales>
<clustering>
<clus scale="   64.179">  1  9  2 -1</clus>
<clus scale="   80.259">  5  6 -1 -1</clus>
<clus scale="   90.252">  7  8 -1 -1</clus>
<clus scale="  120.201">  2  7  1 -1</clus>
<clus scale="  175.954">  1 10  2 -1</clus>
<clus scale="   64.179">  1  5  2 -1</clus>
</clustering>
</event>
<event>
10    4  0.7697601E-005  0.1093618E+03  0.7546771E-02  0.1267278E+00
         21   -1    0    0  501  502  0.00000000000E+00  0.00000000000E+00  0.41606539203E+03  0.41606539203E+03  0.00000000000E+00 0.  1.
          4   -1    0    0  503    0 -0.00000000000E+00 -0.00000000000E+00 -0.24223899210E+03  0.24223899210E+03  0.00000000000E+00 0. -1.
         23    2    1    2    0    0  0.15881486829E+02 -0.57644256965E+02 -0.18601102914E+03  0.21578269892E+03  0.91580501236E+02 0.  0.
         24    2    1    2    0    0 -0.88312040090E+02  0.34870002876E+02  0.27554803618E+03  0.30167944125E+03  0.77902705384E+02 0.  0.
        -11    1    4    4    0    0 -0.47267353519E+02 -0.16268202382E+02  0.70663029226E+02  0.86557037939E+02  0.00000000000E+00 0.  1.
         12    1    4    4    0    0 -0.41044686571E+02  0.51138205257E+02  0.20488500695E+03  0.21512240331E+03  0.00000000000E+00 0. -1.
        -11    1    3    3    0    0 -0.21143053902E+02 -0.63445344357E+02 -0.85737493618E+02  0.10873480703E+03  0.00000000000E+00 0. -1.
         11    1    3    3    0    0  0.37024540731E+02  0.58010873922E+01 -0.10027353552E+03  0.10704789188E+03  0.00000000000E+00 0.  1.
         21    1    1    2  503  502  0.74086488817E+01 -0.28598136709E+02  0.16914661418E+02  0.34041845901E+02  0.00000000000E+00 0.  1.
          3    1    1    2  501    0  0.65021904379E+02  0.51372390798E+02  0.67374731472E+02  0.10680039806E+03  0.00000000000E+00 0. -1.
<scales pt_clust_5="13000.00000" pt_clust_6="13000.00000" pt_clust_7="13000.00000" pt_clust_8="13000.00000" pt_clust_9="29.54220" pt_clust_10="80.43651"></scales>
<clustering>
<clus scale="   29.542">  1  9  2 -1</clus>
<clus scale="   77.903">  5  6 -1 -1</clus>
<clus scale="   80.437">  1 10  2 -1</clus>
<clus scale="   91.581">  7  8 -1 -1</clus>
<clus scale="   98.193">  1  5  2 -1</clus>
<clus scale="   29.542">  1  5  2 -1</clus>
</clustering>
</event>
<event>
10    4  0.7697601E-005  0.9858884E+02  0.7546771E-02  0.1289098E+00
         21   -1    0    0  501  502  0.00000000000E+00  0.00000000000E+00  0.35919683876E+02  0.35919683876E+02  0.00000000000E+00 0. -1.
          2   -1    0    0  503    0 -0.00000000000E+00 -0.00000000000E+00 -0.42639795819E+03  0.42639795819E+03  0.00000000000E+00 0. -1.
         24    2    1    2    0    0  0.36116572913E+02 -0.35437642705E+02 -0.20011954991E+03  0.22127101503E+03  0.79704419423E+02 0.  0.
         23    2    1    2    0    0 -0.17916431509E+02  0.68667050537E+01 -0.10784297246E+03  0.14234226852E+03  0.90901400116E+02 0.  0.
        -13    1    3    3    0    0  0.35434576223E+02  0.18370546634E+02 -0.72297714040E+02  0.82583567561E+02  0.00000000000E+00 0.  1.
         14    1    3    3    0    0  0.68199669013E+00 -0.53808189339E+02 -0.12782183587E+03  0.13868744747E+03  0.00000000000E+00 0. -1.
        -11    1    4    4    0    0 -0.25592155954E+02  0.42028927521E+02 -0.89048935942E+02  0.10174036656E+03  0.00000000000E+00 0.  1.
         11    1    4    4    0    0  0.76757244458E+01 -0.35162222467E+02 -0.18794036519E+02  0.40601901966E+02  0.00000000000E+00 0. -1.
         21    1    1    2  503  502 -0.19804046688E+02 -0.40676658739E+01 -0.21656361821E+02  0.29626747682E+02  0.00000000000E+00 0. -1.
          1    1    1    2  501    0  0.16039052834E+01  0.32638603525E+02 -0.60859390123E+02  0.69077610833E+02  0.00000000000E+00 0. -1.
<scales pt_clust_5="13000.00000" pt_clust_6="13000.00000" pt_clust_7="13000.00000" pt_clust_8="13000.00000" pt_clust_9="20.21747" pt_clust_10="32.12910"></scales>
<clustering>
<clus scale="   20.217">  1  9  2 -1</clus>
<clus scale="   32.129">  1 10  2 -1</clus>
<clus scale="   79.704">  5  6 -1 -1</clus>
<clus scale="   88.371">  2  5  1 -1</clus>
<clus scale="   90.901">  7  8 -1 -1</clus>
<clus scale="   20.217">  1  5  2 -1</clus>
</clustering>
</event>
<event>
10    4  0.7697601E-005  0.1394154E+03  0.7546771E-02  0.1239190E+00
         21   -1    0    0  503  502  0.00000000000E+00  0.00000000000E+00  0.71707876298E+03  0.71707876298E+03  0.00000000000E+00 0. -1.
          4   -1    0    0  502    0 -0.00000000000E+00 -0.00000000000E+00 -0.15028538796E+03  0.15028538796E+03  0.00000000000E+00 0. -1.
         24    2    1    2    0    0  0.15322785358E+01  0.35821260703E+02  0.15841710533E+03  0.18083277853E+03  0.79492162713E+02 0.  0.
         23    2    1    2    0    0 -0.98801579164E+02 -0.88021120080E+01 -0.89785097095E+02  0.16282281278E+03  0.92793725438E+02 0.  0.
        -13    1    3    3    0    0  0.74240385618E+01 -0.24788715684E+02  0.39329021899E+02  0.47078325558E+02  0.00000000000E+00 0.  1.
         14    1    3    3    0    0 -0.58917600261E+01  0.60609976387E+02  0.11908808343E+03  0.13375445297E+03  0.00000000000E+00 0. -1.
        -13    1    4    4    0    0 -0.68631206681E+02  0.11014894321E+01 -0.11266541713E+01  0.68649291031E+02  0.00000000000E+00 0.  1.
         13    1    4    4    0    0 -0.30170372484E+02 -0.99036014401E+01 -0.88658442924E+02  0.94173521751E+02  0.00000000000E+00 0. -1.
         21    1    1    2  503  501 -0.17257709893E+02 -0.40748475830E+02  0.17746373165E+03  0.18289790290E+03  0.00000000000E+00 0. -1.
          3    1    1    2  501    0  0.11452701052E+03  0.13729327134E+02  0.32069763514E+03  0.34081065674E+03  0.00000000000E+00 0. -1.
<scales pt_clust_5="13000.00000" pt_clust_6="13000.00000" pt_clust_7="13000.00000" pt_clust_8="13000.00000" pt_clust_9="44.25231" pt_clust_10="104.04798"></scales>
<clustering>
<clus scale="   44.252">  1  9  2 -1</clus>
<clus scale="   79.492">  5  6 -1 -1</clus>
<clus scale="   82.831">  2  5  1 -1</clus>
<clus scale="   92.794">  7  8 -1 -1</clus>
<clus scale="  104.048">  1 10  2 -1</clus>
<clus scale="   44.252">  1  5  2 -1</clus>
</clustering>
</event>
<event>
10    4  0.7697601E-005  0.1050086E+03  0.7546771E-02  0.1274256E+00
          2   -1    0    0  503    0 -0.00000000000E+00  0.00000000000E+00  0.20016238475E+03  0.20016238475E+03  0.00000000000E+00 0. -1.
         21   -1    0    0  501  502  0.00000000000E+00 -0.00000000000E+00 -0.14237597826E+03  0.14237597826E+03  0.00000000000E+00 0.  1.
         24    2    1    2    0    0  0.45434548567E+02  0.12308857613E+02  0.10021471897E+02  0.93046655322E+02  0.79633183965E+02 0.  0.
         23    2    1    2    0    0 -0.21128858439E+02 -0.81692968482E+02  0.20043541342E+02  0.12447639659E+03  0.89288633096E+02 0.  0.
        -13    1    3    3    0    0  0.33199615840E+02  0.48918274224E+00 -0.32982201293E+02  0.46800420872E+02  0.00000000000E+00 0.  1.
         14    1    3    3    0    0  0.12234932728E+02  0.11819674871E+02  0.43003673191E+02  0.46246234450E+02  0.00000000000E+00 0. -1.
        -11    1    4    4    0    0 -0.42319990483E+02 -0.75141558734E+02 -0.10340988356E+02  0.86857190167E+02  0.00000000000E+00 0. -1.
         11    1    4    4    0    0  0.21191132043E+02 -0.65514097477E+01  0.30384529698E+02  0.37619206424E+02  0.00000000000E+00 0.  1.
         21    1    1    2  503  502 -0.47739295827E+02  0.11921770375E+02 -0.12871666813E+02  0.50861073342E+02  0.00000000000E+00 0.  1.
          1    1    1    2  501    0  0.23433605699E+02  0.57462340493E+02  0.40593060065E+02  0.74154237751E+02  0.00000000000E+00 0. -1.
<scales pt_clust_5="13000.00000" pt_clust_6="13000.00000" pt_clust_7="13000.00000" pt_clust_8="13000.00000" pt_clust_9="49.20538" pt_clust_10="61.44255"></scales>
<clustering>
<clus scale="   49.205">  2  9  1 -1</clus>
<clus scale="   61.443">  2 10  1 -1</clus>
<clus scale="   79.633">  5  6 -1 -1</clus>
<clus scale="   89.289">  7  8 -1 -1</clus>
<clus scale="   96.932">  1  5  2 -1</clus>
<clus scale="   49.205">  2  5  1 -1</clus>
</clustering>
</event>
<event>
10    4  0.7697601E-005  0.1902456E+03  0.7546771E-02  0.1183319E+00
          2   -1    0    0  503    0 -0.00000000000E+00  0.00000000000E+00  0.48311403274E+03  0.48311403274E+03  0.00000000000E+00 0. -1.
         21   -1    0    0  501  502  0.00000000000E+00 -0.00000000000E+00 -0.59197342098E+03  0.59197342098E+03  0.00000000000E+00 0. -1.
         23    2    1    2    0    0 -0.69067498121E+01  0.35260463485E+02  0.14420803306E+03  0.17727295775E+03  0.96637163001E+02 0.  0.
         24    2    1    2    0    0 -0.99117343422E+02 -0.17573909844E+03  0.87359004715E+02  0.23494406097E+03  0.82816891940E+02 0.  0.
        -13    1    4    4    0    0 -0.55780763656E+02 -0.31343741113E+02  0.45404072381E+02  0.78456698183E+02  0.00000000000E+00 0.  1.
         14    1    4    4    0    0 -0.43336579766E+02 -0.14439535733E+03  0.41954932334E+02  0.15648736278E+03  0.00000000000E+00 0. -1.
        -11    1    3    3    0    0 -0.20272026668E+02  0.61679945270E+02  0.61516842015E+02  0.89441000471E+02  0.00000000000E+00 0.  1.
         11    1    3    3    0    0  0.13365276856E+02 -0.26419481785E+02  0.82691191047E+02  0.87831957282E+02  0.00000000000E+00 0. -1.
         21    1    1    2  503  502 -0.44814063956E+02  0.77261328009E+02 -0.45467688845E+03  0.46336668635E+03  0.00000000000E+00 0. -1.
          1    1    1    2  501    0  0.15083815719E+03  0.63217306947E+02  0.11425046243E+03  0.19950374866E+03  0.00000000000E+00 0. -1.
<scales pt_clust_5="13000.00000" pt_clust_6="13000.00000" pt_clust_7="13000.00000" pt_clust_8="13000.00000" pt_clust_9="89.31749" pt_clust_10="171.27394"></scales>
<clustering>
<clus scale="   82.817">  5  6 -1 -1</clus>
<clus scale="   89.317">  2  9  1 -1</clus>
<clus scale="   96.637">  7  8 -1 -1</clus>
<clus scale="  107.273">  1  7  2 -1</clus>
<clus scale="  171.274">  2 10  1 -1</clus>
<clus scale="   89.317">  2  5  1 -1</clus>
</clustering>
</event>
<event>
10    4  0.7697601E-005  0.1791928E+03  0.7546771E-02  0.1168764E+00
         21   -1    0    0  501  502  0.00000000000E+00  0.00000000000E+00  0.55203775829E+02  0.55203775829E+02  0.00000000000E+00 0. -1.
          2   -1    0    0  503    0 -0.00000000000E+00 -0.00000000000E+00 -0.11735776819E+04  0.11735776819E+04  0.00000000000E+00 0. -1.
         23    2    1    2    0    0 -0.15429481056E+03  0.69245241985E+02 -0.70952817813E+03  0.73511014834E+03  0.91405155935E+02 0.  0.
         24    2    1    2    0    0  0.10313450016E+03 -0.66275495460E+02 -0.18036491256E+03  0.23591449092E+03  0.89972100786E+02 0.  0.
        -11    1    4    4    0    0  0.32655993880E+02 -0.37611337545E+02 -0.14244786346E+03  0.15090533606E+03  0.00000000000E+00 0.  1.
         12    1    4    4    0    0  0.70478506282E+02 -0.28664157916E+02 -0.37917049103E+02  0.85009154857E+02  0.00000000000E+00 0. -1.
        -13    1    3    3    0    0 -0.65577149174E+02 -0.83972825172E+01 -0.16081300466E+03  0.17387265258E+03  0.00000000000E+00 0.  1.
         13    1    3    3    0    0 -0.88717661384E+02  0.77642524502E+02 -0.54871517346E+03  0.56123749575E+03  0.00000000000E+00 0. -1.
         21    1    1    2  503  502  0.78159146395E+00  0.41817856380E+02 -0.41180480119E+02  0.58695621134E+02  0.00000000000E+00 0. -1.
          1    1    1    2  501    0  0.50378718931E+02 -0.44787602905E+02 -0.18730033523E+03  0.19906119731E+03  0.00000000000E+00 0. -1.
<scales pt_clust_5="13000.00000" pt_clust_6="13000.00000" pt_clust_7="13000.00000" pt_clust_8="13000.00000" pt_clust_9="41.82516" pt_clust_10="64.09141"></scales>
<clustering>
<clus scale="   41.825">  1  9  2 -1</clus>
<clus scale="   64.091">  1 10  2 -1</clus>
<clus scale="   89.972">  5  6 -1 -1</clus>
<clus scale="   91.405">  7  8 -1 -1</clus>
<clus scale="  178.466">  1  5  2 -1</clus>
<clus scale="   41.825">  1  5  2 -1</clus>
</clustering>
</event>
<event>
10    4  0.7697601E-005  0.2493924E+03  0.7546771E-02  0.1153131E+00
         21   -1    0    0  501  502  0.00000000000E+00  0.00000000000E+00  0.24567570852E+03  0.24567570852E+03  0.00000000000E+00 0. -1.
          2   -1    0    0  503    0 -0.00000000000E+00 -0.00000000000E+00 -0.10861382522E+04  0.10861382522E+04  0.00000000000E+00 0. -1.
         23    2    1    2    0    0 -0.35200947656E+02  0.11459742543E+02 -0.53969255034E+02  0.11177549718E+03  0.90612630833E+02 0.  0.
         24    2    1    2    0    0  0.96747115147E+02 -0.22605465712E+03 -0.81236364550E+03  0.85259696796E+03  0.80784806409E+02 0.  0.
        -13    1    4    4    0    0  0.26313917581E+02 -0.53035465861E+01 -0.73308599951E+02  0.78068564042E+02  0.00000000000E+00 0.  1.
         14    1    4    4    0    0  0.70433197566E+02 -0.22075111053E+03 -0.73905504555E+03  0.77452840392E+03  0.00000000000E+00 0. -1.
        -13    1    3    3    0    0 -0.26852151308E+02 -0.10316344499E+02 -0.75027784736E+02  0.80353179627E+02  0.00000000000E+00 0.  1.
         13    1    3    3    0    0 -0.83487963474E+01  0.21776087042E+02  0.21058529703E+02  0.31422317555E+02  0.00000000000E+00 0. -1.
         21    1    1    2  503  502  0.34990156034E+02 -0.21947721733E+02  0.94303163562E+02  0.10295193134E+03  0.00000000000E+00 0. -1.
          1    1    1    2  501    0 -0.96536323525E+02  0.23654263630E+03 -0.68432806671E+02  0.26448956421E+03  0.00000000000E+00 0. -1.
<scales pt_clust_5="13000.00000" pt_clust_6="13000.00000" pt_clust_7="13000.00000" pt_clust_8="13000.00000" pt_clust_9="41.30392" pt_clust_10="235.94577"></scales>
<clustering>
<clus scale="   41.304">  1  9  2 -1</clus>
<clus scale="   80.785">  5  6 -1 -1</clus>
<clus scale="   90.613">  7  8 -1 -1</clus>
<clus scale="   95.205">  2  7  1 -1</clus>
<clus scale="  235.946">  1 10  2 -1</clus>
<clus scale="   41.304">  1  5  2 -1</clus>
</clustering>
</event>
<event>
10    4  0.7697601E-005  0.2778411E+03  0.7546771E-02  0.1139568E+00
          2   -1    0    0  502    0 -0.00000000000E+00  0.00000000000E+00  0.18252384389E+04  0.18252384389E+04  0.00000000000E+00 0. -1.
         21   -1    0    0  503  502  0.00000000000E+00 -0.00000000000E+00 -0.60147222503E+02  0.60147222503E+02  0.00000000000E+00 0.  1.
         24    2    1    2    0    0 -0.49289371327E+02 -0.13541171846E+02  0.19463483987E+03  0.21664671398E+03  0.80251307312E+02 0.  0.
         23    2    1    2    0    0  0.54126969409E+02 -0.25480044214E+03  0.65127584742E+03  0.70727647246E+03  0.90701625887E+02 0.  0.
        -11    1    3    3    0    0 -0.60088844339E+02 -0.11217972916E+02  0.19618916666E+03  0.20549136538E+03  0.00000000000E+00 0.  1.
         12    1    3    3    0    0  0.10799473012E+02 -0.23231989304E+01 -0.15543267895E+01  0.11155348600E+02  0.00000000000E+00 0. -1.
        -13    1    4    4    0    0  0.28257297207E+02 -0.36744528674E+02  0.20147275997E+03  0.20673632541E+03  0.00000000000E+00 0. -1.
         13    1    4    4    0    0  0.25869672202E+02 -0.21805591347E+03  0.44980308744E+03  0.50054014705E+03  0.00000000000E+00 0.  1.
         21    1    1    2  503  501 -0.28122525297E+02  0.25911619567E+02  0.11273253962E+03  0.11904164796E+03  0.00000000000E+00 0.  1.
          1    1    1    2  501    0  0.23284927215E+02  0.24242999442E+03  0.80644798944E+03  0.84242082697E+03  0.00000000000E+00 0. -1.
<scales pt_clust_5="13000.00000" pt_clust_6="13000.00000" pt_clust_7="13000.00000" pt_clust_8="13000.00000" pt_clust_9="34.28554" pt_clust_10="276.50606"></scales>
<clustering>
<clus scale="   34.286">  9 10 -1 -1</clus>
<clus scale="   80.251">  5  6 -1 -1</clus>
<clus scale="   90.702">  7  8 -1 -1</clus>
<clus scale="   95.148">  1  5  2 -1</clus>
<clus scale="  276.506">  2  9  1 -1</clus>
<clus scale="  276.506">  2  5  1 -1</clus>
</clustering>
</event>
<event>
10    4  0.7697601E-005  0.1718764E+03  0.7546771E-02  0.1201004E+00
          2   -1    0    0  503    0 -0.00000000000E+00  0.00000000000E+00  0.10112167357E+04  0.10112167357E+04  0.00000000000E+00 0. -1.
         21   -1    0    0  501  502  0.00000000000E+00 -0.00000000000E+00 -0.11920189658E+03  0.11920189658E+03  0.00000000000E+00 0.  1.
         24    2    1    2    0    0 -0.25743936984E+02 -0.51596688616E+02  0.31077480666E+03  0.32603043664E+03  0.79936828754E+02 0.  0.
         23    2    1    2    0    0  0.72398941834E+02 -0.11543167097E+03  0.37067154932E+03  0.40513390174E+03  0.90388071247E+02 0.  0.
        -11    1    3    3    0    0 -0.45409788905E+02 -0.58983384341E+02  0.20277404615E+03  0.21600556092E+03  0.00000000000E+00 0.  1.
         12    1    3    3    0    0  0.19665851920E+02  0.73866957249E+01  0.10800076052E+03  0.11002487572E+03  0.00000000000E+00 0. -1.
        -13    1    4    4    0    0 -0.38218473981E+01 -0.37909460445E+02  0.19389058551E+03  0.19759881796E+03  0.00000000000E+00 0.  1.
         13    1    4    4    0    0  0.76220789232E+02 -0.77522210527E+02  0.17678096381E+03  0.20753508378E+03  0.00000000000E+00 0. -1.
         21    1    1    2  503  502  0.90689156793E+02  0.83610439177E+02 -0.12884687087E+02  0.12402114280E+03  0.00000000000E+00 0.  1.
          1    1    1    2  501    0 -0.13734416164E+03  0.83417920411E+02  0.22345317018E+03  0.27523315107E+03  0.00000000000E+00 0. -1.
<scales pt_clust_5="13000.00000" pt_clust_6="13000.00000" pt_clust_7="13000.00000" pt_clust_8="13000.00000" pt_clust_9="119.03813" pt_clust_10="146.18992"></scales>
<clustering>
<clus scale="   79.937">  5  6 -1 -1</clus>
<clus scale="   90.388">  7  8 -1 -1</clus>
<clus scale="   98.564">  1  5  2 -1</clus>
<clus scale="  119.038">  2  9  1 -1</clus>
<clus scale="  146.190">  2 10  1 -1</clus>
<clus scale="  119.038">  2  5  1 -1</clus>
</clustering>
</event>
<event>
10    4  0.7697601E-005  0.1968499E+03  0.7546771E-02  0.1175738E+00
          4   -1    0    0  502    0 -0.00000000000E+00  0.00000000000E+00  0.79612146323E+02  0.79612146323E+02  0.00000000000E+00 0. -1.
         21   -1    0    0  503  502  0.00000000000E+00 -0.00000000000E+00 -0.10225289322E+04  0.10225289322E+04  0.00000000000E+00 0. -1.
         24    2    1    2    0    0 -0.82297086522E+02 -0.38974947203E+02 -0.16760993881E+03  0.20709216434E+03  0.80636319269E+02 0.  0.
         23    2    1    2    0    0 -0.14435461124E+03  0.46815984415E+02 -0.36629005911E+03  0.41258061748E+03  0.11412435471E+03 0.  0.
        -13    1    3    3    0    0 -0.18752434318E+02 -0.25449511791E+02 -0.12608414992E+03  0.12998670818E+03  0.00000000000E+00 0.  1.
         14    1    3    3    0    0 -0.63544652204E+02 -0.13525435412E+02 -0.41525788890E+02  0.77105456161E+02  0.00000000000E+00 0. -1.
        -11    1    4    4    0    0  0.11764480746E+02  0.29431631364E+02 -0.79555885076E+02  0.85637391262E+02  0.00000000000E+00 0.  1.
         11    1    4    4    0    0 -0.15611909198E+03  0.17384353051E+02 -0.28673417403E+03  0.32694322622E+03  0.00000000000E+00 0. -1.
         21    1    1    2  503  501  0.36962925603E+02  0.19835474062E+02 -0.17500915865E+03  0.17996641218E+03  0.00000000000E+00 0.  1.
          3    1    1    2  501    0  0.18968877216E+03 -0.27676511274E+02 -0.23400762927E+03  0.30250188448E+03  0.00000000000E+00 0. -1.
<scales pt_clust_5="13000.00000" pt_clust_6="13000.00000" pt_clust_7="13000.00000" pt_clust_8="13000.00000" pt_clust_9="41.94882" pt_clust_10="160.39187"></scales>
<clustering>
<clus scale="   41.949">  2  9  1 -1</clus>
<clus scale="   80.636">  5  6 -1 -1</clus>
<clus scale="  114.124">  7  8 -1 -1</clus>
<clus scale="  114.843">  1  5  2 -1</clus>
<clus scale="  160.392">  2 10  1 -1</clus>
<clus scale="   41.949">  2  5  1 -1</clus>
</clustering>
</event>
<event>
10    4  0.7697601E-005  0.1395764E+03  0.7546771E-02  0.1216268E+00
         21   -1    0    0  501  502  0.00000000000E+00  0.00000000000E+00  0.30072213256E+03  0.30072213256E+03  0.00000000000E+00 0. -1.
          2   -1    0    0  503    0 -0.00000000000E+00 -0.00000000000E+00 -0.45556298200E+03  0.45556298200E+03  0.00000000000E+00 0. -1.
         23    2    1    2    0    0 -0.15064054052E+02 -0.98078023030E+02 -0.30020722902E+03  0.32912367456E+03  0.91388119955E+02 0.  0.
         24    2    1    2    0    0 -0.75769319619E+01  0.12866814074E+03 -0.68359774326E+02  0.16667084463E+03  0.80580465157E+02 0.  0.
        -13    1    4    4    0    0 -0.25251580312E+02  0.41001278421E+01 -0.17334442757E+02  0.30902043011E+02  0.00000000000E+00 0.  1.
         14    1    4    4    0    0  0.17674648350E+02  0.12456801290E+03 -0.51025331569E+02  0.13576880162E+03  0.00000000000E+00 0. -1.
        -13    1    3    3    0    0  0.56902319175E+01 -0.57633893133E+02 -0.55445527151E+02  0.80176373440E+02  0.00000000000E+00 0. -1.
         13    1    3    3    0    0 -0.20754285969E+02 -0.40444129898E+02 -0.24476170187E+03  0.24894730112E+03  0.00000000000E+00 0.  1.
         21    1    1    2  503  502 -0.27661083854E+02 -0.64295998250E+02  0.17534887477E+03  0.18880238037E+03  0.00000000000E+00 0. -1.
          1    1    1    2  501    0  0.50302069868E+02  0.33705880536E+02  0.38377279132E+02  0.71688214996E+02  0.00000000000E+00 0. -1.
<scales pt_clust_5="13000.00000" pt_clust_6="13000.00000" pt_clust_7="13000.00000" pt_clust_8="13000.00000" pt_clust_9="40.47625" pt_clust_10="60.55068"></scales>
<clustering>
<clus scale="   60.551">  1 10  2 -1</clus>
<clus scale="   40.476">  1  9  2 -1</clus>
<clus scale="   80.580">  5  6 -1 -1</clus>
<clus scale="   91.388">  7  8 -1 -1</clus>
<clus scale="  132.752">  1  5  2 -1</clus>
<clus scale="   60.551">  1  5  2 -1</clus>
</clustering>
</event>
<event>
10    4  0.7697601E-005  0.1010314E+03  0.7546771E-02  0.1282178E+00
          2   -1    0    0  503    0 -0.00000000000E+00  0.00000000000E+00  0.94442174750E+03  0.94442174750E+03  0.00000000000E+00 0. -1.
         21   -1    0    0  501  502  0.00000000000E+00 -0.00000000000E+00 -0.45646566380E+02  0.45646566380E+02  0.00000000000E+00 0. -1.
         23    2    1    2    0    0  0.51461575694E+02  0.18002277321E+02  0.23277073077E+03  0.25537122447E+03  0.89776797803E+02 0.  0.
         24    2    1    2    0    0  0.10237561647E+02 -0.67733935926E+02  0.10822153019E+03  0.15169407760E+03  0.81280377932E+02 0.  0.
        -11    1    4    4    0    0 -0.14112899951E+02 -0.35431063224E+02  0.10429714961E+03  0.11105147276E+03  0.00000000000E+00 0.  1.
         12    1    4    4    0    0  0.24350461598E+02 -0.32302872702E+02  0.39243805837E+01  0.40642604835E+02  0.00000000000E+00 0. -1.
        -11    1    3    3    0    0 -0.86351822622E+01 -0.27147729705E+02  0.46865833298E+02  0.54844980915E+02  0.00000000000E+00 0.  1.
         11    1    3    3    0    0  0.60096757956E+02  0.45150007026E+02  0.18590489747E+03  0.20052624356E+03  0.00000000000E+00 0. -1.
         21    1    1    2  503  502  0.50448048931E+01  0.21157362255E+02  0.12843901963E+01  0.21788384340E+02  0.00000000000E+00 0. -1.
          1    1    1    2  501    0 -0.66743942234E+02  0.28574296351E+02  0.55649852996E+03  0.56121462746E+03  0.00000000000E+00 0. -1.
<scales pt_clust_5="13000.00000" pt_clust_6="13000.00000" pt_clust_7="13000.00000" pt_clust_8="13000.00000" pt_clust_9="21.75050" pt_clust_10="72.86315"></scales>
<clustering>
<clus scale="   21.750">  2  9  1 -1</clus>
<clus scale="   72.863">  2 10  1 -1</clus>
<clus scale="   81.280">  5  6 -1 -1</clus>
<clus scale="   89.777">  7  8 -1 -1</clus>
<clus scale="   93.563">  2  5  1 -1</clus>
<clus scale="   21.750">  2  5  1 -1</clus>
</clustering>
</event>
<event>
10    4  0.7697601E-005  0.1619826E+03  0.7546771E-02  0.1188530E+00
         21   -1    0    0  501  502  0.00000000000E+00  0.00000000000E+00  0.51684934401E+02  0.51684934401E+02  0.00000000000E+00 0. -1.
          2   -1    0    0  503    0 -0.00000000000E+00 -0.00000000000E+00 -0.10001799325E+04  0.10001799325E+04  0.00000000000E+00 0. -1.
         23    2    1    2    0    0  0.13549636198E+03 -0.10619522025E+03 -0.57525032683E+03  0.60771816428E+03  0.93657566491E+02 0.  0.
         24    2    1    2    0    0 -0.79058249236E+02  0.47580153475E+02 -0.21259317069E+03  0.24534798008E+03  0.80533827225E+02 0.  0.
        -11    1    4    4    0    0 -0.22705742896E+02  0.20535078466E+02 -0.16218291255E+03  0.16504707611E+03  0.00000000000E+00 0.  1.
         12    1    4    4    0    0 -0.56352506340E+02  0.27045075009E+02 -0.50410258142E+02  0.80300903973E+02  0.00000000000E+00 0. -1.
        -13    1    3    3    0    0  0.49056586592E+02 -0.78552761008E+02 -0.39743507923E+03  0.40808299052E+03  0.00000000000E+00 0.  1.
         13    1    3    3    0    0  0.86439775386E+02 -0.27642459244E+02 -0.17781524760E+03  0.19963517376E+03  0.00000000000E+00 0. -1.
         21    1    1    2  503  502 -0.31208890640E+02  0.40752975231E+02 -0.20489854748E+02  0.55268743362E+02  0.00000000000E+00 0.  1.
          1    1    1    2  501    0 -0.25229222101E+02  0.17862091545E+02 -0.14016164581E+03  0.14352997916E+03  0.00000000000E+00 0. -1.
<scales pt_clust_5="13000.00000" pt_clust_6="13000.00000" pt_clust_7="13000.00000" pt_clust_8="13000.00000" pt_clust_9="61.67964" pt_clust_10="30.91228"></scales>
<clustering>
<clus scale="   30.912">  1 10  2 -1</clus>
<clus scale="   61.680">  1  9  2 -1</clus>
<clus scale="   80.534">  5  6 -1 -1</clus>
<clus scale="   93.658">  7  8 -1 -1</clus>
<clus scale="  154.765">  1  5  2 -1</clus>
<clus scale="   30.912">  1  5  2 -1</clus>
</clustering>
</event>
<event>
10    4  0.7697601E-005  0.3357280E+03  0.7546771E-02  0.1078674E+00
          2   -1    0    0  502    0 -0.00000000000E+00  0.00000000000E+00  0.61518916568E+03  0.61518916568E+03  0.00000000000E+00 0. -1.
         21   -1    0    0  503  502  0.00000000000E+00 -0.00000000000E+00 -0.72312873532E+03  0.72312873532E+03  0.00000000000E+00 0.  1.
         24    2    1    2    0    0  0.22317419970E+03 -0.97307639523E+02 -0.17468785358E+03  0.31071123646E+03  0.82159151372E+02 0.  0.
         23    2    1    2    0    0  0.44244204324E+02 -0.30416521724E+03 -0.10919848702E+03  0.33657632458E+03  0.82977609663E+02 0.  0.
        -13    1    3    3    0    0  0.19947032349E+03 -0.62795196634E+02 -0.16814102759E+03  0.26833384400E+03  0.00000000000E+00 0.  1.
         14    1    3    3    0    0  0.23703876206E+02 -0.34512442889E+02 -0.65468259825E+01  0.42377392461E+02  0.00000000000E+00 0. -1.
        -11    1    4    4    0    0 -0.20277388411E+02 -0.13585383311E+03 -0.58747277953E+02  0.14939437445E+03  0.00000000000E+00 0. -1.
         11    1    4    4    0    0  0.64521592735E+02 -0.16831138412E+03 -0.50451209068E+02  0.18718195012E+03  0.00000000000E+00 0.  1.
         21    1    1    2  503  501  0.53560190903E+01  0.24160168732E+02 -0.13103344565E+03  0.13334978280E+03  0.00000000000E+00 0.  1.
          1    1    1    2  501    0 -0.27277442311E+03  0.37731268803E+03  0.30698021661E+03  0.55768055717E+03  0.00000000000E+00 0. -1.
<scales pt_clust_5="13000.00000" pt_clust_6="13000.00000" pt_clust_7="13000.00000" pt_clust_8="13000.00000" pt_clust_9="24.74673" pt_clust_10="325.31231"></scales>
<clustering>
<clus scale="   24.747">  2  9  1 -1</clus>
<clus scale="   82.159">  5  6 -1 -1</clus>
<clus scale="   82.978">  7  8 -1 -1</clus>
<clus scale="  255.303">  1  5  2 -1</clus>
<clus scale="  325.312">  2 10  1 -1</clus>
<clus scale="   24.747">  2  5  1 -1</clus>
</clustering>
</event>
<event>
10    4  0.7697601E-005  0.2663707E+03  0.7546771E-02  0.1113386E+00
          2   -1    0    0  503    0 -0.00000000000E+00  0.00000000000E+00  0.87299379451E+03  0.87299379451E+03  0.00000000000E+00 0. -1.
         21   -1    0    0  501  502  0.00000000000E+00 -0.00000000000E+00 -0.38202450012E+03  0.38202450012E+03  0.00000000000E+00 0. -1.
         24    2    1    2    0    0 -0.18661299844E+03  0.55472962843E+02  0.46080140959E+03  0.50677976630E+03  0.81154985450E+02 0.  0.
         23    2    1    2    0    0 -0.14474980680E+03 -0.14202833225E+03  0.11333396533E+03  0.26019724620E+03  0.11718986946E+03 0.  0.
        -11    1    3    3    0    0 -0.81542859379E+02 -0.15598608516E+02  0.20746326831E+03  0.22345818893E+03  0.00000000000E+00 0.  1.
         12    1    3    3    0    0 -0.10507013906E+03  0.71071571359E+02  0.25333814127E+03  0.28332157737E+03  0.00000000000E+00 0. -1.
        -13    1    4    4    0    0 -0.13386816287E+03 -0.10332863291E+03  0.35792147963E+02  0.17285418497E+03  0.00000000000E+00 0. -1.
         13    1    4    4    0    0 -0.10881643930E+02 -0.38699699342E+02  0.77541817367E+02  0.87343061226E+02  0.00000000000E+00 0.  1.
         21    1    1    2  503  502  0.46353662694E+02 -0.56777512348E+01 -0.16987963799E+03  0.17618169686E+03  0.00000000000E+00 0. -1.
          1    1    1    2  501    0  0.28500914254E+03  0.92233120640E+02  0.86713557461E+02  0.31185958527E+03  0.00000000000E+00 0. -1.
<scales pt_clust_5="13000.00000" pt_clust_6="13000.00000" pt_clust_7="13000.00000" pt_clust_8="13000.00000" pt_clust_9="46.70010" pt_clust_10="239.20685"></scales>
<clustering>
<clus scale="   46.700">  2  9  1 -1</clus>
<clus scale="   81.155">  5  6 -1 -1</clus>
<clus scale="  117.190">  7  8 -1 -1</clus>
<clus scale="  206.257">  1  5  2 -1</clus>
<clus scale="  239.207">  2 10  1 -1</clus>
<clus scale="   46.700">  2  5  1 -1</clus>
</clustering>
</event>
<event>
10    4  0.7697601E-005  0.4113593E+03  0.7546771E-02  0.1039916E+00
         21   -1    0    0  501  502  0.00000000000E+00  0.00000000000E+00  0.21000040156E+03  0.21000040156E+03  0.00000000000E+00 0. -1.
          2   -1    0    0  503    0 -0.00000000000E+00 -0.00000000000E+00 -0.97520279145E+03  0.97520279145E+03  0.00000000000E+00 0. -1.
         24    2    1    2    0    0 -0.13935413844E+03  0.19796167467E+03 -0.33011782635E+03  0.41702731753E+03  0.79533664247E+02 0.  0.
         23    2    1    2    0    0 -0.18560033934E+02  0.13118215517E+03 -0.18144458835E+03  0.24222249743E+03  0.90533788869E+02 0.  0.
        -11    1    3    3    0    0  0.96439213161E+01  0.22692418842E+02 -0.35903059558E+02  0.43554342802E+02  0.00000000000E+00 0.  1.
         12    1    3    3    0    0 -0.14899805975E+03  0.17526925583E+03 -0.29421476680E+03  0.37347297473E+03  0.00000000000E+00 0. -1.
        -11    1    4    4    0    0 -0.59251848700E+01  0.72561376653E+02 -0.16452685791E+03  0.17991483588E+03  0.00000000000E+00 0.  1.
         11    1    4    4    0    0 -0.12634849064E+02  0.58620778516E+02 -0.16917730442E+02  0.62307661551E+02  0.00000000000E+00 0. -1.
         21    1    1    2  503  502  0.28813137517E+02  0.14016474173E+01  0.50783917105E+02  0.58405203069E+02  0.00000000000E+00 0. -1.
          1    1    1    2  501    0  0.12910103485E+03 -0.33054547726E+03 -0.30442389229E+03  0.46754817499E+03  0.00000000000E+00 0. -1.
<scales pt_clust_5="13000.00000" pt_clust_6="13000.00000" pt_clust_7="13000.00000" pt_clust_8="13000.00000" pt_clust_9="28.84721" pt_clust_10="359.96506"></scales>
<clustering>
<clus scale="   28.847">  1  9  2 -1</clus>
<clus scale="   79.534">  5  6 -1 -1</clus>
<clus scale="   90.534">  7  8 -1 -1</clus>
<clus scale="  111.276">  5  7 -1 -1</clus>
<clus scale="  359.965">  1 10  2 -1</clus>
<clus scale="   28.847">  1  5  2 -1</clus>
</clustering>
</event>
<event>
10    4  0.7697601E-005  0.1208662E+03  0.7546771E-02  0.1260562E+00
         -1   -1    0    0    0  501 -0.00000000000E+00  0.00000000000E+00  0.13473718114E+03  0.13473718114E+03  0.00000000000E+00 0.  1.
         21   -1    0    0  503  502  0.00000000000E+00 -0.00000000000E+00 -0.22270588568E+03  0.22270588568E+03  0.00000000000E+00 0. -1.
         24    2    1    2    0    0  0.25688123577E+02  0.14331757316E+01 -0.19459876841E+01  0.85986078166E+02  0.82023686120E+02 0.  0.
         23    2    1    2    0    0  0.61002383779E+02 -0.48981160556E+02 -0.88038676246E+02  0.14943617804E+03  0.91977811868E+02 0.  0.
        -13    1    3    3    0    0  0.18969038570E+02 -0.34094875430E+02  0.19841042096E+02  0.43771587889E+02  0.00000000000E+00 0.  1.
         14    1    3    3    0    0  0.67190850075E+01  0.35528051161E+02 -0.21787029781E+02  0.42214490277E+02  0.00000000000E+00 0. -1.
        -11    1    4    4    0    0 -0.62546053535E+01 -0.28465815337E+02 -0.71484515601E+02  0.77197530411E+02  0.00000000000E+00 0. -1.
         11    1    4    4    0    0  0.67256989132E+02 -0.20515345219E+02 -0.16554160645E+02  0.72238647629E+02  0.00000000000E+00 0.  1.
         21    1    1    2  503  501 -0.35120759117E+02 -0.12708321312E+02  0.17445454501E+02  0.41222724731E+02  0.00000000000E+00 0.  1.
         -2    1    1    2    0  502 -0.51569748239E+02  0.60256306136E+02 -0.15429495117E+02  0.80798085882E+02  0.00000000000E+00 0.  1.
<scales pt_clust_5="13000.00000" pt_clust_6="13000.00000" pt_clust_7="13000.00000" pt_clust_8="13000.00000" pt_clust_9="37.34929" pt_clust_10="78.41382"></scales>
<clustering>
<clus scale="   37.349">  1  9  2 -1</clus>
<clus scale="   82.024">  5  6 -1 -1</clus>
<clus scale="   82.932">  1  5  2 -1</clus>
<clus scale="   78.414">  2 10  1 -1</clus>
<clus scale="   91.978">  7  8 -1 -1</clus>
<clus scale="   78.414">  2  5  1 -1</clus>
</clustering>
</event>
<event>
10    4  0.7697601E-005  0.1478131E+03  0.7546771E-02  0.1204894E+00
          2   -1    0    0  502    0 -0.00000000000E+00  0.00000000000E+00  0.11204334157E+03  0.11204334157E+03  0.00000000000E+00 0. -1.
         21   -1    0    0  503  502  0.00000000000E+00 -0.00000000000E+00 -0.51474117310E+03  0.51474117310E+03  0.00000000000E+00 0. -1.
         23    2    1    2    0    0 -0.10328162594E+02  0.12788331272E+03 -0.53744083421E+02  0.16582583620E+03  0.90271639154E+02 0.  0.
         24    2    1    2    0    0  0.63959984432E+02 -0.73868660519E+02 -0.32723981695E+03  0.35104233847E+03  0.81224177321E+02 0.  0.
        -13    1    4    4    0    0  0.34597450052E+02 -0.58630202126E+02 -0.97393165709E+02  0.11882723963E+03  0.00000000000E+00 0.  1.
         14    1    4    4    0    0  0.29362534379E+02 -0.15238458393E+02 -0.22984665124E+03  0.23221509884E+03  0.00000000000E+00 0. -1.
        -11    1    3    3    0    0  0.22131221253E+02  0.57646938278E+01 -0.29225730918E+02  0.37110187237E+02  0.00000000000E+00 0.  1.
         11    1    3    3    0    0 -0.32459383847E+02  0.12211861889E+03 -0.24518352503E+02  0.12871564897E+03  0.00000000000E+00 0. -1.
         21    1    1    2  503  501  0.74235852422E+01 -0.20431618035E+02 -0.32808322896E+02  0.39356659978E+02  0.00000000000E+00 0. -1.
          1    1    1    2  501    0 -0.61055407080E+02 -0.33583034165E+02  0.11094391740E+02  0.70559680026E+02  0.00000000000E+00 0. -1.
<scales pt_clust_5="13000.00000" pt_clust_6="13000.00000" pt_clust_7="13000.00000" pt_clust_8="13000.00000" pt_clust_9="21.73846" pt_clust_10="69.90240"></scales>
<clustering>
<clus scale="   21.738">  2  9  1 -1</clus>
<clus scale="   69.902">  2 10  1 -1</clus>
<clus scale="   81.224">  5  6 -1 -1</clus>
<clus scale="   90.272">  7  8 -1 -1</clus>
<clus scale="  142.468">  2  5  1 -1</clus>
<clus scale="   21.738">  2  5  1 -1</clus>
</clustering>
</event>
<event>
10    4  0.7697601E-005  0.1084477E+03  0.7546771E-02  0.1271852E+00
          2   -1    0    0  502    0 -0.00000000000E+00  0.00000000000E+00  0.16442771977E+03  0.16442771977E+03  0.00000000000E+00 0. -1.
         21   -1    0    0  503  502  0.00000000000E+00 -0.00000000000E+00 -0.20324464541E+03  0.20324464541E+03  0.00000000000E+00 0.  1.
         23    2    1    2    0    0 -0.23996080659E+02  0.12521416537E+02  0.83675825529E+02  0.12542549676E+03  0.89427700965E+02 0.  0.
         24    2    1    2    0    0 -0.26121448164E+02 -0.20998623911E+02 -0.12316334626E+03  0.16600100996E+03  0.10613130162E+03 0.  0.
        -13    1    4    4    0    0 -0.13680315111E+01 -0.54870859917E+02 -0.10843929194E+03  0.12153914108E+03  0.00000000000E+00 0.  1.
         14    1    4    4    0    0 -0.24753416652E+02  0.33872236005E+02 -0.14724054323E+02  0.44461868873E+02  0.00000000000E+00 0. -1.
        -11    1    3    3    0    0 -0.20832889627E+02 -0.13363069482E+02  0.94131077336E+02  0.97330574008E+02  0.00000000000E+00 0. -1.
         11    1    3    3    0    0 -0.31631910320E+01  0.25884486019E+02 -0.10455251807E+02  0.28094922750E+02  0.00000000000E+00 0.  1.
         21    1    1    2  503  501  0.19996647303E+02 -0.13124533720E+02 -0.22248053928E+02  0.32666423011E+02  0.00000000000E+00 0. -1.
          1    1    1    2  501    0  0.30120881520E+02  0.21601741094E+02  0.22918649028E+02  0.43579435461E+02  0.00000000000E+00 0. -1.
<scales pt_clust_5="13000.00000" pt_clust_6="13000.00000" pt_clust_7="13000.00000" pt_clust_8="13000.00000" pt_clust_9="23.91902" pt_clust_10="37.59455"></scales>
<clustering>
<clus scale="   23.919">  2  9  1 -1</clus>
<clus scale="   37.595">  2 10  1 -1</clus>
<clus scale="   89.428">  7  8 -1 -1</clus>
<clus scale="   92.165">  1  7  2 -1</clus>
<clus scale="  106.131">  5  6 -1 -1</clus>
<clus scale="   23.919">  2  5  1 -1</clus>
</clustering>
</event>
<event>
10    4  0.7697601E-005  0.1128751E+03  0.7546771E-02  0.1258213E+00
         -1   -1    0    0    0  501 -0.00000000000E+00  0.00000000000E+00  0.45694013244E+03  0.45694013244E+03  0.00000000000E+00 0.  1.
         21   -1    0    0  501  502  0.00000000000E+00 -0.00000000000E+00 -0.46276258369E+03  0.46276258369E+03  0.00000000000E+00 0.  1.
         24    2    1    2    0    0 -0.42276534250E+02  0.43531743102E+02  0.73341062328E+02  0.12517899401E+03  0.81292995472E+02 0.  0.
         23    2    1    2    0    0 -0.37424809223E+02 -0.13000135525E+03  0.88931987309E+01  0.16234984368E+03  0.89316370548E+02 0.  0.
        -11    1    3    3    0    0 -0.31571075965E+02  0.54535075506E+02  0.14895648843E+02  0.64750966421E+02  0.00000000000E+00 0.  1.
         12    1    3    3    0    0 -0.10705458285E+02 -0.11003332404E+02  0.58445413485E+02  0.60428027590E+02  0.00000000000E+00 0. -1.
        -13    1    4    4    0    0  0.23643700341E+02 -0.21060155426E+02 -0.15255199102E+02  0.35146490750E+02  0.00000000000E+00 0. -1.
         13    1    4    4    0    0 -0.61068509563E+02 -0.10894119982E+03  0.24148397833E+02  0.12720335293E+03  0.00000000000E+00 0.  1.
         21    1    1    2  503  502  0.40807134228E+02  0.34825438445E+02 -0.35422589573E+03  0.35826529077E+03  0.00000000000E+00 0.  1.
         -2    1    1    2    0  503  0.38894209245E+02  0.51644173704E+02  0.26616918342E+03  0.27390858766E+03  0.00000000000E+00 0.  1.
<scales pt_clust_5="13000.00000" pt_clust_6="13000.00000" pt_clust_7="13000.00000" pt_clust_8="13000.00000" pt_clust_9="53.64731" pt_clust_10="66.55587"></scales>
<clustering>
<clus scale="   53.647">  2  9  1 -1</clus>
<clus scale="   66.556">  2 10  1 -1</clus>
<clus scale="   81.293">  5  6 -1 -1</clus>
<clus scale="   89.316">  7  8 -1 -1</clus>
<clus scale="  106.639">  1  5  2 -1</clus>
<clus scale="   53.647">  2  5  1 -1</clus>
</clustering>
</event>
<event>
10    4  0.7697601E-005  0.2911749E+03  0.7546771E-02  0.1096007E+00
         21   -1    0    0  501  502  0.00000000000E+00  0.00000000000E+00  0.23540025087E+03  0.23540025087E+03  0.00000000000E+00 0. -1.
          2   -1    0    0  503    0 -0.00000000000E+00 -0.00000000000E+00 -0.13140627804E+04  0.13140627804E+04  0.00000000000E+00 0. -1.
         23    2    1    2    0    0  0.17632895825E+03 -0.10700290969E+03 -0.30357627039E+02  0.22757899747E+03  0.91263850302E+02 0.  0.
         24    2    1    2    0    0 -0.40425975269E+03 -0.52716287284E+02 -0.85848559575E+03  0.95497519001E+03  0.93675721761E+02 0.  0.
        -11    1    4    4    0    0 -0.17258435038E+03 -0.45058023612E+02 -0.28253659328E+03  0.33412948093E+03  0.00000000000E+00 0.  1.
         12    1    4    4    0    0 -0.23167540231E+03 -0.76582636720E+01 -0.57594900247E+03  0.62084570908E+03  0.00000000000E+00 0. -1.
        -11    1    3    3    0    0  0.77483029916E+02 -0.49220266090E+02  0.31988692382E+02  0.97208697961E+02  0.00000000000E+00 0. -1.
         11    1    3    3    0    0  0.98845928332E+02 -0.57782643603E+02 -0.62346319421E+02  0.13037029951E+03  0.00000000000E+00 0.  1.
         21    1    1    2  503  502  0.52802368684E+02 -0.35890461439E+01  0.11394000086E+02  0.54136813989E+02  0.00000000000E+00 0.  1.
          1    1    1    2  501    0  0.17512842576E+03  0.16330824312E+03 -0.20121330684E+03  0.31277202981E+03  0.00000000000E+00 0. -1.
<scales pt_clust_5="13000.00000" pt_clust_6="13000.00000" pt_clust_7="13000.00000" pt_clust_8="13000.00000" pt_clust_9="52.92420" pt_clust_10="275.69490"></scales>
<clustering>
<clus scale="   52.924">  1  9  2 -1</clus>
<clus scale="   91.264">  7  8 -1 -1</clus>
<clus scale="   93.676">  5  6 -1 -1</clus>
<clus scale="  246.920">  2  7  1 -1</clus>
<clus scale="  275.695">  1 10  2 -1</clus>
<clus scale="   52.924">  1  5  2 -1</clus>
</clustering>
</event>
<event>
10    4  0.7697601E-005  0.2400371E+03  0.7546771E-02  0.1158785E+00
         -3   -1    0    0    0  501 -0.00000000000E+00  0.00000000000E+00  0.19008346665E+03  0.19008346665E+03  0.00000000000E+00 0.  1.
         21   -1    0    0  503  502  0.00000000000E+00 -0.00000000000E+00 -0.62247762193E+03  0.62247762193E+03  0.00000000000E+00 0.  1.
         24    2    1    2    0    0 -0.26072304987E+02 -0.50612369375E+02 -0.28557478243E+02  0.10179890326E+03  0.79411020138E+02 0.  0.
         23    2    1    2    0    0 -0.19411328539E+03 -0.56712053935E+02 -0.19379177341E+03  0.29026312194E+03  0.76165634569E+02 0.  0.
        -13    1    3    3    0    0 -0.37784314406E+02 -0.56649923234E+02  0.24178221033E+01  0.68137464594E+02  0.00000000000E+00 0.  1.
         14    1    3    3    0    0  0.11712009419E+02  0.60375538589E+01 -0.30975300346E+02  0.33661438661E+02  0.00000000000E+00 0. -1.
        -13    1    4    4    0    0 -0.13061098977E+03 -0.16228836742E+02 -0.16145965267E+03  0.20830704556E+03  0.00000000000E+00 0.  1.
         13    1    4    4    0    0 -0.63502295618E+02 -0.40483217194E+02 -0.32332120740E+02  0.81956076374E+02  0.00000000000E+00 0. -1.
         21    1    1    2  503  501 -0.46493059215E+02  0.81141702398E+02 -0.32267277438E+02  0.98928042619E+02  0.00000000000E+00 0. -1.
         -4    1    1    2    0  502  0.26667864959E+03  0.26182720913E+02 -0.17777762619E+03  0.32157102077E+03  0.00000000000E+00 0.  1.
<scales pt_clust_5="13000.00000" pt_clust_6="13000.00000" pt_clust_7="13000.00000" pt_clust_8="13000.00000" pt_clust_9="93.51781" pt_clust_10="227.63276"></scales>
<clustering>
<clus scale="   76.166">  7  8 -1 -1</clus>
<clus scale="   79.411">  5  6 -1 -1</clus>
<clus scale="   93.518">  1  9  2 -1</clus>
<clus scale="   93.518">  1  5  2 -1</clus>
<clus scale="  227.633">  2 10  1 -1</clus>
<clus scale="  227.633">  2  5  1 -1</clus>
</clustering>
</event>
<event>
10    4  0.7697601E-005  0.1427064E+03  0.7546771E-02  0.1210437E+00
         21   -1    0    0  501  502  0.00000000000E+00  0.00000000000E+00  0.17543316108E+03  0.17543316108E+03  0.00000000000E+00 0. -1.
          2   -1    0    0  503    0 -0.00000000000E+00 -0.00000000000E+00 -0.12243104623E+04  0.12243104623E+04  0.00000000000E+00 0. -1.
         24    2    1    2    0    0 -0.11314214609E+03  0.39234563417E+02 -0.10315243614E+04  0.10415255943E+04  0.79953481353E+02 0.  0.
         23    2    1    2    0    0  0.97574283851E+02 -0.25155476394E+01 -0.12803611619E+03  0.18142684879E+03  0.83638421581E+02 0.  0.
        -11    1    3    3    0    0 -0.22414886166E+02  0.44850195920E+02 -0.27217475712E+03  0.27675452230E+03  0.00000000000E+00 0.  1.
         12    1    3    3    0    0 -0.90727259925E+02 -0.56156325030E+01 -0.75934960431E+03  0.76477107202E+03  0.00000000000E+00 0. -1.
        -11    1    4    4    0    0  0.59639152085E+02 -0.14561855163E+02 -0.17340663276E+02  0.63793218214E+02  0.00000000000E+00 0.  1.
         11    1    4    4    0    0  0.37935131766E+02  0.12046307524E+02 -0.11069545291E+03  0.11763363058E+03  0.00000000000E+00 0. -1.
         21    1    1    2  503  502 -0.27159822624E+02 -0.75434766118E+02  0.62818719579E+02  0.10185406930E+03  0.00000000000E+00 0. -1.
          1    1    1    2  501    0  0.42727684864E+02  0.38715750340E+02  0.47864456802E+02  0.74937110988E+02  0.00000000000E+00 0. -1.
<scales pt_clust_5="13000.00000" pt_clust_6="13000.00000" pt_clust_7="13000.00000" pt_clust_8="13000.00000" pt_clust_9="47.62357" pt_clust_10="57.65904"></scales>
<clustering>
<clus scale="   57.659">  1 10  2 -1</clus>
<clus scale="   47.624">  1  9  2 -1</clus>
<clus scale="   79.953">  5  6 -1 -1</clus>
<clus scale="   83.638">  7  8 -1 -1</clus>
<clus scale="  140.578">  2  5  1 -1</clus>
<clus scale="   57.659">  1  5  2 -1</clus>
</clustering>
</event>
<event>
10    4  0.7697601E-005  0.8809774E+02  0.7546771E-02  0.1309286E+00
          2   -1    0    0  503    0 -0.00000000000E+00  0.00000000000E+00  0.23584656048E+03  0.23584656048E+03  0.00000000000E+00 0. -1.
         21   -1    0    0  501  502  0.00000000000E+00 -0.00000000000E+00 -0.17867702725E+03  0.17867702725E+03  0.00000000000E+00 0.  1.
         24    2    1    2    0    0 -0.16979878475E+02 -0.22848609894E+02  0.57084025947E+02  0.10209145558E+03  0.79710125066E+02 0.  0.
         23    2    1    2    0    0 -0.60311246052E+01  0.42566891567E+02 -0.13227687030E+02  0.94120379299E+02  0.82676232216E+02 0.  0.
        -11    1    3    3    0    0 -0.40805294020E+01 -0.52266961769E+02  0.37700232608E+02  0.64573938639E+02  0.00000000000E+00 0.  1.
         12    1    3    3    0    0 -0.12899349073E+02  0.29418351875E+02  0.19383793339E+02  0.37517516946E+02  0.00000000000E+00 0. -1.
        -13    1    4    4    0    0 -0.29855383355E+02  0.57040964190E+02 -0.30834469470E+01  0.64455590573E+02  0.00000000000E+00 0.  1.
         13    1    4    4    0    0  0.23824258750E+02 -0.14474072623E+02 -0.10144240082E+02  0.29664788726E+02  0.00000000000E+00 0. -1.
         21    1    1    2  503  502 -0.12904130923E+02 -0.46773197197E+02 -0.91883645055E+02  0.10390790538E+03  0.00000000000E+00 0.  1.
          1    1    1    2  501    0  0.35915134004E+02  0.27054915524E+02  0.10519683936E+03  0.11440384747E+03  0.00000000000E+00 0. -1.
<scales pt_clust_5="13000.00000" pt_clust_6="13000.00000" pt_clust_7="13000.00000" pt_clust_8="13000.00000" pt_clust_9="32.38994" pt_clust_10="44.96518"></scales>
<clustering>
<clus scale="   44.965">  2 10  1 -1</clus>
<clus scale="   32.390">  2  9  1 -1</clus>
<clus scale="   79.710">  5  6 -1 -1</clus>
<clus scale="   82.676">  7  8 -1 -1</clus>
<clus scale="   85.320">  1  5  2 -1</clus>
<clus scale="   44.965">  2  5  1 -1</clus>
</clustering>
</event>
<event>
10    4  0.7697601E-005  0.1195553E+03  0.7546771E-02  0.1246710E+00
          2   -1    0    0  503    0 -0.00000000000E+00  0.00000000000E+00  0.53875401155E+03  0.53875401155E+03  0.00000000000E+00 0. -1.
         21   -1    0    0  501  502  0.00000000000E+00 -0.00000000000E+00 -0.13963075389E+03  0.13963075389E+03  0.00000000000E+00 0. -1.
         24    2    1    2    0    0 -0.73029583811E+02 -0.11740654582E+02  0.24927363331E+03  0.27324048062E+03  0.83975311258E+02 0.  0.
         23    2    1    2    0    0  0.76640698713E+02  0.37705506208E+02  0.51543516812E+01  0.12624477849E+03  0.92820659650E+02 0.  0.
        -13    1    3    3    0    0 -0.18737134533E+02 -0.41977556887E+02  0.72337757670E+02  0.85708498280E+02  0.00000000000E+00 0.  1.
         14    1    3    3    0    0 -0.54292449278E+02  0.30236902305E+02  0.17693587564E+03  0.18753198234E+03  0.00000000000E+00 0. -1.
        -11    1    4    4    0    0  0.39203828667E+02  0.37303745819E+02 -0.40215214840E+02  0.67422348957E+02  0.00000000000E+00 0. -1.
         11    1    4    4    0    0  0.37436870046E+02  0.40176038896E+00  0.45369566521E+02  0.58822429536E+02  0.00000000000E+00 0.  1.
         21    1    1    2  503  502 -0.46952312369E+02 -0.64640870516E+02 -0.37072311745E+02  0.88075638379E+02  0.00000000000E+00 0. -1.
          1    1    1    2  501    0  0.43341197467E+02  0.38676018890E+02  0.18176758441E+03  0.19082386794E+03  0.00000000000E+00 0. -1.
<scales pt_clust_5="13000.00000" pt_clust_6="13000.00000" pt_clust_7="13000.00000" pt_clust_8="13000.00000" pt_clust_9="53.90670" pt_clust_10="58.08870"></scales>
<clustering>
<clus scale="   58.089">  2 10  1 -1</clus>
<clus scale="   53.907">  2  9  1 -1</clus>
<clus scale="   83.975">  5  6 -1 -1</clus>
<clus scale="   92.821">  7  8 -1 -1</clus>
<clus scale="  112.826">  1  5  2 -1</clus>
<clus scale="   58.089">  2  5  1 -1</clus>
</clustering>
</event>
<event>
10    4  0.7697601E-005  0.1043828E+03  0.7546771E-02  0.1273927E+00
         21   -1    0    0  501  502  0.00000000000E+00  0.00000000000E+00  0.67388538870E+02  0.67388538870E+02  0.00000000000E+00 0.  1.
          2   -1    0    0  503    0 -0.00000000000E+00 -0.00000000000E+00 -0.53553778354E+03  0.53553778354E+03  0.00000000000E+00 0. -1.
         24    2    1    2    0    0  0.45508337978E+02 -0.43652882247E+02 -0.26868980532E+03  0.28804897804E+03  0.82470717892E+02 0.  0.
         23    2    1    2    0    0 -0.19717501330E+02  0.20350064902E+02 -0.30069545905E+02  0.97681970911E+02  0.88513755145E+02 0.  0.
        -11    1    3    3    0    0  0.61836455870E+02 -0.28645134110E+02 -0.24976178730E+03  0.25889233549E+03  0.00000000000E+00 0.  1.
         12    1    3    3    0    0 -0.16328117893E+02 -0.15007748137E+02 -0.18928018024E+02  0.29156642543E+02  0.00000000000E+00 0. -1.
        -13    1    4    4    0    0 -0.54835467273E+02  0.85589612093E+01 -0.13600956103E+02  0.57141668640E+02  0.00000000000E+00 0.  1.
         13    1    4    4    0    0  0.35117965942E+02  0.11791103693E+02 -0.16468589802E+02  0.40540302272E+02  0.00000000000E+00 0. -1.
         21    1    1    2  503  502  0.32949022211E+02  0.30848078740E+02 -0.87361343178E+01  0.45973493117E+02  0.00000000000E+00 0.  1.
          1    1    1    2  501    0 -0.58739858858E+02 -0.75452613954E+01 -0.16065375912E+03  0.17122188034E+03  0.00000000000E+00 0. -1.
<scales pt_clust_5="13000.00000" pt_clust_6="13000.00000" pt_clust_7="13000.00000" pt_clust_8="13000.00000" pt_clust_9="45.13582" pt_clust_10="55.32983"></scales>
<clustering>
<clus scale="   45.136">  1  9  2 -1</clus>
<clus scale="   55.330">  1 10  2 -1</clus>
<clus scale="   82.471">  5  6 -1 -1</clus>
<clus scale="   88.514">  7  8 -1 -1</clus>
<clus scale="   99.310">  2  5  1 -1</clus>
<clus scale="   45.136">  1  5  2 -1</clus>
</clustering>
</event>
<event>
10    4  0.7697601E-005  0.1022507E+03  0.7546771E-02  0.1281793E+00
         21   -1    0    0  503  502  0.00000000000E+00  0.00000000000E+00  0.64297055303E+03  0.64297055303E+03  0.00000000000E+00 0. -1.
         -1   -1    0    0    0  501 -0.00000000000E+00 -0.00000000000E+00 -0.21940414935E+03  0.21940414935E+03  0.00000000000E+00 0.  1.
         23    2    1    2    0    0 -0.13322415002E+02 -0.41821930030E+02 -0.19574296901E+03  0.22106643705E+03  0.92889714717E+02 0.  0.
         24    2    1    2    0    0  0.21736544587E+02  0.53809952909E+01  0.33390871375E+03  0.34414518306E+03  0.80246155217E+02 0.  0.
        -13    1    4    4    0    0 -0.11804538813E+02  0.35594482870E+02  0.13010172178E+03  0.13539856852E+03  0.00000000000E+00 0.  1.
         14    1    4    4    0    0  0.33541083400E+02 -0.30213487579E+02  0.20380699197E+03  0.20874661454E+03  0.00000000000E+00 0. -1.
        -11    1    3    3    0    0 -0.46422781632E+02 -0.27432683084E+02 -0.16522334874E+03  0.17379983235E+03  0.00000000000E+00 0.  1.
         11    1    3    3    0    0  0.33100366630E+02 -0.14389246946E+02 -0.30519620277E+02  0.47266604707E+02  0.00000000000E+00 0. -1.
         21    1    1    2  503  501 -0.15329535536E+02 -0.19675445834E+02  0.64877064914E+02  0.69506484448E+02  0.00000000000E+00 0. -1.
         -2    1    1    2    0  502  0.69154059505E+01  0.56116380573E+02  0.22052359403E+03  0.22765659782E+03  0.00000000000E+00 0.  1.
<scales pt_clust_5="13000.00000" pt_clust_6="13000.00000" pt_clust_7="13000.00000" pt_clust_8="13000.00000" pt_clust_9="24.94229" pt_clust_10="48.46810"></scales>
<clustering>
<clus scale="   24.942">  1  9  2 -1</clus>
<clus scale="   48.468">  1 10  2 -1</clus>
<clus scale="   80.246">  5  6 -1 -1</clus>
<clus scale="   90.918">  1  5  2 -1</clus>
<clus scale="   92.890">  7  8 -1 -1</clus>
<clus scale="   24.942">  1  5  2 -1</clus>
</clustering>
</event>
<event>
10    4  0.7697601E-005  0.1184789E+03  0.7546771E-02  0.1248907E+00
         21   -1    0    0  501  502  0.00000000000E+00  0.00000000000E+00  0.10029498526E+04  0.10029498526E+04  0.00000000000E+00 0.  1.
          2   -1    0    0  503    0 -0.00000000000E+00 -0.00000000000E+00 -0.56030541498E+02  0.56030541498E+02  0.00000000000E+00 0. -1.
         23    2    1    2    0    0 -0.54822310646E+02 -0.49184455653E+02  0.69666053069E+02  0.13586773696E+03  0.90454886950E+02 0.  0.
         24    2    1    2    0    0  0.93498436229E+00  0.12850767436E+03  0.64047094032E+03  0.65815568133E+03  0.80316741203E+02 0.  0.
        -11    1    4    4    0    0  0.37343887372E+01  0.13871198180E+03  0.55735169482E+03  0.57436562508E+03  0.00000000000E+00 0.  1.
         12    1    4    4    0    0 -0.27994043749E+01 -0.10204307442E+02  0.83119245498E+02  0.83790056256E+02  0.00000000000E+00 0. -1.
        -11    1    3    3    0    0  0.10768488224E+02  0.18759514119E+02  0.79169381129E+01  0.23033836366E+02  0.00000000000E+00 0.  1.
         11    1    3    3    0    0 -0.65590798870E+02 -0.67943969772E+02  0.61749114956E+02  0.11283390059E+03  0.00000000000E+00 0. -1.
         21    1    1    2  503  502 -0.10240044792E+02 -0.20057298037E+02  0.10130077415E+03  0.10377379518E+03  0.00000000000E+00 0.  1.
          1    1    1    2  501    0  0.64127371075E+02 -0.59265920668E+02  0.13548154361E+03  0.16118318067E+03  0.00000000000E+00 0. -1.
<scales pt_clust_5="13000.00000" pt_clust_6="13000.00000" pt_clust_7="13000.00000" pt_clust_8="13000.00000" pt_clust_9="22.52007" pt_clust_10="88.39591"></scales>
<clustering>
<clus scale="   22.520">  1  9  2 -1</clus>
<clus scale="   80.317">  5  6 -1 -1</clus>
<clus scale="   88.396">  1 10  2 -1</clus>
<clus scale="   90.455">  7  8 -1 -1</clus>
<clus scale="  110.932">  1  5  2 -1</clus>
<clus scale="   22.520">  1  5  2 -1</clus>
</clustering>
</event>
<event>
10    4  0.7697601E-005  0.3669513E+03  0.7546771E-02  0.1107837E+00
         -3   -1    0    0    0  501 -0.00000000000E+00  0.00000000000E+00  0.20647329126E+04  0.20647329126E+04  0.00000000000E+00 0.  1.
         21   -1    0    0  503  502  0.00000000000E+00 -0.00000000000E+00 -0.10704071380E+03  0.10704071380E+03  0.00000000000E+00 0.  1.
         24    2    1    2    0    0  0.63848460416E+02  0.34753182380E+02  0.17442502300E+03  0.19581749526E+03  0.51341924590E+02 0.  0.
         23    2    1    2    0    0  0.20267049970E+03  0.21999352593E+03  0.13050788009E+04  0.13418896405E+04  0.89244874444E+02 0.  0.
        -11    1    3    3    0    0  0.73318799721E+01  0.22748159394E+02  0.20790026188E+02  0.31677443215E+02  0.00000000000E+00 0.  1.
         12    1    3    3    0    0  0.56516580444E+02  0.12005022986E+02  0.15363499681E+03  0.16414005205E+03  0.00000000000E+00 0. -1.
        -11    1    4    4    0    0  0.16304683790E+03  0.12258265749E+03  0.94517940672E+03  0.96694099621E+03  0.00000000000E+00 0.  1.
         11    1    4    4    0    0  0.39623661796E+02  0.97410868442E+02  0.35989939422E+03  0.37494864425E+03  0.00000000000E+00 0. -1.
         21    1    1    2  503  501  0.13895357518E+02  0.19596093178E+02  0.25025793809E+02  0.34689741772E+02  0.00000000000E+00 0.  1.
         -4    1    1    2    0  502 -0.28041431763E+03 -0.27434280149E+03  0.45316258104E+03  0.59937674890E+03  0.00000000000E+00 0.  1.
<scales pt_clust_5="13000.00000" pt_clust_6="13000.00000" pt_clust_7="13000.00000" pt_clust_8="13000.00000" pt_clust_9="24.02265" pt_clust_10="355.93345"></scales>
<clustering>
<clus scale="   24.023">  2  9  1 -1</clus>
<clus scale="   51.342">  5  6 -1 -1</clus>
<clus scale="   89.245">  7  8 -1 -1</clus>
<clus scale="   90.857">  1  5  2 -1</clus>
<clus scale="  355.933">  2 10  1 -1</clus>
<clus scale="   24.023">  2  5  1 -1</clus>
</clustering>
</event>
<event>
10    4  0.7697601E-005  0.3126206E+03  0.7546771E-02  0.1126062E+00
          2   -1    0    0  503    0 -0.00000000000E+00  0.00000000000E+00  0.23050059828E+04  0.23050059828E+04  0.00000000000E+00 0. -1.
         21   -1    0    0  501  502  0.00000000000E+00 -0.00000000000E+00 -0.10668322888E+03  0.10668322888E+03  0.00000000000E+00 0. -1.
         24    2    1    2    0    0 -0.12366639456E+02 -0.39404353739E+02  0.24042304938E+03  0.25679831419E+03  0.80227767196E+02 0.  0.
         23    2    1    2    0    0 -0.96977217433E+02  0.33472256077E+03  0.15581659857E+04  0.15991663107E+04  0.89486742469E+02 0.  0.
        -11    1    3    3    0    0 -0.22284532446E+02 -0.41567931746E+02  0.24197547293E+03  0.24652915210E+03  0.00000000000E+00 0.  1.
         12    1    3    3    0    0  0.99178929902E+01  0.21635780073E+01 -0.15524235429E+01  0.10269162089E+02  0.00000000000E+00 0. -1.
        -11    1    4    4    0    0 -0.33356565221E+02  0.10653332902E+03  0.33022484515E+03  0.34858350361E+03  0.00000000000E+00 0.  1.
         11    1    4    4    0    0 -0.63620652212E+02  0.22818923175E+03  0.12279411405E+04  0.12505828071E+04  0.00000000000E+00 0. -1.
         21    1    1    2  503  502  0.35189497580E+02 -0.53087605185E+02 -0.18876814435E+02  0.66429877973E+02  0.00000000000E+00 0.  1.
          1    1    1    2  501    0  0.74154359309E+02 -0.24223060185E+03  0.41861053332E+03  0.48929470882E+03  0.00000000000E+00 0. -1.
<scales pt_clust_5="13000.00000" pt_clust_6="13000.00000" pt_clust_7="13000.00000" pt_clust_8="13000.00000" pt_clust_9="63.69140" pt_clust_10="299.53920"></scales>
<clustering>
<clus scale="   63.691">  2  9  1 -1</clus>
<clus scale="   80.228">  5  6 -1 -1</clus>
<clus scale="   89.487">  7  8 -1 -1</clus>
<clus scale="   92.909">  1  5  2 -1</clus>
<clus scale="  299.539">  2 10  1 -1</clus>
<clus scale="   63.691">  2  5  1 -1</clus>
</clustering>
</event>
<event>
10    4  0.7697601E-005  0.1907463E+03  0.7546771E-02  0.1186790E+00
         21   -1    0    0  503  502  0.00000000000E+00  0.00000000000E+00  0.99817264155E+02  0.99817264155E+02  0.00000000000E+00 0.  1.
          2   -1    0    0  502    0 -0.00000000000E+00 -0.00000000000E+00 -0.16367445542E+04  0.16367445542E+04  0.00000000000E+00 0. -1.
         24    2    1    2    0    0  0.71459056572E+02 -0.11490222514E+02 -0.20677243907E+03  0.23334979905E+03  0.80367065274E+02 0.  0.
         23    2    1    2    0    0  0.40660023264E+02  0.16576351715E+03 -0.40230231020E+03  0.44730592747E+03  0.95418356963E+02 0.  0.
        -11    1    3    3    0    0  0.30001715248E+02 -0.28056867293E+02 -0.29578029512E+02  0.50617690089E+02  0.00000000000E+00 0.  1.
         12    1    3    3    0    0  0.41457341323E+02  0.16566644779E+02 -0.17719440956E+03  0.18273210897E+03  0.00000000000E+00 0. -1.
        -13    1    4    4    0    0  0.65825862611E+02  0.79573073785E+02 -0.17943199438E+03  0.20702840111E+03  0.00000000000E+00 0.  1.
         13    1    4    4    0    0 -0.25165839347E+02  0.86190443361E+02 -0.22287031582E+03  0.24027752635E+03  0.00000000000E+00 0. -1.
         21    1    1    2  503  501 -0.50485489678E+02 -0.11162209817E+00  0.45821103415E+02  0.68178960433E+02  0.00000000000E+00 0.  1.
          1    1    1    2  501    0 -0.61633590158E+02 -0.15416167253E+03 -0.97367364419E+03  0.98772713140E+03  0.00000000000E+00 0. -1.
<scales pt_clust_5="13000.00000" pt_clust_6="13000.00000" pt_clust_7="13000.00000" pt_clust_8="13000.00000" pt_clust_9="50.48561" pt_clust_10="165.16517"></scales>
<clustering>
<clus scale="   50.486">  1  9  2 -1</clus>
<clus scale="   80.367">  5  6 -1 -1</clus>
<clus scale="   95.418">  7  8 -1 -1</clus>
<clus scale="   98.510">  2  5  1 -1</clus>
<clus scale="  165.165">  1 10  2 -1</clus>
<clus scale="   50.486">  1  5  2 -1</clus>
</clustering>
</event>
<event>
10    4  0.7697601E-005  0.1208315E+03  0.7546771E-02  0.1249514E+00
          2   -1    0    0  503    0 -0.00000000000E+00  0.00000000000E+00  0.84339200689E+03  0.84339200689E+03  0.00000000000E+00 0. -1.
         21   -1    0    0  501  502  0.00000000000E+00 -0.00000000000E+00 -0.68064674297E+02  0.68064674297E+02  0.00000000000E+00 0. -1.
         24    2    1    2    0    0 -0.16196214914E+02 -0.63997830732E+02  0.22327433153E+02  0.10570470914E+03  0.79479126486E+02 0.  0.
         23    2    1    2    0    0  0.49584488628E+02 -0.38385239931E+02  0.16975718513E+03  0.20295860223E+03  0.91883862341E+02 0.  0.
        -11    1    3    3    0    0 -0.25399578297E+02 -0.12745795362E+01  0.32743738341E+02  0.41459806213E+02  0.00000000000E+00 0.  1.
         12    1    3    3    0    0  0.92033633827E+01 -0.62723251196E+02 -0.10416305189E+02  0.64244902925E+02  0.00000000000E+00 0. -1.
        -11    1    4    4    0    0  0.30040813841E+01 -0.54624224366E+02  0.52830128583E+02  0.76051646127E+02  0.00000000000E+00 0.  1.
         11    1    4    4    0    0  0.46580407244E+02  0.16238984435E+02  0.11692705654E+03  0.12690695610E+03  0.00000000000E+00 0. -1.
         21    1    1    2  503  502  0.27101890663E+02 -0.62479060129E+01  0.11637743859E+03  0.11965474090E+03  0.00000000000E+00 0. -1.
          1    1    1    2  501    0 -0.60490164377E+02  0.10863097668E+03  0.46686527573E+03  0.48313862892E+03  0.00000000000E+00 0. -1.
<scales pt_clust_5="13000.00000" pt_clust_6="13000.00000" pt_clust_7="13000.00000" pt_clust_8="13000.00000" pt_clust_9="27.81275" pt_clust_10="78.47052"></scales>
<clustering>
<clus scale="   27.813">  1  9  2 -1</clus>
<clus scale="   79.479">  5  6 -1 -1</clus>
<clus scale="   91.884">  7  8 -1 -1</clus>
<clus scale="  103.316">  1  5  2 -1</clus>
<clus scale="   78.471">  2 10  1 -1</clus>
<clus scale="   78.471">  2  5  1 -1</clus>
</clustering>
</event>
<event>
10    4  0.7697601E-005  0.1317338E+03  0.7546771E-02  0.1243456E+00
         21   -1    0    0  503  502  0.00000000000E+00  0.00000000000E+00  0.11046340808E+03  0.11046340808E+03  0.00000000000E+00 0.  1.
          2   -1    0    0  502    0 -0.00000000000E+00 -0.00000000000E+00 -0.40142345072E+03  0.40142345072E+03  0.00000000000E+00 0. -1.
         23    2    1    2    0    0 -0.48523352355E+01 -0.10944874982E+02 -0.76759011947E+02  0.11744476250E+03  0.88079457754E+02 0.  0.
         24    2    1    2    0    0 -0.10214833807E+03 -0.66350720568E+01 -0.46671366740E+02  0.14037050859E+03  0.83948532189E+02 0.  0.
        -11    1    4    4    0    0 -0.11528074875E+03 -0.24320905645E+01 -0.50765532835E+02  0.12598692560E+03  0.00000000000E+00 0.  1.
         12    1    4    4    0    0  0.13132410681E+02 -0.42029814924E+01  0.40941660947E+01  0.14383582993E+02  0.00000000000E+00 0. -1.
        -13    1    3    3    0    0  0.68517903825E+01  0.31841204558E+02 -0.63135927834E+02  0.71041922290E+02  0.00000000000E+00 0.  1.
         13    1    3    3    0    0 -0.11704125618E+02 -0.42786079540E+02 -0.13623084113E+02  0.46402840211E+02  0.00000000000E+00 0. -1.
         21    1    1    2  503  501  0.10444799457E+02 -0.30706465317E+02  0.19699547431E+02  0.37948030475E+02  0.00000000000E+00 0. -1.
          1    1    1    2  501    0  0.96555873852E+02  0.48286412356E+02 -0.18722921138E+03  0.21612355723E+03  0.00000000000E+00 0. -1.
<scales pt_clust_5="13000.00000" pt_clust_6="13000.00000" pt_clust_7="13000.00000" pt_clust_8="13000.00000" pt_clust_9="32.43425" pt_clust_10="101.52069"></scales>
<clustering>
<clus scale="   32.434">  1  9  2 -1</clus>
<clus scale="   83.949">  5  6 -1 -1</clus>
<clus scale="   88.079">  7  8 -1 -1</clus>
<clus scale="   90.049">  2  7  1 -1</clus>
<clus scale="  101.521">  1 10  2 -1</clus>
<clus scale="   32.434">  1  5  2 -1</clus>
</clustering>
</event>
<event>
10    4  0.7697601E-005  0.2108270E+03  0.7546771E-02  0.1173163E+00
         21   -1    0    0  501  502  0.00000000000E+00  0.00000000000E+00  0.10734811663E+03  0.10734811663E+03  0.00000000000E+00 0. -1.
          2   -1    0    0  503    0 -0.00000000000E+00 -0.00000000000E+00 -0.70800219053E+03  0.70800219053E+03  0.00000000000E+00 0. -1.
         24    2    1    2    0    0  0.42018156367E+02 -0.45122819243E+02 -0.16083716225E+03  0.19100599800E+03  0.82541530341E+02 0.  0.
         23    2    1    2    0    0 -0.11625199217E+03 -0.14965433573E+03 -0.15472445157E+03  0.26161149142E+03  0.92682094516E+02 0.  0.
        -13    1    3    3    0    0  0.58734501522E+02 -0.64214311752E+01 -0.75937739308E+02  0.96215989828E+02  0.00000000000E+00 0.  1.
         14    1    3    3    0    0 -0.16716345155E+02 -0.38701388068E+02 -0.84899422938E+02  0.94790008170E+02  0.00000000000E+00 0. -1.
        -11    1    4    4    0    0 -0.58897846596E+02 -0.14093689777E+03 -0.11704338625E+03  0.19243523522E+03  0.00000000000E+00 0. -1.
         11    1    4    4    0    0 -0.57354145576E+02 -0.87174379582E+01 -0.37681065320E+02  0.69176256208E+02  0.00000000000E+00 0.  1.
         21    1    1    2  503  502 -0.10931802177E+02  0.23536971835E+02 -0.71328431178E+02  0.75902822321E+02  0.00000000000E+00 0.  1.
          1    1    1    2  501    0  0.85165637981E+02  0.17124018314E+03 -0.21376402890E+03  0.28682999541E+03  0.00000000000E+00 0. -1.
<scales pt_clust_5="13000.00000" pt_clust_6="13000.00000" pt_clust_7="13000.00000" pt_clust_8="13000.00000" pt_clust_9="25.95175" pt_clust_10="189.36228"></scales>
<clustering>
<clus scale="   25.952">  2  9  1 -1</clus>
<clus scale="   82.542">  5  6 -1 -1</clus>
<clus scale="   92.682">  7  8 -1 -1</clus>
<clus scale="   99.110">  2  5  1 -1</clus>
<clus scale="  189.362">  1 10  2 -1</clus>
<clus scale="  189.362">  1  5  2 -1</clus>
</clustering>
</event>
<event>
10    4  0.7697601E-005  0.2949973E+03  0.7546771E-02  0.1121915E+00
         21   -1    0    0  503  502  0.00000000000E+00  0.00000000000E+00  0.11157812989E+03  0.11157812989E+03  0.00000000000E+00 0. -1.
          2   -1    0    0  502    0 -0.00000000000E+00 -0.00000000000E+00 -0.24340027944E+04  0.24340027944E+04  0.00000000000E+00 0. -1.
         23    2    1    2    0    0 -0.33707460554E+02  0.67788072328E+02 -0.21678831722E+03  0.25010067166E+03  0.99104772010E+02 0.  0.
         24    2    1    2    0    0  0.12590480707E+03  0.26062822300E+03 -0.23592298735E+03  0.38174221293E+03  0.79299244029E+02 0.  0.
        -13    1    4    4    0    0  0.47140048045E+02  0.42558943922E+02 -0.80824370742E+02  0.10279118028E+03  0.00000000000E+00 0.  1.
         14    1    4    4    0    0  0.78764759026E+02  0.21806927908E+03 -0.15509861661E+03  0.27895103265E+03  0.00000000000E+00 0. -1.
        -11    1    3    3    0    0  0.20065049354E+02  0.64296101141E+02 -0.90642819951E+02  0.11292792231E+03  0.00000000000E+00 0.  1.
         11    1    3    3    0    0 -0.53772509908E+02  0.34919711867E+01 -0.12614549727E+03  0.13717274935E+03  0.00000000000E+00 0. -1.
         21    1    1    2  503  501  0.72722922637E+01 -0.21282023615E+02 -0.74407949334E+01  0.23689157713E+02  0.00000000000E+00 0.  1.
          1    1    1    2  501    0 -0.99469638781E+02 -0.30713427171E+03 -0.18622725650E+04  0.18900488820E+04  0.00000000000E+00 0. -1.
<scales pt_clust_5="13000.00000" pt_clust_6="13000.00000" pt_clust_7="13000.00000" pt_clust_8="13000.00000" pt_clust_9="22.49024" pt_clust_10="284.13923"></scales>
<clustering>
<clus scale="   22.490">  1  9  2 -1</clus>
<clus scale="   79.299">  5  6 -1 -1</clus>
<clus scale="   99.105">  7  8 -1 -1</clus>
<clus scale="  122.568">  2  7  1 -1</clus>
<clus scale="  284.139">  1 10  2 -1</clus>
<clus scale="   22.490">  1  5  2 -1</clus>
</clustering>
</event>
<event>
10    4  0.7697601E-005  0.1627326E+03  0.7546771E-02  0.1213169E+00
          2   -1    0    0  502    0 -0.00000000000E+00  0.00000000000E+00  0.11684380963E+04  0.11684380963E+04  0.00000000000E+00 0. -1.
         21   -1    0    0  503  502  0.00000000000E+00 -0.00000000000E+00 -0.16125794904E+03  0.16125794904E+03  0.00000000000E+00 0. -1.
         24    2    1    2    0    0  0.41216487681E+01 -0.44621589202E+02  0.38730071009E+03  0.39705342403E+03  0.75109967935E+02 0.  0.
         23    2    1    2    0    0  0.46465760972E+02 -0.59109308050E+02 -0.17542078969E+02  0.11881155857E+03  0.90307722121E+02 0.  0.
        -11    1    3    3    0    0 -0.29792164323E+02  0.19437746259E+01  0.13188196393E+03  0.13521909526E+03  0.00000000000E+00 0.  1.
         12    1    3    3    0    0  0.33913813091E+02 -0.46565363828E+02  0.25541874617E+03  0.26183432876E+03  0.00000000000E+00 0. -1.
        -13    1    4    4    0    0  0.58815581493E+02 -0.85143528593E+01 -0.27995265643E+02  0.65692478484E+02  0.00000000000E+00 0. -1.
         13    1    4    4    0    0 -0.12349820521E+02 -0.50594955191E+02  0.10453186674E+02  0.53119080087E+02  0.00000000000E+00 0.  1.
         21    1    1    2  503  501  0.25463786763E+02 -0.63184617424E+02 -0.61172894661E+02  0.91557759674E+02  0.00000000000E+00 0. -1.
          1    1    1    2  501    0 -0.76051196503E+02  0.16691551468E+03  0.69859441080E+03  0.72227330307E+03  0.00000000000E+00 0. -1.
<scales pt_clust_5="13000.00000" pt_clust_6="13000.00000" pt_clust_7="13000.00000" pt_clust_8="13000.00000" pt_clust_9="68.12269" pt_clust_10="135.37520"></scales>
<clustering>
<clus scale="   68.123">  2  9  1 -1</clus>
<clus scale="   75.110">  5  6 -1 -1</clus>
<clus scale="   89.447">  1  5  2 -1</clus>
<clus scale="   90.308">  7  8 -1 -1</clus>
<clus scale="  135.375">  2 10  1 -1</clus>
<clus scale="   68.123">  2  5  1 -1</clus>
</clustering>
</event>
<event>
10    4  0.7697601E-005  0.1491294E+03  0.7546771E-02  0.1219158E+00
         21   -1    0    0  501  502  0.00000000000E+00  0.00000000000E+00  0.25918435728E+03  0.25918435728E+03  0.00000000000E+00 0. -1.
          2   -1    0    0  503    0 -0.00000000000E+00 -0.00000000000E+00 -0.37236057422E+03  0.37236057422E+03  0.00000000000E+00 0. -1.
         24    2    1    2    0    0 -0.57070685302E+02  0.59013358407E+02 -0.42602852527E+02  0.12355121984E+03  0.81916184536E+02 0.  0.
         23    2    1    2    0    0 -0.15886308228E+02 -0.12141184354E+03 -0.12916918030E+03  0.20146876772E+03  0.94402206998E+02 0.  0.
        -11    1    3    3    0    0 -0.30348877148E+02  0.23580299077E+02 -0.63712523374E+02  0.74406790573E+02  0.00000000000E+00 0.  1.
         12    1    3    3    0    0 -0.26721808155E+02  0.35433059330E+02  0.21109670847E+02  0.49144429266E+02  0.00000000000E+00 0. -1.
        -11    1    4    4    0    0  0.14450616515E+02 -0.11269519863E+03 -0.67408307751E+02  0.13210945487E+03  0.00000000000E+00 0. -1.
         11    1    4    4    0    0 -0.30336924744E+02 -0.87166449149E+01 -0.61760872553E+02  0.69359312857E+02  0.00000000000E+00 0.  1.
         21    1    1    2  503  502  0.30571548649E+02 -0.45013878275E+02  0.14980105138E+03  0.15937761392E+03  0.00000000000E+00 0. -1.
          1    1    1    2  501    0  0.42385444881E+02  0.10741236341E+03 -0.91205235493E+02  0.14714733002E+03  0.00000000000E+00 0. -1.
<scales pt_clust_5="13000.00000" pt_clust_6="13000.00000" pt_clust_7="13000.00000" pt_clust_8="13000.00000" pt_clust_9="54.41387" pt_clust_10="115.44614"></scales>
<clustering>
<clus scale="   54.414">  1  9  2 -1</clus>
<clus scale="   81.916">  5  6 -1 -1</clus>
<clus scale="   94.402">  7  8 -1 -1</clus>
<clus scale="  102.407">  2  5  1 -1</clus>
<clus scale="  115.446">  1 10  2 -1</clus>
<clus scale="   54.414">  1  5  2 -1</clus>
</clustering>
</event>
<event>
10    4  0.7697601E-005  0.2709461E+03  0.7546771E-02  0.1101236E+00
         21   -1    0    0  501  502  0.00000000000E+00  0.00000000000E+00  0.27478017873E+03  0.27478017873E+03  0.00000000000E+00 0. -1.
          2   -1    0    0  503    0 -0.00000000000E+00 -0.00000000000E+00 -0.69464600620E+03  0.69464600620E+03  0.00000000000E+00 0. -1.
         23    2    1    2    0    0 -0.15256463354E+02  0.23719297988E+03 -0.19620975057E+03  0.32152827652E+03  0.91590922079E+02 0.  0.
         24    2    1    2    0    0 -0.18179645221E+03 -0.25787618484E+03 -0.22033580306E+03  0.39322235084E+03  0.80782884008E+02 0.  0.
        -13    1    4    4    0    0 -0.26199916963E+02 -0.67799619557E+01 -0.46419466205E+01  0.27458171851E+02  0.00000000000E+00 0.  1.
         14    1    4    4    0    0 -0.15559653525E+03 -0.25109622289E+03 -0.21569385644E+03  0.36576417899E+03  0.00000000000E+00 0. -1.
        -13    1    3    3    0    0  0.12444566361E+02  0.13426239282E+03 -0.57483663812E+02  0.14657976997E+03  0.00000000000E+00 0.  1.
         13    1    3    3    0    0 -0.27701029714E+02  0.10293058705E+03 -0.13872608675E+03  0.17494850655E+03  0.00000000000E+00 0. -1.
         21    1    1    2  503  502  0.31235614316E+02 -0.44046790411E+01  0.66045246568E+02  0.73191798676E+02  0.00000000000E+00 0. -1.
          1    1    1    2  501    0  0.16581730125E+03  0.25087884008E+02 -0.69365520418E+02  0.18148375889E+03  0.00000000000E+00 0. -1.
<scales pt_clust_5="13000.00000" pt_clust_6="13000.00000" pt_clust_7="13000.00000" pt_clust_8="13000.00000" pt_clust_9="31.54465" pt_clust_10="175.98058"></scales>
<clustering>
<clus scale="   31.545">  1  9  2 -1</clus>
<clus scale="   80.783">  5  6 -1 -1</clus>
<clus scale="   91.591">  7  8 -1 -1</clus>
<clus scale="  175.981">  1 10  2 -1</clus>
<clus scale="  267.486">  1  5  2 -1</clus>
<clus scale="   31.545">  1  5  2 -1</clus>
</clustering>
</event>
<event>
10    4  0.7697601E-005  0.1973102E+03  0.7546771E-02  0.1152971E+00
         21   -1    0    0  501  502  0.00000000000E+00  0.00000000000E+00  0.13896015569E+03  0.13896015569E+03  0.00000000000E+00 0.  1.
          2   -1    0    0  503    0 -0.00000000000E+00 -0.00000000000E+00 -0.93929818567E+03  0.93929818567E+03  0.00000000000E+00 0. -1.
         24    2    1    2    0    0  0.29886561417E+02  0.14325474450E+03 -0.12182552894E+03  0.20639460359E+03  0.79637582309E+02 0.  0.
         23    2    1    2    0    0 -0.11462285955E+03 -0.20931037120E+03 -0.22151274580E+03  0.33771770693E+03  0.89644417574E+02 0.  0.
        -11    1    3    3    0    0  0.41902755837E+02  0.11135959068E+03 -0.54367968067E+02  0.13081542468E+03  0.00000000000E+00 0.  1.
         12    1    3    3    0    0 -0.12016194420E+02  0.31895153816E+02 -0.67457560877E+02  0.75579178911E+02  0.00000000000E+00 0. -1.
        -13    1    4    4    0    0 -0.86536306808E+02 -0.20523820568E+03 -0.17512617546E+03  0.28333801509E+03  0.00000000000E+00 0.  1.
         13    1    4    4    0    0 -0.28086552742E+02 -0.40721655243E+01 -0.46386570341E+02  0.54379691843E+02  0.00000000000E+00 0. -1.
         21    1    1    2  503  502 -0.27145858349E+02 -0.83407394966E+02 -0.11660531569E+03  0.14591261360E+03  0.00000000000E+00 0.  1.
          1    1    1    2  501    0  0.11188215648E+03  0.14946302167E+03 -0.34039443955E+03  0.38823341724E+03  0.00000000000E+00 0. -1.
<scales pt_clust_5="13000.00000" pt_clust_6="13000.00000" pt_clust_7="13000.00000" pt_clust_8="13000.00000" pt_clust_9="87.71369" pt_clust_10="149.80303"></scales>
<clustering>
<clus scale="   79.638">  5  6 -1 -1</clus>
<clus scale="   87.714">  2  9  1 -1</clus>
<clus scale="   89.644">  7  8 -1 -1</clus>
<clus scale="  149.803">  1 10  2 -1</clus>
<clus scale="  192.970">  2  5  1 -1</clus>
<clus scale="  149.803">  1  5  2 -1</clus>
</clustering>
</event>
<event>
10    4  0.7697601E-005  0.2404391E+03  0.7546771E-02  0.1156711E+00
          2   -1    0    0  503    0 -0.00000000000E+00  0.00000000000E+00  0.17764939846E+04  0.17764939846E+04  0.00000000000E+00 0. -1.
         21   -1    0    0  501  502  0.00000000000E+00 -0.00000000000E+00 -0.14513358201E+03  0.14513358201E+03  0.00000000000E+00 0. -1.
         23    2    1    2    0    0  0.10250628393E+02 -0.32752157196E+02  0.12255812241E+03  0.15616561038E+03  0.90495443598E+02 0.  0.
         24    2    1    2    0    0  0.10611640385E+03  0.19215287236E+03  0.42713351190E+03  0.48686041751E+03  0.80041312019E+02 0.  0.
        -13    1    4    4    0    0  0.10685601121E+02  0.49908817740E+02  0.17313648067E+03  0.18050294485E+03  0.00000000000E+00 0.  1.
         14    1    4    4    0    0  0.95430802729E+02  0.14224405462E+03  0.25399703123E+03  0.30635747267E+03  0.00000000000E+00 0. -1.
        -11    1    3    3    0    0  0.24540118668E+02 -0.59972391004E+02  0.70891501445E+02  0.96044313128E+02  0.00000000000E+00 0. -1.
         11    1    3    3    0    0 -0.14289490275E+02  0.27220233809E+02  0.51666620967E+02  0.60121297250E+02  0.00000000000E+00 0.  1.
         21    1    1    2  503  502  0.33212422100E+02  0.65394082792E+01 -0.84603895311E+02  0.91124354287E+02  0.00000000000E+00 0. -1.
          1    1    1    2  501    0 -0.14957945434E+03 -0.16594012344E+03  0.11662726636E+04  0.11874771844E+04  0.00000000000E+00 0. -1.
<scales pt_clust_5="13000.00000" pt_clust_6="13000.00000" pt_clust_7="13000.00000" pt_clust_8="13000.00000" pt_clust_9="33.85009" pt_clust_10="226.72537"></scales>
<clustering>
<clus scale="   33.850">  2  9  1 -1</clus>
<clus scale="   80.041">  5  6 -1 -1</clus>
<clus scale="   90.495">  7  8 -1 -1</clus>
<clus scale="   97.673">  1  7  2 -1</clus>
<clus scale="  226.725">  2 10  1 -1</clus>
<clus scale="   33.850">  2  5  1 -1</clus>
</clustering>
</event>
<event>
10    4  0.7697601E-005  0.9845995E+02  0.7546771E-02  0.1286146E+00
          2   -1    0    0  503    0 -0.00000000000E+00  0.00000000000E+00  0.25278205616E+03  0.25278205616E+03  0.00000000000E+00 0. -1.
         21   -1    0    0  501  502  0.00000000000E+00 -0.00000000000E+00 -0.13171330859E+03  0.13171330859E+03  0.00000000000E+00 0.  1.
         24    2    1    2    0    0 -0.11334236830E+02 -0.56384995418E+02  0.12060282274E+03  0.15406479830E+03  0.76701946455E+02 0.  0.
         23    2    1    2    0    0  0.17070574375E+02  0.45895826396E+02  0.65058971927E+02  0.11581401632E+03  0.82355237579E+02 0.  0.
        -11    1    3    3    0    0 -0.23411224517E+02 -0.14596358738E+02  0.19129052950E+01  0.27654987407E+02  0.00000000000E+00 0.  1.
         12    1    3    3    0    0  0.12076987688E+02 -0.41788636681E+02  0.11868991745E+03  0.12640981090E+03  0.00000000000E+00 0. -1.
        -13    1    4    4    0    0  0.23268010537E+02  0.66272715836E+02  0.33696820767E+02  0.77903458899E+02  0.00000000000E+00 0.  1.
         13    1    4    4    0    0 -0.61974361618E+01 -0.20376889440E+02  0.31362151160E+02  0.37910557416E+02  0.00000000000E+00 0. -1.
         21    1    1    2  503  502  0.33115552174E+02  0.23097950057E+02 -0.61610087109E+02  0.73661101853E+02  0.00000000000E+00 0.  1.
          1    1    1    2  501    0 -0.38851889720E+02 -0.12608781035E+02 -0.29829599880E+01  0.40955448285E+02  0.00000000000E+00 0. -1.
<scales pt_clust_5="13000.00000" pt_clust_6="13000.00000" pt_clust_7="13000.00000" pt_clust_8="13000.00000" pt_clust_9="40.37518" pt_clust_10="27.89516"></scales>
<clustering>
<clus scale="   40.375">  2  9  1 -1</clus>
<clus scale="   27.895">  2 10  1 -1</clus>
<clus scale="   76.702">  5  6 -1 -1</clus>
<clus scale="   82.355">  7  8 -1 -1</clus>
<clus scale="   93.783">  1  5  2 -1</clus>
<clus scale="   40.375">  2  5  1 -1</clus>
</clustering>
</event>
<event>
10    4  0.7697601E-005  0.2818614E+03  0.7546771E-02  0.1105646E+00
         21   -1    0    0  501  502  0.00000000000E+00  0.00000000000E+00  0.14260546196E+03  0.14260546196E+03  0.00000000000E+00 0.  1.
          2   -1    0    0  503    0 -0.00000000000E+00 -0.00000000000E+00 -0.19967336714E+04  0.19967336714E+04  0.00000000000E+00 0. -1.
         24    2    1    2    0    0 -0.15391383227E+03 -0.13811941980E+03 -0.46808178224E+03  0.51859021004E+03  0.84076210599E+02 0.  0.
         23    2    1    2    0    0 -0.11563784395E+03  0.24723995351E+03 -0.40327583048E+03  0.49550598343E+03  0.91624661538E+02 0.  0.
        -11    1    3    3    0    0 -0.11650775429E+03 -0.13312238920E+03 -0.43003864909E+03  0.46500415807E+03  0.00000000000E+00 0.  1.
         12    1    3    3    0    0 -0.37406077984E+02 -0.49970306074E+01 -0.38043133150E+02  0.53586051963E+02  0.00000000000E+00 0. -1.
        -11    1    4    4    0    0 -0.99237790526E+02  0.14680560179E+03 -0.31197679007E+03  0.35878899276E+03  0.00000000000E+00 0.  1.
         11    1    4    4    0    0 -0.16400053427E+02  0.10043435172E+03 -0.91299040411E+02  0.13671699067E+03  0.00000000000E+00 0. -1.
         21    1    1    2  503  502  0.29626359303E+02  0.31571182343E+02  0.43844708216E+02  0.61618334598E+02  0.00000000000E+00 0.  1.
          1    1    1    2  501    0  0.23992531692E+03 -0.14069171605E+03 -0.10266153049E+04  0.10636246052E+04  0.00000000000E+00 0. -1.
<scales pt_clust_5="13000.00000" pt_clust_6="13000.00000" pt_clust_7="13000.00000" pt_clust_8="13000.00000" pt_clust_9="43.29504" pt_clust_10="266.55365"></scales>
<clustering>
<clus scale="   43.295">  1  9  2 -1</clus>
<clus scale="   84.076">  5  6 -1 -1</clus>
<clus scale="   91.625">  7  8 -1 -1</clus>
<clus scale="  212.061">  2  5  1 -1</clus>
<clus scale="  266.554">  1 10  2 -1</clus>
<clus scale="   43.295">  1  5  2 -1</clus>
</clustering>
</event>
<event>
10    4  0.7697601E-005  0.1762746E+03  0.7546771E-02  0.1200111E+00
         -1   -1    0    0    0  501 -0.00000000000E+00  0.00000000000E+00  0.27366787183E+03  0.27366787183E+03  0.00000000000E+00 0.  1.
         21   -1    0    0  503  502  0.00000000000E+00 -0.00000000000E+00 -0.24017229017E+03  0.24017229017E+03  0.00000000000E+00 0.  1.
         24    2    1    2    0    0 -0.31520995668E+02  0.27414162265E+02  0.92922073401E+01  0.90714512658E+02  0.79985425103E+02 0.  0.
         23    2    1    2    0    0  0.14756228198E+03  0.51714201409E+02  0.59685281109E+02  0.19000248248E+03  0.89942341964E+02 0.  0.
        -13    1    3    3    0    0 -0.36734455957E+00  0.49871122216E+02 -0.41042164643E+01  0.50041066794E+02  0.00000000000E+00 0.  1.
         14    1    3    3    0    0 -0.31153651109E+02 -0.22456959951E+02  0.13396423804E+02  0.40673445863E+02  0.00000000000E+00 0. -1.
        -13    1    4    4    0    0  0.56656973030E+02  0.27811147431E+02 -0.20595006150E+02  0.66389960029E+02  0.00000000000E+00 0. -1.
         13    1    4    4    0    0  0.90905308947E+02  0.23903053978E+02  0.80280287260E+02  0.12361252245E+03  0.00000000000E+00 0.  1.
         21    1    1    2  503  501 -0.51578403629E+01  0.30522448106E+02 -0.67199634194E+02  0.73986579806E+02  0.00000000000E+00 0.  1.
         -2    1    1    2    0  502 -0.11088344595E+03 -0.10965081178E+03  0.31717727400E+02  0.15913658706E+03  0.00000000000E+00 0.  1.
<scales pt_clust_5="13000.00000" pt_clust_6="13000.00000" pt_clust_7="13000.00000" pt_clust_8="13000.00000" pt_clust_9="30.95518" pt_clust_10="151.60177"></scales>
<clustering>
<clus scale="   30.955">  2  9  1 -1</clus>
<clus scale="   79.985">  5  6 -1 -1</clus>
<clus scale="   89.942">  7  8 -1 -1</clus>
<clus scale="   93.155">  1  5  2 -1</clus>
<clus scale="  151.602">  2 10  1 -1</clus>
<clus scale="   30.955">  2  5  1 -1</clus>
</clustering>
</event>
<event>
10    4  0.7697601E-005  0.1238765E+03  0.7546771E-02  0.1239802E+00
          2   -1    0    0  503    0 -0.00000000000E+00  0.00000000000E+00  0.16704396975E+04  0.16704396975E+04  0.00000000000E+00 0. -1.
         21   -1    0    0  501  502  0.00000000000E+00 -0.00000000000E+00 -0.70374817682E+02  0.70374817682E+02  0.00000000000E+00 0.  1.
         24    2    1    2    0    0  0.51299764494E+00 -0.83372935721E+02  0.94023396120E+03  0.94733036366E+03  0.80272078273E+02 0.  0.
         23    2    1    2    0    0  0.23433172409E+02  0.92427915718E+02  0.15789332623E+03  0.20545690138E+03  0.90499738571E+02 0.  0.
        -11    1    3    3    0    0  0.30787265713E+02 -0.83755144308E+01  0.17994614788E+03  0.18275289631E+03  0.00000000000E+00 0.  1.
         12    1    3    3    0    0 -0.30274268068E+02 -0.74997421290E+02  0.76028781332E+03  0.76457746735E+03  0.00000000000E+00 0. -1.
        -11    1    4    4    0    0 -0.32667452286E+02  0.42929823061E+02  0.87125111025E+02  0.10247398264E+03  0.00000000000E+00 0.  1.
         11    1    4    4    0    0  0.56100624695E+02  0.49498092657E+02  0.70768215206E+02  0.10298291874E+03  0.00000000000E+00 0. -1.
         21    1    1    2  503  502  0.48088452885E+02 -0.86998533213E+02  0.29318452346E+02  0.10363790682E+03  0.00000000000E+00 0.  1.
          1    1    1    2  501    0 -0.72034622939E+02  0.77943553216E+02  0.47261914003E+03  0.48438934331E+03  0.00000000000E+00 0. -1.
<scales pt_clust_5="13000.00000" pt_clust_6="13000.00000" pt_clust_7="13000.00000" pt_clust_8="13000.00000" pt_clust_9="99.40445" pt_clust_10="89.12881"></scales>
<clustering>
<clus scale="   80.272">  5  6 -1 -1</clus>
<clus scale="   90.500">  7  8 -1 -1</clus>
<clus scale="   99.404">  2  9  1 -1</clus>
<clus scale="   89.129">  2 10  1 -1</clus>
<clus scale="  116.614">  1  5  2 -1</clus>
<clus scale="   99.404">  2  5  1 -1</clus>
</clustering>
</event>
<event>
10    4  0.7697601E-005  0.2255261E+03  0.7546771E-02  0.1148712E+00
          2   -1    0    0  503    0 -0.00000000000E+00  0.00000000000E+00  0.49379111780E+03  0.49379111780E+03  0.00000000000E+00 0. -1.
         21   -1    0    0  501  502  0.00000000000E+00 -0.00000000000E+00 -0.24737234748E+03  0.24737234748E+03  0.00000000000E+00 0.  1.
         23    2    1    2    0    0  0.10317103671E+03  0.36565647593E+02  0.13493272484E+03  0.19862692775E+03  0.96252307994E+02 0.  0.
         24    2    1    2    0    0  0.13943138504E+02 -0.21700268065E+03  0.71696413662E+02  0.24255620846E+03  0.80053507157E+02 0.  0.
        -13    1    4    4    0    0  0.26750546003E+02 -0.21535302427E+03  0.60041252890E+02  0.22516098424E+03  0.00000000000E+00 0.  1.
         14    1    4    4    0    0 -0.12807407498E+02 -0.16496563783E+01  0.11655160771E+02  0.17395224218E+02  0.00000000000E+00 0. -1.
        -13    1    3    3    0    0  0.68813238913E+02  0.59787980870E+02  0.49665428346E+02  0.10381001531E+03  0.00000000000E+00 0.  1.
         13    1    3    3    0    0  0.34357797792E+02 -0.23222333277E+02  0.85267296498E+02  0.94816912437E+02  0.00000000000E+00 0. -1.
         21    1    1    2  503  502 -0.20236402109E+02 -0.89017053591E+01 -0.60810312945E+02  0.64704300391E+02  0.00000000000E+00 0.  1.
          1    1    1    2  501    0 -0.96877773101E+02  0.18933873842E+03  0.10059994476E+03  0.23527602868E+03  0.00000000000E+00 0. -1.
<scales pt_clust_5="13000.00000" pt_clust_6="13000.00000" pt_clust_7="13000.00000" pt_clust_8="13000.00000" pt_clust_9="22.10774" pt_clust_10="210.84002"></scales>
<clustering>
<clus scale="   22.108">  2  9  1 -1</clus>
<clus scale="   80.054">  5  6 -1 -1</clus>
<clus scale="   96.252">  7  8 -1 -1</clus>
<clus scale="  142.926">  1  7  2 -1</clus>
<clus scale="  210.840">  2 10  1 -1</clus>
<clus scale="   22.108">  2  5  1 -1</clus>
</clustering>
</event>
<event>
10    4  0.7697601E-005  0.1245516E+03  0.7546771E-02  0.1238333E+00
          2   -1    0    0  503    0 -0.00000000000E+00  0.00000000000E+00  0.85483733870E+03  0.85483733870E+03  0.00000000000E+00 0. -1.
         21   -1    0    0  501  502  0.00000000000E+00 -0.00000000000E+00 -0.67350096252E+02  0.67350096252E+02  0.00000000000E+00 0. -1.
         24    2    1    2    0    0  0.37502050621E+02 -0.66370927246E+02  0.42514167746E+03  0.43937220934E+03  0.80566672029E+02 0.  0.
         23    2    1    2    0    0 -0.30411497800E+02  0.10272715713E+03  0.35573289915E+03  0.38217094387E+03  0.89615884698E+02 0.  0.
        -11    1    3    3    0    0  0.53113759025E+01 -0.19412208490E+02  0.14506198776E+02  0.24808755619E+02  0.00000000000E+00 0.  1.
         12    1    3    3    0    0  0.32190674718E+02 -0.46958718756E+02  0.41063547868E+03  0.41456345372E+03  0.00000000000E+00 0. -1.
        -11    1    4    4    0    0 -0.22508502915E+01  0.44571714047E+02  0.40117711329E+02  0.60009455775E+02  0.00000000000E+00 0. -1.
         11    1    4    4    0    0 -0.28160647509E+02  0.58155443085E+02  0.31561518782E+03  0.32216148810E+03  0.00000000000E+00 0.  1.
         21    1    1    2  503  502  0.12193519849E+02  0.27400571440E+02  0.14957624739E+02  0.33514232489E+02  0.00000000000E+00 0. -1.
          1    1    1    2  501    0 -0.19284072669E+02 -0.63756801326E+02 -0.83449588991E+01  0.67130049256E+02  0.00000000000E+00 0. -1.
<scales pt_clust_5="13000.00000" pt_clust_6="13000.00000" pt_clust_7="13000.00000" pt_clust_8="13000.00000" pt_clust_9="29.99122" pt_clust_10="47.33419"></scales>
<clustering>
<clus scale="   29.991">  2  9  1 -1</clus>
<clus scale="   47.334">  2 10  1 -1</clus>
<clus scale="   80.567">  5  6 -1 -1</clus>
<clus scale="   89.616">  7  8 -1 -1</clus>
<clus scale="  118.208">  1  5  2 -1</clus>
<clus scale="   29.991">  2  5  1 -1</clus>
</clustering>
</event>
<event>
10    4  0.7697601E-005  0.1435390E+03  0.7546771E-02  0.1211079E+00
          2   -1    0    0  502    0 -0.00000000000E+00  0.00000000000E+00  0.70644723735E+03  0.70644723735E+03  0.00000000000E+00 0. -1.
         21   -1    0    0  503  502  0.00000000000E+00 -0.00000000000E+00 -0.71506301698E+02  0.71506301698E+02  0.00000000000E+00 0.  1.
         24    2    1    2    0    0  0.82696139737E+02 -0.73134228708E+02  0.32046060818E+03  0.34812994718E+03  0.79449303276E+02 0.  0.
         23    2    1    2    0    0 -0.61763077866E+02  0.94989111259E+02  0.30309746839E+03  0.33623361530E+03  0.91363886017E+02 0.  0.
        -13    1    3    3    0    0  0.18067613879E+02 -0.19521862323E+02  0.13379774494E+02  0.29775159871E+02  0.00000000000E+00 0.  1.
         14    1    3    3    0    0  0.64628525858E+02 -0.53612366385E+02  0.30708083369E+03  0.31835478731E+03  0.00000000000E+00 0. -1.
        -11    1    4    4    0    0 -0.66861645783E+02  0.54967665150E+02  0.11542495090E+03  0.14427350130E+03  0.00000000000E+00 0.  1.
         11    1    4    4    0    0  0.50985679166E+01  0.40021446109E+02  0.18767251749E+03  0.19196011400E+03  0.00000000000E+00 0. -1.
         21    1    1    2  503  501  0.32696497466E+02 -0.13473481342E+02 -0.74409996728E+01  0.36138125604E+02  0.00000000000E+00 0. -1.
          1    1    1    2  501    0 -0.53629559337E+02 -0.83814012093E+01  0.18823858753E+02  0.57451850965E+02  0.00000000000E+00 0. -1.
<scales pt_clust_5="13000.00000" pt_clust_6="13000.00000" pt_clust_7="13000.00000" pt_clust_8="13000.00000" pt_clust_9="35.36376" pt_clust_10="43.13297"></scales>
<clustering>
<clus scale="   35.364">  2  9  1 -1</clus>
<clus scale="   43.133">  2 10  1 -1</clus>
<clus scale="   79.449">  5  6 -1 -1</clus>
<clus scale="   91.364">  7  8 -1 -1</clus>
<clus scale="  136.266">  1  5  2 -1</clus>
<clus scale="   35.364">  2  5  1 -1</clus>
</clustering>
</event>
<event>
10    4  0.7697601E-005  0.2561181E+03  0.7546771E-02  0.1110112E+00
          2   -1    0    0  503    0 -0.00000000000E+00  0.00000000000E+00  0.15255577543E+04  0.15255577543E+04  0.00000000000E+00 0. -1.
         21   -1    0    0  501  502  0.00000000000E+00 -0.00000000000E+00 -0.14599100910E+03  0.14599100910E+03  0.00000000000E+00 0. -1.
         24    2    1    2    0    0  0.43270811935E+01 -0.23565298352E+03  0.93951869610E+03  0.97198610890E+03  0.80688061614E+02 0.  0.
         23    2    1    2    0    0 -0.12329076156E+03  0.23536965370E+03  0.47692816542E+03  0.55370482152E+03  0.92352956782E+02 0.  0.
        -11    1    3    3    0    0 -0.28825872808E+02 -0.11534828086E+03  0.35793715786E+03  0.37716729155E+03  0.00000000000E+00 0.  1.
         12    1    3    3    0    0  0.33152954001E+02 -0.12030470266E+03  0.58158153824E+03  0.59481881734E+03  0.00000000000E+00 0. -1.
        -11    1    4    4    0    0  0.12125176462E+02  0.36667660377E+02  0.92888944725E+02  0.10059768026E+03  0.00000000000E+00 0.  1.
         11    1    4    4    0    0 -0.13541593802E+03  0.19870199332E+03  0.38403922070E+03  0.45310714126E+03  0.00000000000E+00 0. -1.
         21    1    1    2  503  502  0.24421717173E+02  0.10163021573E+02 -0.43130347354E+02  0.50595791723E+02  0.00000000000E+00 0. -1.
          1    1    1    2  501    0  0.94541963196E+02 -0.98796917530E+01  0.62502310076E+01  0.95262041243E+02  0.00000000000E+00 0. -1.
<scales pt_clust_5="13000.00000" pt_clust_6="13000.00000" pt_clust_7="13000.00000" pt_clust_8="13000.00000" pt_clust_9="26.45198" pt_clust_10="105.64057"></scales>
<clustering>
<clus scale="   26.452">  2  9  1 -1</clus>
<clus scale="   80.688">  5  6 -1 -1</clus>
<clus scale="   92.353">  7  8 -1 -1</clus>
<clus scale="  105.641">  2 10  1 -1</clus>
<clus scale="  252.147">  1  5  2 -1</clus>
<clus scale="   26.452">  2  5  1 -1</clus>
</clustering>
</event>
<event>
10    4  0.7697601E-005  0.3376179E+03  0.7546771E-02  0.1101764E+00
          2   -1    0    0  503    0 -0.00000000000E+00  0.00000000000E+00  0.25342768374E+04  0.25342768374E+04  0.00000000000E+00 0. -1.
         21   -1    0    0  501  502  0.00000000000E+00 -0.00000000000E+00 -0.93963211075E+02  0.93963211075E+02  0.00000000000E+00 0. -1.
         23    2    1    2    0    0 -0.22367869855E+02 -0.92716782805E+02  0.13758117669E+03  0.19087538346E+03  0.91695738256E+02 0.  0.
         24    2    1    2    0    0  0.17355037396E+03  0.35855625558E+03  0.15518430761E+04  0.16044009175E+04  0.84870787848E+02 0.  0.
        -13    1    4    4    0    0  0.68944915670E+02  0.19863242414E+03  0.94820196389E+03  0.97123385734E+03  0.00000000000E+00 0.  1.
         14    1    4    4    0    0  0.10460545829E+03  0.15992383144E+03  0.60364111220E+03  0.63316706018E+03  0.00000000000E+00 0. -1.
        -13    1    3    3    0    0 -0.12825747102E+02 -0.38381083056E+02  0.12880765694E+03  0.13501488738E+03  0.00000000000E+00 0. -1.
         13    1    3    3    0    0 -0.95421227536E+01 -0.54335699749E+02  0.87735197487E+01  0.55860496083E+02  0.00000000000E+00 0.  1.
         21    1    1    2  503  502 -0.24044926645E+02 -0.10428523284E+02 -0.34859436773E+01  0.26439825993E+02  0.00000000000E+00 0. -1.
          1    1    1    2  501    0 -0.12713757746E+03 -0.25541094949E+03  0.75437531725E+03  0.80652392153E+03  0.00000000000E+00 0. -1.
<scales pt_clust_5="13000.00000" pt_clust_6="13000.00000" pt_clust_7="13000.00000" pt_clust_8="13000.00000" pt_clust_9="26.20902" pt_clust_10="326.77637"></scales>
<clustering>
<clus scale="   26.209">  2  9  1 -1</clus>
<clus scale="   84.871">  5  6 -1 -1</clus>
<clus scale="   91.696">  7  8 -1 -1</clus>
<clus scale="  136.375">  1  7  2 -1</clus>
<clus scale="  326.776">  2 10  1 -1</clus>
<clus scale="   26.209">  2  5  1 -1</clus>
</clustering>
</event>
<event>
10    4  0.7697601E-005  0.1325369E+03  0.7546771E-02  0.1225783E+00
         21   -1    0    0  503  502  0.00000000000E+00  0.00000000000E+00  0.31924357467E+03  0.31924357467E+03  0.00000000000E+00 0. -1.
          2   -1    0    0  502    0 -0.00000000000E+00 -0.00000000000E+00 -0.13221016954E+04  0.13221016954E+04  0.00000000000E+00 0. -1.
         24    2    1    2    0    0 -0.11188109733E+03  0.21768996715E+02 -0.91076477105E+03  0.92145798309E+03  0.81247013804E+02 0.  0.
         23    2    1    2    0    0  0.37582801443E+02 -0.64663190800E+02 -0.22265245753E+03  0.25140138903E+03  0.89636746657E+02 0.  0.
        -11    1    3    3    0    0 -0.23964759648E+02  0.62830504013E+01 -0.47342282731E+02  0.53432931433E+02  0.00000000000E+00 0.  1.
         12    1    3    3    0    0 -0.87916337680E+02  0.15485946314E+02 -0.86342248832E+03  0.86802505165E+03  0.00000000000E+00 0. -1.
        -11    1    4    4    0    0  0.65300555762E+02 -0.59900305444E+02 -0.16996740008E+03  0.19167974923E+03  0.00000000000E+00 0.  1.
         11    1    4    4    0    0 -0.27717754319E+02 -0.47628853567E+01 -0.52685057454E+02  0.59721639799E+02  0.00000000000E+00 0. -1.
         21    1    1    2  503  501  0.34640749789E+02 -0.54691626553E+02  0.27903113523E+03  0.28644289132E+03  0.00000000000E+00 0. -1.
          1    1    1    2  501    0  0.39657546096E+02  0.97585820638E+02 -0.14847202741E+03  0.18204300667E+03  0.00000000000E+00 0. -1.
<scales pt_clust_5="13000.00000" pt_clust_6="13000.00000" pt_clust_7="13000.00000" pt_clust_8="13000.00000" pt_clust_9="64.73913" pt_clust_10="91.30778"></scales>
<clustering>
<clus scale="   64.739">  1  9  2 -1</clus>
<clus scale="   81.247">  5  6 -1 -1</clus>
<clus scale="   89.637">  7  8 -1 -1</clus>
<clus scale="   91.308">  1 10  2 -1</clus>
<clus scale="  127.013">  2  5  1 -1</clus>
<clus scale="   64.739">  1  5  2 -1</clus>
</clustering>
</event>
<event>
10    4  0.7697601E-005  0.1374788E+03  0.7546771E-02  0.1219064E+00
         -1   -1    0    0    0  501 -0.00000000000E+00  0.00000000000E+00  0.10408704247E+03  0.10408704247E+03  0.00000000000E+00 0.  1.
         21   -1    0    0  503  502  0.00000000000E+00 -0.00000000000E+00 -0.30782111725E+03  0.30782111725E+03  0.00000000000E+00 0.  1.
         23    2    1    2    0    0 -0.12599028317E+02  0.10854591564E+03 -0.89815834775E+02  0.16726383603E+03  0.89271245934E+02 0.  0.
         24    2    1    2    0    0  0.13119477999E+02 -0.99071092136E+02 -0.93591701033E+02  0.15801597411E+03  0.78882441465E+02 0.  0.
        -13    1    4    4    0    0 -0.27784529161E+01 -0.84976601957E+02 -0.10402190641E+03  0.13434768213E+03  0.00000000000E+00 0.  1.
         14    1    4    4    0    0  0.15897930915E+02 -0.14094490179E+02  0.10430205380E+02  0.23668291976E+02  0.00000000000E+00 0. -1.
        -13    1    3    3    0    0  0.53671778773E+01  0.54213930534E+02 -0.95303654189E+02  0.10977587788E+03  0.00000000000E+00 0.  1.
         13    1    3    3    0    0 -0.17966206195E+02  0.54331985103E+02  0.54878194141E+01  0.57487958149E+02  0.00000000000E+00 0. -1.
         21    1    1    2  503  501  0.20406661646E+02 -0.16704304956E+02 -0.45817178812E+02  0.52864728486E+02  0.00000000000E+00 0.  1.
         -2    1    1    2    0  502 -0.20927111327E+02  0.72294814550E+01  0.25490639840E+02  0.33763621104E+02  0.00000000000E+00 0.  1.
<scales pt_clust_5="13000.00000" pt_clust_6="13000.00000" pt_clust_7="13000.00000" pt_clust_8="13000.00000" pt_clust_9="23.03029" pt_clust_10="22.14068"></scales>
<clustering>
<clus scale="   22.141">  2 10  1 -1</clus>
<clus scale="   23.030">  2  9  1 -1</clus>
<clus scale="   78.882">  5  6 -1 -1</clus>
<clus scale="   89.271">  7  8 -1 -1</clus>
<clus scale="  130.971">  2  5  1 -1</clus>
<clus scale="   22.141">  2  5  1 -1</clus>
</clustering>
</event>
<event>
10    4  0.7697601E-005  0.1233522E+03  0.7546771E-02  0.1240886E+00
         21   -1    0    0  503  502  0.00000000000E+00  0.00000000000E+00  0.27804678037E+03  0.27804678037E+03  0.00000000000E+00 0.  1.
         -1   -1    0    0    0  501 -0.00000000000E+00 -0.00000000000E+00 -0.34795686434E+03  0.34795686434E+03  0.00000000000E+00 0.  1.
         23    2    1    2    0    0 -0.71269957016E+02 -0.49808406972E+02 -0.23212388649E+03  0.26413627979E+03  0.91247966771E+02 0.  0.
         24    2    1    2    0    0  0.91339157626E+02 -0.25684482893E+02  0.96274255769E+01  0.12471743010E+03  0.80369245800E+02 0.  0.
        -13    1    4    4    0    0  0.76292441184E+02 -0.23070721494E+02 -0.27704826378E+02  0.84382179261E+02  0.00000000000E+00 0.  1.
         14    1    4    4    0    0  0.15046716441E+02 -0.26137613991E+01  0.37332251955E+02  0.40335250840E+02  0.00000000000E+00 0. -1.
        -11    1    3    3    0    0 -0.22353397519E+02  0.18329911717E+02 -0.17714620561E+02  0.33903802527E+02  0.00000000000E+00 0. -1.
         11    1    3    3    0    0 -0.48916559497E+02 -0.68138318689E+02 -0.21440926593E+03  0.23023247726E+03  0.00000000000E+00 0.  1.
         21    1    1    2  503  501 -0.18862024733E+02 -0.69000125027E+01  0.15343488514E+03  0.15474382096E+03  0.00000000000E+00 0.  1.
         -2    1    1    2    0  502 -0.12071758769E+01  0.82392902367E+02 -0.84850819086E+00  0.82406113852E+02  0.00000000000E+00 0.  1.
<scales pt_clust_5="13000.00000" pt_clust_6="13000.00000" pt_clust_7="13000.00000" pt_clust_8="13000.00000" pt_clust_9="20.08448" pt_clust_10="80.46511"></scales>
<clustering>
<clus scale="   20.084">  1  9  2 -1</clus>
<clus scale="   80.369">  5  6 -1 -1</clus>
<clus scale="   80.465">  1 10  2 -1</clus>
<clus scale="   91.248">  7  8 -1 -1</clus>
<clus scale="  115.537">  1  5  2 -1</clus>
<clus scale="   20.084">  1  5  2 -1</clus>
</clustering>
</event>
<event>
10    4  0.7697601E-005  0.1479002E+03  0.7546771E-02  0.1205141E+00
          2   -1    0    0  503    0 -0.00000000000E+00  0.00000000000E+00  0.77325727892E+02  0.77325727892E+02  0.00000000000E+00 0. -1.
         21   -1    0    0  501  502  0.00000000000E+00 -0.00000000000E+00 -0.75053187493E+03  0.75053187493E+03  0.00000000000E+00 0. -1.
         23    2    1    2    0    0 -0.14211001789E+02 -0.12398433090E+03 -0.78744615725E+02  0.17372073672E+03  0.91673949300E+02 0.  0.
         24    2    1    2    0    0  0.10907976558E+02  0.85862027363E+02 -0.41834386450E+03  0.43479158102E+03  0.80875572777E+02 0.  0.
        -11    1    4    4    0    0 -0.29342207289E+02  0.23685152038E+02 -0.21709127451E+03  0.22034194568E+03  0.00000000000E+00 0.  1.
         12    1    4    4    0    0  0.40250183847E+02  0.62176875325E+02 -0.20125258999E+03  0.21444963535E+03  0.00000000000E+00 0. -1.
        -13    1    3    3    0    0  0.24785578288E+02 -0.32383959837E+02 -0.59795178220E+02  0.72377545442E+02  0.00000000000E+00 0.  1.
         13    1    3    3    0    0 -0.38996580077E+02 -0.91600371067E+02 -0.18949437505E+02  0.10134319128E+03  0.00000000000E+00 0. -1.
         21    1    1    2  503  502  0.42245599340E+02  0.65635883262E+02 -0.13697830451E+03  0.15765727304E+03  0.00000000000E+00 0.  1.
          1    1    1    2  501    0 -0.38942574109E+02 -0.27513579721E+02 -0.39139362302E+02  0.61688012034E+02  0.00000000000E+00 0. -1.
<scales pt_clust_5="13000.00000" pt_clust_6="13000.00000" pt_clust_7="13000.00000" pt_clust_8="13000.00000" pt_clust_9="68.85565" pt_clust_10="47.68148"></scales>
<clustering>
<clus scale="   47.681">  2 10  1 -1</clus>
<clus scale="   68.856">  2  9  1 -1</clus>
<clus scale="   80.876">  5  6 -1 -1</clus>
<clus scale="   91.674">  7  8 -1 -1</clus>
<clus scale="  141.461">  2  5  1 -1</clus>
<clus scale="   47.681">  2  5  1 -1</clus>
</clustering>
</event>
<event>
10    4  0.7697601E-005  0.9876286E+02  0.7546771E-02  0.1288832E+00
          2   -1    0    0  503    0 -0.00000000000E+00  0.00000000000E+00  0.68292339974E+03  0.68292339974E+03  0.00000000000E+00 0. -1.
         21   -1    0    0  501  502  0.00000000000E+00 -0.00000000000E+00 -0.50353045808E+02  0.50353045808E+02  0.00000000000E+00 0.  1.
         24    2    1    2    0    0 -0.31036487017E+02 -0.23714451012E+02  0.48917299161E+03  0.49736854398E+03  0.80991444659E+02 0.  0.
         23    2    1    2    0    0 -0.14395166112E+02  0.34811714241E+02  0.74752683454E+02  0.12456292316E+03  0.92243600795E+02 0.  0.
        -11    1    3    3    0    0 -0.10849564070E+02 -0.36375781605E+02  0.92573055666E+02  0.10005339156E+03  0.00000000000E+00 0.  1.
         12    1    3    3    0    0 -0.20186922948E+02  0.12661330593E+02  0.39659993594E+03  0.39731515241E+03  0.00000000000E+00 0. -1.
        -11    1    4    4    0    0  0.11059350465E+02  0.59159543388E+02  0.63724635298E+02  0.87652666533E+02  0.00000000000E+00 0.  1.
         11    1    4    4    0    0 -0.25454516577E+02 -0.24347829147E+02  0.11028048156E+02  0.36910256630E+02  0.00000000000E+00 0. -1.
         21    1    1    2  503  502  0.30760346415E+01 -0.32204562856E+02  0.61110991889E+01  0.32923265196E+02  0.00000000000E+00 0.  1.
          1    1    1    2  501    0  0.42355618488E+02  0.21107299627E+02  0.62533579684E+02  0.78421713212E+02  0.00000000000E+00 0. -1.
<scales pt_clust_5="13000.00000" pt_clust_6="13000.00000" pt_clust_7="13000.00000" pt_clust_8="13000.00000" pt_clust_9="32.35113" pt_clust_10="45.29479"></scales>
<clustering>
<clus scale="   32.351">  2  9  1 -1</clus>
<clus scale="   45.295">  2 10  1 -1</clus>
<clus scale="   80.991">  5  6 -1 -1</clus>
<clus scale="   88.345">  1  5  2 -1</clus>
<clus scale="   92.244">  7  8 -1 -1</clus>
<clus scale="   32.351">  2  5  1 -1</clus>
</clustering>
</event>
<event>
10    4  0.7697601E-005  0.1878492E+03  0.7546771E-02  0.1171180E+00
         21   -1    0    0  501  502  0.00000000000E+00  0.00000000000E+00  0.14068339901E+03  0.14068339901E+03  0.00000000000E+00 0. -1.
          2   -1    0    0  503    0 -0.00000000000E+00 -0.00000000000E+00 -0.13562070597E+04  0.13562070597E+04  0.00000000000E+00 0. -1.
         23    2    1    2    0    0 -0.10457415234E+03  0.57296635698E+02 -0.20421229431E+03  0.25222162248E+03  0.87717888131E+02 0.  0.
         24    2    1    2    0    0  0.54967451747E+02  0.14339280226E+03 -0.68392166340E+03  0.70578867702E+03  0.82497869358E+02 0.  0.
        -13    1    4    4    0    0 -0.58867012083E+00  0.93285291640E+02 -0.28398919039E+03  0.29891863848E+03  0.00000000000E+00 0.  1.
         14    1    4    4    0    0  0.55556121868E+02  0.50107510620E+02 -0.39993247301E+03  0.40687003854E+03  0.00000000000E+00 0. -1.
        -13    1    3    3    0    0 -0.51401135980E+02 -0.70390080560E+01 -0.13208754313E+03  0.14191104067E+03  0.00000000000E+00 0.  1.
         13    1    3    3    0    0 -0.53173016359E+02  0.64335643754E+02 -0.72124751187E+02  0.11031058181E+03  0.00000000000E+00 0. -1.
         21    1    1    2  503  502 -0.50656682160E+01 -0.19378191742E+02  0.83809024295E+02  0.86169181631E+02  0.00000000000E+00 0. -1.
          1    1    1    2  501    0  0.54672368808E+02 -0.18131124622E+03 -0.41119872730E+03  0.45271097761E+03  0.00000000000E+00 0. -1.
<scales pt_clust_5="13000.00000" pt_clust_6="13000.00000" pt_clust_7="13000.00000" pt_clust_8="13000.00000" pt_clust_9="20.02936" pt_clust_10="168.76444"></scales>
<clustering>
<clus scale="   20.029">  1  9  2 -1</clus>
<clus scale="   82.498">  5  6 -1 -1</clus>
<clus scale="   87.718">  7  8 -1 -1</clus>
<clus scale="  146.585">  2  7  1 -1</clus>
<clus scale="  168.764">  1 10  2 -1</clus>
<clus scale="   20.029">  1  5  2 -1</clus>
</clustering>
</event>
<event>
10    4  0.7697601E-005  0.1565721E+03  0.7546771E-02  0.1209019E+00
          4   -1    0    0  503    0 -0.00000000000E+00  0.00000000000E+00  0.25855472900E+03  0.25855472900E+03  0.00000000000E+00 0. -1.
         21   -1    0    0  501  502  0.00000000000E+00 -0.00000000000E+00 -0.24111970386E+03  0.24111970386E+03  0.00000000000E+00 0. -1.
         23    2    1    2    0    0  0.32819266658E+02 -0.66168398505E+02  0.53909101483E+02  0.12538371230E+03  0.85787661485E+02 0.  0.
         24    2    1    2    0    0 -0.12037054189E+03 -0.29770022132E+01  0.58941481087E+02  0.15635970457E+03  0.80475643043E+02 0.  0.
        -11    1    4    4    0    0 -0.36952925520E+02 -0.15375837296E+02 -0.16418464106E+02  0.43260848820E+02  0.00000000000E+00 0.  1.
         12    1    4    4    0    0 -0.83417616367E+02  0.12398835083E+02  0.75359945193E+02  0.11309885575E+03  0.00000000000E+00 0. -1.
        -13    1    3    3    0    0 -0.20918992493E+02 -0.23476482354E+02  0.46802231617E+02  0.56384380416E+02  0.00000000000E+00 0.  1.
         13    1    3    3    0    0  0.53738259151E+02 -0.42691916152E+02  0.71068698667E+01  0.68999331885E+02  0.00000000000E+00 0. -1.
         21    1    1    2  503  502 -0.37321998372E+02  0.80685578161E+00  0.12425568863E+02  0.39344343181E+02  0.00000000000E+00 0. -1.
          3    1    1    2  501    0  0.12487327360E+03  0.68338544937E+02 -0.10784112630E+03  0.17858667281E+03  0.00000000000E+00 0. -1.
<scales pt_clust_5="13000.00000" pt_clust_6="13000.00000" pt_clust_7="13000.00000" pt_clust_8="13000.00000" pt_clust_9="37.33072" pt_clust_10="134.30747"></scales>
<clustering>
<clus scale="   37.331">  1  9  2 -1</clus>
<clus scale="   80.476">  5  6 -1 -1</clus>
<clus scale="   85.788">  7  8 -1 -1</clus>
<clus scale="  109.712">  1  7  2 -1</clus>
<clus scale="  134.307">  2 10  1 -1</clus>
<clus scale="  134.307">  2  5  1 -1</clus>
</clustering>
</event>
<event>
10    4  0.7697601E-005  0.9293352E+02  0.7546771E-02  0.1299936E+00
          2   -1    0    0  503    0 -0.00000000000E+00  0.00000000000E+00  0.33394289195E+03  0.33394289195E+03  0.00000000000E+00 0. -1.
         21   -1    0    0  501  502  0.00000000000E+00 -0.00000000000E+00 -0.10577651607E+03  0.10577651607E+03  0.00000000000E+00 0.  1.
         23    2    1    2    0    0 -0.26591617106E+02  0.12878267924E+02  0.10962051605E+03  0.14494587270E+03  0.90109292467E+02 0.  0.
         24    2    1    2    0    0  0.69855722038E+01  0.23420128984E+02 -0.31157558771E+02  0.92140174614E+02  0.83196860810E+02 0.  0.
        -11    1    4    4    0    0  0.34560625639E+02  0.36874201579E+02 -0.32145115750E+01  0.50640662232E+02  0.00000000000E+00 0.  1.
         12    1    4    4    0    0 -0.27575053435E+02 -0.13454072595E+02 -0.27943047196E+02  0.41499512382E+02  0.00000000000E+00 0. -1.
        -11    1    3    3    0    0 -0.53482232245E+02 -0.38444754564E-01  0.33299314890E+02  0.63001547728E+02  0.00000000000E+00 0.  1.
         11    1    3    3    0    0  0.26890615139E+02  0.12916712679E+02  0.76321201155E+02  0.81944324970E+02  0.00000000000E+00 0. -1.
         21    1    1    2  503  502  0.36789677526E+02  0.95542460771E+01 -0.68308566304E+01  0.38618966751E+02  0.00000000000E+00 0.  1.
          1    1    1    2  501    0 -0.17183632624E+02 -0.45852642986E+02  0.15653427524E+03  0.16401439395E+03  0.00000000000E+00 0. -1.
<scales pt_clust_5="13000.00000" pt_clust_6="13000.00000" pt_clust_7="13000.00000" pt_clust_8="13000.00000" pt_clust_9="38.01005" pt_clust_10="48.00291"></scales>
<clustering>
<clus scale="   38.010">  2  9  1 -1</clus>
<clus scale="   48.003">  2 10  1 -1</clus>
<clus scale="   83.197">  5  6 -1 -1</clus>
<clus scale="   86.248">  2  5  1 -1</clus>
<clus scale="   90.109">  7  8 -1 -1</clus>
<clus scale="   38.010">  2  5  1 -1</clus>
</clustering>
</event>
<event>
10    4  0.7697601E-005  0.1532209E+03  0.7546771E-02  0.1196860E+00
          2   -1    0    0  503    0 -0.00000000000E+00  0.00000000000E+00  0.15656214717E+04  0.15656214717E+04  0.00000000000E+00 0. -1.
         21   -1    0    0  501  502  0.00000000000E+00 -0.00000000000E+00 -0.62103442955E+02  0.62103442955E+02  0.00000000000E+00 0.  1.
         24    2    1    2    0    0 -0.76498273143E+02 -0.13067461825E+03  0.11176858536E+04  0.11309672596E+04  0.83291255844E+02 0.  0.
         23    2    1    2    0    0 -0.98133598396E+00  0.65673193878E+02  0.11115070833E+03  0.15267685781E+03  0.81497309980E+02 0.  0.
        -13    1    3    3    0    0 -0.73455754731E+02 -0.54099177042E+02  0.47075239706E+03  0.47951046724E+03  0.00000000000E+00 0.  1.
         14    1    3    3    0    0 -0.30425184119E+01 -0.76575441208E+02  0.64693345650E+03  0.65145679231E+03  0.00000000000E+00 0. -1.
        -11    1    4    4    0    0 -0.23360603997E+02  0.43260810528E+02  0.14937066701E+02  0.51384156199E+02  0.00000000000E+00 0.  1.
         11    1    4    4    0    0  0.22379268013E+02  0.22412383351E+02  0.96213641628E+02  0.10129270161E+03  0.00000000000E+00 0. -1.
         21    1    1    2  503  502 -0.87789574843E+00  0.27761073239E+02 -0.21709981638E+02  0.35252960032E+02  0.00000000000E+00 0.  1.
          1    1    1    2  501    0  0.78357504875E+02  0.37240351133E+02  0.29639144853E+03  0.30882783729E+03  0.00000000000E+00 0. -1.
<scales pt_clust_5="13000.00000" pt_clust_6="13000.00000" pt_clust_7="13000.00000" pt_clust_8="13000.00000" pt_clust_9="27.77495" pt_clust_10="88.93872"></scales>
<clustering>
<clus scale="   27.775">  2  9  1 -1</clus>
<clus scale="   81.497">  7  8 -1 -1</clus>
<clus scale="   83.291">  5  6 -1 -1</clus>
<clus scale="   88.939">  2 10  1 -1</clus>
<clus scale="  152.253">  2  7  1 -1</clus>
<clus scale="   27.775">  2  5  1 -1</clus>
</clustering>
</event>
<event>
10    4  0.7697601E-005  0.2170912E+03  0.7546771E-02  0.1158445E+00
          2   -1    0    0  502    0 -0.00000000000E+00  0.00000000000E+00  0.40085266426E+03  0.40085266426E+03  0.00000000000E+00 0. -1.
         21   -1    0    0  503  502  0.00000000000E+00 -0.00000000000E+00 -0.32060657879E+03  0.32060657879E+03  0.00000000000E+00 0. -1.
         24    2    1    2    0    0 -0.10146713200E+03 -0.12890188152E+02  0.17359644063E+03  0.21715705413E+03  0.80992136232E+02 0.  0.
         23    2    1    2    0    0  0.12770558888E+03 -0.19233045047E+03  0.16674739525E+01  0.24815223389E+03  0.90978190268E+02 0.  0.
        -11    1    3    3    0    0 -0.37661943417E+02  0.34408377247E+02  0.70114593595E+02  0.86708792182E+02  0.00000000000E+00 0.  1.
         12    1    3    3    0    0 -0.63805188582E+02 -0.47298565400E+02  0.10348184704E+03  0.13044826195E+03  0.00000000000E+00 0. -1.
        -13    1    4    4    0    0  0.29268112861E+02 -0.23547187031E+02  0.33321385009E+02  0.50213615150E+02  0.00000000000E+00 0.  1.
         13    1    4    4    0    0  0.98437476019E+02 -0.16878326344E+03 -0.31653911057E+02  0.19793861874E+03  0.00000000000E+00 0. -1.
         21    1    1    2  503  501  0.42467621961E+02  0.46226650445E+02 -0.39931349146E+02  0.74397007810E+02  0.00000000000E+00 0. -1.
          1    1    1    2  501    0 -0.68706078842E+02  0.15899398818E+03 -0.55086479966E+02  0.18175294722E+03  0.00000000000E+00 0. -1.
<scales pt_clust_5="13000.00000" pt_clust_6="13000.00000" pt_clust_7="13000.00000" pt_clust_8="13000.00000" pt_clust_9="62.77262" pt_clust_10="197.10803"></scales>
<clustering>
<clus scale="   62.773">  2  9  1 -1</clus>
<clus scale="   80.992">  5  6 -1 -1</clus>
<clus scale="   90.978">  7  8 -1 -1</clus>
<clus scale="  127.426">  1  5  2 -1</clus>
<clus scale="  197.108">  2 10  1 -1</clus>
<clus scale="   62.773">  2  5  1 -1</clus>
</clustering>
</event>
<event>
10    4  0.7697601E-005  0.1831421E+03  0.7546771E-02  0.1166079E+00
         21   -1    0    0  503  502  0.00000000000E+00  0.00000000000E+00  0.94671571836E+02  0.94671571836E+02  0.00000000000E+00 0. -1.
          2   -1    0    0  502    0 -0.00000000000E+00 -0.00000000000E+00 -0.92489955809E+03  0.92489955809E+03  0.00000000000E+00 0. -1.
         24    2    1    2    0    0  0.35007025696E+02 -0.15404729350E+03 -0.58632371740E+03  0.61261318998E+03  0.81014557183E+02 0.  0.
         23    2    1    2    0    0 -0.11008482180E+03  0.13538423059E+03 -0.93077905347E+02  0.21817704502E+03  0.92142111025E+02 0.  0.
        -13    1    3    3    0    0  0.35946936205E+02 -0.86013083128E+02 -0.45774753457E+03  0.46714370177E+03  0.00000000000E+00 0.  1.
         14    1    3    3    0    0 -0.93991050938E+00 -0.68034210368E+02 -0.12857618282E+03  0.14546948821E+03  0.00000000000E+00 0. -1.
        -13    1    4    4    0    0 -0.33767301036E+02  0.79928848455E+02 -0.88180516481E+02  0.12371198374E+03  0.00000000000E+00 0.  1.
         13    1    4    4    0    0 -0.76317520766E+02  0.55455382136E+02 -0.48973888658E+01  0.94465061274E+02  0.00000000000E+00 0. -1.
         21    1    1    2  503  501  0.67837277872E+01 -0.22081583261E+02 -0.65031942590E+01  0.23998058621E+02  0.00000000000E+00 0. -1.
          1    1    1    2  501    0  0.68294068319E+02  0.40744646165E+02 -0.14432316925E+03  0.16478283631E+03  0.00000000000E+00 0. -1.
<scales pt_clust_5="13000.00000" pt_clust_6="13000.00000" pt_clust_7="13000.00000" pt_clust_8="13000.00000" pt_clust_9="23.10011" pt_clust_10="78.91679"></scales>
<clustering>
<clus scale="   23.100">  1  9  2 -1</clus>
<clus scale="   78.917">  1 10  2 -1</clus>
<clus scale="   81.015">  5  6 -1 -1</clus>
<clus scale="   92.142">  7  8 -1 -1</clus>
<clus scale="  177.804">  2  5  1 -1</clus>
<clus scale="   23.100">  1  5  2 -1</clus>
</clustering>
</event>
<event>
10    4  0.7697601E-005  0.1208847E+03  0.7546771E-02  0.1259231E+00
          2   -1    0    0  502    0 -0.00000000000E+00  0.00000000000E+00  0.36547664657E+02  0.36547664657E+02  0.00000000000E+00 0. -1.
         21   -1    0    0  503  502  0.00000000000E+00 -0.00000000000E+00 -0.65511682949E+03  0.65511682949E+03  0.00000000000E+00 0. -1.
         24    2    1    2    0    0  0.10318845660E+02 -0.18999537948E+02 -0.11838020381E+03  0.14578909348E+03  0.82299004287E+02 0.  0.
         23    2    1    2    0    0 -0.27928898685E+02 -0.62877392624E+02 -0.18923844717E+03  0.22119555852E+03  0.91557060550E+02 0.  0.
        -13    1    3    3    0    0 -0.79129368843E+01  0.23391236425E+02 -0.85848898682E+02  0.89329714634E+02  0.00000000000E+00 0.  1.
         14    1    3    3    0    0  0.18231782544E+02 -0.42390774373E+02 -0.32531305124E+02  0.56459378846E+02  0.00000000000E+00 0. -1.
        -11    1    4    4    0    0  0.32929580525E+02 -0.19047685766E+02 -0.47673982856E+02  0.60991640804E+02  0.00000000000E+00 0.  1.
         11    1    4    4    0    0 -0.60858479209E+02 -0.43829706858E+02 -0.14156446432E+03  0.16020391772E+03  0.00000000000E+00 0. -1.
         21    1    1    2  503  501  0.26730411452E+02  0.53235502383E+02 -0.24602167764E+03  0.25313079520E+03  0.00000000000E+00 0. -1.
          1    1    1    2  501    0 -0.91203584267E+01  0.28641428190E+02 -0.64928836220E+02  0.71549046950E+02  0.00000000000E+00 0. -1.
<scales pt_clust_5="13000.00000" pt_clust_6="13000.00000" pt_clust_7="13000.00000" pt_clust_8="13000.00000" pt_clust_9="29.39874" pt_clust_10="89.12486"></scales>
<clustering>
<clus scale="   29.399">  9 10 -1 -1</clus>
<clus scale="   82.299">  5  6 -1 -1</clus>
<clus scale="   85.092">  1  5  2 -1</clus>
<clus scale="   89.125">  2  9  1 -1</clus>
<clus scale="   91.557">  7  8 -1 -1</clus>
<clus scale="   89.125">  2  5  1 -1</clus>
</clustering>
</event>
<event>
10    4  0.7697601E-005  0.6828426E+03  0.7546771E-02  0.1026548E+00
          2   -1    0    0  503    0 -0.00000000000E+00  0.00000000000E+00  0.16405385510E+04  0.16405385510E+04  0.00000000000E+00 0. -1.
         21   -1    0    0  501  502  0.00000000000E+00 -0.00000000000E+00 -0.55390401252E+03  0.55390401252E+03  0.00000000000E+00 0. -1.
         23    2    1    2    0    0 -0.65089557591E+02  0.72852014455E+02  0.80672610130E+02  0.15588274645E+03  0.90814613899E+02 0.  0.
         24    2    1    2    0    0  0.55575554641E+02 -0.17170452554E+03  0.56732960472E+03  0.60044472798E+03  0.78101886007E+02 0.  0.
        -11    1    4    4    0    0  0.36230787251E+02 -0.16064938724E+02  0.12505121592E+03  0.13118139656E+03  0.00000000000E+00 0.  1.
         12    1    4    4    0    0  0.19344767390E+02 -0.15563958682E+03  0.44227838880E+03  0.46926333142E+03  0.00000000000E+00 0. -1.
        -13    1    3    3    0    0  0.19277307071E+02  0.14900671886E+02  0.37670711637E+02  0.44863427263E+02  0.00000000000E+00 0.  1.
         13    1    3    3    0    0 -0.84366864662E+02  0.57951342569E+02  0.43001898494E+02  0.11101931919E+03  0.00000000000E+00 0. -1.
         21    1    1    2  503  502 -0.65324877632E+03 -0.13166847932E+03  0.24724936561E+03  0.71077619614E+03  0.00000000000E+00 0. -1.
          1    1    1    2  501    0  0.66276277927E+03  0.23052099040E+03  0.19138295804E+03  0.72733889297E+03  0.00000000000E+00 0. -1.
<scales pt_clust_5="13000.00000" pt_clust_6="13000.00000" pt_clust_7="13000.00000" pt_clust_8="13000.00000" pt_clust_9="13000.00000" pt_clust_10="682.84259"></scales>
<clustering>
<clus scale="   78.102">  5  6 -1 -1</clus>
<clus scale="   90.815">  7  8 -1 -1</clus>
<clus scale="  133.384">  1  7  2 -1</clus>
<clus scale="  166.445">  1  5  2 -1</clus>
<clus scale="  682.843">  2 10  1 -1</clus>
<clus scale="  682.843">  2  5  1 -1</clus>
</clustering>
</event>
<event>
10    4  0.7697601E-005  0.1503346E+03  0.7546771E-02  0.1202094E+00
         21   -1    0    0  501  502  0.00000000000E+00  0.00000000000E+00  0.10174381366E+03  0.10174381366E+03  0.00000000000E+00 0. -1.
          2   -1    0    0  503    0 -0.00000000000E+00 -0.00000000000E+00 -0.52544935358E+03  0.52544935358E+03  0.00000000000E+00 0. -1.
         24    2    1    2    0    0 -0.11293906178E+03  0.71995298055E+02 -0.27861144397E+03  0.31910180536E+03  0.79139565672E+02 0.  0.
         23    2    1    2    0    0  0.21415535655E+02 -0.11517751630E+03 -0.77331542508E+02  0.16695283952E+03  0.90380295025E+02 0.  0.
        -13    1    3    3    0    0 -0.75718636036E+02  0.53751491681E+01 -0.17187005922E+03  0.18788699084E+03  0.00000000000E+00 0.  1.
         14    1    3    3    0    0 -0.37220425744E+02  0.66620148887E+02 -0.10674138475E+03  0.13121481452E+03  0.00000000000E+00 0. -1.
        -13    1    4    4    0    0 -0.29210807506E+02 -0.33681384573E+02 -0.50429767427E+02  0.67311725462E+02  0.00000000000E+00 0.  1.
         13    1    4    4    0    0  0.50626343161E+02 -0.81496131723E+02 -0.26901775080E+02  0.99641114055E+02  0.00000000000E+00 0. -1.
         21    1    1    2  503  502  0.22734703942E+02 -0.17574953065E+02 -0.31730416695E+01  0.28910446763E+02  0.00000000000E+00 0. -1.
          1    1    1    2  501    0  0.68788822183E+02  0.60757171306E+02 -0.64589511767E+02  0.11222807560E+03  0.00000000000E+00 0. -1.
<scales pt_clust_5="13000.00000" pt_clust_6="13000.00000" pt_clust_7="13000.00000" pt_clust_8="13000.00000" pt_clust_9="28.73579" pt_clust_10="93.53374"></scales>
<clustering>
<clus scale="   28.736">  1  9  2 -1</clus>
<clus scale="   79.140">  5  6 -1 -1</clus>
<clus scale="   90.380">  7  8 -1 -1</clus>
<clus scale="   93.534">  1 10  2 -1</clus>
<clus scale="  143.857">  2  5  1 -1</clus>
<clus scale="   28.736">  1  5  2 -1</clus>
</clustering>
</event>
<event>
10    4  0.7697601E-005  0.1625179E+03  0.7546771E-02  0.1213213E+00
          2   -1    0    0  503    0 -0.00000000000E+00  0.00000000000E+00  0.13324056046E+04  0.13324056046E+04  0.00000000000E+00 0. -1.
         21   -1    0    0  501  502  0.00000000000E+00 -0.00000000000E+00 -0.10902890556E+03  0.10902890556E+03  0.00000000000E+00 0. -1.
         24    2    1    2    0    0 -0.28351955052E+02 -0.29027118425E+02  0.10731620993E+04  0.10769096896E+04  0.80069851635E+02 0.  0.
         23    2    1    2    0    0 -0.86875533524E+02  0.69584505279E+02  0.16389998614E+02  0.15081942087E+03  0.10044154497E+03 0.  0.
        -13    1    3    3    0    0 -0.21702538972E+01 -0.34404673075E+02  0.17571499946E+03  0.17906466030E+03  0.00000000000E+00 0.  1.
         14    1    3    3    0    0 -0.26181701155E+02  0.53775546508E+01  0.89744709983E+03  0.89784502926E+03  0.00000000000E+00 0. -1.
        -11    1    4    4    0    0  0.47460308731E+01  0.20502218205E+02 -0.30286155967E+02  0.36879764149E+02  0.00000000000E+00 0.  1.
         11    1    4    4    0    0 -0.91621564397E+02  0.49082287074E+02  0.46676154581E+02  0.11393965672E+03  0.00000000000E+00 0. -1.
         21    1    1    2  503  502 -0.11530889993E+02  0.19177445695E+02  0.41015971980E+01  0.22749921912E+02  0.00000000000E+00 0.  1.
          1    1    1    2  501    0  0.12675837857E+03 -0.59734832550E+02  0.12972300393E+03  0.19095547781E+03  0.00000000000E+00 0. -1.
<scales pt_clust_5="13000.00000" pt_clust_6="13000.00000" pt_clust_7="13000.00000" pt_clust_8="13000.00000" pt_clust_9="22.37713" pt_clust_10="127.76376"></scales>
<clustering>
<clus scale="   22.377">  2  9  1 -1</clus>
<clus scale="   80.070">  5  6 -1 -1</clus>
<clus scale="   89.717">  1  5  2 -1</clus>
<clus scale="  100.442">  7  8 -1 -1</clus>
<clus scale="  127.764">  2 10  1 -1</clus>
<clus scale="   22.377">  2  5  1 -1</clus>
</clustering>
</event>
<event>
10    4  0.7697601E-005  0.1805570E+03  0.7546771E-02  0.1167823E+00
         21   -1    0    0  501  502  0.00000000000E+00  0.00000000000E+00  0.10210553854E+03  0.10210553854E+03  0.00000000000E+00 0. -1.
          2   -1    0    0  503    0 -0.00000000000E+00 -0.00000000000E+00 -0.86532332312E+03  0.86532332312E+03  0.00000000000E+00 0. -1.
         24    2    1    2    0    0  0.54932422031E+02  0.11383065667E+03 -0.13256992543E+03  0.20066741250E+03  0.81961185480E+02 0.  0.
         23    2    1    2    0    0 -0.10457196316E+03 -0.18112163994E+03 -0.21448503014E+03  0.30925165416E+03  0.76762057768E+02 0.  0.
        -13    1    3    3    0    0  0.12492797060E+02  0.10669444904E+03 -0.90125873482E+02  0.14022285301E+03  0.00000000000E+00 0.  1.
         14    1    3    3    0    0  0.42439624971E+02  0.71362076248E+01 -0.42444051946E+02  0.60444559495E+02  0.00000000000E+00 0. -1.
        -11    1    4    4    0    0 -0.67445408229E+02 -0.58137156188E+02 -0.55796948397E+02  0.10508145160E+03  0.00000000000E+00 0.  1.
         11    1    4    4    0    0 -0.37126554936E+02 -0.12298448375E+03 -0.15868808174E+03  0.20417020255E+03  0.00000000000E+00 0. -1.
         21    1    1    2  503  502 -0.16561112753E+02  0.75487101490E+02 -0.67768344769E+02  0.10278677687E+03  0.00000000000E+00 0. -1.
          1    1    1    2  501    0  0.66200653887E+02 -0.81961182226E+01 -0.34839448425E+03  0.35472301812E+03  0.00000000000E+00 0. -1.
<scales pt_clust_5="13000.00000" pt_clust_6="13000.00000" pt_clust_7="13000.00000" pt_clust_8="13000.00000" pt_clust_9="74.19509" pt_clust_10="66.70613"></scales>
<clustering>
<clus scale="   66.706">  1 10  2 -1</clus>
<clus scale="   74.195">  1  9  2 -1</clus>
<clus scale="   76.762">  7  8 -1 -1</clus>
<clus scale="   81.961">  5  6 -1 -1</clus>
<clus scale="  178.257">  1  7  2 -1</clus>
<clus scale="   66.706">  1  5  2 -1</clus>
</clustering>
</event>
<event>
10    4  0.7697601E-005  0.9868361E+02  0.7546771E-02  0.1289972E+00
         21   -1    0    0  503  502  0.00000000000E+00  0.00000000000E+00  0.84104327912E+02  0.84104327912E+02  0.00000000000E+00 0. -1.
          2   -1    0    0  502    0 -0.00000000000E+00 -0.00000000000E+00 -0.47053349811E+03  0.47053349811E+03  0.00000000000E+00 0. -1.
         23    2    1    2    0    0 -0.21010217229E+02  0.25257197838E+02 -0.29416073487E+03  0.31030565768E+03  0.93164950376E+02 0.  0.
         24    2    1    2    0    0 -0.61729824906E+02 -0.62976830659E+02 -0.56232226429E+02  0.13188787310E+03  0.80347341583E+02 0.  0.
        -13    1    4    4    0    0 -0.34625511434E+02  0.13674330866E+01 -0.51282632083E+02  0.61892683482E+02  0.00000000000E+00 0.  1.
         14    1    4    4    0    0 -0.27104313473E+02 -0.64344263746E+02 -0.49495943467E+01  0.69995189621E+02  0.00000000000E+00 0. -1.
        -11    1    3    3    0    0  0.34069953542E+02 -0.41887909758E+01 -0.76239777417E+02  0.83611072023E+02  0.00000000000E+00 0.  1.
         11    1    3    3    0    0 -0.55080170771E+02  0.29445988814E+02 -0.21792095745E+03  0.22669458566E+03  0.00000000000E+00 0. -1.
         21    1    1    2  503  501  0.31218695957E+02  0.35611174608E+02  0.34711786881E+01  0.47484858805E+02  0.00000000000E+00 0.  1.
          1    1    1    2  501    0  0.51521346177E+02  0.21084582132E+01 -0.39507387587E+02  0.64959436435E+02  0.00000000000E+00 0. -1.
<scales pt_clust_5="13000.00000" pt_clust_6="13000.00000" pt_clust_7="13000.00000" pt_clust_8="13000.00000" pt_clust_9="47.35782" pt_clust_10="59.12236"></scales>
<clustering>
<clus scale="   47.358">  1  9  2 -1</clus>
<clus scale="   59.122">  1 10  2 -1</clus>
<clus scale="   80.347">  5  6 -1 -1</clus>
<clus scale="   86.686">  1  5  2 -1</clus>
<clus scale="   93.165">  7  8 -1 -1</clus>
<clus scale="   47.358">  1  5  2 -1</clus>
</clustering>
</event>
<event>
10    4  0.7697601E-005  0.2235611E+03  0.7546771E-02  0.1170590E+00
         21   -1    0    0  501  502  0.00000000000E+00  0.00000000000E+00  0.13527571700E+03  0.13527571700E+03  0.00000000000E+00 0. -1.
          2   -1    0    0  503    0 -0.00000000000E+00 -0.00000000000E+00 -0.23946064617E+04  0.23946064617E+04  0.00000000000E+00 0. -1.
         24    2    1    2    0    0 -0.27758863810E+02 -0.27240597080E+02 -0.12823527746E+04  0.12853817330E+04  0.79151477274E+02 0.  0.
         23    2    1    2    0    0  0.13021120765E+03 -0.17611799652E+03 -0.94883642386E+03  0.97801027076E+03  0.90780081330E+02 0.  0.
        -11    1    3    3    0    0  0.18916403475E+02 -0.79260782556E+01 -0.10723362411E+03  0.10917739315E+03  0.00000000000E+00 0.  1.
         12    1    3    3    0    0 -0.46675267285E+02 -0.19314518824E+02 -0.11751191505E+04  0.11762043399E+04  0.00000000000E+00 0. -1.
        -11    1    4    4    0    0  0.29002490090E+02 -0.10779319240E+03 -0.53562208469E+03  0.54713027185E+03  0.00000000000E+00 0. -1.
         11    1    4    4    0    0  0.10120871756E+03 -0.68324804121E+02 -0.41321433917E+03  0.43087999891E+03  0.00000000000E+00 0.  1.
         21    1    1    2  503  502 -0.13769813560E+02  0.20465794834E+02 -0.56131832415E+02  0.61312634374E+02  0.00000000000E+00 0.  1.
          1    1    1    2  501    0 -0.88682530282E+02  0.18289279876E+03  0.27990286208E+02  0.20517754053E+03  0.00000000000E+00 0. -1.
<scales pt_clust_5="13000.00000" pt_clust_6="13000.00000" pt_clust_7="13000.00000" pt_clust_8="13000.00000" pt_clust_9="24.66691" pt_clust_10="204.30008"></scales>
<clustering>
<clus scale="   24.667">  2  9  1 -1</clus>
<clus scale="   79.151">  5  6 -1 -1</clus>
<clus scale="   88.140">  2  5  1 -1</clus>
<clus scale="   90.780">  7  8 -1 -1</clus>
<clus scale="  204.300">  1 10  2 -1</clus>
<clus scale="  204.300">  1  5  2 -1</clus>
</clustering>
</event>
<event>
10    4  0.7697601E-005  0.2148771E+03  0.7546771E-02  0.1138719E+00
         21   -1    0    0  501  502  0.00000000000E+00  0.00000000000E+00  0.25917539465E+03  0.25917539465E+03  0.00000000000E+00 0. -1.
          2   -1    0    0  503    0 -0.00000000000E+00 -0.00000000000E+00 -0.35909443415E+03  0.35909443415E+03  0.00000000000E+00 0. -1.
         24    2    1    2    0    0  0.18406679697E+03 -0.38160626253E+02 -0.14187369865E+03  0.24849659098E+03  0.79281714249E+02 0.  0.
         23    2    1    2    0    0 -0.19768000996E+03  0.54349763320E+02 -0.60745377617E+02  0.23259213019E+03  0.91530404873E+02 0.  0.
        -11    1    3    3    0    0  0.17807553244E+02 -0.26495447708E+02 -0.39621110488E+01  0.32168556476E+02  0.00000000000E+00 0.  1.
         12    1    3    3    0    0  0.16625924373E+03 -0.11665178544E+02 -0.13791158760E+03  0.21632803450E+03  0.00000000000E+00 0. -1.
        -11    1    4    4    0    0 -0.79816454175E+02  0.29910403930E+02  0.20121952762E+02  0.87579630071E+02  0.00000000000E+00 0.  1.
         11    1    4    4    0    0 -0.11786355578E+03  0.24439359390E+02 -0.80867330380E+02  0.14501250012E+03  0.00000000000E+00 0. -1.
         21    1    1    2  503  502 -0.20475511050E+02 -0.41186188269E+02  0.69905612234E+02  0.83680005251E+02  0.00000000000E+00 0.  1.
          1    1    1    2  501    0  0.34088724032E+02  0.24997051202E+02  0.32794424531E+02  0.53501102375E+02  0.00000000000E+00 0. -1.
<scales pt_clust_5="13000.00000" pt_clust_6="13000.00000" pt_clust_7="13000.00000" pt_clust_8="13000.00000" pt_clust_9="33.36409" pt_clust_10="42.27167"></scales>
<clustering>
<clus scale="   42.272">  1 10  2 -1</clus>
<clus scale="   33.364">  1  9  2 -1</clus>
<clus scale="   79.282">  5  6 -1 -1</clus>
<clus scale="   91.530">  7  8 -1 -1</clus>
<clus scale="  209.952">  2  5  1 -1</clus>
<clus scale="   42.272">  1  5  2 -1</clus>
</clustering>
</event>
<event>
10    4  0.7697601E-005  0.1058201E+03  0.7546771E-02  0.1271828E+00
          2   -1    0    0  502    0 -0.00000000000E+00  0.00000000000E+00  0.58707928173E+03  0.58707928173E+03  0.00000000000E+00 0. -1.
         21   -1    0    0  503  502  0.00000000000E+00 -0.00000000000E+00 -0.12013202229E+03  0.12013202229E+03  0.00000000000E+00 0. -1.
         24    2    1    2    0    0  0.42251750945E+02  0.38357494990E+02  0.32320276116E+03  0.33846655843E+03  0.82722901761E+02 0.  0.
         23    2    1    2    0    0  0.76381929231E+01 -0.46797101188E+02 -0.68626809067E+02  0.12307952669E+03  0.90502045810E+02 0.  0.
        -11    1    3    3    0    0  0.59795496729E+02  0.25349521418E+02  0.29854289939E+03  0.30552571486E+03  0.00000000000E+00 0.  1.
         12    1    3    3    0    0 -0.17543745784E+02  0.13007973572E+02  0.24659861763E+02  0.32940843564E+02  0.00000000000E+00 0. -1.
        -11    1    4    4    0    0  0.32999387397E+02 -0.63667459731E+02 -0.48210022828E+02  0.86410134234E+02  0.00000000000E+00 0. -1.
         11    1    4    4    0    0 -0.25361194474E+02  0.16870358543E+02 -0.20416786239E+02  0.36669392452E+02  0.00000000000E+00 0.  1.
         21    1    1    2  503  501 -0.20554728617E+02 -0.13358006846E+02 -0.51885404485E+01  0.25057018326E+02  0.00000000000E+00 0. -1.
          1    1    1    2  501    0 -0.29335215251E+02  0.21797613045E+02  0.21755984780E+03  0.22060820058E+03  0.00000000000E+00 0. -1.
<scales pt_clust_5="13000.00000" pt_clust_6="13000.00000" pt_clust_7="13000.00000" pt_clust_8="13000.00000" pt_clust_9="24.51394" pt_clust_10="36.67247"></scales>
<clustering>
<clus scale="   24.514">  2  9  1 -1</clus>
<clus scale="   36.672">  2 10  1 -1</clus>
<clus scale="   82.723">  5  6 -1 -1</clus>
<clus scale="   90.502">  7  8 -1 -1</clus>
<clus scale="   99.249">  1  5  2 -1</clus>
<clus scale="   24.514">  2  5  1 -1</clus>
</clustering>
</event>
<event>
10    4  0.7697601E-005  0.1251238E+03  0.7546771E-02  0.1246560E+00
         21   -1    0    0  501  502  0.00000000000E+00  0.00000000000E+00  0.33858148352E+02  0.33858148352E+02  0.00000000000E+00 0. -1.
          2   -1    0    0  503    0 -0.00000000000E+00 -0.00000000000E+00 -0.15578395307E+04  0.15578395307E+04  0.00000000000E+00 0. -1.
         24    2    1    2    0    0 -0.20374315320E+02  0.60959127179E+02 -0.47792028022E+03  0.48920992037E+03  0.82385824209E+02 0.  0.
         23    2    1    2    0    0 -0.52769241744E+02 -0.21396742080E+02 -0.23066823007E+03  0.25496102112E+03  0.92492575264E+02 0.  0.
        -13    1    3    3    0    0  0.19584415818E+02 -0.77079956693E+01 -0.54945254079E+02  0.58838282486E+02  0.00000000000E+00 0.  1.
         14    1    3    3    0    0 -0.39958731138E+02  0.68667122848E+02 -0.42297502614E+03  0.43037163789E+03  0.00000000000E+00 0. -1.
        -13    1    4    4    0    0 -0.17785590280E+02  0.29842565296E+02 -0.33498798000E+02  0.48260495154E+02  0.00000000000E+00 0. -1.
         13    1    4    4    0    0 -0.34983651465E+02 -0.51239307377E+02 -0.19716943207E+03  0.20670052596E+03  0.00000000000E+00 0.  1.
         21    1    1    2  503  502 -0.59216523468E+02 -0.72886992299E+02 -0.36662546117E+03  0.37846180663E+03  0.00000000000E+00 0. -1.
          1    1    1    2  501    0  0.13236008053E+03  0.33324607201E+02 -0.44876741091E+03  0.46906493096E+03  0.00000000000E+00 0. -1.
<scales pt_clust_5="13000.00000" pt_clust_6="13000.00000" pt_clust_7="13000.00000" pt_clust_8="13000.00000" pt_clust_9="93.91012" pt_clust_10="84.26799"></scales>
<clustering>
<clus scale="   82.386">  5  6 -1 -1</clus>
<clus scale="   92.493">  7  8 -1 -1</clus>
<clus scale="   93.910">  2  9  1 -1</clus>
<clus scale="   98.719">  2  5  1 -1</clus>
<clus scale="   84.268">  1 10  2 -1</clus>
<clus scale="   84.268">  1  5  2 -1</clus>
</clustering>
</event>
<event>
10    4  0.7697601E-005  0.1062427E+03  0.7546771E-02  0.1269583E+00
         21   -1    0    0  501  502  0.00000000000E+00  0.00000000000E+00  0.81217759450E+02  0.81217759450E+02  0.00000000000E+00 0.  1.
          2   -1    0    0  503    0 -0.00000000000E+00 -0.00000000000E+00 -0.74008593817E+03  0.74008593817E+03  0.00000000000E+00 0. -1.
         23    2    1    2    0    0  0.32517066179E+02  0.33763083456E+01 -0.11703346440E+03  0.15144043752E+03  0.90380392102E+02 0.  0.
         24    2    1    2    0    0 -0.98948675689E+02  0.68020767780E+02 -0.99289773209E+02  0.17789439827E+03  0.85850408286E+02 0.  0.
        -11    1    4    4    0    0 -0.72672744570E+02  0.87723417691E+02 -0.68791423032E+02  0.13307511299E+03  0.00000000000E+00 0.  1.
         12    1    4    4    0    0 -0.26275931119E+02 -0.19702649910E+02 -0.30498350177E+02  0.44819285281E+02  0.00000000000E+00 0. -1.
        -13    1    3    3    0    0  0.46739852994E+02  0.19848908220E+02 -0.11920409125E+03  0.12956931884E+03  0.00000000000E+00 0.  1.
         13    1    3    3    0    0 -0.14222786815E+02 -0.16472599874E+02  0.21706268458E+01  0.21871118680E+02  0.00000000000E+00 0. -1.
         21    1    1    2  503  502  0.26577114021E+02  0.19561713719E+02  0.51434634363E+01  0.33398485735E+02  0.00000000000E+00 0.  1.
          1    1    1    2  501    0  0.39854495489E+02 -0.90958789845E+02 -0.44768840455E+03  0.45857037609E+03  0.00000000000E+00 0. -1.
<scales pt_clust_5="13000.00000" pt_clust_6="13000.00000" pt_clust_7="13000.00000" pt_clust_8="13000.00000" pt_clust_9="33.00006" pt_clust_10="98.71067"></scales>
<clustering>
<clus scale="   33.000">  1  9  2 -1</clus>
<clus scale="   85.850">  5  6 -1 -1</clus>
<clus scale="   90.380">  7  8 -1 -1</clus>
<clus scale="   98.711">  1 10  2 -1</clus>
<clus scale="  102.417">  1  5  2 -1</clus>
<clus scale="   33.000">  1  5  2 -1</clus>
</clustering>
</event>
<event>
10    4  0.7697601E-005  0.3228325E+03  0.7546771E-02  0.1096640E+00
         21   -1    0    0  501  502  0.00000000000E+00  0.00000000000E+00  0.99017681167E+03  0.99017681167E+03  0.00000000000E+00 0. -1.
          2   -1    0    0  503    0 -0.00000000000E+00 -0.00000000000E+00 -0.69772269239E+03  0.69772269239E+03  0.00000000000E+00 0. -1.
         24    2    1    2    0    0 -0.24429150991E+03 -0.20949961723E+03 -0.54520777002E+03  0.63791066652E+03  0.78166965794E+02 0.  0.
         23    2    1    2    0    0  0.98140291451E+01  0.16121876705E+03  0.47866251722E+02  0.19125046617E+03  0.90541464208E+02 0.  0.
        -13    1    3    3    0    0 -0.90861565793E+02 -0.11593022506E+03 -0.19603009009E+03  0.24520081044E+03  0.00000000000E+00 0.  1.
         14    1    3    3    0    0 -0.15342994411E+03 -0.93569392172E+02 -0.34917767993E+03  0.39270985608E+03  0.00000000000E+00 0. -1.
        -11    1    4    4    0    0  0.47945589014E+02  0.11528277242E+03  0.39573332003E+02  0.13097689006E+03  0.00000000000E+00 0. -1.
         11    1    4    4    0    0 -0.38131559869E+02  0.45935994624E+02  0.82929197186E+01  0.60273576114E+02  0.00000000000E+00 0.  1.
         21    1    1    2  503  502  0.14677638580E+03  0.11478231106E+03  0.67273171302E+03  0.69805891160E+03  0.00000000000E+00 0. -1.
          1    1    1    2  501    0  0.87701094957E+02 -0.66501460880E+02  0.11706392456E+03  0.16067945976E+03  0.00000000000E+00 0. -1.
<scales pt_clust_5="13000.00000" pt_clust_6="13000.00000" pt_clust_7="13000.00000" pt_clust_8="13000.00000" pt_clust_9="313.22635" pt_clust_10="110.06328"></scales>
<clustering>
<clus scale="   78.167">  5  6 -1 -1</clus>
<clus scale="   90.541">  7  8 -1 -1</clus>
<clus scale="  110.063">  1 10  2 -1</clus>
<clus scale="  178.199">  1  7  2 -1</clus>
<clus scale="  313.226">  1  9  2 -1</clus>
<clus scale="  110.063">  1  5  2 -1</clus>
</clustering>
</event>
<event>
10    4  0.7697601E-005  0.3525954E+03  0.7546771E-02  0.1092400E+00
         21   -1    0    0  503  502  0.00000000000E+00  0.00000000000E+00  0.55611867421E+03  0.55611867421E+03  0.00000000000E+00 0.  1.
          2   -1    0    0  502    0 -0.00000000000E+00 -0.00000000000E+00 -0.13677672987E+04  0.13677672987E+04  0.00000000000E+00 0. -1.
         23    2    1    2    0    0  0.11188979065E+03 -0.48510786063E+02 -0.55644325450E+03  0.57705637860E+03  0.92153930925E+02 0.  0.
         24    2    1    2    0    0  0.21764064915E+03  0.71730772529E+02 -0.17625176406E+03  0.29967087911E+03  0.78899908494E+02 0.  0.
        -11    1    4    4    0    0  0.11734802379E+03  0.79010398415E+02 -0.11073972130E+03  0.17965658245E+03  0.00000000000E+00 0.  1.
         12    1    4    4    0    0  0.10029262536E+03 -0.72796258865E+01 -0.65512042762E+02  0.12001429665E+03  0.00000000000E+00 0. -1.
        -13    1    3    3    0    0  0.90151858345E+02 -0.68563277986E+02 -0.50653789718E+03  0.51904616551E+03  0.00000000000E+00 0.  1.
         13    1    3    3    0    0  0.21737932305E+02  0.20052491923E+02 -0.49905357325E+02  0.58010213092E+02  0.00000000000E+00 0. -1.
         21    1    1    2  503  501  0.15610918076E+03  0.13688678932E+03  0.33170274454E+03  0.39132439247E+03  0.00000000000E+00 0.  1.
          1    1    1    2  501    0 -0.48563962056E+03 -0.16010677579E+03 -0.41065635048E+03  0.65583432275E+03  0.00000000000E+00 0. -1.
<scales pt_clust_5="13000.00000" pt_clust_6="13000.00000" pt_clust_7="13000.00000" pt_clust_8="13000.00000" pt_clust_9="209.60561" pt_clust_10="343.65433"></scales>
<clustering>
<clus scale="   78.900">  5  6 -1 -1</clus>
<clus scale="   92.154">  7  8 -1 -1</clus>
<clus scale="  152.856">  2  7  1 -1</clus>
<clus scale="  209.606">  1  9  2 -1</clus>
<clus scale="  343.654">  1 10  2 -1</clus>
<clus scale="  209.606">  1  5  2 -1</clus>
</clustering>
</event>
<event>
10    4  0.7697601E-005  0.2796090E+03  0.7546771E-02  0.1096375E+00
         21   -1    0    0  503  502  0.00000000000E+00  0.00000000000E+00  0.21229849799E+03  0.21229849799E+03  0.00000000000E+00 0. -1.
          4   -1    0    0  502    0 -0.00000000000E+00 -0.00000000000E+00 -0.65471927658E+03  0.65471927658E+03  0.00000000000E+00 0. -1.
         24    2    1    2    0    0  0.18280474164E+03 -0.22617469141E+03 -0.40315931639E+03  0.50357767778E+03  0.80501419652E+02 0.  0.
         23    2    1    2    0    0 -0.13879101103E+03  0.13338845380E+03  0.54881908544E+02  0.22011940523E+03  0.91570215276E+02 0.  0.
        -13    1    3    3    0    0  0.16551338570E+02 -0.23022171196E+02 -0.85255325538E+01  0.29608307624E+02  0.00000000000E+00 0.  1.
         14    1    3    3    0    0  0.16625340307E+03 -0.20315252021E+03 -0.39463378383E+03  0.47396937016E+03  0.00000000000E+00 0. -1.
        -13    1    4    4    0    0 -0.13226881929E+03  0.10684380869E+03  0.75342036067E+02  0.18597597267E+03  0.00000000000E+00 0. -1.
         13    1    4    4    0    0 -0.65221917396E+01  0.26544645106E+02 -0.20460127523E+02  0.34143432562E+02  0.00000000000E+00 0.  1.
         21    1    1    2  503  501 -0.23997099913E+01  0.30562575600E+02 -0.14148910280E+02  0.33764201419E+02  0.00000000000E+00 0.  1.
          3    1    1    2  501    0 -0.41614020621E+02  0.62223662012E+02 -0.79994460459E+02  0.10955649013E+03  0.00000000000E+00 0. -1.
<scales pt_clust_5="13000.00000" pt_clust_6="13000.00000" pt_clust_7="13000.00000" pt_clust_8="13000.00000" pt_clust_9="21.52515" pt_clust_10="108.06414"></scales>
<clustering>
<clus scale="   21.525">  9 10 -1 -1</clus>
<clus scale="   80.501">  5  6 -1 -1</clus>
<clus scale="   91.570">  7  8 -1 -1</clus>
<clus scale="  108.064">  1  9  2 -1</clus>
<clus scale="  276.182">  2  5  1 -1</clus>
<clus scale="  108.064">  1  5  2 -1</clus>
</clustering>
</event>
<event>
10    4  0.7697601E-005  0.2358778E+03  0.7546771E-02  0.1130808E+00
         21   -1    0    0  501  502  0.00000000000E+00  0.00000000000E+00  0.29887043654E+03  0.29887043654E+03  0.00000000000E+00 0. -1.
          2   -1    0    0  503    0 -0.00000000000E+00 -0.00000000000E+00 -0.77347612345E+03  0.77347612345E+03  0.00000000000E+00 0. -1.
         24    2    1    2    0    0 -0.24762375518E+02  0.17818441717E+03 -0.20436632000E+03  0.28390979834E+03  0.80475580641E+02 0.  0.
         23    2    1    2    0    0 -0.18784104407E+03 -0.49671309941E+02 -0.55368850578E+02  0.21979591819E+03  0.86562342698E+02 0.  0.
        -13    1    3    3    0    0  0.28245490704E+02  0.47943510755E+02 -0.46661834380E+02  0.72620346710E+02  0.00000000000E+00 0.  1.
         14    1    3    3    0    0 -0.53007866222E+02  0.13024090641E+03 -0.15770448562E+03  0.21128945163E+03  0.00000000000E+00 0. -1.
        -11    1    4    4    0    0 -0.10134076830E+03 -0.38796125159E+02  0.12611150035E+02  0.10924345176E+03  0.00000000000E+00 0.  1.
         11    1    4    4    0    0 -0.86500275767E+02 -0.10875184782E+02 -0.67980000613E+02  0.11055246644E+03  0.00000000000E+00 0. -1.
         21    1    1    2  503  502 -0.42174654984E+02 -0.29300107851E+02  0.12341829995E+03  0.13367600609E+03  0.00000000000E+00 0. -1.
          1    1    1    2  501    0  0.25477807457E+03 -0.99212999375E+02 -0.33828881627E+03  0.43496483736E+03  0.00000000000E+00 0. -1.
<scales pt_clust_5="13000.00000" pt_clust_6="13000.00000" pt_clust_7="13000.00000" pt_clust_8="13000.00000" pt_clust_9="51.35365" pt_clust_10="219.42052"></scales>
<clustering>
<clus scale="   51.354">  1  9  2 -1</clus>
<clus scale="   80.476">  5  6 -1 -1</clus>
<clus scale="   86.562">  7  8 -1 -1</clus>
<clus scale="  192.438">  2  5  1 -1</clus>
<clus scale="  219.421">  1 10  2 -1</clus>
<clus scale="   51.354">  1  5  2 -1</clus>
</clustering>
</event>
<event>
10    4  0.7697601E-005  0.2302284E+03  0.7546771E-02  0.1162783E+00
          2   -1    0    0  502    0 -0.00000000000E+00  0.00000000000E+00  0.44296747253E+03  0.44296747253E+03  0.00000000000E+00 0. -1.
         21   -1    0    0  503  502  0.00000000000E+00 -0.00000000000E+00 -0.33934919271E+03  0.33934919271E+03  0.00000000000E+00 0.  1.
         24    2    1    2    0    0  0.36119568649E+02  0.43525355041E+02  0.11663230112E+03  0.15237187437E+03  0.80093786672E+02 0.  0.
         23    2    1    2    0    0  0.18835594974E+03  0.13002794662E+03 -0.78104826733E+02  0.25848316082E+03  0.91257601115E+02 0.  0.
        -11    1    3    3    0    0  0.60550873370E+02  0.41554867109E+02  0.90401298342E+02  0.11647149861E+03  0.00000000000E+00 0.  1.
         12    1    3    3    0    0 -0.24431304721E+02  0.19704879320E+01  0.26231002782E+02  0.35900375764E+02  0.00000000000E+00 0. -1.
        -11    1    4    4    0    0  0.10123686653E+03  0.22955580658E+02 -0.58227525052E+02  0.11902229414E+03  0.00000000000E+00 0. -1.
         11    1    4    4    0    0  0.87119083213E+02  0.10707236596E+03 -0.19877301681E+02  0.13946086668E+03  0.00000000000E+00 0.  1.
         21    1    1    2  503  501 -0.58929680187E+02 -0.81860382309E+00 -0.74088232886E+02  0.94670183117E+02  0.00000000000E+00 0.  1.
          1    1    1    2  501    0 -0.16554583821E+03 -0.17273469784E+03  0.13917903832E+03  0.27679144693E+03  0.00000000000E+00 0. -1.
<scales pt_clust_5="13000.00000" pt_clust_6="13000.00000" pt_clust_7="13000.00000" pt_clust_8="13000.00000" pt_clust_9="58.93537" pt_clust_10="211.36990"></scales>
<clustering>
<clus scale="   58.935">  2  9  1 -1</clus>
<clus scale="   80.094">  5  6 -1 -1</clus>
<clus scale="   91.258">  7  8 -1 -1</clus>
<clus scale="   96.581">  1  5  2 -1</clus>
<clus scale="  211.370">  2 10  1 -1</clus>
<clus scale="   58.935">  2  5  1 -1</clus>
</clustering>
</event>
<event>
10    4  0.7697601E-005  0.1110718E+03  0.7546771E-02  0.1268576E+00
          2   -1    0    0  503    0 -0.00000000000E+00  0.00000000000E+00  0.50730061892E+03  0.50730061892E+03  0.00000000000E+00 0. -1.
         21   -1    0    0  501  502  0.00000000000E+00 -0.00000000000E+00 -0.78892203641E+02  0.78892203641E+02  0.00000000000E+00 0.  1.
         23    2    1    2    0    0 -0.71170637526E+01  0.19070784115E+02  0.20315968758E+03  0.22190754067E+03  0.86918068006E+02 0.  0.
         24    2    1    2    0    0  0.75317686744E+01  0.41950768907E+02  0.31262807867E+02  0.96699817109E+02  0.80974668397E+02 0.  0.
        -13    1    4    4    0    0  0.19371275822E+02  0.36566145904E+02 -0.18454824555E+02  0.45309048794E+02  0.00000000000E+00 0.  1.
         14    1    4    4    0    0 -0.11839507148E+02  0.53846230029E+01  0.49717632422E+02  0.51390768315E+02  0.00000000000E+00 0. -1.
        -13    1    3    3    0    0  0.28236097815E+02 -0.20870203563E+02  0.95700487597E+02  0.10193834383E+03  0.00000000000E+00 0. -1.
         13    1    3    3    0    0 -0.35353161568E+02  0.39940987678E+02  0.10745919998E+03  0.11996919684E+03  0.00000000000E+00 0.  1.
         21    1    1    2  503  502 -0.26632036647E+02  0.39133565592E+02 -0.41217525922E+00  0.47337841315E+02  0.00000000000E+00 0. -1.
          1    1    1    2  501    0  0.26217331725E+02 -0.10015511861E+03  0.19439809509E+03  0.22024762347E+03  0.00000000000E+00 0. -1.
<scales pt_clust_5="13000.00000" pt_clust_6="13000.00000" pt_clust_7="13000.00000" pt_clust_8="13000.00000" pt_clust_9="47.33605" pt_clust_10="76.02662"></scales>
<clustering>
<clus scale="   47.336">  2  9  1 -1</clus>
<clus scale="   80.975">  5  6 -1 -1</clus>
<clus scale="   86.918">  7  8 -1 -1</clus>
<clus scale="   91.395">  1  7  2 -1</clus>
<clus scale="   76.027">  2 10  1 -1</clus>
<clus scale="   47.336">  2  5  1 -1</clus>
</clustering>
</event>
<event>
10    4  0.7697601E-005  0.1449255E+03  0.7546771E-02  0.1221710E+00
         21   -1    0    0  501  502  0.00000000000E+00  0.00000000000E+00  0.38757997436E+03  0.38757997436E+03  0.00000000000E+00 0. -1.
          2   -1    0    0  503    0 -0.00000000000E+00 -0.00000000000E+00 -0.47442445641E+03  0.47442445641E+03  0.00000000000E+00 0. -1.
         23    2    1    2    0    0 -0.25063067749E+02  0.77032946235E+02 -0.25040253287E+02  0.12666351528E+03  0.94097819571E+02 0.  0.
         24    2    1    2    0    0  0.33389357364E+02  0.85721084851E+02 -0.25530347584E+03  0.28311728399E+03  0.80700546095E+02 0.  0.
        -11    1    4    4    0    0  0.21670993509E+02 -0.10635719578E+02 -0.36640607876E+02  0.43878065547E+02  0.00000000000E+00 0.  1.
         12    1    4    4    0    0  0.11718363855E+02  0.96356804429E+02 -0.21866286797E+03  0.23923921844E+03  0.00000000000E+00 0. -1.
        -11    1    3    3    0    0 -0.51578494895E+02  0.35341049149E+02 -0.40967288012E+02  0.74750582456E+02  0.00000000000E+00 0. -1.
         11    1    3    3    0    0  0.26515427145E+02  0.41691897086E+02  0.15927034724E+02  0.51912932825E+02  0.00000000000E+00 0.  1.
         21    1    1    2  503  502  0.78752467139E+02 -0.61814421060E+02  0.27726145302E+03  0.29478277945E+03  0.00000000000E+00 0. -1.
          1    1    1    2  501    0 -0.87078756753E+02 -0.10093961003E+03 -0.83762205943E+02  0.15744085205E+03  0.00000000000E+00 0. -1.
<scales pt_clust_5="13000.00000" pt_clust_6="13000.00000" pt_clust_7="13000.00000" pt_clust_8="13000.00000" pt_clust_9="100.11480" pt_clust_10="120.37789"></scales>
<clustering>
<clus scale="   80.701">  5  6 -1 -1</clus>
<clus scale="   94.098">  7  8 -1 -1</clus>
<clus scale="  100.115">  1  9  2 -1</clus>
<clus scale="  105.763">  2  7  1 -1</clus>
<clus scale="  120.378">  1 10  2 -1</clus>
<clus scale="  100.115">  1  5  2 -1</clus>
</clustering>
</event>
<event>
10    4  0.7697601E-005  0.1348745E+03  0.7546771E-02  0.1239895E+00
          2   -1    0    0  502    0 -0.00000000000E+00  0.00000000000E+00  0.17216874214E+03  0.17216874214E+03  0.00000000000E+00 0. -1.
         21   -1    0    0  503  502  0.00000000000E+00 -0.00000000000E+00 -0.67618531629E+03  0.67618531629E+03  0.00000000000E+00 0.  1.
         24    2    1    2    0    0  0.29025643492E+01 -0.31320599505E+02 -0.22648500021E+03  0.24227079873E+03  0.80064222742E+02 0.  0.
         23    2    1    2    0    0  0.10922609317E+03 -0.33986607272E+02 -0.15214082161E+03  0.21106496203E+03  0.91192980507E+02 0.  0.
        -11    1    3    3    0    0  0.43032114009E+01 -0.58283493131E+02 -0.16742798633E+03  0.17733475070E+03  0.00000000000E+00 0.  1.
         12    1    3    3    0    0 -0.14006470517E+01  0.26962893627E+02 -0.59057013875E+02  0.64936048022E+02  0.00000000000E+00 0. -1.
        -13    1    4    4    0    0  0.10029227142E+03 -0.60440415960E+02 -0.11101624442E+03  0.16135733672E+03  0.00000000000E+00 0.  1.
         13    1    4    4    0    0  0.89338217510E+01  0.26453808688E+02 -0.41124577182E+02  0.49707625306E+02  0.00000000000E+00 0. -1.
         21    1    1    2  503  501 -0.41101285906E+02 -0.10194447690E+02 -0.23813021872E+03  0.24186616864E+03  0.00000000000E+00 0.  1.
          1    1    1    2  501    0 -0.71027371618E+02  0.75501654466E+02  0.11273946639E+03  0.15315212903E+03  0.00000000000E+00 0. -1.
<scales pt_clust_5="13000.00000" pt_clust_6="13000.00000" pt_clust_7="13000.00000" pt_clust_8="13000.00000" pt_clust_9="42.34669" pt_clust_10="99.37299"></scales>
<clustering>
<clus scale="   42.347">  2  9  1 -1</clus>
<clus scale="   80.064">  5  6 -1 -1</clus>
<clus scale="   90.180">  1  5  2 -1</clus>
<clus scale="   91.193">  7  8 -1 -1</clus>
<clus scale="   99.373">  2 10  1 -1</clus>
<clus scale="   42.347">  2  5  1 -1</clus>
</clustering>
</event>
<event>
10    4  0.7697601E-005  0.1074609E+03  0.7546771E-02  0.1268396E+00
         21   -1    0    0  503  502  0.00000000000E+00  0.00000000000E+00  0.49312633955E+02  0.49312633955E+02  0.00000000000E+00 0.  1.
         -3   -1    0    0    0  501 -0.00000000000E+00 -0.00000000000E+00 -0.92432551424E+03  0.92432551424E+03  0.00000000000E+00 0.  1.
         24    2    1    2    0    0 -0.46344075428E+02 -0.73928100108E+01 -0.30748907539E+03  0.32277979137E+03  0.86225490821E+02 0.  0.
         23    2    1    2    0    0  0.74181283380E+02 -0.16252153722E+02 -0.12778608871E+03  0.17556335670E+03  0.93414198299E+02 0.  0.
        -11    1    3    3    0    0 -0.69978363810E+02 -0.17994772015E+02 -0.22848347419E+03  0.23963614335E+03  0.00000000000E+00 0.  1.
         12    1    3    3    0    0  0.23634288382E+02  0.10601962004E+02 -0.79005601197E+02  0.83143648020E+02  0.00000000000E+00 0. -1.
        -11    1    4    4    0    0  0.85448513453E+01  0.18641933612E+02 -0.89747976895E+02  0.92061042413E+02  0.00000000000E+00 0. -1.
         11    1    4    4    0    0  0.65636432034E+02 -0.34894087334E+02 -0.38038111815E+02  0.83502314289E+02  0.00000000000E+00 0.  1.
         21    1    1    2  503  501  0.38323189241E+02  0.28715571704E+02 -0.22671726620E+02  0.52983564242E+02  0.00000000000E+00 0.  1.
         -4    1    1    2    0  502 -0.66160397192E+02 -0.50706079718E+01 -0.41706598957E+03  0.42231143588E+03  0.00000000000E+00 0.  1.
<scales pt_clust_5="13000.00000" pt_clust_6="13000.00000" pt_clust_7="13000.00000" pt_clust_8="13000.00000" pt_clust_9="47.88790" pt_clust_10="63.28270"></scales>
<clustering>
<clus scale="   47.888">  1  9  2 -1</clus>
<clus scale="   63.283">  1 10  2 -1</clus>
<clus scale="   86.225">  5  6 -1 -1</clus>
<clus scale="   93.414">  7  8 -1 -1</clus>
<clus scale="  101.274">  2  5  1 -1</clus>
<clus scale="   47.888">  1  5  2 -1</clus>
</clustering>
</event>
<event>
10    4  0.7697601E-005  0.1152871E+03  0.7546771E-02  0.1255845E+00
         21   -1    0    0  503  502  0.00000000000E+00  0.00000000000E+00  0.39920574297E+03  0.39920574297E+03  0.00000000000E+00 0.  1.
         -3   -1    0    0    0  501 -0.00000000000E+00 -0.00000000000E+00 -0.11951635199E+03  0.11951635199E+03  0.00000000000E+00 0.  1.
         24    2    1    2    0    0  0.84818653590E+02  0.66434503687E+02  0.14813716815E+03  0.19855165227E+03  0.76618475294E+02 0.  0.
         23    2    1    2    0    0 -0.34058580215E+01 -0.41594959239E+02  0.18168757813E+03  0.20715836474E+03  0.90346397445E+02 0.  0.
        -11    1    3    3    0    0  0.56163923058E+02  0.14307256120E+02  0.27723931151E+02  0.64247180401E+02  0.00000000000E+00 0.  1.
         12    1    3    3    0    0  0.28654730532E+02  0.52127247567E+02  0.12041323700E+03  0.13430447187E+03  0.00000000000E+00 0. -1.
        -11    1    4    4    0    0  0.18592130390E+02 -0.53377979605E+02  0.17083994062E+03  0.17994766275E+03  0.00000000000E+00 0.  1.
         11    1    4    4    0    0 -0.21997988412E+02  0.11783020366E+02  0.10847637514E+02  0.27210701989E+02  0.00000000000E+00 0. -1.
         21    1    1    2  503  501 -0.25702726020E+02  0.71741155640E+00  0.95799332781E+01  0.27439386396E+02  0.00000000000E+00 0.  1.
         -4    1    1    2    0  502 -0.55710069549E+02 -0.25556956004E+02 -0.59715288574E+02  0.85572691548E+02  0.00000000000E+00 0.  1.
<scales pt_clust_5="13000.00000" pt_clust_6="13000.00000" pt_clust_7="13000.00000" pt_clust_8="13000.00000" pt_clust_9="25.71274" pt_clust_10="76.80626"></scales>
<clustering>
<clus scale="   25.713">  2  9  1 -1</clus>
<clus scale="   76.618">  5  6 -1 -1</clus>
<clus scale="   76.806">  1 10  2 -1</clus>
<clus scale="   90.346">  7  8 -1 -1</clus>
<clus scale="  104.876">  2  5  1 -1</clus>
<clus scale="   76.806">  1  5  2 -1</clus>
</clustering>
</event>
<event>
10    4  0.7697601E-005  0.1676207E+03  0.7546771E-02  0.1206184E+00
          2   -1    0    0  503    0 -0.00000000000E+00  0.00000000000E+00  0.70450166004E+03  0.70450166004E+03  0.00000000000E+00 0. -1.
         21   -1    0    0  501  502  0.00000000000E+00 -0.00000000000E+00 -0.44680053277E+03  0.44680053277E+03  0.00000000000E+00 0.  1.
         23    2    1    2    0    0 -0.10636069128E+02  0.33628426638E+02  0.37273151819E+03  0.38465255674E+03  0.88231557347E+02 0.  0.
         24    2    1    2    0    0 -0.35741583117E+02  0.97089816543E+02  0.36829601929E+02  0.13617954229E+03  0.80526734196E+02 0.  0.
        -11    1    4    4    0    0 -0.29489831878E+02  0.48486993886E+02  0.59466511719E+02  0.82200394015E+02  0.00000000000E+00 0.  1.
         12    1    4    4    0    0 -0.62517512387E+01  0.48602822657E+02 -0.22636909790E+02  0.53979148276E+02  0.00000000000E+00 0. -1.
        -13    1    3    3    0    0 -0.16655716995E+02 -0.21991151316E+02  0.49975652361E+02  0.57084056214E+02  0.00000000000E+00 0.  1.
         13    1    3    3    0    0  0.60196478671E+01  0.55619577955E+02  0.32275586582E+03  0.32756850053E+03  0.00000000000E+00 0. -1.
         21    1    1    2  503  502  0.28711148511E+02  0.15447111479E+03 -0.27705960836E+03  0.31850852726E+03  0.00000000000E+00 0.  1.
          1    1    1    2  501    0  0.17666503734E+02 -0.28518935797E+03  0.12519961552E+03  0.31196156651E+03  0.00000000000E+00 0. -1.
<scales pt_clust_5="13000.00000" pt_clust_6="13000.00000" pt_clust_7="13000.00000" pt_clust_8="13000.00000" pt_clust_9="13000.00000" pt_clust_10="167.62072"></scales>
<clustering>
<clus scale="   80.527">  5  6 -1 -1</clus>
<clus scale="   88.232">  7  8 -1 -1</clus>
<clus scale="   95.020">  1  7  2 -1</clus>
<clus scale="  138.606">  1  5  2 -1</clus>
<clus scale="  167.621">  1 10  2 -1</clus>
<clus scale="  167.621">  2  5  1 -1</clus>
</clustering>
</event>
<event>
10    4  0.7697601E-005  0.1461129E+03  0.7546771E-02  0.1222507E+00
         21   -1    0    0  503  502  0.00000000000E+00  0.00000000000E+00  0.27607357316E+03  0.27607357316E+03  0.00000000000E+00 0.  1.
          2   -1    0    0  502    0 -0.00000000000E+00 -0.00000000000E+00 -0.32293996253E+03  0.32293996253E+03  0.00000000000E+00 0. -1.
         23    2    1    2    0    0  0.96370868186E+01  0.19200079351E+02 -0.89754686016E+01  0.10060348924E+03  0.97872297008E+02 0.  0.
         24    2    1    2    0    0 -0.44379284106E+02  0.87575560189E+02 -0.19614697849E+03  0.23348681432E+03  0.80021595156E+02 0.  0.
        -13    1    4    4    0    0 -0.47934875472E+02  0.11296406134E+02 -0.91898176678E+02  0.10426234198E+03  0.00000000000E+00 0.  1.
         14    1    4    4    0    0  0.35555913660E+01  0.76279154055E+02 -0.10424880181E+03  0.12922447235E+03  0.00000000000E+00 0. -1.
        -13    1    3    3    0    0  0.29914532533E+02 -0.25236741372E+02 -0.28065702513E+02  0.48160731196E+02  0.00000000000E+00 0. -1.
         13    1    3    3    0    0 -0.20277445714E+02  0.44436820723E+02  0.19090233912E+02  0.52442758046E+02  0.00000000000E+00 0.  1.
         21    1    1    2  503  501 -0.28346352766E+02  0.29800468009E+02  0.91530553956E+02  0.10034652917E+03  0.00000000000E+00 0.  1.
          1    1    1    2  501    0  0.63088550053E+02 -0.13657610755E+03  0.66725503768E+02  0.16457670295E+03  0.00000000000E+00 0. -1.
<scales pt_clust_5="13000.00000" pt_clust_6="13000.00000" pt_clust_7="13000.00000" pt_clust_8="13000.00000" pt_clust_9="41.12887" pt_clust_10="122.25189"></scales>
<clustering>
<clus scale="   41.129">  1  9  2 -1</clus>
<clus scale="   80.022">  5  6 -1 -1</clus>
<clus scale="   97.872">  7  8 -1 -1</clus>
<clus scale="  101.499">  2  7  1 -1</clus>
<clus scale="  122.252">  1 10  2 -1</clus>
<clus scale="   41.129">  1  5  2 -1</clus>
</clustering>
</event>
<event>
10    4  0.7697601E-005  0.9133591E+02  0.7546771E-02  0.1306862E+00
          2   -1    0    0  503    0 -0.00000000000E+00  0.00000000000E+00  0.44029956660E+03  0.44029956660E+03  0.00000000000E+00 0. -1.
         21   -1    0    0  501  502  0.00000000000E+00 -0.00000000000E+00 -0.27854476181E+03  0.27854476181E+03  0.00000000000E+00 0.  1.
         24    2    1    2    0    0  0.61022759716E+01 -0.15357246887E+02  0.31079407429E+03  0.32119648372E+03  0.79379731242E+02 0.  0.
         23    2    1    2    0    0  0.13149002965E+02 -0.42175229358E+02  0.14894017165E+02  0.10205032163E+03  0.90778797897E+02 0.  0.
        -13    1    3    3    0    0  0.42051034663E+02 -0.13013739513E+02  0.19600941446E+03  0.20089135743E+03  0.00000000000E+00 0.  1.
         14    1    3    3    0    0 -0.35948758691E+02 -0.23435073738E+01  0.11478465984E+03  0.12030512629E+03  0.00000000000E+00 0. -1.
        -13    1    4    4    0    0  0.29834857493E+02 -0.56963980967E+02  0.33953772877E+02  0.72717759466E+02  0.00000000000E+00 0. -1.
         13    1    4    4    0    0 -0.16685854528E+02  0.14788751609E+02 -0.19059755711E+02  0.29332562167E+02  0.00000000000E+00 0.  1.
         21    1    1    2  503  502  0.14153778032E+01  0.52460370222E+02 -0.22494271918E+03  0.23098337743E+03  0.00000000000E+00 0.  1.
          1    1    1    2  501    0 -0.20666656739E+02  0.50721060236E+01  0.61009432505E+02  0.64614145625E+02  0.00000000000E+00 0. -1.
<scales pt_clust_5="13000.00000" pt_clust_6="13000.00000" pt_clust_7="13000.00000" pt_clust_8="13000.00000" pt_clust_9="58.74981" pt_clust_10="21.27998"></scales>
<clustering>
<clus scale="   21.280">  2 10  1 -1</clus>
<clus scale="   58.750">  2  9  1 -1</clus>
<clus scale="   79.380">  5  6 -1 -1</clus>
<clus scale="   80.016">  1  5  2 -1</clus>
<clus scale="   90.779">  7  8 -1 -1</clus>
<clus scale="   21.280">  2  5  1 -1</clus>
</clustering>
</event>
<event>
10    4  0.7697601E-005  0.1647225E+03  0.7546771E-02  0.1186502E+00
         21   -1    0    0  501  502  0.00000000000E+00  0.00000000000E+00  0.29058357718E+03  0.29058357718E+03  0.00000000000E+00 0.  1.
          2   -1    0    0  503    0 -0.00000000000E+00 -0.00000000000E+00 -0.41116523699E+03  0.41116523699E+03  0.00000000000E+00 0. -1.
         24    2    1    2    0    0 -0.18747929685E+03  0.53148063580E+02 -0.87745169883E+01  0.21117385245E+03  0.80896232292E+02 0.  0.
         23    2    1    2    0    0  0.32524364575E+02 -0.74460720423E+02  0.78173753218E+02  0.15063789890E+03  0.99891980245E+02 0.  0.
        -13    1    3    3    0    0 -0.11707613665E+03  0.52880545512E+02  0.28388182082E+02  0.13156391127E+03  0.00000000000E+00 0.  1.
         14    1    3    3    0    0 -0.70403160199E+02  0.26751806797E+00 -0.37162699070E+02  0.79609941176E+02  0.00000000000E+00 0. -1.
        -11    1    4    4    0    0  0.29236023143E+02 -0.47288906074E+02 -0.11591971870E+02  0.56792248580E+02  0.00000000000E+00 0. -1.
         11    1    4    4    0    0  0.32883414319E+01 -0.27171814349E+02  0.89765725088E+02  0.93845650325E+02  0.00000000000E+00 0.  1.
         21    1    1    2  503  502  0.60640389080E+02 -0.33843217087E+02  0.43647748400E+02  0.82022838715E+02  0.00000000000E+00 0. -1.
          1    1    1    2  501    0  0.94314543196E+02  0.55155873929E+02 -0.23362864444E+03  0.25791422409E+03  0.00000000000E+00 0. -1.
<scales pt_clust_5="13000.00000" pt_clust_6="13000.00000" pt_clust_7="13000.00000" pt_clust_8="13000.00000" pt_clust_9="69.44509" pt_clust_10="111.18427"></scales>
<clustering>
<clus scale="   69.445">  1  9  2 -1</clus>
<clus scale="   80.896">  5  6 -1 -1</clus>
<clus scale="   99.892">  7  8 -1 -1</clus>
<clus scale="  111.184">  1 10  2 -1</clus>
<clus scale="  153.946">  2  5  1 -1</clus>
<clus scale="   69.445">  1  5  2 -1</clus>
</clustering>
</event>
<event>
10    4  0.7697601E-005  0.1650817E+03  0.7546771E-02  0.1209378E+00
         21   -1    0    0  501  502  0.00000000000E+00  0.00000000000E+00  0.26352660228E+03  0.26352660228E+03  0.00000000000E+00 0. -1.
          2   -1    0    0  503    0 -0.00000000000E+00 -0.00000000000E+00 -0.23529547741E+03  0.23529547741E+03  0.00000000000E+00 0. -1.
         24    2    1    2    0    0 -0.44385126459E+02 -0.22984419430E+02 -0.41557202765E+02  0.10406136423E+03  0.81261574166E+02 0.  0.
         23    2    1    2    0    0  0.13732754464E+03  0.72034696442E+02 -0.36648528224E+01  0.17987454346E+03  0.91069030035E+02 0.  0.
        -13    1    3    3    0    0 -0.64664770524E+02 -0.89626012552E+01 -0.13415594102E+02  0.66647122468E+02  0.00000000000E+00 0.  1.
         14    1    3    3    0    0  0.20279644065E+02 -0.14021818175E+02 -0.28141608663E+02  0.37414241760E+02  0.00000000000E+00 0. -1.
        -11    1    4    4    0    0  0.13248747827E+03  0.39849991311E+02 -0.25501071350E+02  0.14068140725E+03  0.00000000000E+00 0.  1.
         11    1    4    4    0    0  0.48400663725E+01  0.32184705131E+02  0.21836218527E+02  0.39193136216E+02  0.00000000000E+00 0. -1.
         21    1    1    2  503  502 -0.13204289259E+03 -0.60367802747E+02  0.90138909159E+02  0.17089359273E+03  0.00000000000E+00 0. -1.
          1    1    1    2  501    0  0.39100474411E+02  0.11317525735E+02 -0.16685728705E+02  0.43992579264E+02  0.00000000000E+00 0. -1.
<scales pt_clust_5="13000.00000" pt_clust_6="13000.00000" pt_clust_7="13000.00000" pt_clust_8="13000.00000" pt_clust_9="137.68948" pt_clust_10="40.70547"></scales>
<clustering>
<clus scale="   40.705">  1 10  2 -1</clus>
<clus scale="   81.262">  5  6 -1 -1</clus>
<clus scale="   91.069">  7  8 -1 -1</clus>
<clus scale="   92.890">  2  5  1 -1</clus>
<clus scale="  137.689">  1  9  2 -1</clus>
<clus scale="   40.705">  1  5  2 -1</clus>
</clustering>
</event>
<event>
10    4  0.7697601E-005  0.9117558E+02  0.7546771E-02  0.1307527E+00
         -3   -1    0    0    0  501 -0.00000000000E+00  0.00000000000E+00  0.29120403134E+03  0.29120403134E+03  0.00000000000E+00 0.  1.
         21   -1    0    0  503  502  0.00000000000E+00 -0.00000000000E+00 -0.61397912184E+02  0.61397912184E+02  0.00000000000E+00 0. -1.
         24    2    1    2    0    0  0.29746483397E+01 -0.17018713836E+02  0.13497620949E+03  0.15733629991E+03  0.78978788212E+02 0.  0.
         23    2    1    2    0    0  0.22596103359E+02 -0.19669840417E+02  0.28654663578E+02  0.99768498556E+02  0.90747876285E+02 0.  0.
        -13    1    3    3    0    0 -0.34627692881E+01 -0.38548201403E+02  0.12812605832E+03  0.13384409372E+03  0.00000000000E+00 0.  1.
         14    1    3    3    0    0  0.64374176278E+01  0.21529487567E+02  0.68501511680E+01  0.23492206189E+02  0.00000000000E+00 0. -1.
        -11    1    4    4    0    0 -0.28584496200E+02  0.10574570855E+02 -0.58464480670E+01  0.31033464627E+02  0.00000000000E+00 0. -1.
         11    1    4    4    0    0  0.51180599559E+02 -0.30244411272E+02  0.34501111645E+02  0.68735033929E+02  0.00000000000E+00 0.  1.
         21    1    1    2  503  501 -0.21923636140E+02 -0.38566019404E+01  0.63739061651E+01  0.23154824118E+02  0.00000000000E+00 0. -1.
         -4    1    1    2    0  502 -0.36471155589E+01  0.40545156193E+02  0.59801339918E+02  0.72342320937E+02  0.00000000000E+00 0.  1.
<scales pt_clust_5="13000.00000" pt_clust_6="13000.00000" pt_clust_7="13000.00000" pt_clust_8="13000.00000" pt_clust_9="22.26026" pt_clust_10="40.57178"></scales>
<clustering>
<clus scale="   22.260">  2  9  1 -1</clus>
<clus scale="   40.572">  2 10  1 -1</clus>
<clus scale="   78.979">  5  6 -1 -1</clus>
<clus scale="   79.470">  1  5  2 -1</clus>
<clus scale="   90.748">  7  8 -1 -1</clus>
<clus scale="   22.260">  2  5  1 -1</clus>
</clustering>
</event>
<event>
10    4  0.7697601E-005  0.9173385E+02  0.7546771E-02  0.1304451E+00
          2   -1    0    0  503    0 -0.00000000000E+00  0.00000000000E+00  0.83940660996E+02  0.83940660996E+02  0.00000000000E+00 0. -1.
         21   -1    0    0  501  502  0.00000000000E+00 -0.00000000000E+00 -0.30201181838E+03  0.30201181838E+03  0.00000000000E+00 0.  1.
         23    2    1    2    0    0 -0.17346093735E+02  0.28159246760E+02 -0.17283512317E+02  0.97591083645E+02  0.90174661979E+02 0.  0.
         24    2    1    2    0    0 -0.20675182614E+01  0.25577208744E+02 -0.12302206285E+03  0.14940410563E+03  0.80800313062E+02 0.  0.
        -11    1    4    4    0    0  0.40029430613E+01 -0.28797917089E+02 -0.53972675756E+02  0.61305736355E+02  0.00000000000E+00 0.  1.
         12    1    4    4    0    0 -0.60704613227E+01  0.54375125832E+02 -0.69049387096E+02  0.88098369272E+02  0.00000000000E+00 0. -1.
        -11    1    3    3    0    0  0.16361261059E+02  0.28446432452E+02 -0.43781199779E+02  0.54714566953E+02  0.00000000000E+00 0.  1.
         11    1    3    3    0    0 -0.33707354794E+02 -0.28718569197E+00  0.26497687462E+02  0.42876516692E+02  0.00000000000E+00 0. -1.
         21    1    1    2  503  502  0.12495410416E+02  0.21591995139E+02 -0.54298910301E+02  0.59755511842E+02  0.00000000000E+00 0. -1.
          1    1    1    2  501    0  0.69182015803E+01 -0.75328450643E+02 -0.23466671915E+02  0.79201778264E+02  0.00000000000E+00 0. -1.
<scales pt_clust_5="13000.00000" pt_clust_6="13000.00000" pt_clust_7="13000.00000" pt_clust_8="13000.00000" pt_clust_9="24.94693" pt_clust_10="71.44343"></scales>
<clustering>
<clus scale="   24.947">  2  9  1 -1</clus>
<clus scale="   71.443">  2 10  1 -1</clus>
<clus scale="   80.800">  5  6 -1 -1</clus>
<clus scale="   82.537">  2  5  1 -1</clus>
<clus scale="   90.175">  7  8 -1 -1</clus>
<clus scale="   24.947">  2  5  1 -1</clus>
</clustering>
</event>
<event>
10    4  0.7697601E-005  0.1053227E+03  0.7546771E-02  0.1272778E+00
         -3   -1    0    0    0  501 -0.00000000000E+00  0.00000000000E+00  0.29120663712E+03  0.29120663712E+03  0.00000000000E+00 0.  1.
         21   -1    0    0  503  502  0.00000000000E+00 -0.00000000000E+00 -0.64959070009E+02  0.64959070009E+02  0.00000000000E+00 0. -1.
         24    2    1    2    0    0 -0.14143191353E+02 -0.47139049595E+02  0.12565604413E+03  0.15901474522E+03  0.84107835023E+02 0.  0.
         23    2    1    2    0    0  0.12741288815E+02  0.55198355867E+02  0.71349171585E+02  0.12922219357E+03  0.91643178110E+02 0.  0.
        -11    1    3    3    0    0 -0.95619526728E+01 -0.54322530783E+02  0.13532101481E+03  0.14613057633E+03  0.00000000000E+00 0.  1.
         12    1    3    3    0    0 -0.45812386803E+01  0.71834811880E+01 -0.96649706771E+01  0.12884168891E+02  0.00000000000E+00 0. -1.
        -13    1    4    4    0    0 -0.33611291052E+02  0.27104267563E+01  0.40507038716E+02  0.52705649460E+02  0.00000000000E+00 0.  1.
         13    1    4    4    0    0  0.46352579867E+02  0.52487929111E+02  0.30842132868E+02  0.76516544110E+02  0.00000000000E+00 0. -1.
         21    1    1    2  503  501  0.23918880110E+02  0.19570897619E+01 -0.61754439329E+01  0.24780620125E+02  0.00000000000E+00 0. -1.
         -4    1    1    2    0  502 -0.22516977571E+02 -0.10016396033E+02  0.35417795328E+02  0.43148148215E+02  0.00000000000E+00 0.  1.
<scales pt_clust_5="13000.00000" pt_clust_6="13000.00000" pt_clust_7="13000.00000" pt_clust_8="13000.00000" pt_clust_9="23.99881" pt_clust_10="22.88347"></scales>
<clustering>
<clus scale="   23.999">  2  9  1 -1</clus>
<clus scale="   22.883">  2 10  1 -1</clus>
<clus scale="   84.108">  5  6 -1 -1</clus>
<clus scale="   91.643">  7  8 -1 -1</clus>
<clus scale="   98.836">  1  5  2 -1</clus>
<clus scale="   23.999">  2  5  1 -1</clus>
</clustering>
</event>
<event>
10    4  0.7697601E-005  0.9610313E+02  0.7546771E-02  0.1293776E+00
         -3   -1    0    0    0  501 -0.00000000000E+00  0.00000000000E+00  0.29609120285E+03  0.29609120285E+03  0.00000000000E+00 0.  1.
         21   -1    0    0  503  502  0.00000000000E+00 -0.00000000000E+00 -0.32540379092E+03  0.32540379092E+03  0.00000000000E+00 0.  1.
         24    2    1    2    0    0 -0.39207939968E+02 -0.56532483024E+01  0.16322569765E+03  0.18677566239E+03  0.81690255925E+02 0.  0.
         23    2    1    2    0    0 -0.49148451600E+02  0.70541306890E+02 -0.29937837413E+02  0.12866452176E+03  0.90921057953E+02 0.  0.
        -11    1    3    3    0    0  0.45559135205E+01  0.31967847451E+02  0.47188201043E+02  0.57178894151E+02  0.00000000000E+00 0.  1.
         12    1    3    3    0    0 -0.43763853488E+02 -0.37621095753E+02  0.11603749661E+03  0.12959676824E+03  0.00000000000E+00 0. -1.
        -13    1    4    4    0    0  0.70247577397E+01  0.62048840509E+02  0.38518069191E+01  0.62563905300E+02  0.00000000000E+00 0.  1.
         13    1    4    4    0    0 -0.56173209340E+02  0.84924663808E+01 -0.33789644332E+02  0.66100616464E+02  0.00000000000E+00 0. -1.
         21    1    1    2  503  501  0.67855536238E+02  0.21122454389E+01 -0.21050240425E+03  0.22117888139E+03  0.00000000000E+00 0.  1.
         -4    1    1    2    0  502  0.20500855330E+02 -0.67000304027E+02  0.47901955936E+02  0.84875928221E+02  0.00000000000E+00 0.  1.
<scales pt_clust_5="13000.00000" pt_clust_6="13000.00000" pt_clust_7="13000.00000" pt_clust_8="13000.00000" pt_clust_9="67.88840" pt_clust_10="73.90697"></scales>
<clustering>
<clus scale="   67.888">  2  9  1 -1</clus>
<clus scale="   73.907">  2 10  1 -1</clus>
<clus scale="   81.690">  5  6 -1 -1</clus>
<clus scale="   87.421">  1  5  2 -1</clus>
<clus scale="   90.921">  7  8 -1 -1</clus>
<clus scale="   67.888">  2  5  1 -1</clus>
</clustering>
</event>
<event>
10    4  0.7697601E-005  0.2420579E+03  0.7546771E-02  0.1138216E+00
         21   -1    0    0  501  502  0.00000000000E+00  0.00000000000E+00  0.75138259893E+02  0.75138259893E+02  0.00000000000E+00 0. -1.
          2   -1    0    0  503    0 -0.00000000000E+00 -0.00000000000E+00 -0.20034697346E+04  0.20034697346E+04  0.00000000000E+00 0. -1.
         23    2    1    2    0    0  0.10331381458E+02 -0.14053281102E+03 -0.50734276423E+03  0.53502712588E+03  0.94874319993E+02 0.  0.
         24    2    1    2    0    0  0.14039700763E+03  0.15134132953E+03 -0.32826025475E+03  0.39592599537E+03  0.79919216631E+02 0.  0.
        -11    1    4    4    0    0  0.10587399526E+03  0.56427905716E+02 -0.18996279978E+03  0.22467593711E+03  0.00000000000E+00 0.  1.
         12    1    4    4    0    0  0.34523012372E+02  0.94913423819E+02 -0.13829745496E+03  0.17125005826E+03  0.00000000000E+00 0. -1.
        -13    1    3    3    0    0  0.35196737457E+02 -0.13416602113E+03 -0.36659757428E+03  0.39196060137E+03  0.00000000000E+00 0.  1.
         13    1    3    3    0    0 -0.24865355999E+02 -0.63667898839E+01 -0.14074518995E+03  0.14306652451E+03  0.00000000000E+00 0. -1.
         21    1    1    2  503  502  0.24016562460E+02  0.12314341132E+03 -0.30667428314E+03  0.33134605922E+03  0.00000000000E+00 0. -1.
          1    1    1    2  501    0 -0.17474495155E+03 -0.13395192983E+03 -0.78605417257E+03  0.81630881400E+03  0.00000000000E+00 0. -1.
<scales pt_clust_5="13000.00000" pt_clust_6="13000.00000" pt_clust_7="13000.00000" pt_clust_8="13000.00000" pt_clust_9="125.46352" pt_clust_10="228.48410"></scales>
<clustering>
<clus scale="   79.919">  5  6 -1 -1</clus>
<clus scale="   94.874">  7  8 -1 -1</clus>
<clus scale="  125.464">  1  9  2 -1</clus>
<clus scale="  148.670">  2  7  1 -1</clus>
<clus scale="  228.484">  1 10  2 -1</clus>
<clus scale="  125.464">  1  5  2 -1</clus>
</clustering>
</event>
<event>
10    4  0.7697601E-005  0.1598903E+03  0.7546771E-02  0.1211220E+00
         21   -1    0    0  501  502  0.00000000000E+00  0.00000000000E+00  0.13447202690E+03  0.13447202690E+03  0.00000000000E+00 0. -1.
          2   -1    0    0  503    0 -0.00000000000E+00 -0.00000000000E+00 -0.67379626490E+03  0.67379626490E+03  0.00000000000E+00 0. -1.
         24    2    1    2    0    0  0.18694120183E+02  0.51384827873E+02 -0.22061020868E+03  0.24116096661E+03  0.80621814515E+02 0.  0.
         23    2    1    2    0    0 -0.12459497733E+03 -0.55843262480E+02 -0.14607586147E+03  0.21973026576E+03  0.91109022849E+02 0.  0.
        -11    1    3    3    0    0  0.36288778767E+02  0.54612269143E+02 -0.10232634351E+03  0.12153211914E+03  0.00000000000E+00 0.  1.
         12    1    3    3    0    0 -0.17594658584E+02 -0.32274412702E+01 -0.11828386517E+03  0.11962884747E+03  0.00000000000E+00 0. -1.
        -11    1    4    4    0    0 -0.42427220481E+02  0.22006608228E+02 -0.24826907986E+02  0.53858473833E+02  0.00000000000E+00 0.  1.
         11    1    4    4    0    0 -0.82167756848E+02 -0.77849870708E+02 -0.12124895348E+03  0.16587179192E+03  0.00000000000E+00 0. -1.
         21    1    1    2  503  502 -0.20557196974E+02  0.16580046693E+02  0.69273732155E+02  0.74137347285E+02  0.00000000000E+00 0. -1.
          1    1    1    2  501    0  0.12645805412E+03 -0.12121612085E+02 -0.24191190000E+03  0.27323971215E+03  0.00000000000E+00 0. -1.
<scales pt_clust_5="13000.00000" pt_clust_6="13000.00000" pt_clust_7="13000.00000" pt_clust_8="13000.00000" pt_clust_9="26.41016" pt_clust_10="131.39287"></scales>
<clustering>
<clus scale="   26.410">  1  9  2 -1</clus>
<clus scale="   80.622">  5  6 -1 -1</clus>
<clus scale="   91.109">  7  8 -1 -1</clus>
<clus scale="   98.293">  2  5  1 -1</clus>
<clus scale="  131.393">  1 10  2 -1</clus>
<clus scale="   26.410">  1  5  2 -1</clus>
</clustering>
</event>
<event>
10    4  0.7697601E-005  0.1361717E+03  0.7546771E-02  0.1242405E+00
         21   -1    0    0  501  502  0.00000000000E+00  0.00000000000E+00  0.35378038939E+03  0.35378038939E+03  0.00000000000E+00 0. -1.
          2   -1    0    0  503    0 -0.00000000000E+00 -0.00000000000E+00 -0.30247764128E+03  0.30247764128E+03  0.00000000000E+00 0. -1.
         24    2    1    2    0    0 -0.15692396167E+02  0.31465107868E+02  0.23783465481E+02  0.89165618396E+02  0.78412690064E+02 0.  0.
         23    2    1    2    0    0  0.50766187112E+01  0.77023461733E+02 -0.23817470870E+03  0.26678333927E+03  0.92129107958E+02 0.  0.
        -11    1    3    3    0    0 -0.60386813565E+01 -0.23626714118E+02  0.22559866858E+02  0.33221000666E+02  0.00000000000E+00 0.  1.
         12    1    3    3    0    0 -0.96537148102E+01  0.55091821986E+02  0.12235986223E+01  0.55944617731E+02  0.00000000000E+00 0. -1.
        -13    1    4    4    0    0 -0.43452927020E+02  0.33390289809E+02 -0.10252874742E+03  0.11625494556E+03  0.00000000000E+00 0. -1.
         13    1    4    4    0    0  0.48529545731E+02  0.43633171924E+02 -0.13564596127E+03  0.15052839370E+03  0.00000000000E+00 0.  1.
         21    1    1    2  503  502  0.24149516130E+02 -0.17694215979E+02  0.14826609540E+03  0.15125845250E+03  0.00000000000E+00 0.  1.
          1    1    1    2  501    0 -0.13533738674E+02 -0.90794353622E+02  0.11742789593E+03  0.14905062051E+03  0.00000000000E+00 0. -1.
<scales pt_clust_5="13000.00000" pt_clust_6="13000.00000" pt_clust_7="13000.00000" pt_clust_8="13000.00000" pt_clust_9="29.93801" pt_clust_10="100.27436"></scales>
<clustering>
<clus scale="   29.938">  1  9  2 -1</clus>
<clus scale="   78.413">  5  6 -1 -1</clus>
<clus scale="   83.280">  2  5  1 -1</clus>
<clus scale="   92.129">  7  8 -1 -1</clus>
<clus scale="  100.274">  1 10  2 -1</clus>
<clus scale="   29.938">  1  5  2 -1</clus>
</clustering>
</event>
<event>
10    4  0.7697601E-005  0.1173373E+03  0.7546771E-02  0.1247798E+00
         21   -1    0    0  501  502  0.00000000000E+00  0.00000000000E+00  0.48670494242E+02  0.48670494242E+02  0.00000000000E+00 0.  1.
          2   -1    0    0  503    0 -0.00000000000E+00 -0.00000000000E+00 -0.89935645122E+03  0.89935645122E+03  0.00000000000E+00 0. -1.
         23    2    1    2    0    0 -0.46406035833E+02  0.51063488929E+02 -0.27648694016E+03  0.29570168405E+03  0.78952250186E+02 0.  0.
         24    2    1    2    0    0  0.12389707136E+03 -0.80421018379E+01 -0.41197203945E+03  0.43761010523E+03  0.79790245111E+02 0.  0.
        -11    1    4    4    0    0  0.15797863333E+01 -0.23961433073E+02 -0.76460663083E+02  0.80142866176E+02  0.00000000000E+00 0.  1.
         12    1    4    4    0    0  0.12231728503E+03  0.15919331235E+02 -0.33551137637E+03  0.35746723905E+03  0.00000000000E+00 0. -1.
        -13    1    3    3    0    0  0.19792141465E+02  0.11841319828E+02 -0.10859798157E+03  0.11102012124E+03  0.00000000000E+00 0.  1.
         13    1    3    3    0    0 -0.66198177299E+02  0.39222169101E+02 -0.16788895859E+03  0.18468156281E+03  0.00000000000E+00 0. -1.
         21    1    1    2  503  502 -0.24631355590E+02  0.51664738006E+01  0.10875596009E+02  0.27416686858E+02  0.00000000000E+00 0.  1.
          1    1    1    2  501    0 -0.52859679941E+02 -0.48187860892E+02 -0.17310257337E+03  0.18729846932E+03  0.00000000000E+00 0. -1.
<scales pt_clust_5="13000.00000" pt_clust_6="13000.00000" pt_clust_7="13000.00000" pt_clust_8="13000.00000" pt_clust_9="25.16736" pt_clust_10="75.22731"></scales>
<clustering>
<clus scale="   25.167">  1  9  2 -1</clus>
<clus scale="   75.227">  1 10  2 -1</clus>
<clus scale="   78.952">  7  8 -1 -1</clus>
<clus scale="   79.790">  5  6 -1 -1</clus>
<clus scale="  116.769">  2  7  1 -1</clus>
<clus scale="   25.167">  1  5  2 -1</clus>
</clustering>
</event>
<event>
10    4  0.7697601E-005  0.1998460E+03  0.7546771E-02  0.1184164E+00
         21   -1    0    0  501  502  0.00000000000E+00  0.00000000000E+00  0.32575230913E+03  0.32575230913E+03  0.00000000000E+00 0. -1.
          2   -1    0    0  503    0 -0.00000000000E+00 -0.00000000000E+00 -0.74301263039E+03  0.74301263039E+03  0.00000000000E+00 0. -1.
         24    2    1    2    0    0  0.19849338233E+02 -0.33388161932E+02  0.84798119825E+01  0.91210330250E+02  0.82089290091E+02 0.  0.
         23    2    1    2    0    0  0.31278454611E+02 -0.76033129952E+02 -0.46631778433E+03  0.48234038407E+03  0.91872692062E+02 0.  0.
        -13    1    3    3    0    0  0.81361219807E+01 -0.21321333630E+02  0.45304381987E+02  0.50727534691E+02  0.00000000000E+00 0.  1.
         14    1    3    3    0    0  0.11713216252E+02 -0.12066828302E+02 -0.36824570005E+02  0.40482795559E+02  0.00000000000E+00 0. -1.
        -13    1    4    4    0    0 -0.29627063786E+02 -0.37799632558E+02 -0.13443809416E+03  0.14275915484E+03  0.00000000000E+00 0.  1.
         13    1    4    4    0    0  0.60905518397E+02 -0.38233497394E+02 -0.33187969017E+03  0.33958122923E+03  0.00000000000E+00 0. -1.
         21    1    1    2  503  502  0.18675892625E+03  0.49712243620E+02  0.13136888479E+03  0.23368352015E+03  0.00000000000E+00 0. -1.
          1    1    1    2  501    0 -0.23788671910E+03  0.59709048263E+02 -0.90791233690E+02  0.26153070505E+03  0.00000000000E+00 0. -1.
<scales pt_clust_5="13000.00000" pt_clust_6="13000.00000" pt_clust_7="13000.00000" pt_clust_8="13000.00000" pt_clust_9="199.84598" pt_clust_10="13000.00000"></scales>
<clustering>
<clus scale="   82.089">  5  6 -1 -1</clus>
<clus scale="   90.815">  2  5  1 -1</clus>
<clus scale="   91.873">  7  8 -1 -1</clus>
<clus scale="  141.990">  2  7  1 -1</clus>
<clus scale="  199.846">  1  9  2 -1</clus>
<clus scale="  199.846">  1  5  2 -1</clus>
</clustering>
</event>
<event>
10    4  0.8432966E-005  0.2995203E+03  0.7546771E-02  0.1128430E+00
          2   -1    0    0  502    0 -0.00000000000E+00  0.00000000000E+00  0.31736868916E+04  0.31736868916E+04  0.00000000000E+00 0. -1.
         21   -1    0    0  503  502  0.00000000000E+00 -0.00000000000E+00 -0.47390748135E+02  0.47390748135E+02  0.00000000000E+00 0.  1.
         24    2    1    2    0    0  0.58710760500E+01  0.60587735376E+02  0.47330718519E+03  0.48379526430E+03  0.79579036181E+02 0.  0.
         23    2    1    2    0    0 -0.20037018080E+03 -0.20185951933E+03  0.72769107844E+03  0.78649175666E+03  0.90219192798E+02 0.  0.
        -13    1    3    3    0    0  0.39303975682E+02  0.20610889439E+02  0.15415747160E+03  0.16041863146E+03  0.00000000000E+00 0.  1.
         14    1    3    3    0    0 -0.33432899631E+02  0.39976845937E+02  0.31914971359E+03  0.32337663285E+03  0.00000000000E+00 0. -1.
        -13    1    4    4    0    0 -0.19138699239E+03 -0.15372900350E+03  0.64825943976E+03  0.69318243530E+03  0.00000000000E+00 0.  1.
         13    1    4    4    0    0 -0.89831884120E+01 -0.48130515837E+02  0.79431638689E+02  0.93309321365E+02  0.00000000000E+00 0. -1.
         21    1    1    2  503  501 -0.25088999772E+02 -0.57541218896E+01  0.43634659475E+02  0.50661142267E+02  0.00000000000E+00 0.  1.
          1    1    1    2  501    0  0.21958810452E+03  0.14702590585E+03  0.18816632204E+04  0.19001294765E+04  0.00000000000E+00 0. -1.
<scales pt_clust_5="13000.00000" pt_clust_6="13000.00000" pt_clust_7="13000.00000" pt_clust_8="13000.00000" pt_clust_9="25.74039" pt_clust_10="285.60982"></scales>
<clustering>
<clus scale="   25.740">  2  9  1 -1</clus>
<clus scale="   79.579">  5  6 -1 -1</clus>
<clus scale="   90.219">  7  8 -1 -1</clus>
<clus scale="   99.645">  1  5  2 -1</clus>
<clus scale="  285.610">  2 10  1 -1</clus>
<clus scale="   25.740">  2  5  1 -1</clus>
</clustering>
</event>
<event>
10    4  0.7697601E-005  0.1337202E+03  0.7546771E-02  0.1225178E+00
          4   -1    0    0  502    0 -0.00000000000E+00  0.00000000000E+00  0.12591749260E+04  0.12591749260E+04  0.00000000000E+00 0. -1.
         21   -1    0    0  503  502  0.00000000000E+00 -0.00000000000E+00 -0.18502901237E+03  0.18502901237E+03  0.00000000000E+00 0. -1.
         24    2    1    2    0    0  0.83722328771E+02  0.34760686114E+01  0.11580034542E+04  0.11655798093E+04  0.10287264158E+03 0.  0.
         23    2    1    2    0    0 -0.11896690463E+03 -0.63858969381E+02 -0.77874402809E+01  0.16333440215E+03  0.91577236986E+02 0.  0.
        -13    1    3    3    0    0  0.23483622613E+02  0.38002232128E+02  0.19390363830E+03  0.19898309256E+03  0.00000000000E+00 0.  1.
         14    1    3    3    0    0  0.60238706158E+02 -0.34526163516E+02  0.96409981594E+03  0.96659671672E+03  0.00000000000E+00 0. -1.
        -13    1    4    4    0    0 -0.90451496298E+01 -0.51309335331E+02  0.29159299352E+01  0.52182039739E+02  0.00000000000E+00 0.  1.
         13    1    4    4    0    0 -0.10992175500E+03 -0.12549634050E+02 -0.10703370216E+02  0.11115236242E+03  0.00000000000E+00 0. -1.
         21    1    1    2  503  501 -0.49550862843E+00  0.21225588839E+02 -0.53705607385E+02  0.57750007922E+02  0.00000000000E+00 0. -1.
          3    1    1    2  501    0  0.35740084486E+02  0.39157311931E+02 -0.22364492962E+02  0.57539718996E+02  0.00000000000E+00 0. -1.
<scales pt_clust_5="13000.00000" pt_clust_6="13000.00000" pt_clust_7="13000.00000" pt_clust_8="13000.00000" pt_clust_9="21.23137" pt_clust_10="57.93408"></scales>
<clustering>
<clus scale="   21.231">  2  9  1 -1</clus>
<clus scale="   57.934">  2 10  1 -1</clus>
<clus scale="   91.577">  7  8 -1 -1</clus>
<clus scale="  102.873">  5  6 -1 -1</clus>
<clus scale="  125.239">  2  7  1 -1</clus>
<clus scale="   21.231">  2  5  1 -1</clus>
</clustering>
</event>
<event>
10    4  0.7697601E-005  0.2955021E+03  0.7546771E-02  0.1119264E+00
         21   -1    0    0  501  502  0.00000000000E+00  0.00000000000E+00  0.34173077826E+03  0.34173077826E+03  0.00000000000E+00 0.  1.
          2   -1    0    0  503    0 -0.00000000000E+00 -0.00000000000E+00 -0.76596929677E+03  0.76596929677E+03  0.00000000000E+00 0. -1.
         24    2    1    2    0    0  0.60729704553E+02  0.80550804911E+02 -0.78253795600E+02  0.15318670667E+03  0.84652119813E+02 0.  0.
         23    2    1    2    0    0 -0.20658022523E+03  0.19670336292E+03 -0.20142648424E+03  0.36129736943E+03  0.92712233085E+02 0.  0.
        -11    1    3    3    0    0  0.31994542472E+02  0.49748814385E+01 -0.63102772121E+02  0.70925031144E+02  0.00000000000E+00 0.  1.
         12    1    3    3    0    0  0.28735162080E+02  0.75575923473E+02 -0.15151023478E+02  0.82261675530E+02  0.00000000000E+00 0. -1.
        -11    1    4    4    0    0 -0.26192957327E+01  0.23713906532E+02  0.38368593921E+01  0.24164675937E+02  0.00000000000E+00 0.  1.
         11    1    4    4    0    0 -0.20396092949E+03  0.17298945639E+03 -0.20526334363E+03  0.33713269349E+03  0.00000000000E+00 0. -1.
         21    1    1    2  503  502  0.11187869936E+02 -0.19740948173E+02  0.16620718139E+03  0.16774892135E+03  0.00000000000E+00 0.  1.
          1    1    1    2  501    0  0.13466265074E+03 -0.25751321966E+03 -0.31076542005E+03  0.42546707758E+03  0.00000000000E+00 0. -1.
<scales pt_clust_5="13000.00000" pt_clust_6="13000.00000" pt_clust_7="13000.00000" pt_clust_8="13000.00000" pt_clust_9="22.69082" pt_clust_10="280.58161"></scales>
<clustering>
<clus scale="   22.691">  1  9  2 -1</clus>
<clus scale="   84.652">  5  6 -1 -1</clus>
<clus scale="   92.712">  7  8 -1 -1</clus>
<clus scale="  130.291">  2  5  1 -1</clus>
<clus scale="  280.582">  1 10  2 -1</clus>
<clus scale="   22.691">  1  5  2 -1</clus>
</clustering>
</event>
<event>
10    4  0.7697601E-005  0.1930238E+03  0.7546771E-02  0.1182284E+00
         -1   -1    0    0    0  501 -0.00000000000E+00  0.00000000000E+00  0.95966552842E+03  0.95966552842E+03  0.00000000000E+00 0.  1.
         21   -1    0    0  503  502  0.00000000000E+00 -0.00000000000E+00 -0.31619263487E+03  0.31619263487E+03  0.00000000000E+00 0.  1.
         23    2    1    2    0    0 -0.66701461006E+02 -0.64114605423E+01  0.12483690215E+03  0.16898355142E+03  0.92092327507E+02 0.  0.
         24    2    1    2    0    0  0.13424578112E+03  0.12768731421E+03  0.24526555478E+03  0.31702147398E+03  0.77597955151E+02 0.  0.
        -11    1    4    4    0    0  0.60339925307E+02  0.10681857917E+03  0.13234404785E+03  0.18046069501E+03  0.00000000000E+00 0.  1.
         12    1    4    4    0    0  0.73905855817E+02  0.20868735045E+02  0.11292150693E+03  0.13656077898E+03  0.00000000000E+00 0. -1.
        -13    1    3    3    0    0 -0.18776714969E+02 -0.46249823505E+02  0.69982094358E+02  0.85959901873E+02  0.00000000000E+00 0. -1.
         13    1    3    3    0    0 -0.47924746037E+02  0.39838362962E+02  0.54854807788E+02  0.83023649545E+02  0.00000000000E+00 0.  1.
         21    1    1    2  503  501  0.79613290096E+02 -0.71725994451E+02 -0.23501023966E+03  0.25828803105E+03  0.00000000000E+00 0.  1.
         -2    1    1    2    0  502 -0.14715761021E+03 -0.49549859219E+02  0.50838067629E+03  0.53156510684E+03  0.00000000000E+00 0.  1.
<scales pt_clust_5="13000.00000" pt_clust_6="13000.00000" pt_clust_7="13000.00000" pt_clust_8="13000.00000" pt_clust_9="107.15827" pt_clust_10="176.73930"></scales>
<clustering>
<clus scale="   77.598">  5  6 -1 -1</clus>
<clus scale="   92.092">  7  8 -1 -1</clus>
<clus scale="  107.158">  2  9  1 -1</clus>
<clus scale="  105.114">  1  7  2 -1</clus>
<clus scale="  176.739">  2 10  1 -1</clus>
<clus scale="  107.158">  2  5  1 -1</clus>
</clustering>
</event>
<event>
10    4  0.7697601E-005  0.1881553E+03  0.7546771E-02  0.1182376E+00
          2   -1    0    0  502    0 -0.00000000000E+00  0.00000000000E+00  0.11349464097E+04  0.11349464097E+04  0.00000000000E+00 0. -1.
         21   -1    0    0  503  502  0.00000000000E+00 -0.00000000000E+00 -0.10553586587E+03  0.10553586587E+03  0.00000000000E+00 0.  1.
         24    2    1    2    0    0  0.56365367652E+02  0.36017946724E+02 -0.79488854944E-01  0.10601287552E+03  0.82245828467E+02 0.  0.
         23    2    1    2    0    0  0.13760099720E+03  0.30118092667E+00  0.21474468120E+03  0.27087665385E+03  0.91240113729E+02 0.  0.
        -13    1    3    3    0    0  0.51714377542E+02 -0.60781630190E+01 -0.24040772322E+02  0.57352241840E+02  0.00000000000E+00 0.  1.
         14    1    3    3    0    0  0.46509901098E+01  0.42096109743E+02  0.23961283467E+02  0.48660633677E+02  0.00000000000E+00 0. -1.
        -13    1    4    4    0    0  0.12454153526E+03 -0.32934364882E+02  0.17700999660E+03  0.21892419988E+03  0.00000000000E+00 0. -1.
         13    1    4    4    0    0  0.13059461939E+02  0.33235545808E+02  0.37734684602E+02  0.51952453968E+02  0.00000000000E+00 0.  1.
         21    1    1    2  503  501  0.28442310115E+02 -0.11622218034E+02  0.17123009546E+02  0.35174399961E+02  0.00000000000E+00 0. -1.
          1    1    1    2  501    0 -0.22240867497E+03 -0.24696909617E+02  0.79762234192E+03  0.82841834623E+03  0.00000000000E+00 0. -1.
<scales pt_clust_5="13000.00000" pt_clust_6="13000.00000" pt_clust_7="13000.00000" pt_clust_8="13000.00000" pt_clust_9="30.72525" pt_clust_10="164.55300"></scales>
<clustering>
<clus scale="   30.725">  2  9  1 -1</clus>
<clus scale="   82.246">  5  6 -1 -1</clus>
<clus scale="   91.240">  7  8 -1 -1</clus>
<clus scale="  113.252">  1  5  2 -1</clus>
<clus scale="  164.553">  2 10  1 -1</clus>
<clus scale="   30.725">  2  5  1 -1</clus>
</clustering>
</event>
<event>
10    4  0.7697601E-005  0.3746946E+03  0.7546771E-02  0.1076720E+00
         -3   -1    0    0    0  501 -0.00000000000E+00  0.00000000000E+00  0.38264025787E+03  0.38264025787E+03  0.00000000000E+00 0.  1.
         21   -1    0    0  503  502  0.00000000000E+00 -0.00000000000E+00 -0.74494534574E+03  0.74494534574E+03  0.00000000000E+00 0.  1.
         24    2    1    2    0    0 -0.14726853582E+03 -0.98229606276E+02 -0.25929531692E+02  0.19549147371E+03  0.78787679815E+02 0.  0.
         23    2    1    2    0    0  0.28646575479E+03 -0.21267668825E+03 -0.38225569657E+02  0.37017951780E+03  0.90981749969E+02 0.  0.
        -13    1    3    3    0    0 -0.12277708983E+03 -0.10950615133E+03 -0.11519805696E+02  0.16491972862E+03  0.00000000000E+00 0.  1.
         14    1    3    3    0    0 -0.24491445982E+02  0.11276545050E+02 -0.14409725996E+02  0.30571745090E+02  0.00000000000E+00 0. -1.
        -13    1    4    4    0    0  0.17284830249E+03 -0.17290259526E+03 -0.20795349090E+01  0.24449165136E+03  0.00000000000E+00 0.  1.
         13    1    4    4    0    0  0.11361745230E+03 -0.39774092993E+02 -0.36146034747E+02  0.12568786644E+03  0.00000000000E+00 0. -1.
         21    1    1    2  503  501  0.39203333361E+02 -0.53351862741E+02 -0.70841536057E+02  0.96963115850E+02  0.00000000000E+00 0.  1.
         -4    1    1    2    0  502 -0.17840055234E+03  0.36425815727E+03 -0.22730845046E+03  0.46495149624E+03  0.00000000000E+00 0.  1.
<scales pt_clust_5="13000.00000" pt_clust_6="13000.00000" pt_clust_7="13000.00000" pt_clust_8="13000.00000" pt_clust_9="66.20667" pt_clust_10="363.48090"></scales>
<clustering>
<clus scale="   66.207">  2  9  1 -1</clus>
<clus scale="   78.788">  5  6 -1 -1</clus>
<clus scale="   90.982">  7  8 -1 -1</clus>
<clus scale="  193.621">  1  5  2 -1</clus>
<clus scale="  363.481">  2 10  1 -1</clus>
<clus scale="   66.207">  2  5  1 -1</clus>
</clustering>
</event>
<event>
10    4  0.7697601E-005  0.1012350E+03  0.7546771E-02  0.1285545E+00
          2   -1    0    0  503    0 -0.00000000000E+00  0.00000000000E+00  0.35094695075E+03  0.35094695075E+03  0.00000000000E+00 0. -1.
         21   -1    0    0  501  502  0.00000000000E+00 -0.00000000000E+00 -0.25836698505E+03  0.25836698505E+03  0.00000000000E+00 0. -1.
         24    2    1    2    0    0  0.30942588900E+02  0.49620319302E+00  0.26324792254E+03  0.27693100512E+03  0.80209867520E+02 0.  0.
         23    2    1    2    0    0 -0.56277299783E+02  0.14291685999E+02  0.25948707086E+02  0.11450891332E+03  0.95223784169E+02 0.  0.
        -11    1    3    3    0    0 -0.17876447553E+02 -0.24832051146E+02  0.82009017328E+02  0.87531006303E+02  0.00000000000E+00 0.  1.
         12    1    3    3    0    0  0.48819036453E+02  0.25328254339E+02  0.18123890521E+03  0.18939999881E+03  0.00000000000E+00 0. -1.
        -11    1    4    4    0    0 -0.76970418455E+02 -0.84130784713E+01  0.55381712460E+01  0.77626648435E+02  0.00000000000E+00 0.  1.
         11    1    4    4    0    0  0.20693118672E+02  0.22704764471E+02  0.20410535840E+02  0.36882264888E+02  0.00000000000E+00 0. -1.
         21    1    1    2  503  502  0.31547005415E+02 -0.33891716863E+02 -0.19167289364E+03  0.19718610544E+03  0.00000000000E+00 0. -1.
          1    1    1    2  501    0 -0.62122945328E+01  0.19103827670E+02 -0.49437702845E+01  0.20687911921E+02  0.00000000000E+00 0. -1.
<scales pt_clust_5="13000.00000" pt_clust_6="13000.00000" pt_clust_7="13000.00000" pt_clust_8="13000.00000" pt_clust_9="32.57582" pt_clust_10="20.08852"></scales>
<clustering>
<clus scale="   20.089">  2 10  1 -1</clus>
<clus scale="   32.576">  2  9  1 -1</clus>
<clus scale="   80.210">  5  6 -1 -1</clus>
<clus scale="   87.262">  1  5  2 -1</clus>
<clus scale="   95.224">  7  8 -1 -1</clus>
<clus scale="   20.089">  2  5  1 -1</clus>
</clustering>
</event>
<event>
10    4  0.7697601E-005  0.1319399E+03  0.7546771E-02  0.1227346E+00
         21   -1    0    0  501  502  0.00000000000E+00  0.00000000000E+00  0.89028818493E+02  0.89028818493E+02  0.00000000000E+00 0. -1.
          2   -1    0    0  503    0 -0.00000000000E+00 -0.00000000000E+00 -0.34160509841E+03  0.34160509841E+03  0.00000000000E+00 0. -1.
         24    2    1    2    0    0 -0.21065263691E+02  0.72646230946E+02 -0.73102292543E+02  0.13247736432E+03  0.80530035865E+02 0.  0.
         23    2    1    2    0    0  0.11637945101E+02 -0.12091435939E+03 -0.11055463778E+03  0.18798407107E+03  0.91432811234E+02 0.  0.
        -13    1    3    3    0    0 -0.50063404144E+02  0.59689316080E+02 -0.59006127162E+02  0.97728613678E+02  0.00000000000E+00 0.  1.
         14    1    3    3    0    0  0.28998140454E+02  0.12956914866E+02 -0.14096165381E+02  0.34748750640E+02  0.00000000000E+00 0. -1.
        -11    1    4    4    0    0 -0.19190307640E+02 -0.90156648430E+01 -0.55715334794E+02  0.59613326120E+02  0.00000000000E+00 0.  1.
         11    1    4    4    0    0  0.30828252741E+02 -0.11189869454E+03 -0.54839302988E+02  0.12837074495E+03  0.00000000000E+00 0. -1.
         21    1    1    2  503  502 -0.12841744410E+02  0.18668119298E+02  0.86176282221E+01  0.24241959363E+02  0.00000000000E+00 0. -1.
          1    1    1    2  501    0  0.22269062999E+02  0.29600009142E+02 -0.77536977813E+02  0.85930522147E+02  0.00000000000E+00 0. -1.
<scales pt_clust_5="13000.00000" pt_clust_6="13000.00000" pt_clust_7="13000.00000" pt_clust_8="13000.00000" pt_clust_9="22.65853" pt_clust_10="37.47815"></scales>
<clustering>
<clus scale="   22.659">  1  9  2 -1</clus>
<clus scale="   37.478">  1 10  2 -1</clus>
<clus scale="   80.530">  5  6 -1 -1</clus>
<clus scale="   91.433">  7  8 -1 -1</clus>
<clus scale="  124.633">  2  5  1 -1</clus>
<clus scale="   22.659">  1  5  2 -1</clus>
</clustering>
</event>
<event>
10    4  0.7697601E-005  0.1409145E+03  0.7546771E-02  0.1230708E+00
          2   -1    0    0  503    0 -0.00000000000E+00  0.00000000000E+00  0.10819198870E+04  0.10819198870E+04  0.00000000000E+00 0. -1.
         21   -1    0    0  501  502  0.00000000000E+00 -0.00000000000E+00 -0.21004354067E+03  0.21004354067E+03  0.00000000000E+00 0.  1.
         23    2    1    2    0    0  0.66966386000E+02  0.31421832771E+02 -0.13654657630E+03  0.17951002831E+03  0.90039182225E+02 0.  0.
         24    2    1    2    0    0 -0.89463398759E+01 -0.98122028385E+02  0.35893458196E+03  0.38095629629E+03  0.81152301883E+02 0.  0.
        -11    1    4    4    0    0 -0.15259164671E+02 -0.10561484471E+03  0.25319298551E+03  0.27476176125E+03  0.00000000000E+00 0.  1.
         12    1    4    4    0    0  0.63128247951E+01  0.74928163228E+01  0.10574159645E+03  0.10619453504E+03  0.00000000000E+00 0. -1.
        -11    1    3    3    0    0  0.20704442470E+02 -0.24391650307E+02 -0.84254139941E+02  0.90124284407E+02  0.00000000000E+00 0. -1.
         11    1    3    3    0    0  0.46261943530E+02  0.55813483078E+02 -0.52292436358E+02  0.89385743902E+02  0.00000000000E+00 0.  1.
         21    1    1    2  503  502 -0.66531073101E+02 -0.69444275530E+02  0.35461923992E+02  0.10250092265E+03  0.00000000000E+00 0.  1.
          1    1    1    2  501    0  0.85110269763E+01  0.13614447114E+03  0.61402641666E+03  0.62899618040E+03  0.00000000000E+00 0. -1.
<scales pt_clust_5="13000.00000" pt_clust_6="13000.00000" pt_clust_7="13000.00000" pt_clust_8="13000.00000" pt_clust_9="96.17116" pt_clust_10="115.20074"></scales>
<clustering>
<clus scale="   81.152">  5  6 -1 -1</clus>
<clus scale="   90.039">  7  8 -1 -1</clus>
<clus scale="   96.171">  2  9  1 -1</clus>
<clus scale="   95.432">  1  7  2 -1</clus>
<clus scale="  115.201">  2 10  1 -1</clus>
<clus scale="   96.171">  2  5  1 -1</clus>
</clustering>
</event>
<event>
10    4  0.7697601E-005  0.1389060E+03  0.7546771E-02  0.1229544E+00
         21   -1    0    0  503  502  0.00000000000E+00  0.00000000000E+00  0.35928794251E+03  0.35928794251E+03  0.00000000000E+00 0.  1.
         -1   -1    0    0    0  501 -0.00000000000E+00 -0.00000000000E+00 -0.28982474395E+03  0.28982474395E+03  0.00000000000E+00 0.  1.
         24    2    1    2    0    0  0.31464130399E+02  0.31427759495E+02  0.10293171321E+03  0.13744425124E+03  0.79487666011E+02 0.  0.
         23    2    1    2    0    0  0.39717725749E+02 -0.79422287483E+02 -0.21654886609E+03  0.25176646006E+03  0.92776837197E+02 0.  0.
        -13    1    3    3    0    0  0.55617926404E+02  0.35594205345E+02  0.81434617585E+02  0.10484225357E+03  0.00000000000E+00 0.  1.
         14    1    3    3    0    0 -0.24153796005E+02 -0.41664458498E+01  0.21497095622E+02  0.32601997679E+02  0.00000000000E+00 0. -1.
        -11    1    4    4    0    0 -0.16466317985E+02 -0.34828821656E+02 -0.21884755502E+02  0.44307211257E+02  0.00000000000E+00 0. -1.
         11    1    4    4    0    0  0.56184043733E+02 -0.44593465827E+02 -0.19466411059E+03  0.20745924881E+03  0.00000000000E+00 0.  1.
         21    1    1    2  503  501  0.50658426563E+02  0.69115293977E+01  0.80735476445E+02  0.95562872379E+02  0.00000000000E+00 0.  1.
         -2    1    1    2    0  502 -0.12184028271E+03  0.41082998590E+02  0.10234487499E+03  0.16433910278E+03  0.00000000000E+00 0.  1.
<scales pt_clust_5="13000.00000" pt_clust_6="13000.00000" pt_clust_7="13000.00000" pt_clust_8="13000.00000" pt_clust_9="51.12774" pt_clust_10="103.37960"></scales>
<clustering>
<clus scale="   51.128">  1  9  2 -1</clus>
<clus scale="   79.488">  5  6 -1 -1</clus>
<clus scale="   92.777">  7  8 -1 -1</clus>
<clus scale="  102.055">  2  5  1 -1</clus>
<clus scale="  103.380">  1 10  2 -1</clus>
<clus scale="   51.128">  1  5  2 -1</clus>
</clustering>
</event>
<event>
10    4  0.7697601E-005  0.3585254E+03  0.7546771E-02  0.1093600E+00
         21   -1    0    0  503  502  0.00000000000E+00  0.00000000000E+00  0.47725096130E+03  0.47725096130E+03  0.00000000000E+00 0. -1.
          2   -1    0    0  502    0 -0.00000000000E+00 -0.00000000000E+00 -0.73418787100E+03  0.73418787100E+03  0.00000000000E+00 0. -1.
         24    2    1    2    0    0 -0.10049620607E+03  0.78493034226E+02 -0.13767887395E+03  0.20409157532E+03  0.80232505436E+02 0.  0.
         23    2    1    2    0    0 -0.83542204408E+02 -0.26999754212E+03  0.14402723151E+03  0.33034218853E+03  0.92217923654E+02 0.  0.
        -13    1    3    3    0    0 -0.33240321287E+02 -0.14185181527E+02 -0.33895696866E+02  0.49548527730E+02  0.00000000000E+00 0.  1.
         14    1    3    3    0    0 -0.67255884782E+02  0.92678215753E+02 -0.10378317708E+03  0.15454304759E+03  0.00000000000E+00 0. -1.
        -11    1    4    4    0    0 -0.53312934345E+02 -0.76307283951E+02  0.11684886331E+02  0.93816880789E+02  0.00000000000E+00 0.  1.
         11    1    4    4    0    0 -0.30229270064E+02 -0.19369025817E+03  0.13234234518E+03  0.23652530775E+03  0.00000000000E+00 0. -1.
         21    1    1    2  503  501  0.54889764923E+02 -0.12644511445E+03  0.10524688547E+03  0.17343056294E+03  0.00000000000E+00 0. -1.
          1    1    1    2  501    0  0.12914864555E+03  0.31794962234E+03 -0.36853215273E+03  0.50357450550E+03  0.00000000000E+00 0. -1.
<scales pt_clust_5="13000.00000" pt_clust_6="13000.00000" pt_clust_7="13000.00000" pt_clust_8="13000.00000" pt_clust_9="137.84503" pt_clust_10="346.46277"></scales>
<clustering>
<clus scale="   80.233">  5  6 -1 -1</clus>
<clus scale="   92.218">  7  8 -1 -1</clus>
<clus scale="  137.845">  1  9  2 -1</clus>
<clus scale="  140.878">  2  5  1 -1</clus>
<clus scale="  346.463">  1 10  2 -1</clus>
<clus scale="  137.845">  1  5  2 -1</clus>
</clustering>
</event>
<event>
10    4  0.7697601E-005  0.1490445E+03  0.7546771E-02  0.1203130E+00
          2   -1    0    0  503    0 -0.00000000000E+00  0.00000000000E+00  0.68866343787E+03  0.68866343787E+03  0.00000000000E+00 0. -1.
         21   -1    0    0  501  502  0.00000000000E+00 -0.00000000000E+00 -0.50068615446E+02  0.50068615446E+02  0.00000000000E+00 0. -1.
         23    2    1    2    0    0 -0.92997797953E+01  0.12844839909E+03  0.34751528626E+03  0.38227251801E+03  0.93701263120E+02 0.  0.
         24    2    1    2    0    0  0.38286366283E+02 -0.82454934942E+02  0.20134564041E+03  0.24281803163E+03  0.10077632377E+03 0.  0.
        -11    1    4    4    0    0  0.46186447592E+02  0.29915332004E+01  0.98812217411E+02  0.10911457979E+03  0.00000000000E+00 0.  1.
         12    1    4    4    0    0 -0.79000813086E+01 -0.85446468142E+02  0.10253342300E+03  0.13370345184E+03  0.00000000000E+00 0. -1.
        -11    1    3    3    0    0 -0.29983412192E+02  0.84508439314E+01  0.34906161540E+02  0.46785274214E+02  0.00000000000E+00 0.  1.
         11    1    3    3    0    0  0.20683632397E+02  0.11999755516E+03  0.31260912472E+03  0.33548724380E+03  0.00000000000E+00 0. -1.
         21    1    1    2  503  502 -0.20528472328E+02 -0.49892782764E+01  0.95481532256E+01  0.23183578323E+02  0.00000000000E+00 0. -1.
          1    1    1    2  501    0 -0.84581141596E+01 -0.41004185873E+02  0.80185742525E+02  0.90457925350E+02  0.00000000000E+00 0. -1.
<scales pt_clust_5="13000.00000" pt_clust_6="13000.00000" pt_clust_7="13000.00000" pt_clust_8="13000.00000" pt_clust_9="21.12608" pt_clust_10="43.00006"></scales>
<clustering>
<clus scale="   21.126">  2  9  1 -1</clus>
<clus scale="   43.000">  2 10  1 -1</clus>
<clus scale="   93.701">  7  8 -1 -1</clus>
<clus scale="  100.776">  5  6 -1 -1</clus>
<clus scale="  144.355">  1  7  2 -1</clus>
<clus scale="   21.126">  2  5  1 -1</clus>
</clustering>
</event>
<event>
10    4  0.7697601E-005  0.4846724E+03  0.7546771E-02  0.1017961E+00
         21   -1    0    0  503  502  0.00000000000E+00  0.00000000000E+00  0.49473922055E+03  0.49473922055E+03  0.00000000000E+00 0. -1.
          2   -1    0    0  502    0 -0.00000000000E+00 -0.00000000000E+00 -0.11368999955E+04  0.11368999955E+04  0.00000000000E+00 0. -1.
         24    2    1    2    0    0 -0.12095455401E+03 -0.52376135728E+03 -0.82203801453E+03  0.98544174468E+03  0.79956058566E+02 0.  0.
         23    2    1    2    0    0 -0.16823877071E+02  0.32973694739E+03  0.85981146990E+02  0.34834275821E+03  0.70288137313E+02 0.  0.
        -11    1    3    3    0    0 -0.11002852215E+02 -0.22188062212E+03 -0.33130627540E+03  0.39889337090E+03  0.00000000000E+00 0.  1.
         12    1    3    3    0    0 -0.10995170179E+03 -0.30188073516E+03 -0.49073173913E+03  0.58654837378E+03  0.00000000000E+00 0. -1.
        -13    1    4    4    0    0 -0.12925273939E+02  0.16218781079E+03  0.64366088340E+01  0.16282929284E+03  0.00000000000E+00 0.  1.
         13    1    4    4    0    0 -0.38986031317E+01  0.16754913660E+03  0.79544538157E+02  0.18551346537E+03  0.00000000000E+00 0. -1.
         21    1    1    2  503  501  0.25401784379E+02  0.65440853562E+02  0.10546798017E+03  0.12669353103E+03  0.00000000000E+00 0.  1.
          1    1    1    2  501    0  0.11237664670E+03  0.12858355633E+03 -0.11571887574E+02  0.17116118212E+03  0.00000000000E+00 0. -1.
<scales pt_clust_5="13000.00000" pt_clust_6="13000.00000" pt_clust_7="13000.00000" pt_clust_8="13000.00000" pt_clust_9="70.19798" pt_clust_10="184.74463"></scales>
<clustering>
<clus scale="   70.198">  1  9  2 -1</clus>
<clus scale="   70.288">  7  8 -1 -1</clus>
<clus scale="   79.956">  5  6 -1 -1</clus>
<clus scale="  184.745">  1 10  2 -1</clus>
<clus scale="  483.172">  1  7  2 -1</clus>
<clus scale="   70.198">  1  5  2 -1</clus>
</clustering>
</event>
<event>
10    4  0.7697601E-005  0.1610058E+03  0.7546771E-02  0.1189200E+00
          2   -1    0    0  502    0 -0.00000000000E+00  0.00000000000E+00  0.40572952190E+03  0.40572952190E+03  0.00000000000E+00 0. -1.
         21   -1    0    0  503  502  0.00000000000E+00 -0.00000000000E+00 -0.29885502049E+03  0.29885502049E+03  0.00000000000E+00 0. -1.
         24    2    1    2    0    0 -0.12533628244E+03  0.34318667800E+02  0.25436367660E+03  0.29671893125E+03  0.80338593071E+02 0.  0.
         23    2    1    2    0    0  0.16081287086E+03 -0.17184641150E+02 -0.15102129298E+03  0.23922585897E+03  0.90914736666E+02 0.  0.
        -13    1    3    3    0    0 -0.64281749522E+02 -0.81585080120E+00  0.52766618151E+02  0.83169254687E+02  0.00000000000E+00 0.  1.
         14    1    3    3    0    0 -0.61054532917E+02  0.35134518601E+02  0.20159705845E+03  0.21354967657E+03  0.00000000000E+00 0. -1.
        -13    1    4    4    0    0  0.76443528134E+02 -0.44776822247E+02 -0.11055079275E+03  0.14166882008E+03  0.00000000000E+00 0. -1.
         13    1    4    4    0    0  0.84369342721E+02  0.27592181098E+02 -0.40470500228E+02  0.97557038894E+02  0.00000000000E+00 0.  1.
         21    1    1    2  503  501 -0.36551903843E+02  0.43706987139E+02 -0.58558117497E+02  0.81703093724E+02  0.00000000000E+00 0. -1.
          1    1    1    2  501    0  0.10753154260E+01 -0.60841013789E+02  0.62090235292E+02  0.86936658440E+02  0.00000000000E+00 0. -1.
<scales pt_clust_5="13000.00000" pt_clust_6="13000.00000" pt_clust_7="13000.00000" pt_clust_8="13000.00000" pt_clust_9="56.97668" pt_clust_10="58.47417"></scales>
<clustering>
<clus scale="   56.977">  2  9  1 -1</clus>
<clus scale="   58.474">  2 10  1 -1</clus>
<clus scale="   80.339">  5  6 -1 -1</clus>
<clus scale="   90.915">  7  8 -1 -1</clus>
<clus scale="  155.279">  1  5  2 -1</clus>
<clus scale="   56.977">  2  5  1 -1</clus>
</clustering>
</event>
<event>
10    4  0.7697601E-005  0.1020725E+03  0.7546771E-02  0.1289507E+00
         21   -1    0    0  503  502  0.00000000000E+00  0.00000000000E+00  0.37045971869E+03  0.37045971869E+03  0.00000000000E+00 0.  1.
         -3   -1    0    0    0  501 -0.00000000000E+00 -0.00000000000E+00 -0.39633640630E+03  0.39633640630E+03  0.00000000000E+00 0.  1.
         24    2    1    2    0    0  0.21636421390E+02  0.59886427721E+01 -0.28156757613E+03  0.29272718465E+03  0.76843387064E+02 0.  0.
         23    2    1    2    0    0  0.77354360708E+01  0.29978473983E+01 -0.31752088063E+02  0.10562433171E+03  0.10039661494E+03 0.  0.
        -13    1    3    3    0    0  0.32609310212E+02 -0.27893051552E+02 -0.12501160472E+03  0.13217144454E+03  0.00000000000E+00 0.  1.
         14    1    3    3    0    0 -0.10972888822E+02  0.33881694324E+02 -0.15655597140E+03  0.16055574011E+03  0.00000000000E+00 0. -1.
        -11    1    4    4    0    0  0.14064230278E+02  0.43468047051E+02 -0.43424738543E+02  0.63031592121E+02  0.00000000000E+00 0. -1.
         11    1    4    4    0    0 -0.63287942074E+01 -0.40470199653E+02  0.11672650480E+02  0.42592739584E+02  0.00000000000E+00 0.  1.
         21    1    1    2  503  501 -0.88100098744E+02 -0.36836896450E+02  0.28802790846E+03  0.30344465787E+03  0.00000000000E+00 0.  1.
         -4    1    1    2    0  502  0.58728241283E+02  0.27850406280E+02 -0.58493187813E+00  0.64999950765E+02  0.00000000000E+00 0.  1.
<scales pt_clust_5="13000.00000" pt_clust_6="13000.00000" pt_clust_7="13000.00000" pt_clust_8="13000.00000" pt_clust_9="38.81692" pt_clust_10="64.99732"></scales>
<clustering>
<clus scale="   64.997">  1 10  2 -1</clus>
<clus scale="   38.817">  1  9  2 -1</clus>
<clus scale="   76.843">  5  6 -1 -1</clus>
<clus scale="   79.020">  2  5  1 -1</clus>
<clus scale="  100.397">  7  8 -1 -1</clus>
<clus scale="   64.997">  1  5  2 -1</clus>
</clustering>
</event>
<event>
10    4  0.7697601E-005  0.1443206E+03  0.7546771E-02  0.1230952E+00
          2   -1    0    0  503    0 -0.00000000000E+00  0.00000000000E+00  0.48786829545E+03  0.48786829545E+03  0.00000000000E+00 0. -1.
         21   -1    0    0  501  502  0.00000000000E+00 -0.00000000000E+00 -0.13765508777E+03  0.13765508777E+03  0.00000000000E+00 0. -1.
         24    2    1    2    0    0  0.93198627451E+01 -0.51985166963E+02  0.29032803807E+03  0.30561060809E+03  0.79486833274E+02 0.  0.
         23    2    1    2    0    0  0.10500038401E+03  0.87630955889E+02  0.46058729867E+02  0.17083432539E+03  0.91425899286E+02 0.  0.
        -11    1    3    3    0    0  0.13133114345E+02 -0.72663928187E+02  0.23884644866E+03  0.25000030237E+03  0.00000000000E+00 0.  1.
         12    1    3    3    0    0 -0.38132516001E+01  0.20678761224E+02  0.51481589413E+02  0.55610305718E+02  0.00000000000E+00 0. -1.
        -11    1    4    4    0    0  0.18452579710E+02  0.73404218391E+02  0.31241317567E+02  0.81882213569E+02  0.00000000000E+00 0.  1.
         11    1    4    4    0    0  0.86547804303E+02  0.14226737497E+02  0.14817412300E+02  0.88952111817E+02  0.00000000000E+00 0. -1.
         21    1    1    2  503  502 -0.31460470707E+02  0.22813598086E+02  0.26275547795E+02  0.46910829098E+02  0.00000000000E+00 0. -1.
          1    1    1    2  501    0 -0.82859776051E+02 -0.58459387012E+02 -0.12449108057E+02  0.10216762065E+03  0.00000000000E+00 0. -1.
<scales pt_clust_5="13000.00000" pt_clust_6="13000.00000" pt_clust_7="13000.00000" pt_clust_8="13000.00000" pt_clust_9="38.86157" pt_clust_10="111.66794"></scales>
<clustering>
<clus scale="   38.862">  1  9  2 -1</clus>
<clus scale="   79.487">  5  6 -1 -1</clus>
<clus scale="   88.389">  1  5  2 -1</clus>
<clus scale="   91.426">  7  8 -1 -1</clus>
<clus scale="  111.668">  2 10  1 -1</clus>
<clus scale="  111.668">  2  5  1 -1</clus>
</clustering>
</event>
<event>
10    4  0.7697601E-005  0.9837820E+02  0.7546771E-02  0.1288560E+00
         21   -1    0    0  501  502  0.00000000000E+00  0.00000000000E+00  0.49941659601E+02  0.49941659601E+02  0.00000000000E+00 0. -1.
          2   -1    0    0  503    0 -0.00000000000E+00 -0.00000000000E+00 -0.73732609449E+03  0.73732609449E+03  0.00000000000E+00 0. -1.
         23    2    1    2    0    0  0.36377663263E+02  0.47504828106E+02 -0.47620444086E+03  0.48845346321E+03  0.90752813486E+02 0.  0.
         24    2    1    2    0    0  0.38070614779E+02  0.11113812487E+02 -0.88239800686E+02  0.12644627186E+03  0.81421795019E+02 0.  0.
        -11    1    4    4    0    0 -0.25898934855E+02  0.28870434143E+01 -0.26304066203E+02  0.37026932699E+02  0.00000000000E+00 0.  1.
         12    1    4    4    0    0  0.63969549634E+02  0.82267690725E+01 -0.61935734483E+02  0.89419339159E+02  0.00000000000E+00 0. -1.
        -11    1    3    3    0    0 -0.43081848265E+01 -0.21794414878E+02 -0.49626540504E+02  0.54372332107E+02  0.00000000000E+00 0.  1.
         11    1    3    3    0    0  0.40685848089E+02  0.69299242984E+02 -0.42657790035E+03  0.43408113111E+03  0.00000000000E+00 0. -1.
         21    1    1    2  503  502  0.37932822770E+01 -0.24782705843E+02 -0.30420405331E+01  0.25255207581E+02  0.00000000000E+00 0. -1.
          1    1    1    2  501    0 -0.78241560319E+02 -0.33835934750E+02 -0.11989815281E+03  0.14711281144E+03  0.00000000000E+00 0. -1.
<scales pt_clust_5="13000.00000" pt_clust_6="13000.00000" pt_clust_7="13000.00000" pt_clust_8="13000.00000" pt_clust_9="25.07133" pt_clust_10="87.88305"></scales>
<clustering>
<clus scale="   25.071">  1  9  2 -1</clus>
<clus scale="   81.422">  5  6 -1 -1</clus>
<clus scale="   87.883">  1 10  2 -1</clus>
<clus scale="   89.843">  1  5  2 -1</clus>
<clus scale="   90.753">  7  8 -1 -1</clus>
<clus scale="   25.071">  1  5  2 -1</clus>
</clustering>
</event>
<event>
10    4  0.7697601E-005  0.1332251E+03  0.7546771E-02  0.1225463E+00
          2   -1    0    0  503    0 -0.00000000000E+00  0.00000000000E+00  0.28619676650E+03  0.28619676650E+03  0.00000000000E+00 0. -1.
         21   -1    0    0  501  502  0.00000000000E+00 -0.00000000000E+00 -0.52512571924E+03  0.52512571924E+03  0.00000000000E+00 0. -1.
         24    2    1    2    0    0 -0.96048551235E+02 -0.14469851094E+02  0.10415776729E+03  0.16356111786E+03  0.80428216472E+02 0.  0.
         23    2    1    2    0    0  0.84889361925E+02  0.56644066667E+02 -0.38265097620E+03  0.40645547607E+03  0.91485137527E+02 0.  0.
        -11    1    3    3    0    0 -0.26617605464E+02 -0.42516441558E+02  0.31552327282E+02  0.59259548431E+02  0.00000000000E+00 0.  1.
         12    1    3    3    0    0 -0.69430945771E+02  0.28046590464E+02  0.72605440006E+02  0.10430156943E+03  0.00000000000E+00 0. -1.
        -11    1    4    4    0    0  0.20630920366E+02  0.57815668956E+02 -0.26876696370E+03  0.27568817028E+03  0.00000000000E+00 0. -1.
         11    1    4    4    0    0  0.64258441560E+02 -0.11716022889E+01 -0.11388401249E+03  0.13076730579E+03  0.00000000000E+00 0.  1.
         21    1    1    2  503  502 -0.41936614744E+02  0.12364475901E+02 -0.84851614171E+02  0.95453425020E+02  0.00000000000E+00 0. -1.
          1    1    1    2  501    0  0.53095804054E+02 -0.54538691474E+02  0.12441587033E+03  0.14585246678E+03  0.00000000000E+00 0. -1.
<scales pt_clust_5="13000.00000" pt_clust_6="13000.00000" pt_clust_7="13000.00000" pt_clust_8="13000.00000" pt_clust_9="43.72139" pt_clust_10="75.17866"></scales>
<clustering>
<clus scale="   43.721">  2  9  1 -1</clus>
<clus scale="   75.179">  2 10  1 -1</clus>
<clus scale="   80.428">  5  6 -1 -1</clus>
<clus scale="   91.485">  7  8 -1 -1</clus>
<clus scale="  125.889">  1  5  2 -1</clus>
<clus scale="   43.721">  2  5  1 -1</clus>
</clustering>
</event>
<event>
10    4  0.7697601E-005  0.1544001E+03  0.7546771E-02  0.1199315E+00
          2   -1    0    0  503    0 -0.00000000000E+00  0.00000000000E+00  0.64568795930E+03  0.64568795930E+03  0.00000000000E+00 0. -1.
         21   -1    0    0  501  502  0.00000000000E+00 -0.00000000000E+00 -0.58697113408E+02  0.58697113408E+02  0.00000000000E+00 0. -1.
         23    2    1    2    0    0  0.88316051008E+02 -0.79287582498E+02  0.20487690777E+03  0.25351649812E+03  0.90608067400E+02 0.  0.
         24    2    1    2    0    0 -0.13042867453E+03  0.47881804617E+02  0.18011058736E+03  0.23665915422E+03  0.65294909790E+02 0.  0.
        -13    1    4    4    0    0 -0.40034454122E+02  0.42514009842E+01  0.14087773142E+02  0.42653221206E+02  0.00000000000E+00 0.  1.
         14    1    4    4    0    0 -0.90394220412E+02  0.43630403633E+02  0.16602281422E+03  0.19400593302E+03  0.00000000000E+00 0. -1.
        -13    1    3    3    0    0 -0.14346333410E+02 -0.31866014823E+02  0.63442284835E+02  0.72430543889E+02  0.00000000000E+00 0.  1.
         13    1    3    3    0    0  0.10266238442E+03 -0.47421567674E+02  0.14143462293E+03  0.18108595423E+03  0.00000000000E+00 0. -1.
         21    1    1    2  503  502  0.47361337577E+01  0.26800919550E+02  0.43650212211E+02  0.51439880227E+02  0.00000000000E+00 0. -1.
          1    1    1    2  501    0  0.37376489767E+02  0.46048583299E+01  0.15835313855E+03  0.16276954014E+03  0.00000000000E+00 0. -1.
<scales pt_clust_5="13000.00000" pt_clust_6="13000.00000" pt_clust_7="13000.00000" pt_clust_8="13000.00000" pt_clust_9="27.21618" pt_clust_10="40.40885"></scales>
<clustering>
<clus scale="   27.216">  1  9  2 -1</clus>
<clus scale="   40.409">  2 10  1 -1</clus>
<clus scale="   65.295">  5  6 -1 -1</clus>
<clus scale="   90.608">  7  8 -1 -1</clus>
<clus scale="  141.043">  2  5  1 -1</clus>
<clus scale="   40.409">  2  5  1 -1</clus>
</clustering>
</event>
<event>
10    4  0.7697601E-005  0.2103019E+03  0.7546771E-02  0.1176618E+00
         21   -1    0    0  503  502  0.00000000000E+00  0.00000000000E+00  0.38451946641E+03  0.38451946641E+03  0.00000000000E+00 0.  1.
         -1   -1    0    0    0  501 -0.00000000000E+00 -0.00000000000E+00 -0.48959335532E+03  0.48959335532E+03  0.00000000000E+00 0.  1.
         24    2    1    2    0    0 -0.79354227439E+01 -0.39294081053E+02 -0.33351149694E+03  0.34605968033E+03  0.83188869554E+02 0.  0.
         23    2    1    2    0    0 -0.38035446698E+01 -0.16174120266E+03 -0.61910724267E+00  0.18662751424E+03  0.93030974349E+02 0.  0.
        -13    1    3    3    0    0 -0.15153316589E+02 -0.57431601354E+02 -0.30933543761E+03  0.31498638828E+03  0.00000000000E+00 0.  1.
         14    1    3    3    0    0  0.72178938451E+01  0.18137520301E+02 -0.24176059328E+02  0.31073292051E+02  0.00000000000E+00 0. -1.
        -11    1    4    4    0    0  0.26419823658E+02 -0.38606073647E+02 -0.31163370773E+02  0.56210245352E+02  0.00000000000E+00 0. -1.
         11    1    4    4    0    0 -0.30223368328E+02 -0.12313512901E+03  0.30544263531E+02  0.13041726889E+03  0.00000000000E+00 0.  1.
         21    1    1    2  503  501  0.33362597442E+02 -0.46848055061E+01  0.78978358608E+02  0.85863795857E+02  0.00000000000E+00 0. -1.
         -2    1    1    2    0  502 -0.21623630028E+02  0.20572008922E+03  0.15007835666E+03  0.25556183131E+03  0.00000000000E+00 0.  1.
<scales pt_clust_5="13000.00000" pt_clust_6="13000.00000" pt_clust_7="13000.00000" pt_clust_8="13000.00000" pt_clust_9="33.68991" pt_clust_10="188.60571"></scales>
<clustering>
<clus scale="   33.690">  1  9  2 -1</clus>
<clus scale="   83.189">  5  6 -1 -1</clus>
<clus scale="   92.328">  2  5  1 -1</clus>
<clus scale="   93.031">  7  8 -1 -1</clus>
<clus scale="  188.606">  1 10  2 -1</clus>
<clus scale="   33.690">  1  5  2 -1</clus>
</clustering>
</event>
<event>
10    4  0.7697601E-005  0.3121624E+03  0.7546771E-02  0.1111464E+00
          2   -1    0    0  502    0 -0.00000000000E+00  0.00000000000E+00  0.58897025679E+03  0.58897025679E+03  0.00000000000E+00 0. -1.
         21   -1    0    0  503  502  0.00000000000E+00 -0.00000000000E+00 -0.43439041841E+03  0.43439041841E+03  0.00000000000E+00 0. -1.
         24    2    1    2    0    0 -0.94667788415E+02  0.83714655295E+02 -0.10386041156E+03  0.18203764980E+03  0.79878577745E+02 0.  0.
         23    2    1    2    0    0  0.32156234137E+03  0.21557667899E+02  0.13618521494E+03  0.36184587801E+03  0.92298181103E+02 0.  0.
        -13    1    3    3    0    0 -0.27778660738E+02  0.67586104584E+02 -0.24654422874E+02  0.77119232961E+02  0.00000000000E+00 0.  1.
         14    1    3    3    0    0 -0.66889127677E+02  0.16128550712E+02 -0.79205988685E+02  0.10491841684E+03  0.00000000000E+00 0. -1.
        -11    1    4    4    0    0  0.24636745544E+02 -0.17213961483E+02  0.34152255194E+02  0.45493584556E+02  0.00000000000E+00 0.  1.
         11    1    4    4    0    0  0.29692559582E+03  0.38771629383E+02  0.10203295975E+03  0.31635229346E+03  0.00000000000E+00 0. -1.
         21    1    1    2  503  501  0.31877645557E+02 -0.24652696322E+02 -0.11338109561E+03  0.12032959970E+03  0.00000000000E+00 0.  1.
          1    1    1    2  501    0 -0.25877219851E+03 -0.80619626873E+02  0.23563613061E+03  0.35914754768E+03  0.00000000000E+00 0. -1.
<scales pt_clust_5="13000.00000" pt_clust_6="13000.00000" pt_clust_7="13000.00000" pt_clust_8="13000.00000" pt_clust_9="40.29814" pt_clust_10="298.20548"></scales>
<clustering>
<clus scale="   40.298">  2  9  1 -1</clus>
<clus scale="   79.879">  5  6 -1 -1</clus>
<clus scale="   92.298">  7  8 -1 -1</clus>
<clus scale="  134.553">  1  5  2 -1</clus>
<clus scale="  298.205">  2 10  1 -1</clus>
<clus scale="   40.298">  2  5  1 -1</clus>
</clustering>
</event>
<event>
10    4  0.7697601E-005  0.1873591E+03  0.7546771E-02  0.1178157E+00
         -3   -1    0    0    0  501 -0.00000000000E+00  0.00000000000E+00  0.19607263471E+04  0.19607263471E+04  0.00000000000E+00 0.  1.
         21   -1    0    0  501  502  0.00000000000E+00 -0.00000000000E+00 -0.21306870352E+03  0.21306870352E+03  0.00000000000E+00 0.  1.
         24    2    1    2    0    0 -0.76279974324E+02 -0.22371979706E+02  0.46611059225E+03  0.47996760032E+03  0.82405541051E+02 0.  0.
         23    2    1    2    0    0 -0.26493078492E+02 -0.10111077247E+03  0.37073630077E+03  0.39796058138E+03  0.10000974006E+03 0.  0.
        -13    1    3    3    0    0 -0.78536772358E+02  0.59203767100E+01  0.40500827253E+03  0.41259517241E+03  0.00000000000E+00 0.  1.
         14    1    3    3    0    0  0.22567980341E+01 -0.28292356416E+02  0.61102319713E+02  0.67372427916E+02  0.00000000000E+00 0. -1.
        -13    1    4    4    0    0 -0.44856640653E+02 -0.44225907702E+02  0.29409163589E+03  0.30076226396E+03  0.00000000000E+00 0. -1.
         13    1    4    4    0    0  0.18363562161E+02 -0.56884864767E+02  0.76644664886E+02  0.97198317425E+02  0.00000000000E+00 0.  1.
         21    1    1    2  503  502 -0.66780756425E+02 -0.45226462097E+02 -0.17039530810E+03  0.18851966297E+03  0.00000000000E+00 0.  1.
         -4    1    1    2    0  503  0.16955380924E+03  0.16870921427E+03  0.10812060587E+04  0.11073472059E+04  0.00000000000E+00 0.  1.
<scales pt_clust_5="13000.00000" pt_clust_6="13000.00000" pt_clust_7="13000.00000" pt_clust_8="13000.00000" pt_clust_9="80.65421" pt_clust_10="158.43454"></scales>
<clustering>
<clus scale="   80.654">  2  9  1 -1</clus>
<clus scale="   82.406">  5  6 -1 -1</clus>
<clus scale="  100.010">  7  8 -1 -1</clus>
<clus scale="  126.109">  1  5  2 -1</clus>
<clus scale="  158.435">  2 10  1 -1</clus>
<clus scale="   80.654">  2  5  1 -1</clus>
</clustering>
</event>
<event>
10    4  0.7697601E-005  0.9324110E+02  0.7546771E-02  0.1303446E+00
         21   -1    0    0  503  502  0.00000000000E+00  0.00000000000E+00  0.63418396030E+02  0.63418396030E+02  0.00000000000E+00 0. -1.
          2   -1    0    0  502    0 -0.00000000000E+00 -0.00000000000E+00 -0.66547990669E+03  0.66547990669E+03  0.00000000000E+00 0. -1.
         24    2    1    2    0    0  0.13368964828E+02 -0.22414940218E+02 -0.14419095266E+03  0.16613372677E+03  0.78282983951E+02 0.  0.
         23    2    1    2    0    0  0.55659119230E+02 -0.20794844866E+01 -0.87791191781E+02  0.13864408673E+03  0.91720377355E+02 0.  0.
        -11    1    3    3    0    0 -0.30612509155E+02 -0.18817537507E+02 -0.45129212025E+02  0.57687704172E+02  0.00000000000E+00 0.  1.
         12    1    3    3    0    0  0.43981473983E+02 -0.35974027113E+01 -0.99061740635E+02  0.10844602260E+03  0.00000000000E+00 0. -1.
        -11    1    4    4    0    0 -0.81962325229E+01 -0.34415550990E+02 -0.23845506524E+02  0.42663996049E+02  0.00000000000E+00 0.  1.
         11    1    4    4    0    0  0.63855351753E+02  0.32336066503E+02 -0.63945685257E+02  0.95980090682E+02  0.00000000000E+00 0. -1.
         21    1    1    2  503  501 -0.13396062433E+02 -0.35508397683E+02  0.67177638654E+01  0.38541265497E+02  0.00000000000E+00 0. -1.
          1    1    1    2  501    0 -0.55632021625E+02  0.60002822388E+02 -0.37679713008E+03  0.38557922372E+03  0.00000000000E+00 0. -1.
<scales pt_clust_5="13000.00000" pt_clust_6="13000.00000" pt_clust_7="13000.00000" pt_clust_8="13000.00000" pt_clust_9="37.95130" pt_clust_10="80.08548"></scales>
<clustering>
<clus scale="   37.951">  1  9  2 -1</clus>
<clus scale="   78.283">  5  6 -1 -1</clus>
<clus scale="   80.085">  1 10  2 -1</clus>
<clus scale="   80.059">  2  5  1 -1</clus>
<clus scale="   91.720">  7  8 -1 -1</clus>
<clus scale="   37.951">  1  5  2 -1</clus>
</clustering>
</event>
<event>
10    4  0.7697601E-005  0.5068448E+03  0.7546771E-02  0.1052086E+00
          2   -1    0    0  503    0 -0.00000000000E+00  0.00000000000E+00  0.10627563610E+04  0.10627563610E+04  0.00000000000E+00 0. -1.
         21   -1    0    0  501  502  0.00000000000E+00 -0.00000000000E+00 -0.20934815659E+04  0.20934815659E+04  0.00000000000E+00 0. -1.
         23    2    1    2    0    0  0.12114471034E+03  0.38563729732E+02 -0.13532586717E+02  0.15556933117E+03  0.88631167219E+02 0.  0.
         24    2    1    2    0    0 -0.54157889054E+03 -0.18418883935E+03 -0.22823866730E+01  0.57766436050E+03  0.80359696842E+02 0.  0.
        -11    1    4    4    0    0 -0.28566406022E+03 -0.11566413252E+03 -0.37256832846E+02  0.31043553026E+03  0.00000000000E+00 0.  1.
         12    1    4    4    0    0 -0.25591483033E+03 -0.68524706829E+02  0.34974446173E+02  0.26722883024E+03  0.00000000000E+00 0. -1.
        -11    1    3    3    0    0  0.33953088096E+02  0.54832748469E+02  0.59197543076E+01  0.64764851478E+02  0.00000000000E+00 0.  1.
         11    1    3    3    0    0  0.87191622248E+02 -0.16269018737E+02 -0.19452341025E+02  0.90804479692E+02  0.00000000000E+00 0. -1.
         21    1    1    2  503  502  0.23750056771E+03  0.17490216963E+03 -0.16938005563E+04  0.17192898572E+04  0.00000000000E+00 0. -1.
          1    1    1    2  501    0  0.18293361249E+03 -0.29277060004E+02  0.67889032475E+03  0.70371437804E+03  0.00000000000E+00 0. -1.
<scales pt_clust_5="13000.00000" pt_clust_6="13000.00000" pt_clust_7="13000.00000" pt_clust_8="13000.00000" pt_clust_9="500.43380" pt_clust_10="267.38979"></scales>
<clustering>
<clus scale="   80.360">  5  6 -1 -1</clus>
<clus scale="   88.631">  7  8 -1 -1</clus>
<clus scale="  154.980">  1  7  2 -1</clus>
<clus scale="  267.390">  2 10  1 -1</clus>
<clus scale="  500.434">  2  9  1 -1</clus>
<clus scale="  267.390">  2  5  1 -1</clus>
</clustering>
</event>
<event>
10    4  0.7697601E-005  0.1440196E+03  0.7546771E-02  0.1209930E+00
          2   -1    0    0  503    0 -0.00000000000E+00  0.00000000000E+00  0.26307340096E+03  0.26307340096E+03  0.00000000000E+00 0. -1.
         21   -1    0    0  501  502  0.00000000000E+00 -0.00000000000E+00 -0.45851609196E+03  0.45851609196E+03  0.00000000000E+00 0. -1.
         24    2    1    2    0    0  0.10737178164E+03  0.19367922858E+02  0.15978995681E+03  0.20959480188E+03  0.80581230758E+02 0.  0.
         23    2    1    2    0    0 -0.15505188284E+03 -0.44322837603E+02 -0.34723276525E+03  0.39331461641E+03  0.90112118561E+02 0.  0.
        -11    1    3    3    0    0  0.78681086273E+02  0.49253196896E+02  0.96050423611E+02  0.13357497751E+03  0.00000000000E+00 0.  1.
         12    1    3    3    0    0  0.28690695372E+02 -0.29885274038E+02  0.63739533198E+02  0.76019824372E+02  0.00000000000E+00 0. -1.
        -11    1    4    4    0    0  0.19398325171E+01 -0.25542968423E+02 -0.35501714940E+02  0.43778738558E+02  0.00000000000E+00 0.  1.
         11    1    4    4    0    0 -0.15699171535E+03 -0.18779869180E+02 -0.31173105031E+03  0.34953587785E+03  0.00000000000E+00 0. -1.
         21    1    1    2  503  502  0.26727232369E+02  0.64711652177E+01 -0.56426703837E+02  0.62770963313E+02  0.00000000000E+00 0.  1.
          1    1    1    2  501    0  0.20952868822E+02  0.18483749527E+02  0.48426821281E+02  0.55909111313E+02  0.00000000000E+00 0. -1.
<scales pt_clust_5="13000.00000" pt_clust_6="13000.00000" pt_clust_7="13000.00000" pt_clust_8="13000.00000" pt_clust_9="27.49947" pt_clust_10="28.16889"></scales>
<clustering>
<clus scale="   27.499">  2  9  1 -1</clus>
<clus scale="   28.169">  2 10  1 -1</clus>
<clus scale="   80.581">  5  6 -1 -1</clus>
<clus scale="   90.112">  7  8 -1 -1</clus>
<clus scale="  138.256">  1  5  2 -1</clus>
<clus scale="   27.499">  2  5  1 -1</clus>
</clustering>
</event>
<event>
10    4  0.7697601E-005  0.1273526E+03  0.7546771E-02  0.1246743E+00
          2   -1    0    0  503    0 -0.00000000000E+00  0.00000000000E+00  0.22411655961E+03  0.22411655961E+03  0.00000000000E+00 0. -1.
         21   -1    0    0  501  502  0.00000000000E+00 -0.00000000000E+00 -0.17726318365E+03  0.17726318365E+03  0.00000000000E+00 0.  1.
         23    2    1    2    0    0 -0.44762077879E+01  0.37273419957E+01  0.41722092351E+02  0.10225189246E+03  0.93170741155E+02 0.  0.
         24    2    1    2    0    0  0.76948736595E+02 -0.44702692707E+02  0.10549939785E+01  0.11956566433E+03  0.79846078656E+02 0.  0.
        -11    1    4    4    0    0  0.85390408617E+02 -0.44723456209E+02 -0.18602605535E+02  0.98172126145E+02  0.00000000000E+00 0.  1.
         12    1    4    4    0    0 -0.84416720217E+01  0.20763501795E-01  0.19657599514E+02  0.21393538190E+02  0.00000000000E+00 0. -1.
        -11    1    3    3    0    0 -0.56914876281E+01  0.47642988214E+02  0.12819914212E+02  0.49664852338E+02  0.00000000000E+00 0. -1.
         11    1    3    3    0    0  0.12152798403E+01 -0.43915646218E+02  0.28902178139E+02  0.52587040124E+02  0.00000000000E+00 0.  1.
         21    1    1    2  503  502  0.61763265692E+01 -0.28987270130E+02 -0.52328572606E+02  0.60138908790E+02  0.00000000000E+00 0. -1.
          1    1    1    2  501    0 -0.78648855377E+02  0.69962620842E+02  0.56404862235E+02  0.11942327768E+03  0.00000000000E+00 0. -1.
<scales pt_clust_5="13000.00000" pt_clust_6="13000.00000" pt_clust_7="13000.00000" pt_clust_8="13000.00000" pt_clust_9="29.63796" pt_clust_10="99.21344"></scales>
<clustering>
<clus scale="   29.638">  2  9  1 -1</clus>
<clus scale="   79.846">  5  6 -1 -1</clus>
<clus scale="   93.171">  7  8 -1 -1</clus>
<clus scale="   93.283">  1  7  2 -1</clus>
<clus scale="   99.213">  2 10  1 -1</clus>
<clus scale="   29.638">  2  5  1 -1</clus>
</clustering>
</event>
<event>
10    4  0.7697601E-005  0.3602368E+03  0.7546771E-02  0.1100263E+00
          2   -1    0    0  502    0 -0.00000000000E+00  0.00000000000E+00  0.12991801097E+04  0.12991801097E+04  0.00000000000E+00 0. -1.
         21   -1    0    0  503  502  0.00000000000E+00 -0.00000000000E+00 -0.23763575523E+03  0.23763575523E+03  0.00000000000E+00 0. -1.
         24    2    1    2    0    0  0.49668505151E+02 -0.64690818967E+02  0.58855420164E+02  0.12886442415E+03  0.80561882221E+02 0.  0.
         23    2    1    2    0    0 -0.37266206331E+03  0.17964659940E+03  0.85281785668E+03  0.95238787183E+03  0.92706243830E+02 0.  0.
        -13    1    3    3    0    0  0.45667402285E+02 -0.50928886141E+02  0.11946099785E+00  0.68405243556E+02  0.00000000000E+00 0.  1.
         14    1    3    3    0    0  0.40011028655E+01 -0.13761932826E+02  0.58735959166E+02  0.60459180597E+02  0.00000000000E+00 0. -1.
        -13    1    4    4    0    0 -0.28273820725E+03  0.98336924874E+02  0.65856920025E+03  0.72341166437E+03  0.00000000000E+00 0. -1.
         13    1    4    4    0    0 -0.89923856055E+02  0.81309674527E+02  0.19424865643E+03  0.22897620746E+03  0.00000000000E+00 0.  1.
         21    1    1    2  503  501  0.39749428481E+02  0.15782583485E+02 -0.64254240839E+02  0.77186232399E+02  0.00000000000E+00 0.  1.
          1    1    1    2  501    0  0.28324412967E+03 -0.13073836392E+03  0.21412531845E+03  0.37837733653E+03  0.00000000000E+00 0. -1.
<scales pt_clust_5="13000.00000" pt_clust_6="13000.00000" pt_clust_7="13000.00000" pt_clust_8="13000.00000" pt_clust_9="42.76806" pt_clust_10="348.10356"></scales>
<clustering>
<clus scale="   42.768">  2  9  1 -1</clus>
<clus scale="   80.562">  5  6 -1 -1</clus>
<clus scale="   92.706">  7  8 -1 -1</clus>
<clus scale="  116.715">  1  5  2 -1</clus>
<clus scale="  348.104">  2 10  1 -1</clus>
<clus scale="   42.768">  2  5  1 -1</clus>
</clustering>
</event>
<event>
10    4  0.7697601E-005  0.1370103E+03  0.7546771E-02  0.1220522E+00
         21   -1    0    0  501  502  0.00000000000E+00  0.00000000000E+00  0.19753878089E+03  0.19753878089E+03  0.00000000000E+00 0. -1.
          2   -1    0    0  503    0 -0.00000000000E+00 -0.00000000000E+00 -0.49689144465E+03  0.49689144465E+03  0.00000000000E+00 0. -1.
         24    2    1    2    0    0  0.33430101828E+02  0.86236753372E+02 -0.24046101462E+03  0.27024218390E+03  0.81578116339E+02 0.  0.
         23    2    1    2    0    0 -0.74428243164E+02 -0.10826608079E+03 -0.30494103213E+02  0.16477190334E+03  0.94650843461E+02 0.  0.
        -11    1    3    3    0    0  0.28798564796E+02  0.23043778287E+02 -0.17611589654E+03  0.17993660569E+03  0.00000000000E+00 0.  1.
         12    1    3    3    0    0  0.46315370322E+01  0.63192975085E+02 -0.64345118084E+02  0.90305578214E+02  0.00000000000E+00 0. -1.
        -13    1    4    4    0    0 -0.18336077612E+02 -0.40330510222E+02 -0.57534926522E+02  0.72615628943E+02  0.00000000000E+00 0.  1.
         13    1    4    4    0    0 -0.56092165552E+02 -0.67935570567E+02  0.27040823309E+02  0.92156274392E+02  0.00000000000E+00 0. -1.
         21    1    1    2  503  502 -0.15283537041E+02  0.27397323698E+02  0.10762904788E+03  0.11210803627E+03  0.00000000000E+00 0. -1.
          1    1    1    2  501    0  0.56281678377E+02 -0.53679962814E+01 -0.13602659380E+03  0.14730810204E+03  0.00000000000E+00 0. -1.
<scales pt_clust_5="13000.00000" pt_clust_6="13000.00000" pt_clust_7="13000.00000" pt_clust_8="13000.00000" pt_clust_9="31.37196" pt_clust_10="55.41575"></scales>
<clustering>
<clus scale="   31.372">  1  9  2 -1</clus>
<clus scale="   55.416">  1 10  2 -1</clus>
<clus scale="   81.578">  5  6 -1 -1</clus>
<clus scale="   94.651">  7  8 -1 -1</clus>
<clus scale="  128.328">  2  5  1 -1</clus>
<clus scale="   31.372">  1  5  2 -1</clus>
</clustering>
</event>
<event>
10    4  0.7697601E-005  0.1292834E+03  0.7546771E-02  0.1244434E+00
         21   -1    0    0  501  502  0.00000000000E+00  0.00000000000E+00  0.33159318156E+02  0.33159318156E+02  0.00000000000E+00 0.  1.
          2   -1    0    0  503    0 -0.00000000000E+00 -0.00000000000E+00 -0.16676818898E+04  0.16676818898E+04  0.00000000000E+00 0. -1.
         24    2    1    2    0    0 -0.17648673706E+02 -0.30865128850E+02 -0.54158531004E+03  0.54885768046E+03  0.81645413118E+02 0.  0.
         23    2    1    2    0    0 -0.63076822840E+02  0.66983504683E+02 -0.29919710636E+03  0.32694453347E+03  0.94384024266E+02 0.  0.
        -11    1    3    3    0    0  0.31790362803E+02 -0.33375881606E+01 -0.16843624545E+03  0.17144251352E+03  0.00000000000E+00 0.  1.
         12    1    3    3    0    0 -0.49439036509E+02 -0.27527540689E+02 -0.37314906459E+03  0.37741516694E+03  0.00000000000E+00 0. -1.
        -11    1    4    4    0    0 -0.35468487388E+02  0.86317942196E+02 -0.25372593079E+03  0.27034357529E+03  0.00000000000E+00 0.  1.
         11    1    4    4    0    0 -0.27608335453E+02 -0.19334437513E+02 -0.45471175563E+02  0.56600958185E+02  0.00000000000E+00 0. -1.
         21    1    1    2  503  502  0.10846107377E+03  0.41159085867E+02 -0.25589067881E+03  0.28095891938E+03  0.00000000000E+00 0.  1.
          1    1    1    2  501    0 -0.27735577225E+02 -0.77277461701E+02 -0.53784947647E+03  0.54408007468E+03  0.00000000000E+00 0. -1.
<scales pt_clust_5="13000.00000" pt_clust_6="13000.00000" pt_clust_7="13000.00000" pt_clust_8="13000.00000" pt_clust_9="88.35075" pt_clust_10="82.10405"></scales>
<clustering>
<clus scale="   81.645">  5  6 -1 -1</clus>
<clus scale="   82.104">  1 10  2 -1</clus>
<clus scale="   93.406">  2  5  1 -1</clus>
<clus scale="   88.351">  1  9  2 -1</clus>
<clus scale="   94.384">  7  8 -1 -1</clus>
<clus scale="   82.104">  1  5  2 -1</clus>
</clustering>
</event>
<event>
10    4  0.7697601E-005  0.1056328E+03  0.7546771E-02  0.1273668E+00
         21   -1    0    0  503  502  0.00000000000E+00  0.00000000000E+00  0.27794279127E+03  0.27794279127E+03  0.00000000000E+00 0. -1.
          2   -1    0    0  502    0 -0.00000000000E+00 -0.00000000000E+00 -0.27635163583E+03  0.27635163583E+03  0.00000000000E+00 0. -1.
         24    2    1    2    0    0  0.58580646754E+02 -0.24355490936E+02 -0.12979452079E+03  0.16543383537E+03  0.80603065368E+02 0.  0.
         23    2    1    2    0    0  0.44373484461E+02  0.75023825983E+02  0.41711728106E+02  0.13310877927E+03  0.91545061409E+02 0.  0.
        -11    1    3    3    0    0 -0.28764305375E+00 -0.39433938286E+02 -0.69010215314E+02  0.79482878942E+02  0.00000000000E+00 0.  1.
         12    1    3    3    0    0  0.58868289808E+02  0.15078447350E+02 -0.60784305474E+02  0.85950956431E+02  0.00000000000E+00 0. -1.
        -11    1    4    4    0    0  0.65252121397E+02  0.78184286126E+02  0.21923197188E+02  0.10416932619E+03  0.00000000000E+00 0. -1.
         11    1    4    4    0    0 -0.20878636936E+02 -0.31604601434E+01  0.19788530918E+02  0.28939453079E+02  0.00000000000E+00 0.  1.
         21    1    1    2  503  501 -0.12639572896E+02 -0.28834170461E+02  0.14448392525E+03  0.14787417910E+03  0.00000000000E+00 0. -1.
          1    1    1    2  501    0 -0.90314558320E+02 -0.21834164586E+02 -0.54809977120E+02  0.10787763336E+03  0.00000000000E+00 0. -1.
<scales pt_clust_5="13000.00000" pt_clust_6="13000.00000" pt_clust_7="13000.00000" pt_clust_8="13000.00000" pt_clust_9="31.48282" pt_clust_10="96.88635"></scales>
<clustering>
<clus scale="   31.483">  1  9  2 -1</clus>
<clus scale="   80.603">  5  6 -1 -1</clus>
<clus scale="   91.545">  7  8 -1 -1</clus>
<clus scale="   96.886">  1 10  2 -1</clus>
<clus scale="   96.305">  2  5  1 -1</clus>
<clus scale="   31.483">  1  5  2 -1</clus>
</clustering>
</event>
<event>
10    4  0.8124295E-005  0.1710573E+03  0.7546771E-02  0.1187741E+00
         21   -1    0    0  501  502  0.00000000000E+00  0.00000000000E+00  0.63355189235E+03  0.63355189235E+03  0.00000000000E+00 0. -1.
          2   -1    0    0  503    0 -0.00000000000E+00 -0.00000000000E+00 -0.15661131345E+04  0.15661131345E+04  0.00000000000E+00 0. -1.
         23    2    1    2    0    0 -0.30694625018E+02 -0.99762762972E+02 -0.36981324584E+03  0.39325263130E+03  0.83612357621E+02 0.  0.
         24    2    1    2    0    0  0.83127223065E+01  0.13898060902E+03 -0.22908264604E+01  0.16061071515E+03  0.80036509790E+02 0.  0.
        -11    1    4    4    0    0 -0.10765874840E+02  0.14083492004E+03 -0.44853165292E+01  0.14131700827E+03  0.00000000000E+00 0.  1.
         12    1    4    4    0    0  0.19078597147E+02 -0.18543110151E+01  0.21944900688E+01  0.19293706878E+02  0.00000000000E+00 0. -1.
        -13    1    3    3    0    0  0.27659243314E+02 -0.28415920383E+02 -0.14380139733E+03  0.14916883101E+03  0.00000000000E+00 0.  1.
         13    1    3    3    0    0 -0.58353868331E+02 -0.71346842588E+02 -0.22601184851E+03  0.24408380029E+03  0.00000000000E+00 0. -1.
         21    1    1    2  503  502  0.99229084316E+02  0.13904611417E+03  0.52036451332E+03  0.54768554826E+03  0.00000000000E+00 0. -1.
          1    1    1    2  501    0 -0.76847181605E+02 -0.17826396023E+03 -0.10808216831E+04  0.10981161321E+04  0.00000000000E+00 0. -1.
<scales pt_clust_5="13000.00000" pt_clust_6="13000.00000" pt_clust_7="13000.00000" pt_clust_8="13000.00000" pt_clust_9="171.05729" pt_clust_10="13000.00000"></scales>
<clustering>
<clus scale="   80.037">  5  6 -1 -1</clus>
<clus scale="   83.612">  7  8 -1 -1</clus>
<clus scale="  133.738">  2  7  1 -1</clus>
<clus scale="  154.597">  2  5  1 -1</clus>
<clus scale="  171.057">  1  9  2 -1</clus>
<clus scale="  171.057">  1  5  2 -1</clus>
</clustering>
</event>
<event>
10    4  0.9268486E-005  0.6965216E+03  0.7546771E-02  0.1029010E+00
         21   -1    0    0  501  502  0.00000000000E+00  0.00000000000E+00  0.11769839959E+04  0.11769839959E+04  0.00000000000E+00 0.  1.
         -1   -1    0    0    0  501 -0.00000000000E+00 -0.00000000000E+00 -0.10540082090E+04  0.10540082090E+04  0.00000000000E+00 0.  1.
         23    2    1    2    0    0 -0.73938422326E+02 -0.30661106700E+01 -0.40242870051E+03  0.41906566785E+03  0.90503500768E+02 0.  0.
         24    2    1    2    0    0 -0.27616297308E+03 -0.60292425584E+03 -0.27785040467E+03  0.72366328047E+03  0.81878264201E+02 0.  0.
        -13    1    4    4    0    0 -0.25164813156E+03 -0.55327537706E+03 -0.22804471799E+03  0.64918781441E+03  0.00000000000E+00 0.  1.
         14    1    4    4    0    0 -0.24514841528E+02 -0.49648878776E+02 -0.49805686687E+02  0.74475466062E+02  0.00000000000E+00 0. -1.
        -13    1    3    3    0    0 -0.50476025364E+02 -0.34203493398E+02 -0.34028516429E+03  0.34570464436E+03  0.00000000000E+00 0. -1.
         13    1    3    3    0    0 -0.23462396962E+02  0.31137382728E+02 -0.62143536220E+02  0.73361023495E+02  0.00000000000E+00 0.  1.
         21    1    1    2  503  502  0.26359994624E+02 -0.16531007363E+02  0.49469620227E+02  0.58441140016E+02  0.00000000000E+00 0.  1.
         -2    1    1    2    0  503  0.32374140079E+03  0.62252137387E+03  0.75378527187E+03  0.10298221165E+04  0.00000000000E+00 0.  1.
<scales pt_clust_5="13000.00000" pt_clust_6="13000.00000" pt_clust_7="13000.00000" pt_clust_8="13000.00000" pt_clust_9="31.11468" pt_clust_10="691.69236"></scales>
<clustering>
<clus scale="   31.115">  1  9  2 -1</clus>
<clus scale="   81.878">  5  6 -1 -1</clus>
<clus scale="   90.504">  7  8 -1 -1</clus>
<clus scale="  116.787">  2  7  1 -1</clus>
<clus scale="  691.692">  1 10  2 -1</clus>
<clus scale="   31.115">  1  5  2 -1</clus>
</clustering>
</event>
<event>
10    4  0.7697601E-005  0.2619286E+03  0.7546771E-02  0.1105990E+00
          2   -1    0    0  502    0 -0.00000000000E+00  0.00000000000E+00  0.47984004482E+03  0.47984004482E+03  0.00000000000E+00 0. -1.
         21   -1    0    0  503  502  0.00000000000E+00 -0.00000000000E+00 -0.24594927915E+03  0.24594927915E+03  0.00000000000E+00 0.  1.
         24    2    1    2    0    0 -0.85733201266E+02 -0.41710721067E+02  0.81186590807E+02  0.15092810956E+03  0.84250018862E+02 0.  0.
         23    2    1    2    0    0 -0.57702441715E+02 -0.86630306131E+02  0.88386634897E+02  0.16382784077E+03  0.90515095227E+02 0.  0.
        -13    1    3    3    0    0 -0.59931714766E+02 -0.29171227390E+02  0.97364108730E+02  0.11799381599E+03  0.00000000000E+00 0.  1.
         14    1    3    3    0    0 -0.25801486500E+02 -0.12539493677E+02 -0.16177517923E+02  0.32934293577E+02  0.00000000000E+00 0. -1.
        -13    1    4    4    0    0 -0.70483533734E+02 -0.49823472202E+02  0.25772323011E+02  0.90080628013E+02  0.00000000000E+00 0.  1.
         13    1    4    4    0    0  0.12781092019E+02 -0.36806833930E+02  0.62614311886E+02  0.73747212761E+02  0.00000000000E+00 0. -1.
         21    1    1    2  503  501 -0.87779007221E+01  0.21191321454E+02 -0.13580131229E+03  0.13772479829E+03  0.00000000000E+00 0. -1.
          1    1    1    2  501    0  0.15221354370E+03  0.10714970574E+03  0.20011885226E+03  0.27330857534E+03  0.00000000000E+00 0. -1.
<scales pt_clust_5="13000.00000" pt_clust_6="13000.00000" pt_clust_7="13000.00000" pt_clust_8="13000.00000" pt_clust_9="22.93739" pt_clust_10="187.97764"></scales>
<clustering>
<clus scale="   22.937">  2  9  1 -1</clus>
<clus scale="   84.250">  5  6 -1 -1</clus>
<clus scale="   90.515">  7  8 -1 -1</clus>
<clus scale="  103.881">  5  7 -1 -1</clus>
<clus scale="  187.978">  2 10  1 -1</clus>
<clus scale="   22.937">  2  5  1 -1</clus>
</clustering>
</event>
<event>
10    4  0.7697601E-005  0.9406296E+02  0.7546771E-02  0.1301437E+00
         21   -1    0    0  503  502  0.00000000000E+00  0.00000000000E+00  0.43544371966E+03  0.43544371966E+03  0.00000000000E+00 0. -1.
          4   -1    0    0  502    0 -0.00000000000E+00 -0.00000000000E+00 -0.24015304960E+03  0.24015304960E+03  0.00000000000E+00 0. -1.
         24    2    1    2    0    0  0.74084039258E+00  0.39816415404E+01 -0.13055133142E+03  0.15331670690E+03  0.80286737167E+02 0.  0.
         23    2    1    2    0    0  0.36042253956E+02  0.29823686419E+02 -0.51737303860E+02  0.11667278124E+03  0.93526963655E+02 0.  0.
        -13    1    3    3    0    0  0.32285420572E+02 -0.17354840827E+02 -0.35966363111E+02  0.51352878761E+02  0.00000000000E+00 0.  1.
         14    1    3    3    0    0 -0.31544580179E+02  0.21336482367E+02 -0.94584968306E+02  0.10196382814E+03  0.00000000000E+00 0. -1.
        -13    1    4    4    0    0  0.51405199866E+02  0.42960746419E+02 -0.64312380142E+02  0.92866584656E+02  0.00000000000E+00 0. -1.
         13    1    4    4    0    0 -0.15362945910E+02 -0.13137060000E+02  0.12575076282E+02  0.23806196587E+02  0.00000000000E+00 0.  1.
         21    1    1    2  503  501 -0.48344616589E+02  0.22312406072E+02  0.31992133427E+03  0.32432191652E+03  0.00000000000E+00 0. -1.
          3    1    1    2  501    0  0.11561522241E+02 -0.56117734031E+02  0.57657971078E+02  0.81285364599E+02  0.00000000000E+00 0. -1.
<scales pt_clust_5="13000.00000" pt_clust_6="13000.00000" pt_clust_7="13000.00000" pt_clust_8="13000.00000" pt_clust_9="53.24514" pt_clust_10="46.12836"></scales>
<clustering>
<clus scale="   53.245">  1  9  2 -1</clus>
<clus scale="   46.128">  1 10  2 -1</clus>
<clus scale="   80.287">  5  6 -1 -1</clus>
<clus scale="   80.910">  2  5  1 -1</clus>
<clus scale="   93.527">  7  8 -1 -1</clus>
<clus scale="   53.245">  1  5  2 -1</clus>
</clustering>
</event>
<event>
10    4  0.7697601E-005  0.1160753E+03  0.7546771E-02  0.1252628E+00
          2   -1    0    0  503    0 -0.00000000000E+00  0.00000000000E+00  0.11239652139E+04  0.11239652139E+04  0.00000000000E+00 0. -1.
         21   -1    0    0  501  502  0.00000000000E+00 -0.00000000000E+00 -0.13319404229E+03  0.13319404229E+03  0.00000000000E+00 0.  1.
         24    2    1    2    0    0 -0.26207738671E+01 -0.70740052295E+02  0.70797392640E+03  0.71624158480E+03  0.82242956381E+02 0.  0.
         23    2    1    2    0    0 -0.27051369428E+02  0.75539213714E+02  0.34089891259E+03  0.36178916543E+03  0.90782058922E+02 0.  0.
        -11    1    3    3    0    0  0.27310303577E+02 -0.30699427484E+02  0.13559852079E+03  0.14168721315E+03  0.00000000000E+00 0.  1.
         12    1    3    3    0    0 -0.29931077444E+02 -0.40040624812E+02  0.57237540561E+03  0.57455437165E+03  0.00000000000E+00 0. -1.
        -13    1    4    4    0    0 -0.24990830579E+02 -0.49871128900E+01  0.24694389899E+02  0.35485571723E+02  0.00000000000E+00 0.  1.
         13    1    4    4    0    0 -0.20605388480E+01  0.80526326604E+02  0.31620452269E+03  0.32630359371E+03  0.00000000000E+00 0. -1.
         21    1    1    2  503  502  0.30872389785E+02 -0.62151256340E+02 -0.89877450232E+02  0.11355104216E+03  0.00000000000E+00 0.  1.
          1    1    1    2  501    0 -0.12002464903E+01  0.57352094921E+02  0.31775782849E+02  0.65577463805E+02  0.00000000000E+00 0. -1.
<scales pt_clust_5="13000.00000" pt_clust_6="13000.00000" pt_clust_7="13000.00000" pt_clust_8="13000.00000" pt_clust_9="32.14226" pt_clust_10="57.36465"></scales>
<clustering>
<clus scale="   57.365">  2 10  1 -1</clus>
<clus scale="   32.142">  2  9  1 -1</clus>
<clus scale="   82.243">  5  6 -1 -1</clus>
<clus scale="   90.782">  7  8 -1 -1</clus>
<clus scale="  109.526">  1  5  2 -1</clus>
<clus scale="   57.365">  2  5  1 -1</clus>
</clustering>
</event>
<event>
10    4  0.7697601E-005  0.1122208E+03  0.7546771E-02  0.1264356E+00
          2   -1    0    0  503    0 -0.00000000000E+00  0.00000000000E+00  0.51432084123E+03  0.51432084123E+03  0.00000000000E+00 0. -1.
         21   -1    0    0  501  502  0.00000000000E+00 -0.00000000000E+00 -0.89163419978E+02  0.89163419978E+02  0.00000000000E+00 0.  1.
         24    2    1    2    0    0  0.32972235799E+02 -0.52133267855E+02  0.36954607185E+03  0.38311066272E+03  0.80027712155E+02 0.  0.
         23    2    1    2    0    0 -0.22204018785E+01  0.26457060705E+02  0.84268603026E+02  0.13247775127E+03  0.98712972201E+02 0.  0.
        -11    1    3    3    0    0 -0.38771732830E+01 -0.58513155876E+02  0.27989563080E+03  0.28597270153E+03  0.00000000000E+00 0.  1.
         12    1    3    3    0    0  0.36849409082E+02  0.63798880207E+01  0.89650441058E+02  0.97137961183E+02  0.00000000000E+00 0. -1.
        -11    1    4    4    0    0 -0.35206286724E+02  0.36644568770E+02  0.83737564276E+02  0.97950429892E+02  0.00000000000E+00 0. -1.
         11    1    4    4    0    0  0.32985884845E+02 -0.10187508064E+02  0.53103875028E+00  0.34527321381E+02  0.00000000000E+00 0.  1.
         21    1    1    2  503  502 -0.19469280002E+02 -0.10917997316E+02 -0.41818726062E+02  0.47403178993E+02  0.00000000000E+00 0.  1.
          1    1    1    2  501    0 -0.11282553919E+02  0.36594204467E+02  0.13161472432E+02  0.40492668226E+02  0.00000000000E+00 0. -1.
<scales pt_clust_5="13000.00000" pt_clust_6="13000.00000" pt_clust_7="13000.00000" pt_clust_8="13000.00000" pt_clust_9="22.32164" pt_clust_10="37.45617"></scales>
<clustering>
<clus scale="   22.322">  2  9  1 -1</clus>
<clus scale="   37.456">  2 10  1 -1</clus>
<clus scale="   80.028">  5  6 -1 -1</clus>
<clus scale="   96.196">  1  5  2 -1</clus>
<clus scale="   98.713">  7  8 -1 -1</clus>
<clus scale="   22.322">  2  5  1 -1</clus>
</clustering>
</event>
<event>
10    4  0.7697601E-005  0.1124041E+03  0.7546771E-02  0.1259897E+00
         -1   -1    0    0    0  501 -0.00000000000E+00  0.00000000000E+00  0.71637127162E+03  0.71637127162E+03  0.00000000000E+00 0.  1.
         21   -1    0    0  503  502  0.00000000000E+00 -0.00000000000E+00 -0.58804927093E+02  0.58804927093E+02  0.00000000000E+00 0.  1.
         24    2    1    2    0    0  0.24985214186E+02  0.75846140890E+02  0.47669216556E+03  0.48982600781E+03  0.79480810254E+02 0.  0.
         23    2    1    2    0    0  0.22558591469E+02 -0.28983504515E+02  0.68981590095E+02  0.11893889697E+03  0.89660849072E+02 0.  0.
        -13    1    3    3    0    0  0.43084387284E+02  0.76312741324E+02  0.44292467762E+03  0.45151098432E+03  0.00000000000E+00 0.  1.
         14    1    3    3    0    0 -0.18099173099E+02 -0.46660043461E+00  0.33767487942E+02  0.38315023486E+02  0.00000000000E+00 0. -1.
        -13    1    4    4    0    0  0.46732738942E+02 -0.21251984107E+02  0.76802465023E+02  0.92380811596E+02  0.00000000000E+00 0. -1.
         13    1    4    4    0    0 -0.24174147473E+02 -0.77315204082E+01 -0.78208749282E+01  0.26558085370E+02  0.00000000000E+00 0.  1.
         21    1    1    2  503  501 -0.56494258139E+01  0.29210320579E+02  0.76249006710E+01  0.30713155986E+02  0.00000000000E+00 0. -1.
         -2    1    1    2    0  502 -0.41894379841E+02 -0.76072956954E+02  0.10426768819E+03  0.13569813795E+03  0.00000000000E+00 0.  1.
<scales pt_clust_5="13000.00000" pt_clust_6="13000.00000" pt_clust_7="13000.00000" pt_clust_8="13000.00000" pt_clust_9="29.75162" pt_clust_10="79.49658"></scales>
<clustering>
<clus scale="   29.752">  2  9  1 -1</clus>
<clus scale="   79.481">  5  6 -1 -1</clus>
<clus scale="   79.497">  2 10  1 -1</clus>
<clus scale="   89.661">  7  8 -1 -1</clus>
<clus scale="  104.464">  1  5  2 -1</clus>
<clus scale="   29.752">  2  5  1 -1</clus>
</clustering>
</event>
<event>
10    4  0.7697601E-005  0.1325931E+03  0.7546771E-02  0.1246708E+00
         21   -1    0    0  501  502  0.00000000000E+00  0.00000000000E+00  0.58243165550E+02  0.58243165550E+02  0.00000000000E+00 0. -1.
          2   -1    0    0  503    0 -0.00000000000E+00 -0.00000000000E+00 -0.83526244340E+03  0.83526244340E+03  0.00000000000E+00 0. -1.
         24    2    1    2    0    0 -0.22789138089E+01 -0.20249805158E+02 -0.53841548573E+03  0.54478686914E+03  0.80537255125E+02 0.  0.
         23    2    1    2    0    0  0.82509383782E+02  0.41870440444E+02 -0.12263805107E+03  0.17917557381E+03  0.92210967275E+02 0.  0.
        -11    1    3    3    0    0  0.28986354087E+01  0.27428328112E+02 -0.99267263180E+02  0.10302768953E+03  0.00000000000E+00 0.  1.
         12    1    3    3    0    0 -0.51775492176E+01 -0.47678133270E+02 -0.43914822255E+03  0.44175917962E+03  0.00000000000E+00 0. -1.
        -13    1    4    4    0    0  0.96308866473E+01 -0.22615897542E+02 -0.56215609636E+02  0.61354931065E+02  0.00000000000E+00 0.  1.
         13    1    4    4    0    0  0.72878497135E+02  0.64486337986E+02 -0.66422441433E+02  0.11782064275E+03  0.00000000000E+00 0. -1.
         21    1    1    2  503  502  0.62706780077E+01  0.24730009858E+02 -0.22409898040E+02  0.33957301430E+02  0.00000000000E+00 0. -1.
          1    1    1    2  501    0 -0.86501147981E+02 -0.46350645143E+02 -0.93555843012E+02  0.13558586456E+03  0.00000000000E+00 0. -1.
<scales pt_clust_5="13000.00000" pt_clust_6="13000.00000" pt_clust_7="13000.00000" pt_clust_8="13000.00000" pt_clust_9="25.51264" pt_clust_10="95.27896"></scales>
<clustering>
<clus scale="   25.513">  1  9  2 -1</clus>
<clus scale="   80.537">  5  6 -1 -1</clus>
<clus scale="   82.712">  2  5  1 -1</clus>
<clus scale="   92.211">  7  8 -1 -1</clus>
<clus scale="   95.279">  1 10  2 -1</clus>
<clus scale="   25.513">  1  5  2 -1</clus>
</clustering>
</event>
<event>
10    4  0.7697601E-005  0.9973933E+02  0.7546771E-02  0.1287701E+00
         21   -1    0    0  503  502  0.00000000000E+00  0.00000000000E+00  0.27850383912E+03  0.27850383912E+03  0.00000000000E+00 0.  1.
          2   -1    0    0  502    0 -0.00000000000E+00 -0.00000000000E+00 -0.18199015770E+03  0.18199015770E+03  0.00000000000E+00 0. -1.
         23    2    1    2    0    0 -0.68796934658E+01 -0.46387259804E+02 -0.13249139543E+03  0.16864357575E+03  0.93207176373E+02 0.  0.
         24    2    1    2    0    0 -0.91134544970E+01 -0.24802889030E+02  0.78986640444E+02  0.11555694681E+03  0.80101686810E+02 0.  0.
        -11    1    4    4    0    0 -0.78707343594E+01 -0.53741425637E+02  0.59952611083E+02  0.80897496033E+02  0.00000000000E+00 0.  1.
         12    1    4    4    0    0 -0.12427201376E+01  0.28938536607E+02  0.19034029361E+02  0.34659450774E+02  0.00000000000E+00 0. -1.
        -13    1    3    3    0    0 -0.32586699869E+02 -0.65579674708E+01 -0.62865166488E+01  0.33829280768E+02  0.00000000000E+00 0.  1.
         13    1    3    3    0    0  0.25707006403E+02 -0.39829292333E+02 -0.12620487878E+03  0.13481429499E+03  0.00000000000E+00 0. -1.
         21    1    1    2  503  501 -0.75713197647E+01  0.23812676127E+02  0.10140504383E+03  0.10443826570E+03  0.00000000000E+00 0.  1.
          1    1    1    2  501    0  0.23564467727E+02  0.47377472707E+02  0.48613392571E+02  0.71855208556E+02  0.00000000000E+00 0. -1.
<scales pt_clust_5="13000.00000" pt_clust_6="13000.00000" pt_clust_7="13000.00000" pt_clust_8="13000.00000" pt_clust_9="24.98737" pt_clust_10="59.37201"></scales>
<clustering>
<clus scale="   24.987">  1  9  2 -1</clus>
<clus scale="   59.372">  1 10  2 -1</clus>
<clus scale="   80.102">  5  6 -1 -1</clus>
<clus scale="   87.616">  1  5  2 -1</clus>
<clus scale="   93.207">  7  8 -1 -1</clus>
<clus scale="   24.987">  1  5  2 -1</clus>
</clustering>
</event>
<event>
10    4  0.7697601E-005  0.2527139E+03  0.7546771E-02  0.1135475E+00
         21   -1    0    0  503  502  0.00000000000E+00  0.00000000000E+00  0.23898224528E+03  0.23898224528E+03  0.00000000000E+00 0. -1.
          2   -1    0    0  502    0 -0.00000000000E+00 -0.00000000000E+00 -0.10192364022E+04  0.10192364022E+04  0.00000000000E+00 0. -1.
         24    2    1    2    0    0 -0.89615719316E+02  0.74912407597E+02 -0.18803795612E+02  0.14088740140E+03  0.76503798490E+02 0.  0.
         23    2    1    2    0    0  0.28841035225E+03 -0.17593234568E+03 -0.80722923837E+03  0.88010053330E+03  0.93942449831E+02 0.  0.
        -13    1    3    3    0    0 -0.72832305376E+02  0.65665581319E+02  0.17710738909E+02  0.99650306316E+02  0.00000000000E+00 0.  1.
         14    1    3    3    0    0 -0.16783413941E+02  0.92468262782E+01 -0.36514534520E+02  0.41237095084E+02  0.00000000000E+00 0. -1.
        -13    1    4    4    0    0  0.22360393412E+03 -0.13469054561E+03 -0.50767531766E+03  0.57085417629E+03  0.00000000000E+00 0. -1.
         13    1    4    4    0    0  0.64806418129E+02 -0.41241800074E+02 -0.29955392072E+03  0.30924635701E+03  0.00000000000E+00 0.  1.
         21    1    1    2  503  501 -0.94834985870E+02  0.52068749338E+02  0.56084114746E+02  0.12186163108E+03  0.00000000000E+00 0. -1.
          1    1    1    2  501    0 -0.10395964707E+03  0.48951188744E+02 -0.10305237722E+02  0.11536908174E+03  0.00000000000E+00 0. -1.
<scales pt_clust_5="13000.00000" pt_clust_6="13000.00000" pt_clust_7="13000.00000" pt_clust_8="13000.00000" pt_clust_9="64.78947" pt_clust_10="243.92107"></scales>
<clustering>
<clus scale="   64.789">  9 10 -1 -1</clus>
<clus scale="   76.504">  5  6 -1 -1</clus>
<clus scale="   93.942">  7  8 -1 -1</clus>
<clus scale="  139.627">  2  5  1 -1</clus>
<clus scale="  243.921">  1  9  2 -1</clus>
<clus scale="  243.921">  1  5  2 -1</clus>
</clustering>
</event>
<event>
10    4  0.7697601E-005  0.2577838E+03  0.7546771E-02  0.1139601E+00
          2   -1    0    0  502    0 -0.00000000000E+00  0.00000000000E+00  0.16873253870E+04  0.16873253870E+04  0.00000000000E+00 0. -1.
         21   -1    0    0  503  502  0.00000000000E+00 -0.00000000000E+00 -0.10677696089E+03  0.10677696089E+03  0.00000000000E+00 0. -1.
         23    2    1    2    0    0 -0.88450937557E+02 -0.11114056641E+02  0.13416872679E+03  0.18589854010E+03  0.92789704981E+02 0.  0.
         24    2    1    2    0    0 -0.28162223143E+02  0.24250184691E+03  0.12037713241E+04  0.12310413243E+04  0.82444435068E+02 0.  0.
        -13    1    4    4    0    0  0.10442356588E+02  0.15379380742E+03  0.59564921338E+03  0.61527194265E+03  0.00000000000E+00 0.  1.
         14    1    4    4    0    0 -0.38604579730E+02  0.88708039484E+02  0.60812211075E+03  0.61576938169E+03  0.00000000000E+00 0. -1.
        -11    1    3    3    0    0 -0.25054724034E+02 -0.18039885124E+02  0.11534456128E+03  0.11940495998E+03  0.00000000000E+00 0.  1.
         11    1    3    3    0    0 -0.63396213523E+02  0.69258284837E+01  0.18824165518E+02  0.66493580116E+02  0.00000000000E+00 0. -1.
         21    1    1    2  503  501  0.53083598419E+02 -0.62822274412E+01  0.31270076115E+02  0.61928607791E+02  0.00000000000E+00 0.  1.
          1    1    1    2  501    0  0.63529562281E+02 -0.22510556282E+03  0.21133829904E+03  0.31523387562E+03  0.00000000000E+00 0. -1.
<scales pt_clust_5="13000.00000" pt_clust_6="13000.00000" pt_clust_7="13000.00000" pt_clust_8="13000.00000" pt_clust_9="53.45404" pt_clust_10="244.24461"></scales>
<clustering>
<clus scale="   53.454">  2  9  1 -1</clus>
<clus scale="   82.444">  5  6 -1 -1</clus>
<clus scale="   92.790">  7  8 -1 -1</clus>
<clus scale="  119.034">  1  7  2 -1</clus>
<clus scale="  244.245">  2 10  1 -1</clus>
<clus scale="   53.454">  2  5  1 -1</clus>
</clustering>
</event>
<event>
10    4  0.7697601E-005  0.2936756E+03  0.7546771E-02  0.1089351E+00
         21   -1    0    0  503  502  0.00000000000E+00  0.00000000000E+00  0.77093765077E+03  0.77093765077E+03  0.00000000000E+00 0.  1.
          2   -1    0    0  502    0 -0.00000000000E+00 -0.00000000000E+00 -0.36892494535E+03  0.36892494535E+03  0.00000000000E+00 0. -1.
         23    2    1    2    0    0  0.32333057349E+02 -0.26547479142E+03  0.73020747108E+02  0.29254478541E+03  0.93424464040E+02 0.  0.
         24    2    1    2    0    0 -0.25168666779E+03  0.24393585847E+03  0.29746455302E+03  0.46478540170E+03  0.68479394980E+02 0.  0.
        -11    1    4    4    0    0 -0.23574067739E+03  0.19662192548E+03  0.25000666541E+03  0.39590046894E+03  0.00000000000E+00 0.  1.
         12    1    4    4    0    0 -0.15945990400E+02  0.47313932993E+02  0.47457887609E+02  0.68884932761E+02  0.00000000000E+00 0. -1.
        -13    1    3    3    0    0 -0.11996595570E+02 -0.18700253838E+03  0.21202706119E+02  0.18858266732E+03  0.00000000000E+00 0. -1.
         13    1    3    3    0    0  0.44329652919E+02 -0.78472253047E+02  0.51818040989E+02  0.10396211809E+03  0.00000000000E+00 0.  1.
         21    1    1    2  503  501  0.71672690511E+02 -0.94730811145E+02  0.12514839443E+03  0.17254860699E+03  0.00000000000E+00 0.  1.
          1    1    1    2  501    0  0.14768091993E+03  0.11626974410E+03 -0.93620989145E+02  0.20998380202E+03  0.00000000000E+00 0. -1.
<scales pt_clust_5="13000.00000" pt_clust_6="13000.00000" pt_clust_7="13000.00000" pt_clust_8="13000.00000" pt_clust_9="118.78931" pt_clust_10="188.07288"></scales>
<clustering>
<clus scale="   68.479">  5  6 -1 -1</clus>
<clus scale="   93.424">  7  8 -1 -1</clus>
<clus scale="  118.789">  1  9  2 -1</clus>
<clus scale="  188.073">  1 10  2 -1</clus>
<clus scale="  286.717">  1  5  2 -1</clus>
<clus scale="  118.789">  1  5  2 -1</clus>
</clustering>
</event>
<event>
10    4  0.7697601E-005  0.1510819E+03  0.7546771E-02  0.1220353E+00
          2   -1    0    0  502    0 -0.00000000000E+00  0.00000000000E+00  0.94552266584E+03  0.94552266584E+03  0.00000000000E+00 0. -1.
         21   -1    0    0  503  502  0.00000000000E+00 -0.00000000000E+00 -0.61982082538E+02  0.61982082538E+02  0.00000000000E+00 0. -1.
         24    2    1    2    0    0 -0.30228226175E+02  0.37548199927E+02  0.25024006980E+03  0.26712956819E+03  0.80090578057E+02 0.  0.
         23    2    1    2    0    0  0.72104552883E+01 -0.16951669429E+03  0.37620433858E+03  0.42264357144E+03  0.91159112561E+02 0.  0.
        -13    1    3    3    0    0 -0.16270300749E+02  0.61059094316E+02  0.14086484837E+03  0.15438860448E+03  0.00000000000E+00 0.  1.
         14    1    3    3    0    0 -0.13957925426E+02 -0.23510894389E+02  0.10937522143E+03  0.11274096372E+03  0.00000000000E+00 0. -1.
        -11    1    4    4    0    0  0.35160652992E+02 -0.22907477594E+02  0.10516088043E+03  0.11322470941E+03  0.00000000000E+00 0.  1.
         11    1    4    4    0    0 -0.27950197704E+02 -0.14660921670E+03  0.27104345816E+03  0.30941886203E+03  0.00000000000E+00 0. -1.
         21    1    1    2  503  501  0.24908535385E+02  0.43090186433E+02  0.45303859422E+01  0.49977231803E+02  0.00000000000E+00 0. -1.
          1    1    1    2  501    0 -0.18907644984E+01  0.88878307930E+02  0.25256578897E+03  0.26775437694E+03  0.00000000000E+00 0. -1.
<scales pt_clust_5="13000.00000" pt_clust_6="13000.00000" pt_clust_7="13000.00000" pt_clust_8="13000.00000" pt_clust_9="49.77147" pt_clust_10="120.48137"></scales>
<clustering>
<clus scale="   49.771">  2  9  1 -1</clus>
<clus scale="   80.091">  5  6 -1 -1</clus>
<clus scale="   91.159">  7  8 -1 -1</clus>
<clus scale="   96.046">  1  5  2 -1</clus>
<clus scale="  120.481">  2 10  1 -1</clus>
<clus scale="   49.771">  2  5  1 -1</clus>
</clustering>
</event>
<event>
10    4  0.7697601E-005  0.1632494E+03  0.7546771E-02  0.1187828E+00
         21   -1    0    0  503  502  0.00000000000E+00  0.00000000000E+00  0.15996296147E+03  0.15996296147E+03  0.00000000000E+00 0. -1.
         -1   -1    0    0    0  501 -0.00000000000E+00 -0.00000000000E+00 -0.45544596436E+03  0.45544596436E+03  0.00000000000E+00 0.  1.
         23    2    1    2    0    0  0.99610242754E+02  0.38368459382E+02 -0.24923835143E+02  0.14374960291E+03  0.92996836736E+02 0.  0.
         24    2    1    2    0    0 -0.10850778482E+03 -0.14319528592E+03 -0.55601122192E+02  0.20236052810E+03  0.74695845066E+02 0.  0.
        -13    1    4    4    0    0 -0.13420298007E+02 -0.15987860438E+02 -0.36966005619E+02  0.42452345652E+02  0.00000000000E+00 0.  1.
         14    1    4    4    0    0 -0.95087486809E+02 -0.12720742548E+03 -0.18635116574E+02  0.15990818245E+03  0.00000000000E+00 0. -1.
        -11    1    3    3    0    0  0.22100321886E+02  0.34611413168E+02 -0.47636011291E+02  0.62893272460E+02  0.00000000000E+00 0.  1.
         11    1    3    3    0    0  0.77509920868E+02  0.37570462142E+01  0.22712176148E+02  0.80856330455E+02  0.00000000000E+00 0. -1.
         21    1    1    2  503  501  0.35069325707E+02  0.15878594064E+02 -0.38030262951E+01  0.38683980716E+02  0.00000000000E+00 0. -1.
         -2    1    1    2    0  502 -0.26171783645E+02  0.88948232471E+02 -0.21115501926E+03  0.23061481409E+03  0.00000000000E+00 0.  1.
<scales pt_clust_5="13000.00000" pt_clust_6="13000.00000" pt_clust_7="13000.00000" pt_clust_8="13000.00000" pt_clust_9="38.49659" pt_clust_10="93.11923"></scales>
<clustering>
<clus scale="   38.497">  1  9  2 -1</clus>
<clus scale="   74.696">  5  6 -1 -1</clus>
<clus scale="   92.997">  7  8 -1 -1</clus>
<clus scale="   93.119">  1 10  2 -1</clus>
<clus scale="  153.562">  1  5  2 -1</clus>
<clus scale="   38.497">  1  5  2 -1</clus>
</clustering>
</event>
<event>
10    4  0.7697601E-005  0.1168808E+03  0.7546771E-02  0.1252771E+00
         21   -1    0    0  503  502  0.00000000000E+00  0.00000000000E+00  0.92356762184E+02  0.92356762184E+02  0.00000000000E+00 0.  1.
          2   -1    0    0  502    0 -0.00000000000E+00 -0.00000000000E+00 -0.79057746741E+03  0.79057746741E+03  0.00000000000E+00 0. -1.
         24    2    1    2    0    0 -0.54934154062E+02  0.29817316335E+02 -0.21467341565E+03  0.23726703979E+03  0.79398609228E+02 0.  0.
         23    2    1    2    0    0  0.10502608599E+03 -0.71433603958E+02 -0.23842861625E+02  0.15882009947E+03  0.92315239425E+02 0.  0.
        -11    1    3    3    0    0 -0.26194147054E+02 -0.16770022523E+02 -0.25155064735E+02  0.40001803424E+02  0.00000000000E+00 0.  1.
         12    1    3    3    0    0 -0.28740007008E+02  0.46587338857E+02 -0.18951835092E+03  0.19726523637E+03  0.00000000000E+00 0. -1.
        -11    1    4    4    0    0  0.65468138061E+02 -0.58879055392E+02  0.28015106934E+02  0.92399493946E+02  0.00000000000E+00 0.  1.
         11    1    4    4    0    0  0.39557947933E+02 -0.12554548567E+02 -0.51857968559E+02  0.66420605519E+02  0.00000000000E+00 0. -1.
         21    1    1    2  503  501  0.12399888477E+02  0.21794922661E+02 -0.27637763143E+01  0.25227254063E+02  0.00000000000E+00 0. -1.
          1    1    1    2  501    0 -0.62491820408E+02  0.19821364963E+02 -0.45694065163E+03  0.46161983627E+03  0.00000000000E+00 0. -1.
<scales pt_clust_5="13000.00000" pt_clust_6="13000.00000" pt_clust_7="13000.00000" pt_clust_8="13000.00000" pt_clust_9="25.07540" pt_clust_10="65.41303"></scales>
<clustering>
<clus scale="   25.075">  1  9  2 -1</clus>
<clus scale="   65.413">  1 10  2 -1</clus>
<clus scale="   79.399">  5  6 -1 -1</clus>
<clus scale="   92.315">  7  8 -1 -1</clus>
<clus scale="  106.973">  2  5  1 -1</clus>
<clus scale="   25.075">  1  5  2 -1</clus>
</clustering>
</event>
<event>
10    4  0.7697601E-005  0.2211812E+03  0.7546771E-02  0.1169811E+00
         21   -1    0    0  503  502  0.00000000000E+00  0.00000000000E+00  0.12449222038E+03  0.12449222038E+03  0.00000000000E+00 0.  1.
         -3   -1    0    0    0  501 -0.00000000000E+00 -0.00000000000E+00 -0.10694935247E+04  0.10694935247E+04  0.00000000000E+00 0.  1.
         23    2    1    2    0    0  0.66105512773E+01  0.28644849776E+01 -0.17292793490E+03  0.19599653139E+03  0.91971000785E+02 0.  0.
         24    2    1    2    0    0  0.15908045459E+03 -0.13255470717E+03 -0.70197453911E+03  0.73579714400E+03  0.75840900209E+02 0.  0.
        -13    1    4    4    0    0  0.11316581286E+03 -0.13262691139E+03 -0.54064491602E+03  0.56806102140E+03  0.00000000000E+00 0.  1.
         14    1    4    4    0    0  0.45914641725E+02  0.72204213507E-01 -0.16132962309E+03  0.16773612260E+03  0.00000000000E+00 0. -1.
        -11    1    3    3    0    0  0.18402993119E+02  0.33738068919E+02 -0.15221869135E+03  0.15699508733E+03  0.00000000000E+00 0.  1.
         11    1    3    3    0    0 -0.11792441842E+02 -0.30873583942E+02 -0.20709243546E+02  0.39001444054E+02  0.00000000000E+00 0. -1.
         21    1    1    2  503  501  0.17906095503E+02  0.36311996084E+02  0.91253748875E+01  0.41502551519E+02  0.00000000000E+00 0.  1.
         -4    1    1    2    0  502 -0.18359710137E+03  0.93378226110E+02 -0.79224205222E+02  0.22068951818E+03  0.00000000000E+00 0.  1.
<scales pt_clust_5="13000.00000" pt_clust_6="13000.00000" pt_clust_7="13000.00000" pt_clust_8="13000.00000" pt_clust_9="40.48690" pt_clust_10="207.77215"></scales>
<clustering>
<clus scale="   40.487">  1  9  2 -1</clus>
<clus scale="   75.841">  5  6 -1 -1</clus>
<clus scale="   91.971">  7  8 -1 -1</clus>
<clus scale="   92.652">  2  7  1 -1</clus>
<clus scale="  207.772">  1 10  2 -1</clus>
<clus scale="   40.487">  1  5  2 -1</clus>
</clustering>
</event>
<event>
10    4  0.7697601E-005  0.1280997E+03  0.7546771E-02  0.1231972E+00
          2   -1    0    0  503    0 -0.00000000000E+00  0.00000000000E+00  0.23577713389E+03  0.23577713389E+03  0.00000000000E+00 0. -1.
         21   -1    0    0  501  502  0.00000000000E+00 -0.00000000000E+00 -0.19242149512E+03  0.19242149512E+03  0.00000000000E+00 0. -1.
         24    2    1    2    0    0 -0.86393804210E+02 -0.42737164003E+02  0.31132324771E+02  0.13085522557E+03  0.82846326541E+02 0.  0.
         23    2    1    2    0    0  0.90663025349E+02  0.53989649664E+00 -0.29969742617E+02  0.13066170118E+03  0.89186428508E+02 0.  0.
        -11    1    3    3    0    0  0.92491504689E+00 -0.31860066811E+02  0.28602188034E+02  0.42825278579E+02  0.00000000000E+00 0.  1.
         12    1    3    3    0    0 -0.87318719257E+02 -0.10877097192E+02  0.25301367377E+01  0.88029946995E+02  0.00000000000E+00 0. -1.
        -13    1    4    4    0    0  0.20496839533E+01 -0.31010436326E+02 -0.17801641297E+02  0.35815454741E+02  0.00000000000E+00 0.  1.
         13    1    4    4    0    0  0.88613341396E+02  0.31550332822E+02 -0.12168101320E+02  0.94846246443E+02  0.00000000000E+00 0. -1.
         21    1    1    2  503  502  0.51735889418E+02  0.45205084895E+02 -0.30247730570E+02  0.75066817961E+02  0.00000000000E+00 0. -1.
          1    1    1    2  501    0 -0.56005110557E+02 -0.30078173884E+01  0.72440787186E+02  0.91614884282E+02  0.00000000000E+00 0. -1.
<scales pt_clust_5="13000.00000" pt_clust_6="13000.00000" pt_clust_7="13000.00000" pt_clust_8="13000.00000" pt_clust_9="56.86587" pt_clust_10="56.08585"></scales>
<clustering>
<clus scale="   56.086">  2 10  1 -1</clus>
<clus scale="   56.866">  2  9  1 -1</clus>
<clus scale="   82.846">  5  6 -1 -1</clus>
<clus scale="   89.186">  7  8 -1 -1</clus>
<clus scale="  123.769">  1  5  2 -1</clus>
<clus scale="   56.086">  2  5  1 -1</clus>
</clustering>
</event>
<event>
10    4  0.7697601E-005  0.2183740E+03  0.7546771E-02  0.1177880E+00
         21   -1    0    0  503  502  0.00000000000E+00  0.00000000000E+00  0.14973129850E+03  0.14973129850E+03  0.00000000000E+00 0. -1.
          2   -1    0    0  502    0 -0.00000000000E+00 -0.00000000000E+00 -0.52571662906E+03  0.52571662906E+03  0.00000000000E+00 0. -1.
         24    2    1    2    0    0  0.47242469939E+00  0.85417066676E+01 -0.44180070524E+02  0.91467216588E+02  0.79631583816E+02 0.  0.
         23    2    1    2    0    0  0.13164047997E+03  0.15419200684E+03 -0.26262526113E+03  0.34373344988E+03  0.89868046834E+02 0.  0.
        -11    1    3    3    0    0  0.19276232854E+02 -0.22011735807E+02  0.59146546577E+01  0.29850842634E+02  0.00000000000E+00 0.  1.
         12    1    3    3    0    0 -0.18803808155E+02  0.30553442474E+02 -0.50094725182E+02  0.61616373954E+02  0.00000000000E+00 0. -1.
        -13    1    4    4    0    0  0.33397800290E+02  0.90127192894E+02 -0.72705315950E+02  0.12051716446E+03  0.00000000000E+00 0.  1.
         13    1    4    4    0    0  0.98242679678E+02  0.64064813944E+02 -0.18991994518E+03  0.22321628541E+03  0.00000000000E+00 0. -1.
         21    1    1    2  503  501 -0.25630995834E+02 -0.31309989219E+01  0.15945151523E+02  0.30347964656E+02  0.00000000000E+00 0. -1.
          1    1    1    2  501    0 -0.10648190883E+03 -0.15960271458E+03 -0.85125150420E+02  0.20989929644E+03  0.00000000000E+00 0. -1.
<scales pt_clust_5="13000.00000" pt_clust_6="13000.00000" pt_clust_7="13000.00000" pt_clust_8="13000.00000" pt_clust_9="25.82152" pt_clust_10="199.02501"></scales>
<clustering>
<clus scale="   25.822">  1  9  2 -1</clus>
<clus scale="   79.632">  5  6 -1 -1</clus>
<clus scale="   80.144">  2  5  1 -1</clus>
<clus scale="   89.868">  7  8 -1 -1</clus>
<clus scale="  199.025">  1 10  2 -1</clus>
<clus scale="   25.822">  1  5  2 -1</clus>
</clustering>
</event>
<event>
10    4  0.7697601E-005  0.1615040E+03  0.7546771E-02  0.1216183E+00
         21   -1    0    0  501  502  0.00000000000E+00  0.00000000000E+00  0.93109387473E+03  0.93109387473E+03  0.00000000000E+00 0.  1.
         -1   -1    0    0    0  501 -0.00000000000E+00 -0.00000000000E+00 -0.61964237996E+02  0.61964237996E+02  0.00000000000E+00 0.  1.
         24    2    1    2    0    0  0.25037708516E+02 -0.14776213056E+02  0.86391047193E+02  0.12293053018E+03  0.82481991343E+02 0.  0.
         23    2    1    2    0    0  0.92896349766E+02 -0.91593987288E+02  0.27500229072E+03  0.31944871921E+03  0.96964086111E+02 0.  0.
        -11    1    3    3    0    0  0.28799735381E+02 -0.65225912611E+01 -0.59688171153E+01  0.30126329556E+02  0.00000000000E+00 0.  1.
         12    1    3    3    0    0 -0.37620268651E+01 -0.82536217950E+01  0.92359864308E+02  0.92804200626E+02  0.00000000000E+00 0. -1.
        -13    1    4    4    0    0  0.24827756567E+02  0.64488002686E+01  0.12575929715E+03  0.12834876447E+03  0.00000000000E+00 0. -1.
         13    1    4    4    0    0  0.68068593199E+02 -0.98042787556E+02  0.14924299358E+03  0.19109995474E+03  0.00000000000E+00 0.  1.
         21    1    1    2  503  502 -0.38246761329E+02 -0.39497869266E+00  0.30937860826E+03  0.31173401163E+03  0.00000000000E+00 0.  1.
         -2    1    1    2    0  503 -0.79687296952E+02  0.10676517904E+03  0.19835769056E+03  0.23894485170E+03  0.00000000000E+00 0.  1.
<scales pt_clust_5="13000.00000" pt_clust_6="13000.00000" pt_clust_7="13000.00000" pt_clust_8="13000.00000" pt_clust_9="38.24880" pt_clust_10="129.15695"></scales>
<clustering>
<clus scale="   38.249">  1  9  2 -1</clus>
<clus scale="   82.482">  5  6 -1 -1</clus>
<clus scale="   85.843">  2  5  1 -1</clus>
<clus scale="   96.964">  7  8 -1 -1</clus>
<clus scale="  129.157">  1 10  2 -1</clus>
<clus scale="   38.249">  1  5  2 -1</clus>
</clustering>
</event>
<event>
10    4  0.7697601E-005  0.1509154E+03  0.7546771E-02  0.1228347E+00
          2   -1    0    0  502    0 -0.00000000000E+00  0.00000000000E+00  0.11175470993E+04  0.11175470993E+04  0.00000000000E+00 0. -1.
         21   -1    0    0  503  502  0.00000000000E+00 -0.00000000000E+00 -0.76457794812E+02  0.76457794812E+02  0.00000000000E+00 0. -1.
         24    2    1    2    0    0 -0.27792579959E+01  0.18251754491E+02  0.43453884761E+02  0.92426371942E+02  0.79457808380E+02 0.  0.
         23    2    1    2    0    0 -0.34634929976E+02  0.67527152891E+02  0.48632550394E+03  0.50048682468E+03  0.90637029639E+02 0.  0.
        -11    1    3    3    0    0  0.25872530469E+02  0.10691717464E+02  0.54120875500E+02  0.60932502165E+02  0.00000000000E+00 0.  1.
         12    1    3    3    0    0 -0.28651788465E+02  0.75600370267E+01 -0.10666990739E+02  0.31493869777E+02  0.00000000000E+00 0. -1.
        -11    1    4    4    0    0  0.29631192117E+02  0.12879459167E+02  0.17370847674E+03  0.17668764220E+03  0.00000000000E+00 0.  1.
         11    1    4    4    0    0 -0.64266122093E+02  0.54647693724E+02  0.31261702720E+03  0.32379918247E+03  0.00000000000E+00 0. -1.
         21    1    1    2  503  501  0.12859615024E+03  0.60832201262E+02  0.25627405252E+03  0.29311075819E+03  0.00000000000E+00 0. -1.
          1    1    1    2  501    0 -0.91181962273E+02 -0.14661110864E+03  0.25503586324E+03  0.30798093928E+03  0.00000000000E+00 0. -1.
<scales pt_clust_5="13000.00000" pt_clust_6="13000.00000" pt_clust_7="13000.00000" pt_clust_8="13000.00000" pt_clust_9="150.91543" pt_clust_10="13000.00000"></scales>
<clustering>
<clus scale="   79.458">  5  6 -1 -1</clus>
<clus scale="   81.575">  1  5  2 -1</clus>
<clus scale="   90.637">  7  8 -1 -1</clus>
<clus scale="  123.690">  1  7  2 -1</clus>
<clus scale="  150.915">  2  9  1 -1</clus>
<clus scale="  150.915">  2  5  1 -1</clus>
</clustering>
</event>
<event>
10    4  0.7697601E-005  0.1372078E+03  0.7546771E-02  0.1239824E+00
          2   -1    0    0  502    0 -0.00000000000E+00  0.00000000000E+00  0.59345950030E+03  0.59345950030E+03  0.00000000000E+00 0. -1.
         21   -1    0    0  503  502  0.00000000000E+00 -0.00000000000E+00 -0.86880858729E+02  0.86880858729E+02  0.00000000000E+00 0.  1.
         24    2    1    2    0    0  0.73385448111E+01 -0.22529954505E+02  0.15826443893E+03  0.17930026642E+03  0.80867173919E+02 0.  0.
         23    2    1    2    0    0 -0.77996473591E+02  0.98602779538E+02  0.20851982853E+03  0.26001439905E+03  0.91219574626E+02 0.  0.
        -13    1    3    3    0    0  0.26516003929E+02 -0.14637657510E+02  0.13676346684E+02  0.33232543393E+02  0.00000000000E+00 0.  1.
         14    1    3    3    0    0 -0.19177459118E+02 -0.78922969950E+01  0.14458809225E+03  0.14606772303E+03  0.00000000000E+00 0. -1.
        -13    1    4    4    0    0 -0.12581450442E+02  0.49140524523E+02  0.20176805166E+02  0.54591093709E+02  0.00000000000E+00 0.  1.
         13    1    4    4    0    0 -0.65415023149E+02  0.49462255015E+02  0.18834302337E+03  0.20542330534E+03  0.00000000000E+00 0. -1.
         21    1    1    2  503  501  0.25384214301E+01 -0.21902635468E+02 -0.37511019710E+02  0.43511442444E+02  0.00000000000E+00 0.  1.
          1    1    1    2  501    0  0.68119507350E+02 -0.54170189564E+02  0.17730539381E+03  0.19751425112E+03  0.00000000000E+00 0. -1.
<scales pt_clust_5="13000.00000" pt_clust_6="13000.00000" pt_clust_7="13000.00000" pt_clust_8="13000.00000" pt_clust_9="22.04924" pt_clust_10="102.49378"></scales>
<clustering>
<clus scale="   22.049">  2  9  1 -1</clus>
<clus scale="   80.867">  5  6 -1 -1</clus>
<clus scale="   85.780">  1  5  2 -1</clus>
<clus scale="   91.220">  7  8 -1 -1</clus>
<clus scale="  102.494">  2 10  1 -1</clus>
<clus scale="   22.049">  2  5  1 -1</clus>
</clustering>
</event>
<event>
10    4  0.7697601E-005  0.6356346E+03  0.7546771E-02  0.9836371E-01
         -3   -1    0    0    0  501 -0.00000000000E+00  0.00000000000E+00  0.88293784355E+03  0.88293784355E+03  0.00000000000E+00 0.  1.
         21   -1    0    0  503  502  0.00000000000E+00 -0.00000000000E+00 -0.75037510266E+03  0.75037510266E+03  0.00000000000E+00 0. -1.
         24    2    1    2    0    0  0.39126435597E+03  0.48876561649E+03  0.41836425757E+03  0.75716753926E+03  0.79337295061E+02 0.  0.
         23    2    1    2    0    0 -0.38004570984E+03 -0.49721925430E+03 -0.80158653239E+02  0.64053374340E+03  0.11043703335E+03 0.  0.
        -11    1    3    3    0    0  0.10429772352E+03  0.16177702503E+03  0.16626602162E+03  0.25435056694E+03  0.00000000000E+00 0.  1.
         12    1    3    3    0    0  0.28696663245E+03  0.32698859146E+03  0.25209823595E+03  0.50281697232E+03  0.00000000000E+00 0. -1.
        -13    1    4    4    0    0 -0.40354287994E+02 -0.19871841089E+02  0.14064578682E+02  0.47129300878E+02  0.00000000000E+00 0.  1.
         13    1    4    4    0    0 -0.33969142185E+03 -0.47734741321E+03 -0.94223231921E+02  0.59340444252E+03  0.00000000000E+00 0. -1.
         21    1    1    2  503  501  0.35556410396E+02 -0.46627198774E+01 -0.17395084814E+03  0.17760883099E+03  0.00000000000E+00 0. -1.
         -4    1    1    2    0  502 -0.46775056522E+02  0.13116357683E+02 -0.31692015293E+02  0.58002832559E+02  0.00000000000E+00 0.  1.
<scales pt_clust_5="13000.00000" pt_clust_6="13000.00000" pt_clust_7="13000.00000" pt_clust_8="13000.00000" pt_clust_9="35.86083" pt_clust_10="45.81061"></scales>
<clustering>
<clus scale="   35.861">  2  9  1 -1</clus>
<clus scale="   45.811">  2 10  1 -1</clus>
<clus scale="   79.337">  5  6 -1 -1</clus>
<clus scale="  110.437">  7  8 -1 -1</clus>
<clus scale="  630.975">  1  5  2 -1</clus>
<clus scale="   35.861">  2  5  1 -1</clus>
</clustering>
</event>
<event>
10    4  0.7697601E-005  0.1929745E+03  0.7546771E-02  0.1181832E+00
         21   -1    0    0  501  502  0.00000000000E+00  0.00000000000E+00  0.22549952606E+03  0.22549952606E+03  0.00000000000E+00 0. -1.
          2   -1    0    0  503    0 -0.00000000000E+00 -0.00000000000E+00 -0.81810904644E+03  0.81810904644E+03  0.00000000000E+00 0. -1.
         24    2    1    2    0    0  0.35803142891E+02 -0.36091160256E+02 -0.30683585443E+02  0.10270863700E+03  0.83804205201E+02 0.  0.
         23    2    1    2    0    0  0.72865219349E+02  0.22543174938E+03 -0.21802871977E+03  0.33442807795E+03  0.90425675866E+02 0.  0.
        -13    1    3    3    0    0 -0.23225011592E+02 -0.31046539994E+02 -0.12509247537E+02  0.40740275932E+02  0.00000000000E+00 0.  1.
         14    1    3    3    0    0  0.59028154483E+02 -0.50446202612E+01 -0.18174337906E+02  0.61968361068E+02  0.00000000000E+00 0. -1.
        -13    1    4    4    0    0  0.78504590144E+01  0.12909250924E+03 -0.72780080652E+02  0.14840298443E+03  0.00000000000E+00 0. -1.
         13    1    4    4    0    0  0.65014760334E+02  0.96339240142E+02 -0.14524863912E+03  0.18602509352E+03  0.00000000000E+00 0.  1.
         21    1    1    2  503  502 -0.54246382041E+02 -0.77166321423E+02  0.10466922292E+03  0.14090052290E+03  0.00000000000E+00 0. -1.
          1    1    1    2  501    0 -0.54421980199E+02 -0.11217426770E+03 -0.44856643809E+03  0.46557133465E+03  0.00000000000E+00 0. -1.
<scales pt_clust_5="13000.00000" pt_clust_6="13000.00000" pt_clust_7="13000.00000" pt_clust_8="13000.00000" pt_clust_9="94.32556" pt_clust_10="170.47697"></scales>
<clustering>
<clus scale="   83.804">  5  6 -1 -1</clus>
<clus scale="   90.426">  7  8 -1 -1</clus>
<clus scale="   94.326">  1  9  2 -1</clus>
<clus scale="  106.265">  2  5  1 -1</clus>
<clus scale="  170.477">  1 10  2 -1</clus>
<clus scale="   94.326">  1  5  2 -1</clus>
</clustering>
</event>
<event>
10    4  0.7697601E-005  0.1947633E+03  0.7546771E-02  0.1175403E+00
         -1   -1    0    0    0  501 -0.00000000000E+00  0.00000000000E+00  0.20233400863E+03  0.20233400863E+03  0.00000000000E+00 0.  1.
         21   -1    0    0  503  502  0.00000000000E+00 -0.00000000000E+00 -0.12965221710E+04  0.12965221710E+04  0.00000000000E+00 0.  1.
         23    2    1    2    0    0  0.62457935094E+01  0.76451674105E+02 -0.60782302384E+03  0.61939265516E+03  0.91184234060E+02 0.  0.
         24    2    1    2    0    0  0.12457817006E+03 -0.11427381549E+03  0.12117720368E+03  0.22269674578E+03  0.79571983308E+02 0.  0.
        -11    1    4    4    0    0  0.13164527925E+03 -0.10409802399E+03  0.92903750657E+02  0.19182800899E+03  0.00000000000E+00 0.  1.
         12    1    4    4    0    0 -0.70671091921E+01 -0.10175791499E+02  0.28273453026E+02  0.30868736790E+02  0.00000000000E+00 0. -1.
        -13    1    3    3    0    0  0.38709911331E+02  0.74763912147E+02 -0.48940018548E+03  0.49658900647E+03  0.00000000000E+00 0.  1.
         13    1    3    3    0    0 -0.32464117822E+02  0.16877619582E+01 -0.11842283836E+03  0.12280364869E+03  0.00000000000E+00 0. -1.
         21    1    1    2  503  501  0.48116508133E+02  0.12133996567E+02 -0.49160265659E+02  0.69851012500E+02  0.00000000000E+00 0. -1.
         -2    1    1    2    0  502 -0.17894047170E+03  0.25688144822E+02 -0.55838207660E+03  0.58691576624E+03  0.00000000000E+00 0.  1.
<scales pt_clust_5="13000.00000" pt_clust_6="13000.00000" pt_clust_7="13000.00000" pt_clust_8="13000.00000" pt_clust_9="49.62290" pt_clust_10="177.76685"></scales>
<clustering>
<clus scale="   49.623">  1  9  2 -1</clus>
<clus scale="   79.572">  5  6 -1 -1</clus>
<clus scale="   91.184">  7  8 -1 -1</clus>
<clus scale="  119.477">  1  7  2 -1</clus>
<clus scale="  177.767">  2 10  1 -1</clus>
<clus scale="  177.767">  2  5  1 -1</clus>
</clustering>
</event>
<event>
10    4  0.7697601E-005  0.1364446E+03  0.7546771E-02  0.1220915E+00
          2   -1    0    0  503    0 -0.00000000000E+00  0.00000000000E+00  0.53954919122E+03  0.53954919122E+03  0.00000000000E+00 0. -1.
         21   -1    0    0  501  502  0.00000000000E+00 -0.00000000000E+00 -0.24242310050E+03  0.24242310050E+03  0.00000000000E+00 0. -1.
         24    2    1    2    0    0  0.10814505157E+03 -0.90450671404E+01  0.41671899150E+03  0.43864658027E+03  0.83540044801E+02 0.  0.
         23    2    1    2    0    0 -0.48337105396E+02  0.63007034728E+02  0.44876947251E+02  0.13156820427E+03  0.94815029384E+02 0.  0.
        -13    1    3    3    0    0  0.52088664227E+02 -0.26275742842E+02  0.93929670379E+02  0.11057317297E+03  0.00000000000E+00 0.  1.
         14    1    3    3    0    0  0.56056387343E+02  0.17230675702E+02  0.32278932112E+03  0.32807340730E+03  0.00000000000E+00 0. -1.
        -11    1    4    4    0    0 -0.45506147786E+02 -0.54032799233E+01  0.43351800393E+02  0.63082355042E+02  0.00000000000E+00 0.  1.
         11    1    4    4    0    0 -0.28309576099E+01  0.68410314651E+02  0.15251468582E+01  0.68485849229E+02  0.00000000000E+00 0. -1.
         21    1    1    2  503  502  0.94090837232E+01  0.21141281103E+02 -0.65782595148E+02  0.69734026469E+02  0.00000000000E+00 0. -1.
          1    1    1    2  501    0 -0.69217029897E+02 -0.75103248690E+02 -0.98687252886E+02  0.14202348071E+03  0.00000000000E+00 0. -1.
<scales pt_clust_5="13000.00000" pt_clust_6="13000.00000" pt_clust_7="13000.00000" pt_clust_8="13000.00000" pt_clust_9="23.14054" pt_clust_10="87.17827"></scales>
<clustering>
<clus scale="   23.141">  2  9  1 -1</clus>
<clus scale="   83.540">  5  6 -1 -1</clus>
<clus scale="   87.178">  2 10  1 -1</clus>
<clus scale="   94.815">  7  8 -1 -1</clus>
<clus scale="  128.865">  1  5  2 -1</clus>
<clus scale="   23.141">  2  5  1 -1</clus>
</clustering>
</event>
<event>
10    4  0.7697601E-005  0.9837764E+02  0.7546771E-02  0.1288998E+00
         21   -1    0    0  503  502  0.00000000000E+00  0.00000000000E+00  0.85410034396E+02  0.85410034396E+02  0.00000000000E+00 0.  1.
          2   -1    0    0  502    0 -0.00000000000E+00 -0.00000000000E+00 -0.11045509104E+04  0.11045509104E+04  0.00000000000E+00 0. -1.
         24    2    1    2    0    0 -0.30643240424E+02  0.64519961679E+02 -0.38298781263E+03  0.39800776447E+03  0.81416720137E+02 0.  0.
         23    2    1    2    0    0  0.18210776148E+02  0.35496763935E+02 -0.20095596809E+03  0.22436902074E+03  0.91468594281E+02 0.  0.
        -13    1    3    3    0    0  0.33395015353E+01  0.72479077817E+02 -0.28086538538E+03  0.29008573508E+03  0.00000000000E+00 0.  1.
         14    1    3    3    0    0 -0.33982741959E+02 -0.79591161380E+01 -0.10212242724E+03  0.10792202939E+03  0.00000000000E+00 0. -1.
        -13    1    4    4    0    0  0.49678534144E+02  0.33316733863E+01 -0.14009483562E+03  0.14867958760E+03  0.00000000000E+00 0. -1.
         13    1    4    4    0    0 -0.31467757996E+02  0.32165090548E+02 -0.60861132466E+02  0.75689433135E+02  0.00000000000E+00 0.  1.
         21    1    1    2  503  501 -0.29814084165E+01 -0.30287571021E+02  0.59993157690E+02  0.67271128459E+02  0.00000000000E+00 0.  1.
          1    1    1    2  501    0  0.15413872692E+02 -0.69729154592E+02 -0.49519025298E+03  0.50031303113E+03  0.00000000000E+00 0. -1.
<scales pt_clust_5="13000.00000" pt_clust_6="13000.00000" pt_clust_7="13000.00000" pt_clust_8="13000.00000" pt_clust_9="30.43396" pt_clust_10="74.82336"></scales>
<clustering>
<clus scale="   30.434">  1  9  2 -1</clus>
<clus scale="   74.823">  1 10  2 -1</clus>
<clus scale="   81.417">  5  6 -1 -1</clus>
<clus scale="   89.109">  2  5  1 -1</clus>
<clus scale="   91.469">  7  8 -1 -1</clus>
<clus scale="   30.434">  1  5  2 -1</clus>
</clustering>
</event>
<event>
10    4  0.7697601E-005  0.1160847E+03  0.7546771E-02  0.1256100E+00
         21   -1    0    0  501  502  0.00000000000E+00  0.00000000000E+00  0.67957415364E+02  0.67957415364E+02  0.00000000000E+00 0.  1.
          4   -1    0    0  503    0 -0.00000000000E+00 -0.00000000000E+00 -0.12114258230E+04  0.12114258230E+04  0.00000000000E+00 0. -1.
         24    2    1    2    0    0 -0.39409246678E+02  0.57947338266E+02 -0.10488936336E+04  0.10539783308E+04  0.76036073318E+02 0.  0.
         23    2    1    2    0    0  0.40271389055E+02 -0.22687209215E+02 -0.32992529746E+02  0.10970263720E+03  0.93859828204E+02 0.  0.
        -13    1    3    3    0    0 -0.13488674024E+02 -0.15064496124E+02 -0.10631356815E+03  0.10821949059E+03  0.00000000000E+00 0.  1.
         14    1    3    3    0    0 -0.25920572654E+02  0.73011834390E+02 -0.94258006545E+03  0.94575884020E+03  0.00000000000E+00 0. -1.
        -13    1    4    4    0    0  0.70749060735E+02 -0.18767480242E+02 -0.17361346284E+02  0.75226752252E+02  0.00000000000E+00 0.  1.
         13    1    4    4    0    0 -0.30477671681E+02 -0.39197289728E+01 -0.15631183462E+02  0.34475884945E+02  0.00000000000E+00 0. -1.
         21    1    1    2  503  502 -0.21096877333E+02 -0.57853479209E+02 -0.58967238249E+02  0.85259829207E+02  0.00000000000E+00 0. -1.
          3    1    1    2  501    0  0.20234734957E+02  0.22593350158E+02 -0.26150060900E+01  0.30442441213E+02  0.00000000000E+00 0. -1.
<scales pt_clust_5="13000.00000" pt_clust_6="13000.00000" pt_clust_7="13000.00000" pt_clust_8="13000.00000" pt_clust_9="54.79906" pt_clust_10="30.32992"></scales>
<clustering>
<clus scale="   30.330">  1 10  2 -1</clus>
<clus scale="   54.799">  1  9  2 -1</clus>
<clus scale="   76.036">  5  6 -1 -1</clus>
<clus scale="   93.860">  7  8 -1 -1</clus>
<clus scale="  102.213">  2  5  1 -1</clus>
<clus scale="   30.330">  1  5  2 -1</clus>
</clustering>
</event>
<event>
10    4  0.7697601E-005  0.4526097E+03  0.7546771E-02  0.1081076E+00
         21   -1    0    0  501  502  0.00000000000E+00  0.00000000000E+00  0.11809270251E+04  0.11809270251E+04  0.00000000000E+00 0. -1.
          2   -1    0    0  503    0 -0.00000000000E+00 -0.00000000000E+00 -0.42767304927E+03  0.42767304927E+03  0.00000000000E+00 0. -1.
         23    2    1    2    0    0  0.93748261867E+01  0.30459582172E+02 -0.54483550211E+02  0.11183576619E+03  0.92320679393E+02 0.  0.
         24    2    1    2    0    0  0.12657533854E+03  0.34044120651E+03  0.34215415188E+03  0.50508870141E+03  0.78253442296E+02 0.  0.
        -11    1    4    4    0    0  0.31191331825E+02  0.19671838238E+02  0.35417998951E+02  0.51130373070E+02  0.00000000000E+00 0.  1.
         12    1    4    4    0    0  0.95384006711E+02  0.32076936827E+03  0.30673615293E+03  0.45395832834E+03  0.00000000000E+00 0. -1.
        -13    1    3    3    0    0  0.43119980353E+02 -0.74950742715E+01 -0.11376013314E+02  0.45220819573E+02  0.00000000000E+00 0.  1.
         13    1    3    3    0    0 -0.33745154166E+02  0.37954656443E+02 -0.43107536897E+02  0.66614946617E+02  0.00000000000E+00 0. -1.
         21    1    1    2  503  502 -0.23987993613E+03  0.17515407154E+03  0.27293952655E+03  0.40338234677E+03  0.00000000000E+00 0. -1.
          1    1    1    2  501    0  0.10392977140E+03 -0.54605486022E+03  0.19264384762E+03  0.58829326001E+03  0.00000000000E+00 0. -1.
<scales pt_clust_5="13000.00000" pt_clust_6="13000.00000" pt_clust_7="13000.00000" pt_clust_8="13000.00000" pt_clust_9="299.04229" pt_clust_10="445.79381"></scales>
<clustering>
<clus scale="   78.253">  5  6 -1 -1</clus>
<clus scale="   92.321">  7  8 -1 -1</clus>
<clus scale="   97.667">  2  7  1 -1</clus>
<clus scale="  299.042">  1  9  2 -1</clus>
<clus scale="  445.794">  1 10  2 -1</clus>
<clus scale="  299.042">  1  5  2 -1</clus>
</clustering>
</event>
<event>
10    4  0.7697601E-005  0.1027015E+03  0.7546771E-02  0.1280846E+00
         21   -1    0    0  503  502  0.00000000000E+00  0.00000000000E+00  0.13914381975E+03  0.13914381975E+03  0.00000000000E+00 0.  1.
          2   -1    0    0  502    0 -0.00000000000E+00 -0.00000000000E+00 -0.34967123263E+03  0.34967123263E+03  0.00000000000E+00 0. -1.
         23    2    1    2    0    0  0.38927181600E+02 -0.90930617910E+01 -0.25515221426E+03  0.27477562209E+03  0.93813542821E+02 0.  0.
         24    2    1    2    0    0 -0.32680376694E+02  0.65956000012E+02  0.57090817281E+01  0.10977097707E+03  0.81233446529E+02 0.  0.
        -11    1    4    4    0    0 -0.55208774785E+02  0.58172677586E+02 -0.10589401078E+02  0.80896258541E+02  0.00000000000E+00 0.  1.
         12    1    4    4    0    0  0.22528398091E+02  0.77833224259E+01  0.16298482806E+02  0.28874718532E+02  0.00000000000E+00 0. -1.
        -13    1    3    3    0    0 -0.19954384748E+02  0.26107711712E+02 -0.70184555559E+02  0.77496205846E+02  0.00000000000E+00 0.  1.
         13    1    3    3    0    0  0.58881566348E+02 -0.35200773503E+02 -0.18496765870E+03  0.19727941625E+03  0.00000000000E+00 0. -1.
         21    1    1    2  503  501  0.95582819525E+01 -0.19080137922E+02  0.55972890949E+02  0.59903062845E+02  0.00000000000E+00 0.  1.
          1    1    1    2  501    0 -0.15805086859E+02 -0.37782800299E+02 -0.17057171302E+02  0.44365390361E+02  0.00000000000E+00 0. -1.
<scales pt_clust_5="13000.00000" pt_clust_6="13000.00000" pt_clust_7="13000.00000" pt_clust_8="13000.00000" pt_clust_9="21.34039" pt_clust_10="43.38019"></scales>
<clustering>
<clus scale="   21.340">  1  9  2 -1</clus>
<clus scale="   43.380">  1 10  2 -1</clus>
<clus scale="   81.233">  5  6 -1 -1</clus>
<clus scale="   91.354">  1  5  2 -1</clus>
<clus scale="   93.814">  7  8 -1 -1</clus>
<clus scale="   21.340">  1  5  2 -1</clus>
</clustering>
</event>
<event>
10    4  0.7697601E-005  0.2470768E+03  0.7546771E-02  0.1142080E+00
         21   -1    0    0  503  502  0.00000000000E+00  0.00000000000E+00  0.97840821862E+02  0.97840821862E+02  0.00000000000E+00 0. -1.
         -3   -1    0    0    0  501 -0.00000000000E+00 -0.00000000000E+00 -0.19845699648E+04  0.19845699648E+04  0.00000000000E+00 0.  1.
         24    2    1    2    0    0 -0.60133377048E+02 -0.82981578037E+02 -0.22717190183E+03  0.26220780874E+03  0.81510101565E+02 0.  0.
         23    2    1    2    0    0  0.15134074522E+03  0.21309346894E+03 -0.65637085887E+03  0.71198688299E+03  0.88259670948E+02 0.  0.
        -13    1    3    3    0    0 -0.12008751681E+02 -0.79425131825E+02 -0.16492229458E+03  0.18344460999E+03  0.00000000000E+00 0.  1.
         14    1    3    3    0    0 -0.48124625366E+02 -0.35564462116E+01 -0.62249607244E+02  0.78763198757E+02  0.00000000000E+00 0. -1.
        -13    1    4    4    0    0  0.13560182086E+03  0.15956167479E+03 -0.42240006532E+03  0.47145476672E+03  0.00000000000E+00 0.  1.
         13    1    4    4    0    0  0.15738924361E+02  0.53531794149E+02 -0.23397079355E+03  0.24053211627E+03  0.00000000000E+00 0. -1.
         21    1    1    2  503  501  0.44785290458E+02 -0.11284835997E+02  0.32774281314E+02  0.56632351890E+02  0.00000000000E+00 0. -1.
         -4    1    1    2    0  502 -0.13599265864E+03 -0.11882705490E+03 -0.10359606636E+04  0.10515837430E+04  0.00000000000E+00 0.  1.
<scales pt_clust_5="13000.00000" pt_clust_6="13000.00000" pt_clust_7="13000.00000" pt_clust_8="13000.00000" pt_clust_9="46.18517" pt_clust_10="230.77527"></scales>
<clustering>
<clus scale="   46.185">  1  9  2 -1</clus>
<clus scale="   81.510">  5  6 -1 -1</clus>
<clus scale="   88.260">  7  8 -1 -1</clus>
<clus scale="  127.356">  2  5  1 -1</clus>
<clus scale="  230.775">  1 10  2 -1</clus>
<clus scale="   46.185">  1  5  2 -1</clus>
</clustering>
</event>
<event>
10    4  0.7697601E-005  0.1053572E+03  0.7546771E-02  0.1275550E+00
         21   -1    0    0  503  502  0.00000000000E+00  0.00000000000E+00  0.20892013301E+03  0.20892013301E+03  0.00000000000E+00 0. -1.
         -3   -1    0    0    0  501 -0.00000000000E+00 -0.00000000000E+00 -0.28146392664E+03  0.28146392664E+03  0.00000000000E+00 0.  1.
         24    2    1    2    0    0 -0.75975590276E+02  0.53425812230E+01 -0.24126497710E+02  0.11325313362E+03  0.80270485797E+02 0.  0.
         23    2    1    2    0    0  0.10329402093E+02  0.41170674634E+01  0.23889509829E+02  0.97330766050E+02  0.93695904648E+02 0.  0.
        -11    1    3    3    0    0 -0.85979543610E+02 -0.23652628338E+01 -0.38400048042E+02  0.94194692405E+02  0.00000000000E+00 0.  1.
         12    1    3    3    0    0  0.10003953334E+02  0.77078440569E+01  0.14273550331E+02  0.19058441211E+02  0.00000000000E+00 0. -1.
        -11    1    4    4    0    0  0.65736847808E+01  0.46591971151E+02 -0.26116359496E+01  0.47125850121E+02  0.00000000000E+00 0.  1.
         11    1    4    4    0    0  0.37557173124E+01 -0.42474903687E+02  0.26501145779E+02  0.50204915928E+02  0.00000000000E+00 0. -1.
         21    1    1    2  503  501  0.40402713678E+02 -0.37105584428E+02  0.94269652964E+02  0.10906865333E+03  0.00000000000E+00 0. -1.
         -4    1    1    2    0  502  0.25243474505E+02  0.27645935742E+02 -0.16657645871E+03  0.17073150666E+03  0.00000000000E+00 0.  1.
<scales pt_clust_5="13000.00000" pt_clust_6="13000.00000" pt_clust_7="13000.00000" pt_clust_8="13000.00000" pt_clust_9="57.81004" pt_clust_10="37.43704"></scales>
<clustering>
<clus scale="   37.437">  1 10  2 -1</clus>
<clus scale="   57.810">  1  9  2 -1</clus>
<clus scale="   80.270">  5  6 -1 -1</clus>
<clus scale="   93.619">  2  5  1 -1</clus>
<clus scale="   93.696">  7  8 -1 -1</clus>
<clus scale="   37.437">  1  5  2 -1</clus>
</clustering>
</event>
<event>
10    4  0.7697601E-005  0.1505143E+03  0.7546771E-02  0.1221393E+00
         21   -1    0    0  503  502  0.00000000000E+00  0.00000000000E+00  0.54354127305E+02  0.54354127305E+02  0.00000000000E+00 0. -1.
          2   -1    0    0  502    0 -0.00000000000E+00 -0.00000000000E+00 -0.10532892312E+04  0.10532892312E+04  0.00000000000E+00 0. -1.
         24    2    1    2    0    0  0.45611445982E+02 -0.13675684641E+02 -0.29103787085E+03  0.30645638387E+03  0.83336934099E+02 0.  0.
         23    2    1    2    0    0  0.71996881902E+02  0.71705128132E+02 -0.10870266928E+03  0.17530327058E+03  0.92681119772E+02 0.  0.
        -11    1    3    3    0    0  0.25880976477E+01 -0.23783476837E+02 -0.18193423725E+02  0.30055826169E+02  0.00000000000E+00 0.  1.
         12    1    3    3    0    0  0.43023348335E+02  0.10107792196E+02 -0.27284444713E+03  0.27640055770E+03  0.00000000000E+00 0. -1.
        -11    1    4    4    0    0  0.71207980728E+02  0.37919183501E+02 -0.11544678847E+03  0.14084176215E+03  0.00000000000E+00 0. -1.
         11    1    4    4    0    0  0.78890117430E+00  0.33785944631E+02  0.67441191873E+01  0.34461508430E+02  0.00000000000E+00 0.  1.
         21    1    1    2  503  501 -0.57412876990E+01  0.27715653803E+02 -0.38745330240E+02  0.47982501660E+02  0.00000000000E+00 0. -1.
          1    1    1    2  501    0 -0.11186704019E+03 -0.85745097293E+02 -0.56044923355E+03  0.57790120243E+03  0.00000000000E+00 0. -1.
<scales pt_clust_5="13000.00000" pt_clust_6="13000.00000" pt_clust_7="13000.00000" pt_clust_8="13000.00000" pt_clust_9="28.30406" pt_clust_10="118.59508"></scales>
<clustering>
<clus scale="   28.304">  1  9  2 -1</clus>
<clus scale="   83.337">  5  6 -1 -1</clus>
<clus scale="   92.681">  7  8 -1 -1</clus>
<clus scale="   95.042">  2  5  1 -1</clus>
<clus scale="  118.595">  1 10  2 -1</clus>
<clus scale="   28.304">  1  5  2 -1</clus>
</clustering>
</event>
<event>
10    4  0.7697601E-005  0.2763196E+03  0.7546771E-02  0.1097969E+00
         -3   -1    0    0    0  501 -0.00000000000E+00  0.00000000000E+00  0.20715460471E+03  0.20715460471E+03  0.00000000000E+00 0.  1.
         21   -1    0    0  501  502  0.00000000000E+00 -0.00000000000E+00 -0.72683736356E+03  0.72683736356E+03  0.00000000000E+00 0. -1.
         24    2    1    2    0    0 -0.50440757280E+01 -0.24297515455E+03 -0.13034413404E+03  0.28777876472E+03  0.82247527098E+02 0.  0.
         23    2    1    2    0    0  0.12781495577E+03  0.27454137192E+03 -0.21671654497E+03  0.38267480702E+03  0.88115374634E+02 0.  0.
        -13    1    3    3    0    0  0.16760838455E+02 -0.44475783352E+02  0.30549024965E+01  0.47627234223E+02  0.00000000000E+00 0.  1.
         14    1    3    3    0    0 -0.21804914183E+02 -0.19849937120E+03 -0.13339903654E+03  0.24015153049E+03  0.00000000000E+00 0. -1.
        -13    1    4    4    0    0  0.12655568172E+03  0.17568220568E+03 -0.14747575598E+03  0.26197266379E+03  0.00000000000E+00 0. -1.
         13    1    4    4    0    0  0.12592740497E+01  0.98859166239E+02 -0.69240788993E+02  0.12070214323E+03  0.00000000000E+00 0.  1.
         21    1    1    2  503  502  0.26797538309E+01  0.33542956441E+02 -0.98193047136E+02  0.10379877414E+03  0.00000000000E+00 0.  1.
         -4    1    1    2    0  503 -0.12545063388E+03 -0.65109173813E+02 -0.74429032690E+02  0.15973962239E+03  0.00000000000E+00 0.  1.
<scales pt_clust_5="13000.00000" pt_clust_6="13000.00000" pt_clust_7="13000.00000" pt_clust_8="13000.00000" pt_clust_9="33.64983" pt_clust_10="138.10781"></scales>
<clustering>
<clus scale="   33.650">  2  9  1 -1</clus>
<clus scale="   82.248">  5  6 -1 -1</clus>
<clus scale="   88.115">  7  8 -1 -1</clus>
<clus scale="  138.108">  2 10  1 -1</clus>
<clus scale="  274.505">  1  5  2 -1</clus>
<clus scale="   33.650">  2  5  1 -1</clus>
</clustering>
</event>
<event>
10    4  0.7697601E-005  0.1004135E+03  0.7546771E-02  0.1282877E+00
          2   -1    0    0  503    0 -0.00000000000E+00  0.00000000000E+00  0.75732705576E+03  0.75732705576E+03  0.00000000000E+00 0. -1.
         21   -1    0    0  501  502  0.00000000000E+00 -0.00000000000E+00 -0.42326853712E+02  0.42326853712E+02  0.00000000000E+00 0.  1.
         24    2    1    2    0    0  0.10265175363E+02  0.41067872446E+02  0.37286238498E+03  0.38372101789E+03  0.80146849395E+02 0.  0.
         23    2    1    2    0    0 -0.47155044480E+02 -0.58294470875E+02  0.18090771589E+03  0.21450133811E+03  0.87529302691E+02 0.  0.
        -11    1    3    3    0    0  0.41932751860E+02  0.41442367270E+02  0.24567635801E+03  0.25265133756E+03  0.00000000000E+00 0.  1.
         12    1    3    3    0    0 -0.31667576497E+02 -0.37449482428E+00  0.12718602696E+03  0.13106968033E+03  0.00000000000E+00 0. -1.
        -13    1    4    4    0    0  0.20456733858E+02 -0.26190112828E+02  0.25092298022E+02  0.41641606478E+02  0.00000000000E+00 0.  1.
         13    1    4    4    0    0 -0.67611778338E+02 -0.32104358047E+02  0.15581541787E+03  0.17285973164E+03  0.00000000000E+00 0. -1.
         21    1    1    2  503  502  0.60331529291E+02  0.16598312161E+02  0.32360438168E+02  0.70445690795E+02  0.00000000000E+00 0.  1.
          1    1    1    2  501    0 -0.23441660173E+02  0.62828626773E+00  0.12886966301E+03  0.13098586267E+03  0.00000000000E+00 0. -1.
<scales pt_clust_5="13000.00000" pt_clust_6="13000.00000" pt_clust_7="13000.00000" pt_clust_8="13000.00000" pt_clust_9="52.31570" pt_clust_10="23.45009"></scales>
<clustering>
<clus scale="   23.450">  2 10  1 -1</clus>
<clus scale="   52.316">  2  9  1 -1</clus>
<clus scale="   80.147">  5  6 -1 -1</clus>
<clus scale="   87.529">  7  8 -1 -1</clus>
<clus scale="   94.048">  1  5  2 -1</clus>
<clus scale="   23.450">  2  5  1 -1</clus>
</clustering>
</event>
<event>
10    4  0.7697601E-005  0.1357745E+03  0.7546771E-02  0.1238789E+00
         21   -1    0    0  501  502  0.00000000000E+00  0.00000000000E+00  0.71533568389E+03  0.71533568389E+03  0.00000000000E+00 0. -1.
         -3   -1    0    0    0  501 -0.00000000000E+00 -0.00000000000E+00 -0.91749344232E+02  0.91749344232E+02  0.00000000000E+00 0.  1.
         24    2    1    2    0    0 -0.29396077431E+02  0.27493283028E+02  0.28611069286E+03  0.30005483661E+03  0.80954100702E+02 0.  0.
         23    2    1    2    0    0 -0.52108638776E+02 -0.34415883761E+02  0.80115650618E+02  0.13250684324E+03  0.85086912863E+02 0.  0.
        -13    1    3    3    0    0 -0.26609670094E+02  0.46405830617E+02  0.10407265877E+03  0.11701578509E+03  0.00000000000E+00 0.  1.
         14    1    3    3    0    0 -0.27864073369E+01 -0.18912547589E+02  0.18203803409E+03  0.18303905151E+03  0.00000000000E+00 0. -1.
        -11    1    4    4    0    0  0.39402225720E+01 -0.45245674098E+02  0.51450809750E+02  0.68628581527E+02  0.00000000000E+00 0.  1.
         11    1    4    4    0    0 -0.56048861348E+02  0.10829790337E+02  0.28664840868E+02  0.63878261710E+02  0.00000000000E+00 0. -1.
         21    1    1    2  503  502 -0.47669004536E+02 -0.77375617237E+02  0.18072307799E+03  0.20228729830E+03  0.00000000000E+00 0. -1.
         -4    1    1    2    0  503  0.12917372074E+03  0.84298217971E+02  0.76636918193E+02  0.17223604998E+03  0.00000000000E+00 0.  1.
<scales pt_clust_5="13000.00000" pt_clust_6="13000.00000" pt_clust_7="13000.00000" pt_clust_8="13000.00000" pt_clust_9="90.00472" pt_clust_10="105.80611"></scales>
<clustering>
<clus scale="   80.954">  5  6 -1 -1</clus>
<clus scale="   85.087">  7  8 -1 -1</clus>
<clus scale="   90.408">  2  5  1 -1</clus>
<clus scale="   90.005">  1  9  2 -1</clus>
<clus scale="  105.806">  1 10  2 -1</clus>
<clus scale="   90.005">  1  5  2 -1</clus>
</clustering>
</event>
<event>
10    4  0.7697601E-005  0.1560173E+03  0.7546771E-02  0.1211060E+00
         21   -1    0    0  503  502  0.00000000000E+00  0.00000000000E+00  0.51000659822E+02  0.51000659822E+02  0.00000000000E+00 0.  1.
          2   -1    0    0  502    0 -0.00000000000E+00 -0.00000000000E+00 -0.19041881377E+04  0.19041881377E+04  0.00000000000E+00 0. -1.
         23    2    1    2    0    0  0.32505169381E+02 -0.36957276348E+00 -0.30945325974E+03  0.32591927814E+03  0.96981097548E+02 0.  0.
         24    2    1    2    0    0  0.71762166032E+02  0.94552482462E+02 -0.53088242758E+03  0.55011338650E+03  0.81845010159E+02 0.  0.
        -11    1    4    4    0    0  0.83917775488E+02  0.69815151970E+02 -0.33590821483E+03  0.35320061903E+03  0.00000000000E+00 0.  1.
         12    1    4    4    0    0 -0.12155609457E+02  0.24737330492E+02 -0.19497421274E+03  0.19691276748E+03  0.00000000000E+00 0. -1.
        -13    1    3    3    0    0  0.26009006487E+00  0.45440718206E+02 -0.11834470572E+03  0.12676906519E+03  0.00000000000E+00 0.  1.
         13    1    3    3    0    0  0.32245079316E+02 -0.45810290970E+02 -0.19110855402E+03  0.19915021295E+03  0.00000000000E+00 0. -1.
         21    1    1    2  503  501  0.30104878664E+02 -0.12694770377E+02  0.17380282794E+02  0.37007230973E+02  0.00000000000E+00 0.  1.
          1    1    1    2  501    0 -0.13437221408E+03 -0.81488139321E+02 -0.10302320734E+04  0.10421489019E+04  0.00000000000E+00 0. -1.
<scales pt_clust_5="13000.00000" pt_clust_6="13000.00000" pt_clust_7="13000.00000" pt_clust_8="13000.00000" pt_clust_9="32.67202" pt_clust_10="132.82624"></scales>
<clustering>
<clus scale="   32.672">  1  9  2 -1</clus>
<clus scale="   81.845">  5  6 -1 -1</clus>
<clus scale="   96.981">  7  8 -1 -1</clus>
<clus scale="  106.159">  2  7  1 -1</clus>
<clus scale="  132.826">  1 10  2 -1</clus>
<clus scale="   32.672">  1  5  2 -1</clus>
</clustering>
</event>
<event>
10    4  0.7697601E-005  0.2608729E+03  0.7546771E-02  0.1107365E+00
          2   -1    0    0  503    0 -0.00000000000E+00  0.00000000000E+00  0.82070778804E+03  0.82070778804E+03  0.00000000000E+00 0. -1.
         21   -1    0    0  501  502  0.00000000000E+00 -0.00000000000E+00 -0.16723642431E+03  0.16723642431E+03  0.00000000000E+00 0.  1.
         23    2    1    2    0    0  0.13933009093E+02 -0.26188944109E+03  0.43340031222E+03  0.51527724286E+03  0.94311177937E+02 0.  0.
         24    2    1    2    0    0 -0.31493209610E+02  0.24680176440E+03  0.32354568766E+02  0.26324086668E+03  0.79661801439E+02 0.  0.
        -13    1    4    4    0    0 -0.53314806867E+02  0.16049028162E+03  0.40331571874E+02  0.17385693778E+03  0.00000000000E+00 0.  1.
         14    1    4    4    0    0  0.21821597257E+02  0.86311482783E+02 -0.79770031083E+01  0.89383928900E+02  0.00000000000E+00 0. -1.
        -11    1    3    3    0    0 -0.26194846412E+02 -0.24460505677E+02  0.37301732767E+02  0.51729156034E+02  0.00000000000E+00 0.  1.
         11    1    3    3    0    0  0.40127855505E+02 -0.23742893541E+03  0.39609857945E+03  0.46354808683E+03  0.00000000000E+00 0. -1.
         21    1    1    2  503  502  0.30574245575E+02  0.39980377455E+02  0.58408210385E+02  0.77102101880E+02  0.00000000000E+00 0. -1.
          1    1    1    2  501    0 -0.13014045058E+02 -0.24892700767E+02  0.12930827236E+03  0.13232400092E+03  0.00000000000E+00 0. -1.
<scales pt_clust_5="13000.00000" pt_clust_6="13000.00000" pt_clust_7="13000.00000" pt_clust_8="13000.00000" pt_clust_9="48.77073" pt_clust_10="28.08937"></scales>
<clustering>
<clus scale="   28.089">  2 10  1 -1</clus>
<clus scale="   48.771">  1  9  2 -1</clus>
<clus scale="   79.662">  5  6 -1 -1</clus>
<clus scale="   94.311">  7  8 -1 -1</clus>
<clus scale="  255.942">  2  5  1 -1</clus>
<clus scale="   28.089">  2  5  1 -1</clus>
</clustering>
</event>
<event>
10    4  0.7697601E-005  0.1183041E+03  0.7546771E-02  0.1263652E+00
          2   -1    0    0  503    0 -0.00000000000E+00  0.00000000000E+00  0.69515287457E+03  0.69515287457E+03  0.00000000000E+00 0. -1.
         21   -1    0    0  501  502  0.00000000000E+00 -0.00000000000E+00 -0.91646742652E+02  0.91646742652E+02  0.00000000000E+00 0. -1.
         24    2    1    2    0    0  0.16222497163E+02  0.10058327703E+02  0.27502868263E+03  0.28735043815E+03  0.81025666724E+02 0.  0.
         23    2    1    2    0    0  0.62277090815E+01 -0.95117233196E+01  0.12817655857E+02  0.92206044550E+02  0.90600248946E+02 0.  0.
        -13    1    3    3    0    0 -0.12039629882E+02  0.38882676188E+02  0.17065621064E+03  0.17544331685E+03  0.00000000000E+00 0.  1.
         14    1    3    3    0    0  0.28262127045E+02 -0.28824348485E+02  0.10437247199E+03  0.11190712131E+03  0.00000000000E+00 0. -1.
        -13    1    4    4    0    0  0.29956331894E+02 -0.64016772039E+01 -0.30176727384E+02  0.42999978688E+02  0.00000000000E+00 0. -1.
         13    1    4    4    0    0 -0.23728622812E+02 -0.31100461156E+01  0.42994383241E+02  0.49206065863E+02  0.00000000000E+00 0.  1.
         21    1    1    2  503  502  0.10495019003E+03 -0.38685773508E+02  0.83096918620E+02  0.13934213054E+03  0.00000000000E+00 0. -1.
          1    1    1    2  501    0 -0.12740039627E+03  0.38139169124E+02  0.23256287481E+03  0.26790100398E+03  0.00000000000E+00 0. -1.
<scales pt_clust_5="13000.00000" pt_clust_6="13000.00000" pt_clust_7="13000.00000" pt_clust_8="13000.00000" pt_clust_9="118.30408" pt_clust_10="13000.00000"></scales>
<clustering>
<clus scale="   81.026">  5  6 -1 -1</clus>
<clus scale="   83.244">  1  5  2 -1</clus>
<clus scale="   90.600">  7  8 -1 -1</clus>
<clus scale="   91.350">  1  7  2 -1</clus>
<clus scale="  118.304">  2  9  1 -1</clus>
<clus scale="  118.304">  2  5  1 -1</clus>
</clustering>
</event>
<event>
10    4  0.7697601E-005  0.1068687E+03  0.7546771E-02  0.1281577E+00
         -3   -1    0    0    0  501 -0.00000000000E+00  0.00000000000E+00  0.19876606073E+03  0.19876606073E+03  0.00000000000E+00 0.  1.
         21   -1    0    0  503  502  0.00000000000E+00 -0.00000000000E+00 -0.82853169190E+03  0.82853169190E+03  0.00000000000E+00 0.  1.
         24    2    1    2    0    0  0.89353373699E+01  0.52486185455E+00  0.34578961150E+02  0.87116877958E+02  0.79457725471E+02 0.  0.
         23    2    1    2    0    0 -0.21246158276E+02 -0.49236643795E+02  0.86569717228E+02  0.13837694873E+03  0.93692143027E+02 0.  0.
        -13    1    3    3    0    0  0.13829492098E+02 -0.34192335659E+02 -0.13607806399E+01  0.36908297081E+02  0.00000000000E+00 0.  1.
         14    1    3    3    0    0 -0.48941547280E+01  0.34717197513E+02  0.35939741790E+02  0.50208580876E+02  0.00000000000E+00 0. -1.
        -13    1    4    4    0    0  0.25171505149E+02 -0.55412836423E+02  0.53695926334E+02  0.81163043417E+02  0.00000000000E+00 0.  1.
         13    1    4    4    0    0 -0.46417663425E+02  0.61761926285E+01  0.32873790894E+02  0.57213905311E+02  0.00000000000E+00 0. -1.
         21    1    1    2  503  501 -0.85690099312E+02  0.79558012288E+02 -0.64009056303E+03  0.65068287155E+03  0.00000000000E+00 0.  1.
         -4    1    1    2    0  502  0.98000920218E+02 -0.30846230347E+02 -0.11082374651E+03  0.15112105439E+03  0.00000000000E+00 0.  1.
<scales pt_clust_5="13000.00000" pt_clust_6="13000.00000" pt_clust_7="13000.00000" pt_clust_8="13000.00000" pt_clust_9="51.40714" pt_clust_10="103.96396"></scales>
<clustering>
<clus scale="   79.458">  5  6 -1 -1</clus>
<clus scale="   79.960">  1  5  2 -1</clus>
<clus scale="   93.692">  7  8 -1 -1</clus>
<clus scale="  103.964">  2 10  1 -1</clus>
<clus scale="   51.407">  2  9  1 -1</clus>
<clus scale="  103.964">  2  5  1 -1</clus>
</clustering>
</event>
<event>
10    4  0.7697601E-005  0.1962899E+03  0.7546771E-02  0.1153930E+00
         -1   -1    0    0    0  501 -0.00000000000E+00  0.00000000000E+00  0.59853381794E+03  0.59853381794E+03  0.00000000000E+00 0.  1.
         21   -1    0    0  503  502  0.00000000000E+00 -0.00000000000E+00 -0.94502503385E+02  0.94502503385E+02  0.00000000000E+00 0.  1.
         23    2    1    2    0    0 -0.19227853882E+03  0.12564670345E+01  0.24396783739E+03  0.32407644836E+03  0.92372200916E+02 0.  0.
         24    2    1    2    0    0  0.15149137351E+03 -0.44286933342E+01  0.11779506281E+03  0.20872323823E+03  0.81978434867E+02 0.  0.
        -11    1    4    4    0    0  0.13016050582E+03 -0.34755626346E+02  0.85571859864E+02  0.15960029461E+03  0.00000000000E+00 0.  1.
         12    1    4    4    0    0  0.21330867689E+02  0.30326933012E+02  0.32223202943E+02  0.49122943623E+02  0.00000000000E+00 0. -1.
        -13    1    3    3    0    0 -0.93733999186E+02 -0.40860466881E+02  0.88392974624E+02  0.13516271054E+03  0.00000000000E+00 0.  1.
         13    1    3    3    0    0 -0.98544539638E+02  0.42116933916E+02  0.15557486276E+03  0.18891373782E+03  0.00000000000E+00 0. -1.
         21    1    1    2  503  501  0.82934399614E+01  0.19365076840E+02  0.10460846165E+02  0.23520558027E+02  0.00000000000E+00 0.  1.
         -2    1    1    2    0  502  0.32493725355E+02 -0.16192850540E+02  0.13180756819E+03  0.13671607670E+03  0.00000000000E+00 0.  1.
<scales pt_clust_5="13000.00000" pt_clust_6="13000.00000" pt_clust_7="13000.00000" pt_clust_8="13000.00000" pt_clust_9="21.06626" pt_clust_10="36.27585"></scales>
<clustering>
<clus scale="   21.066">  2  9  1 -1</clus>
<clus scale="   36.276">  2 10  1 -1</clus>
<clus scale="   81.978">  5  6 -1 -1</clus>
<clus scale="   92.372">  7  8 -1 -1</clus>
<clus scale="  191.618">  2  5  1 -1</clus>
<clus scale="   21.066">  2  5  1 -1</clus>
</clustering>
</event>
<event>
10    4  0.7697601E-005  0.5075610E+03  0.7546771E-02  0.1011824E+00
          2   -1    0    0  503    0 -0.00000000000E+00  0.00000000000E+00  0.30498155446E+03  0.30498155446E+03  0.00000000000E+00 0. -1.
         21   -1    0    0  501  502  0.00000000000E+00 -0.00000000000E+00 -0.98753600761E+03  0.98753600761E+03  0.00000000000E+00 0. -1.
         24    2    1    2    0    0  0.28417116064E+03 -0.25117989406E+02 -0.29762675014E+03  0.41958607724E+03  0.78016869196E+02 0.  0.
         23    2    1    2    0    0  0.17448511865E+03  0.57762686665E+02 -0.10286745212E+03  0.22974643136E+03  0.91761241355E+02 0.  0.
        -13    1    3    3    0    0  0.86918212574E+02 -0.17743433672E+02 -0.14535670951E+03  0.17028851434E+03  0.00000000000E+00 0.  1.
         14    1    3    3    0    0  0.19725294807E+03 -0.73745557345E+01 -0.15227004063E+03  0.24929756290E+03  0.00000000000E+00 0. -1.
        -11    1    4    4    0    0  0.95099281499E+02  0.75013849481E+02 -0.80673821785E+02  0.14553080937E+03  0.00000000000E+00 0. -1.
         11    1    4    4    0    0  0.79385837150E+02 -0.17251162816E+02 -0.22193630330E+02  0.84215621982E+02  0.00000000000E+00 0.  1.
         21    1    1    2  503  502 -0.43699541857E+01 -0.55487006405E+02 -0.16409427008E+03  0.17327675509E+03  0.00000000000E+00 0. -1.
          1    1    1    2  501    0 -0.45428632511E+03  0.22842309146E+02 -0.11796598082E+03  0.46990829839E+03  0.00000000000E+00 0. -1.
<scales pt_clust_5="13000.00000" pt_clust_6="13000.00000" pt_clust_7="13000.00000" pt_clust_8="13000.00000" pt_clust_9="55.65882" pt_clust_10="455.86459"></scales>
<clustering>
<clus scale="   55.659">  2  9  1 -1</clus>
<clus scale="   78.017">  5  6 -1 -1</clus>
<clus scale="   91.761">  7  8 -1 -1</clus>
<clus scale="  139.833">  5  7 -1 -1</clus>
<clus scale="  455.865">  2 10  1 -1</clus>
<clus scale="   55.659">  2  5  1 -1</clus>
</clustering>
</event>
<event>
10    4  0.7697601E-005  0.1158237E+03  0.7546771E-02  0.1250715E+00
          2   -1    0    0  503    0 -0.00000000000E+00  0.00000000000E+00  0.15722759646E+04  0.15722759646E+04  0.00000000000E+00 0. -1.
         21   -1    0    0  501  502  0.00000000000E+00 -0.00000000000E+00 -0.47263113457E+02  0.47263113457E+02  0.00000000000E+00 0. -1.
         24    2    1    2    0    0  0.32820535951E+02 -0.76211917143E+02  0.10454642115E+04  0.10527101182E+04  0.91201598006E+02 0.  0.
         23    2    1    2    0    0  0.10388212335E+02  0.46365001700E+02  0.34720873588E+03  0.36253036321E+03  0.92826341301E+02 0.  0.
        -11    1    3    3    0    0  0.42407640043E+02 -0.11787407232E+02  0.20225360472E+03  0.20698761201E+03  0.00000000000E+00 0.  1.
         12    1    3    3    0    0 -0.95871040921E+01 -0.64424509911E+02  0.84321060682E+03  0.84572250621E+03  0.00000000000E+00 0. -1.
        -11    1    4    4    0    0  0.12271176856E+02 -0.26157013854E+02  0.64744143159E+02  0.70898344329E+02  0.00000000000E+00 0.  1.
         11    1    4    4    0    0 -0.18829645204E+01  0.72522015554E+02  0.28246459272E+03  0.29163201888E+03  0.00000000000E+00 0. -1.
         21    1    1    2  503  502  0.34459407020E+02  0.97417014241E+01 -0.13155249515E+02  0.38149863285E+02  0.00000000000E+00 0. -1.
          1    1    1    2  501    0 -0.77668155306E+02  0.20105214019E+02  0.14549515326E+03  0.16614873337E+03  0.00000000000E+00 0. -1.
<scales pt_clust_5="13000.00000" pt_clust_6="13000.00000" pt_clust_7="13000.00000" pt_clust_8="13000.00000" pt_clust_9="35.80994" pt_clust_10="66.02038"></scales>
<clustering>
<clus scale="   35.810">  2  9  1 -1</clus>
<clus scale="   66.020">  2 10  1 -1</clus>
<clus scale="   91.202">  5  6 -1 -1</clus>
<clus scale="   92.826">  7  8 -1 -1</clus>
<clus scale="  114.526">  1  5  2 -1</clus>
<clus scale="   35.810">  2  5  1 -1</clus>
</clustering>
</event>
<event>
10    4  0.7697601E-005  0.1276621E+03  0.7546771E-02  0.1252414E+00
          2   -1    0    0  503    0 -0.00000000000E+00  0.00000000000E+00  0.72240293001E+03  0.72240293001E+03  0.00000000000E+00 0. -1.
         21   -1    0    0  501  502  0.00000000000E+00 -0.00000000000E+00 -0.82488550975E+02  0.82488550975E+02  0.00000000000E+00 0. -1.
         24    2    1    2    0    0  0.29733766683E+01 -0.68941593973E+01  0.49373958514E+03  0.50063726366E+03  0.82477399481E+02 0.  0.
         23    2    1    2    0    0 -0.64618735849E+02  0.55449154294E+02  0.84507835349E+02  0.14759956183E+03  0.85987596093E+02 0.  0.
        -11    1    3    3    0    0 -0.27409255091E+02 -0.28537094054E+02  0.16002572617E+03  0.16484497578E+03  0.00000000000E+00 0.  1.
         12    1    3    3    0    0  0.30382631760E+02  0.21642934656E+02  0.33371385897E+03  0.33579228788E+03  0.00000000000E+00 0. -1.
        -13    1    4    4    0    0  0.19813519052E+02  0.13237497618E+02  0.53870391885E+01  0.24430044446E+02  0.00000000000E+00 0.  1.
         13    1    4    4    0    0 -0.84432254901E+02  0.42211656675E+02  0.79120796160E+02  0.12316951738E+03  0.00000000000E+00 0. -1.
         21    1    1    2  503  502 -0.34601100503E+01  0.34959461671E+02  0.21831706853E+01  0.35198047618E+02  0.00000000000E+00 0. -1.
          1    1    1    2  501    0  0.65105469231E+02 -0.83514456567E+02  0.59483787857E+02  0.12145660788E+03  0.00000000000E+00 0. -1.
<scales pt_clust_5="13000.00000" pt_clust_6="13000.00000" pt_clust_7="13000.00000" pt_clust_8="13000.00000" pt_clust_9="35.13028" pt_clust_10="94.35959"></scales>
<clustering>
<clus scale="   35.130">  2  9  1 -1</clus>
<clus scale="   82.477">  5  6 -1 -1</clus>
<clus scale="   82.680">  1  5  2 -1</clus>
<clus scale="   85.988">  7  8 -1 -1</clus>
<clus scale="   94.360">  2 10  1 -1</clus>
<clus scale="   35.130">  2  5  1 -1</clus>
</clustering>
</event>
<event>
10    4  0.7697601E-005  0.3296138E+03  0.7546771E-02  0.1121766E+00
          2   -1    0    0  503    0 -0.00000000000E+00  0.00000000000E+00  0.88078464762E+03  0.88078464762E+03  0.00000000000E+00 0. -1.
         21   -1    0    0  501  502  0.00000000000E+00 -0.00000000000E+00 -0.50072004788E+03  0.50072004788E+03  0.00000000000E+00 0. -1.
         24    2    1    2    0    0  0.32276055831E+02 -0.13148615684E+02 -0.97011727546E+01  0.88723732125E+02  0.81013319984E+02 0.  0.
         23    2    1    2    0    0  0.38357394266E+03 -0.16482676257E+03 -0.12611382282E+03  0.44630090465E+03  0.94778531515E+02 0.  0.
        -13    1    3    3    0    0  0.17267783534E+02  0.30555413368E+02 -0.21334386118E+02  0.41072687583E+02  0.00000000000E+00 0.  1.
         14    1    3    3    0    0  0.15008272297E+02 -0.43704029052E+02  0.11633213363E+02  0.47651044542E+02  0.00000000000E+00 0. -1.
        -11    1    4    4    0    0  0.35998458219E+03 -0.17743993091E+03 -0.11932541052E+03  0.41870321481E+03  0.00000000000E+00 0. -1.
         11    1    4    4    0    0  0.23589360472E+02  0.12613168338E+02 -0.67884123002E+01  0.27597689841E+02  0.00000000000E+00 0.  1.
         21    1    1    2  503  502 -0.12861471111E+03  0.46697954411E+02 -0.89621283216E+02  0.16356777576E+03  0.00000000000E+00 0. -1.
          1    1    1    2  501    0 -0.28723528738E+03  0.13127742385E+03  0.60550087853E+03  0.68291228297E+03  0.00000000000E+00 0. -1.
<scales pt_clust_5="13000.00000" pt_clust_6="13000.00000" pt_clust_7="13000.00000" pt_clust_8="13000.00000" pt_clust_9="135.29943" pt_clust_10="315.69351"></scales>
<clustering>
<clus scale="   81.013">  5  6 -1 -1</clus>
<clus scale="   88.192">  1  5  2 -1</clus>
<clus scale="   94.779">  7  8 -1 -1</clus>
<clus scale="  135.299">  2  9  1 -1</clus>
<clus scale="  315.694">  2 10  1 -1</clus>
<clus scale="  135.299">  2  5  1 -1</clus>
</clustering>
</event>
<event>
10    4  0.7697601E-005  0.4241440E+03  0.7546771E-02  0.1090900E+00
         21   -1    0    0  503  502  0.00000000000E+00  0.00000000000E+00  0.14806962980E+03  0.14806962980E+03  0.00000000000E+00 0.  1.
          2   -1    0    0  502    0 -0.00000000000E+00 -0.00000000000E+00 -0.18801738095E+04  0.18801738095E+04  0.00000000000E+00 0. -1.
         24    2    1    2    0    0 -0.17619757504E+02  0.41523171662E+02 -0.10603914954E+03  0.14045060842E+03  0.80295968335E+02 0.  0.
         23    2    1    2    0    0 -0.38636147194E+03  0.90166032048E+02 -0.39747934665E+03  0.56847813712E+03  0.88161562065E+02 0.  0.
        -13    1    3    3    0    0  0.31034139407E+02  0.27011141062E+02 -0.43081230032E+02  0.59571066226E+02  0.00000000000E+00 0.  1.
         14    1    3    3    0    0 -0.48653896910E+02  0.14512030600E+02 -0.62957919510E+02  0.80879542195E+02  0.00000000000E+00 0. -1.
        -13    1    4    4    0    0 -0.13549244701E+03  0.32322947523E+02 -0.20132320779E+03  0.24481423596E+03  0.00000000000E+00 0. -1.
         13    1    4    4    0    0 -0.25086902493E+03  0.57843084525E+02 -0.19615613886E+03  0.32366390116E+03  0.00000000000E+00 0.  1.
         21    1    1    2  503  501 -0.21689623228E+02 -0.24298529382E+02 -0.36281124606E+02  0.48756315371E+02  0.00000000000E+00 0. -1.
          1    1    1    2  501    0  0.42567085268E+03 -0.10739067433E+03 -0.11923045589E+04  0.12705583784E+04  0.00000000000E+00 0. -1.
<scales pt_clust_5="13000.00000" pt_clust_6="13000.00000" pt_clust_7="13000.00000" pt_clust_8="13000.00000" pt_clust_9="32.57082" pt_clust_10="414.88057"></scales>
<clustering>
<clus scale="   32.571">  1  9  2 -1</clus>
<clus scale="   80.296">  5  6 -1 -1</clus>
<clus scale="   88.162">  7  8 -1 -1</clus>
<clus scale="   91.354">  2  5  1 -1</clus>
<clus scale="  414.881">  1 10  2 -1</clus>
<clus scale="   32.571">  1  5  2 -1</clus>
</clustering>
</event>
<event>
10    4  0.7697601E-005  0.1508550E+03  0.7546771E-02  0.1220103E+00
          2   -1    0    0  503    0 -0.00000000000E+00  0.00000000000E+00  0.81384464771E+03  0.81384464771E+03  0.00000000000E+00 0. -1.
         21   -1    0    0  501  502  0.00000000000E+00 -0.00000000000E+00 -0.93529017529E+02  0.93529017529E+02  0.00000000000E+00 0. -1.
         24    2    1    2    0    0  0.52312875005E+02 -0.26505959484E+02  0.34621722682E+03  0.35914557108E+03  0.75365577686E+02 0.  0.
         23    2    1    2    0    0  0.44568787930E+02 -0.35798906065E+02  0.32820470336E+03  0.34936142184E+03  0.10520046213E+03 0.  0.
        -13    1    3    3    0    0 -0.65486150584E+00  0.22979718512E+02  0.80416914149E+02  0.83638366720E+02  0.00000000000E+00 0.  1.
         14    1    3    3    0    0  0.52967736511E+02 -0.49485677996E+02  0.26580031267E+03  0.27550720436E+03  0.00000000000E+00 0. -1.
        -13    1    4    4    0    0 -0.26704648117E+02 -0.33151838251E+02  0.17891342304E+03  0.18390811715E+03  0.00000000000E+00 0.  1.
         13    1    4    4    0    0  0.71273436047E+02 -0.26470678143E+01  0.14929128032E+03  0.16545330469E+03  0.00000000000E+00 0. -1.
         21    1    1    2  503  502  0.19055331061E+02 -0.79762536868E+01 -0.35254497545E+02  0.40860810832E+02  0.00000000000E+00 0. -1.
          1    1    1    2  501    0 -0.11593699400E+03  0.70281119236E+02  0.81148197546E+02  0.15800586148E+03  0.00000000000E+00 0. -1.
<scales pt_clust_5="13000.00000" pt_clust_6="13000.00000" pt_clust_7="13000.00000" pt_clust_8="13000.00000" pt_clust_9="20.65735" pt_clust_10="108.12071"></scales>
<clustering>
<clus scale="   20.657">  2  9  1 -1</clus>
<clus scale="   75.366">  5  6 -1 -1</clus>
<clus scale="   96.987">  1  5  2 -1</clus>
<clus scale="  105.200">  7  8 -1 -1</clus>
<clus scale="  108.121">  2 10  1 -1</clus>
<clus scale="   20.657">  2  5  1 -1</clus>
</clustering>
</event>
<event>
10    4  0.7697601E-005  0.2165875E+03  0.7546771E-02  0.1177285E+00
          2   -1    0    0  503    0 -0.00000000000E+00  0.00000000000E+00  0.13872438421E+04  0.13872438421E+04  0.00000000000E+00 0. -1.
         21   -1    0    0  501  502  0.00000000000E+00 -0.00000000000E+00 -0.58962932853E+02  0.58962932853E+02  0.00000000000E+00 0. -1.
         24    2    1    2    0    0 -0.66685262248E+01  0.13200952189E+02  0.90276436378E+02  0.12197035667E+03  0.80673406766E+02 0.  0.
         23    2    1    2    0    0 -0.30146677495E+02 -0.20725532094E+03  0.41013096825E+03  0.46951237590E+03  0.91492457530E+02 0.  0.
        -11    1    3    3    0    0  0.14057868708E+02  0.20839640788E+02 -0.37214701041E+01  0.25411879909E+02  0.00000000000E+00 0.  1.
         12    1    3    3    0    0 -0.20726394932E+02 -0.76386885996E+01  0.93997906482E+02  0.96558476756E+02  0.00000000000E+00 0. -1.
        -13    1    4    4    0    0 -0.53750691308E+00 -0.47954084135E+02  0.30722300700E+02  0.56953866060E+02  0.00000000000E+00 0.  1.
         13    1    4    4    0    0 -0.29609170582E+02 -0.15930123680E+03  0.37940866755E+03  0.41255850984E+03  0.00000000000E+00 0. -1.
         21    1    1    2  503  502 -0.11938265535E+02  0.16817341567E+02  0.33336611218E+02  0.39200443988E+02  0.00000000000E+00 0.  1.
          1    1    1    2  501    0  0.48753469255E+02  0.17723702718E+03  0.79453689336E+03  0.81552359836E+03  0.00000000000E+00 0. -1.
<scales pt_clust_5="13000.00000" pt_clust_6="13000.00000" pt_clust_7="13000.00000" pt_clust_8="13000.00000" pt_clust_9="20.62390" pt_clust_10="196.31436"></scales>
<clustering>
<clus scale="   20.624">  2  9  1 -1</clus>
<clus scale="   80.673">  5  6 -1 -1</clus>
<clus scale="   83.256">  1  5  2 -1</clus>
<clus scale="   91.492">  7  8 -1 -1</clus>
<clus scale="  196.314">  2 10  1 -1</clus>
<clus scale="   20.624">  2  5  1 -1</clus>
</clustering>
</event>
<event>
10    4  0.7697601E-005  0.9377900E+02  0.7546771E-02  0.1299348E+00
          2   -1    0    0  502    0 -0.00000000000E+00  0.00000000000E+00  0.61889239556E+03  0.61889239556E+03  0.00000000000E+00 0. -1.
         21   -1    0    0  503  502  0.00000000000E+00 -0.00000000000E+00 -0.41272140080E+02  0.41272140080E+02  0.00000000000E+00 0.  1.
         24    2    1    2    0    0  0.23812246739E+02  0.15367044771E+01  0.39940890866E+03  0.40823815961E+03  0.81003296808E+02 0.  0.
         23    2    1    2    0    0 -0.31610271555E+02  0.93361512308E+01  0.99907990195E+02  0.13865138321E+03  0.90311829645E+02 0.  0.
        -11    1    3    3    0    0 -0.16415721957E+02 -0.28031934377E+02  0.11588079498E+03  0.12034792860E+03  0.00000000000E+00 0.  1.
         12    1    3    3    0    0  0.40227968696E+02  0.29568638854E+02  0.28352811367E+03  0.28789023101E+03  0.00000000000E+00 0. -1.
        -11    1    4    4    0    0 -0.41184755609E+02 -0.32682158475E+02  0.61643891260E+02  0.81020225295E+02  0.00000000000E+00 0. -1.
         11    1    4    4    0    0  0.95744840546E+01  0.42018309706E+02  0.38264098935E+02  0.57631157916E+02  0.00000000000E+00 0.  1.
         21    1    1    2  503  501 -0.25717363237E+01  0.27092083987E+02  0.18377894337E+01  0.27275855853E+02  0.00000000000E+00 0.  1.
          1    1    1    2  501    0  0.10369761139E+02 -0.37964939695E+02  0.76465567196E+02  0.85999136965E+02  0.00000000000E+00 0. -1.
<scales pt_clust_5="13000.00000" pt_clust_6="13000.00000" pt_clust_7="13000.00000" pt_clust_8="13000.00000" pt_clust_9="27.21387" pt_clust_10="34.88816"></scales>
<clustering>
<clus scale="   27.214">  2  9  1 -1</clus>
<clus scale="   34.888">  2 10  1 -1</clus>
<clus scale="   81.003">  5  6 -1 -1</clus>
<clus scale="   84.852">  1  5  2 -1</clus>
<clus scale="   90.312">  7  8 -1 -1</clus>
<clus scale="   27.214">  2  5  1 -1</clus>
</clustering>
</event>
<event>
10    4  0.7697601E-005  0.2331630E+03  0.7546771E-02  0.1166432E+00
          2   -1    0    0  502    0 -0.00000000000E+00  0.00000000000E+00  0.78816967737E+03  0.78816967737E+03  0.00000000000E+00 0. -1.
         21   -1    0    0  503  502  0.00000000000E+00 -0.00000000000E+00 -0.46970488702E+03  0.46970488702E+03  0.00000000000E+00 0.  1.
         24    2    1    2    0    0 -0.28284294377E+02  0.35278754363E+01  0.23014209204E+03  0.24549979554E+03  0.80574933236E+02 0.  0.
         23    2    1    2    0    0  0.16165631678E+02 -0.21294619322E+03  0.29801975446E+03  0.37865681045E+03  0.94645640168E+02 0.  0.
        -11    1    3    3    0    0  0.76986704532E+01  0.19295809259E+02  0.12298944475E+02  0.24142531287E+02  0.00000000000E+00 0.  1.
         12    1    3    3    0    0 -0.35982964830E+02 -0.15767933823E+02  0.21784314757E+03  0.22135726425E+03  0.00000000000E+00 0. -1.
        -13    1    4    4    0    0  0.49449593811E+02 -0.11036340898E+03  0.19534740382E+03  0.22975193699E+03  0.00000000000E+00 0. -1.
         13    1    4    4    0    0 -0.33283962133E+02 -0.10258278423E+03  0.10267235064E+03  0.14890487346E+03  0.00000000000E+00 0.  1.
         21    1    1    2  503  501  0.22356582673E+03  0.12146175027E+03 -0.29479379410E+03  0.38940726328E+03  0.00000000000E+00 0.  1.
          1    1    1    2  501    0 -0.21144716403E+03  0.87956567506E+02  0.85096737950E+02  0.24431069513E+03  0.00000000000E+00 0. -1.
<scales pt_clust_5="13000.00000" pt_clust_6="13000.00000" pt_clust_7="13000.00000" pt_clust_8="13000.00000" pt_clust_9="233.16301" pt_clust_10="13000.00000"></scales>
<clustering>
<clus scale="   80.575">  5  6 -1 -1</clus>
<clus scale="   85.468">  1  5  2 -1</clus>
<clus scale="   94.646">  7  8 -1 -1</clus>
<clus scale="  231.055">  1  7  2 -1</clus>
<clus scale="  233.163">  2  9  1 -1</clus>
<clus scale="  233.163">  2  5  1 -1</clus>
</clustering>
</event>
<event>
10    4  0.7697601E-005  0.1766594E+03  0.7546771E-02  0.1190385E+00
          2   -1    0    0  502    0 -0.00000000000E+00  0.00000000000E+00  0.17078545037E+04  0.17078545037E+04  0.00000000000E+00 0. -1.
         21   -1    0    0  503  502  0.00000000000E+00 -0.00000000000E+00 -0.59824827170E+02  0.59824827170E+02  0.00000000000E+00 0.  1.
         23    2    1    2    0    0 -0.35087506095E+02 -0.60148290944E+02  0.13764548318E+03  0.17939242965E+03  0.91577370510E+02 0.  0.
         24    2    1    2    0    0  0.17228073234E+03  0.68842940295E+02  0.12022035647E+04  0.12190663705E+04  0.80058751756E+02 0.  0.
        -11    1    4    4    0    0  0.22439055184E+02  0.15993069150E+02  0.62028489039E+02  0.67873580360E+02  0.00000000000E+00 0.  1.
         12    1    4    4    0    0  0.14984167716E+03  0.52849871146E+02  0.11401750756E+04  0.11511927902E+04  0.00000000000E+00 0. -1.
        -11    1    3    3    0    0 -0.69569821612E+01 -0.49835117623E+02  0.14086815075E+02  0.52253008605E+02  0.00000000000E+00 0.  1.
         11    1    3    3    0    0 -0.28130523934E+02 -0.10313173321E+02  0.12355866810E+03  0.12713942105E+03  0.00000000000E+00 0. -1.
         21    1    1    2  503  501  0.25586154865E+02 -0.98901726795E+01  0.94435055240E+01  0.29011146703E+02  0.00000000000E+00 0.  1.
          1    1    1    2  501    0 -0.16277938111E+03  0.11955233284E+01  0.29873712321E+03  0.34020938402E+03  0.00000000000E+00 0. -1.
<scales pt_clust_5="13000.00000" pt_clust_6="13000.00000" pt_clust_7="13000.00000" pt_clust_8="13000.00000" pt_clust_9="27.43113" pt_clust_10="157.47746"></scales>
<clustering>
<clus scale="   27.431">  2  9  1 -1</clus>
<clus scale="   80.059">  5  6 -1 -1</clus>
<clus scale="   91.577">  7  8 -1 -1</clus>
<clus scale="  114.515">  1  7  2 -1</clus>
<clus scale="  157.477">  2 10  1 -1</clus>
<clus scale="   27.431">  2  5  1 -1</clus>
</clustering>
</event>
<event>
10    4  0.7697601E-005  0.1398088E+03  0.7546771E-02  0.1234660E+00
          2   -1    0    0  502    0 -0.00000000000E+00  0.00000000000E+00  0.17405872970E+03  0.17405872970E+03  0.00000000000E+00 0. -1.
         21   -1    0    0  503  502  0.00000000000E+00 -0.00000000000E+00 -0.62814145399E+03  0.62814145399E+03  0.00000000000E+00 0.  1.
         24    2    1    2    0    0 -0.28777030459E+02 -0.28054617704E+02  0.57591779237E+02  0.10654385666E+03  0.80122414462E+02 0.  0.
         23    2    1    2    0    0 -0.45696793497E+02  0.10972609025E+03 -0.49680638103E+03  0.51897451572E+03  0.91596702572E+02 0.  0.
        -13    1    3    3    0    0 -0.50557620163E+02  0.41366769640E+01  0.30968818633E+02  0.59432758479E+02  0.00000000000E+00 0.  1.
         14    1    3    3    0    0  0.21780589704E+02 -0.32191294668E+02  0.26622960604E+02  0.47111098179E+02  0.00000000000E+00 0. -1.
        -11    1    4    4    0    0 -0.68360916976E+02  0.55226054431E+02 -0.34710008041E+03  0.35805250715E+03  0.00000000000E+00 0.  1.
         11    1    4    4    0    0  0.22664123479E+02  0.54500035823E+02 -0.14970630062E+03  0.16092200857E+03  0.00000000000E+00 0. -1.
         21    1    1    2  503  501 -0.11694127492E+02 -0.21215074987E+02 -0.58054480956E+02  0.62905920100E+02  0.00000000000E+00 0.  1.
          1    1    1    2  501    0  0.86167951448E+02 -0.60456397564E+02  0.43186358464E+02  0.11377589121E+03  0.00000000000E+00 0. -1.
<scales pt_clust_5="13000.00000" pt_clust_6="13000.00000" pt_clust_7="13000.00000" pt_clust_8="13000.00000" pt_clust_9="24.22462" pt_clust_10="105.62458"></scales>
<clustering>
<clus scale="   24.225">  2  9  1 -1</clus>
<clus scale="   80.122">  5  6 -1 -1</clus>
<clus scale="   90.090">  1  5  2 -1</clus>
<clus scale="   91.597">  7  8 -1 -1</clus>
<clus scale="  105.625">  2 10  1 -1</clus>
<clus scale="   24.225">  2  5  1 -1</clus>
</clustering>
</event>
<event>
10    4  0.7697601E-005  0.4137283E+03  0.7546771E-02  0.1052145E+00
         21   -1    0    0  501  502  0.00000000000E+00  0.00000000000E+00  0.44678315392E+03  0.44678315392E+03  0.00000000000E+00 0. -1.
         -3   -1    0    0    0  501 -0.00000000000E+00 -0.00000000000E+00 -0.18179736710E+04  0.18179736710E+04  0.00000000000E+00 0.  1.
         23    2    1    2    0    0 -0.18900684995E+03  0.22842817064E+03  0.28432966592E+02  0.31155798891E+03  0.91416237051E+02 0.  0.
         24    2    1    2    0    0 -0.26039620282E+03 -0.20465974367E+03 -0.13327347459E+04  0.13757596639E+04  0.82710075688E+02 0.  0.
        -11    1    4    4    0    0 -0.23748812024E+03 -0.20007862667E+03 -0.12920604676E+04  0.13288537602E+04  0.00000000000E+00 0.  1.
         12    1    4    4    0    0 -0.22908082577E+02 -0.45811170007E+01 -0.40674278306E+02  0.46905903637E+02  0.00000000000E+00 0. -1.
        -11    1    3    3    0    0 -0.97584974453E+02  0.14534024369E+03  0.58203569707E+02  0.18448379116E+03  0.00000000000E+00 0.  1.
         11    1    3    3    0    0 -0.91421875493E+02  0.83087926944E+02 -0.29770603115E+02  0.12707419774E+03  0.00000000000E+00 0. -1.
         21    1    1    2  503  502  0.20816212051E+02 -0.53151268721E+02  0.10115450286E+03  0.11614906586E+03  0.00000000000E+00 0.  1.
         -4    1    1    2    0  503  0.42858684071E+03  0.29382841759E+02 -0.16804324057E+03  0.46129010625E+03  0.00000000000E+00 0.  1.
<scales pt_clust_5="13000.00000" pt_clust_6="13000.00000" pt_clust_7="13000.00000" pt_clust_8="13000.00000" pt_clust_9="57.08215" pt_clust_10="405.37651"></scales>
<clustering>
<clus scale="   57.082">  1  9  2 -1</clus>
<clus scale="   82.710">  5  6 -1 -1</clus>
<clus scale="   91.416">  7  8 -1 -1</clus>
<clus scale="  284.464">  2  7  1 -1</clus>
<clus scale="  405.377">  1 10  2 -1</clus>
<clus scale="   57.082">  1  5  2 -1</clus>
</clustering>
</event>
<event>
10    4  0.7697601E-005  0.1332595E+03  0.7546771E-02  0.1238356E+00
         21   -1    0    0  503  502  0.00000000000E+00  0.00000000000E+00  0.16869969771E+03  0.16869969771E+03  0.00000000000E+00 0. -1.
          2   -1    0    0  502    0 -0.00000000000E+00 -0.00000000000E+00 -0.71783564191E+03  0.71783564191E+03  0.00000000000E+00 0. -1.
         23    2    1    2    0    0 -0.27266610379E+02 -0.14259692541E+02  0.23271327533E+02  0.99275375395E+02  0.91472611211E+02 0.  0.
         24    2    1    2    0    0 -0.64980563295E+02 -0.49110057840E+02 -0.61435816147E+03  0.62496298071E+03  0.80675307918E+02 0.  0.
        -11    1    4    4    0    0 -0.23693158808E+02  0.20200269770E+02 -0.11547987232E+03  0.11960358517E+03  0.00000000000E+00 0.  1.
         12    1    4    4    0    0 -0.41287404488E+02 -0.69310327610E+02 -0.49887828915E+03  0.50535939555E+03  0.00000000000E+00 0. -1.
        -11    1    3    3    0    0 -0.22961977130E+02  0.36808784017E+02  0.20413110538E+02  0.47946157890E+02  0.00000000000E+00 0. -1.
         11    1    3    3    0    0 -0.43046332487E+01 -0.51068476558E+02  0.28582169947E+01  0.51329217505E+02  0.00000000000E+00 0.  1.
         21    1    1    2  503  501 -0.61048595887E+01  0.21113430408E+02  0.50334627407E+02  0.54923774182E+02  0.00000000000E+00 0. -1.
          1    1    1    2  501    0  0.98352033263E+02  0.42256319973E+02 -0.83837376734E+01  0.10737320933E+03  0.00000000000E+00 0. -1.
<scales pt_clust_5="13000.00000" pt_clust_6="13000.00000" pt_clust_7="13000.00000" pt_clust_8="13000.00000" pt_clust_9="21.97831" pt_clust_10="106.06403"></scales>
<clustering>
<clus scale="   21.978">  1  9  2 -1</clus>
<clus scale="   80.675">  5  6 -1 -1</clus>
<clus scale="   91.473">  7  8 -1 -1</clus>
<clus scale="   96.470">  2  7  1 -1</clus>
<clus scale="  106.064">  1 10  2 -1</clus>
<clus scale="   21.978">  1  5  2 -1</clus>
</clustering>
</event>
<event>
10    4  0.7697601E-005  0.9822485E+02  0.7546771E-02  0.1290628E+00
          4   -1    0    0  503    0 -0.00000000000E+00  0.00000000000E+00  0.23755530527E+03  0.23755530527E+03  0.00000000000E+00 0. -1.
         21   -1    0    0  501  502  0.00000000000E+00 -0.00000000000E+00 -0.10994438106E+03  0.10994438106E+03  0.00000000000E+00 0. -1.
         24    2    1    2    0    0 -0.29689838335E+02 -0.11963736098E+02  0.97646158289E+02  0.12919790421E+03  0.78311613069E+02 0.  0.
         23    2    1    2    0    0  0.15595038220E+02  0.56369721292E+02  0.82277374779E+02  0.13576193637E+03  0.90779878121E+02 0.  0.
        -13    1    3    3    0    0 -0.40258315468E+02 -0.24823346675E+02  0.22766345514E+02  0.52490351423E+02  0.00000000000E+00 0.  1.
         14    1    3    3    0    0  0.10568477133E+02  0.12859610577E+02  0.74879812775E+02  0.76707552785E+02  0.00000000000E+00 0. -1.
        -11    1    4    4    0    0 -0.60621307060E+01  0.71973378318E+02  0.32339183707E+02  0.79137471643E+02  0.00000000000E+00 0. -1.
         11    1    4    4    0    0  0.21657168926E+02 -0.15603657026E+02  0.49938191072E+02  0.56624464730E+02  0.00000000000E+00 0.  1.
         21    1    1    2  503  502 -0.12342520805E+02 -0.28368030376E+02 -0.15946735848E+02  0.34804904129E+02  0.00000000000E+00 0. -1.
          3    1    1    2  501    0  0.26437320919E+02 -0.16037954817E+02 -0.36365873009E+02  0.47734941624E+02  0.00000000000E+00 0. -1.
<scales pt_clust_5="13000.00000" pt_clust_6="13000.00000" pt_clust_7="13000.00000" pt_clust_8="13000.00000" pt_clust_9="34.45036" pt_clust_10="30.92164"></scales>
<clustering>
<clus scale="   30.922">  2 10  1 -1</clus>
<clus scale="   34.450">  2  9  1 -1</clus>
<clus scale="   78.312">  5  6 -1 -1</clus>
<clus scale="   86.832">  1  5  2 -1</clus>
<clus scale="   90.780">  7  8 -1 -1</clus>
<clus scale="   30.922">  2  5  1 -1</clus>
</clustering>
</event>
<event>
10    4  0.7697601E-005  0.1163620E+03  0.7546771E-02  0.1253320E+00
         21   -1    0    0  501  502  0.00000000000E+00  0.00000000000E+00  0.54787957089E+02  0.54787957089E+02  0.00000000000E+00 0. -1.
          2   -1    0    0  503    0 -0.00000000000E+00 -0.00000000000E+00 -0.66127319176E+03  0.66127319176E+03  0.00000000000E+00 0. -1.
         23    2    1    2    0    0  0.77814602106E+01  0.28099196347E+02 -0.22171096368E+03  0.24181868110E+03  0.92034814912E+02 0.  0.
         24    2    1    2    0    0 -0.54249275166E+02 -0.10217061640E+03 -0.13177841570E+03  0.19281265464E+03  0.80183229130E+02 0.  0.
        -13    1    4    4    0    0 -0.68797380371E+02 -0.50568957786E+02 -0.65788214114E+02  0.10778862720E+03  0.00000000000E+00 0.  1.
         14    1    4    4    0    0  0.14548105205E+02 -0.51601658618E+02 -0.65990201584E+02  0.85024027441E+02  0.00000000000E+00 0. -1.
        -11    1    3    3    0    0  0.39841541607E+02 -0.61774954030E+01 -0.15562397573E+03  0.16076172339E+03  0.00000000000E+00 0.  1.
         11    1    3    3    0    0 -0.32060081397E+02  0.34276691750E+02 -0.66086987951E+02  0.81056957708E+02  0.00000000000E+00 0. -1.
         21    1    1    2  503  502  0.63226037374E+02  0.31907858112E+02 -0.10512990526E+03  0.12675937911E+03  0.00000000000E+00 0. -1.
          1    1    1    2  501    0 -0.16758222419E+02  0.42163561946E+02 -0.14786595003E+03  0.15467043400E+03  0.00000000000E+00 0. -1.
<scales pt_clust_5="13000.00000" pt_clust_6="13000.00000" pt_clust_7="13000.00000" pt_clust_8="13000.00000" pt_clust_9="72.29886" pt_clust_10="45.37186"></scales>
<clustering>
<clus scale="   45.372">  1 10  2 -1</clus>
<clus scale="   72.299">  2  9  1 -1</clus>
<clus scale="   80.183">  5  6 -1 -1</clus>
<clus scale="   92.035">  7  8 -1 -1</clus>
<clus scale="  107.234">  1  5  2 -1</clus>
<clus scale="   45.372">  1  5  2 -1</clus>
</clustering>
</event>
<event>
10    4  0.7697601E-005  0.1300563E+03  0.7546771E-02  0.1245896E+00
         21   -1    0    0  501  502  0.00000000000E+00  0.00000000000E+00  0.41672500867E+02  0.41672500867E+02  0.00000000000E+00 0.  1.
          2   -1    0    0  503    0 -0.00000000000E+00 -0.00000000000E+00 -0.15156761813E+04  0.15156761813E+04  0.00000000000E+00 0. -1.
         23    2    1    2    0    0  0.14455432554E+02  0.32625109075E+02 -0.40289646838E+03  0.41323830800E+03  0.84658004334E+02 0.  0.
         24    2    1    2    0    0 -0.27408549459E+02  0.67088628372E+02 -0.16678716690E+03  0.20164121868E+03  0.87115494522E+02 0.  0.
        -11    1    4    4    0    0 -0.46485252956E+02  0.40025800547E+02 -0.46765016464E+02  0.77135661121E+02  0.00000000000E+00 0.  1.
         12    1    4    4    0    0  0.19076703497E+02  0.27062827826E+02 -0.12002215044E+03  0.12450555756E+03  0.00000000000E+00 0. -1.
        -11    1    3    3    0    0  0.46722640155E+02  0.35582129092E+02 -0.23363755087E+03  0.24090578696E+03  0.00000000000E+00 0. -1.
         11    1    3    3    0    0 -0.32267207600E+02 -0.29570200170E+01 -0.16925891751E+03  0.17233252104E+03  0.00000000000E+00 0.  1.
         21    1    1    2  503  502 -0.74693166882E+02 -0.25130176671E+02 -0.88216101818E+02  0.11829064028E+03  0.00000000000E+00 0.  1.
          1    1    1    2  501    0  0.87646283786E+02 -0.74583560776E+02 -0.81610394335E+03  0.82417851522E+03  0.00000000000E+00 0. -1.
<scales pt_clust_5="13000.00000" pt_clust_6="13000.00000" pt_clust_7="13000.00000" pt_clust_8="13000.00000" pt_clust_9="78.80733" pt_clust_10="96.56885"></scales>
<clustering>
<clus scale="   78.807">  1  9  2 -1</clus>
<clus scale="   84.658">  7  8 -1 -1</clus>
<clus scale="   87.115">  5  6 -1 -1</clus>
<clus scale="   89.089">  2  7  1 -1</clus>
<clus scale="   96.569">  1 10  2 -1</clus>
<clus scale="   78.807">  1  5  2 -1</clus>
</clustering>
</event>
<event>
10    4  0.7697601E-005  0.2817347E+03  0.7546771E-02  0.1114006E+00
         21   -1    0    0  501  502  0.00000000000E+00  0.00000000000E+00  0.57051591306E+02  0.57051591306E+02  0.00000000000E+00 0. -1.
          2   -1    0    0  503    0 -0.00000000000E+00 -0.00000000000E+00 -0.34445840451E+04  0.34445840451E+04  0.00000000000E+00 0. -1.
         23    2    1    2    0    0 -0.14289217050E+03  0.39745426263E+02 -0.70982459824E+03  0.73084732425E+03  0.91043834509E+02 0.  0.
         24    2    1    2    0    0  0.30310242971E+03 -0.12631320134E+03 -0.12163266951E+04  0.12624464263E+04  0.80586862513E+02 0.  0.
        -13    1    4    4    0    0  0.16331004548E+03 -0.93777754275E+02 -0.80711408541E+03  0.82879284807E+03  0.00000000000E+00 0.  1.
         14    1    4    4    0    0  0.13979238423E+03 -0.32535447070E+02 -0.40921260970E+03  0.43365357827E+03  0.00000000000E+00 0. -1.
        -13    1    3    3    0    0 -0.62395785711E+02  0.57603895989E+02 -0.45984529330E+03  0.46762071882E+03  0.00000000000E+00 0.  1.
         13    1    3    3    0    0 -0.80496384789E+02 -0.17858469726E+02 -0.24997930495E+03  0.26322660543E+03  0.00000000000E+00 0. -1.
         21    1    1    2  503  502  0.32475235355E+01 -0.32480867850E+02  0.39504507743E+00  0.32645202496E+02  0.00000000000E+00 0. -1.
          1    1    1    2  501    0 -0.16345778274E+03  0.11904864293E+03 -0.14617762055E+04  0.14756966833E+04  0.00000000000E+00 0. -1.
<scales pt_clust_5="13000.00000" pt_clust_6="13000.00000" pt_clust_7="13000.00000" pt_clust_8="13000.00000" pt_clust_9="32.64281" pt_clust_10="269.96350"></scales>
<clustering>
<clus scale="   32.643">  1  9  2 -1</clus>
<clus scale="   80.587">  5  6 -1 -1</clus>
<clus scale="   91.044">  7  8 -1 -1</clus>
<clus scale="  171.605">  2  7  1 -1</clus>
<clus scale="  269.964">  1 10  2 -1</clus>
<clus scale="   32.643">  1  5  2 -1</clus>
</clustering>
</event>
<event>
10    4  0.7697601E-005  0.1548260E+03  0.7546771E-02  0.1199173E+00
         21   -1    0    0  501  502  0.00000000000E+00  0.00000000000E+00  0.25846331651E+03  0.25846331651E+03  0.00000000000E+00 0. -1.
          2   -1    0    0  503    0 -0.00000000000E+00 -0.00000000000E+00 -0.62502960793E+03  0.62502960793E+03  0.00000000000E+00 0. -1.
         24    2    1    2    0    0  0.10992321545E+03  0.36191106351E+02 -0.34549698230E+03  0.37304037113E+03  0.79987775582E+02 0.  0.
         23    2    1    2    0    0 -0.11686955422E+03 -0.65258869178E+01 -0.23053707291E+03  0.27844078387E+03  0.10334818929E+03 0.  0.
        -11    1    3    3    0    0  0.11451399212E+02  0.29464783224E+02 -0.34667711263E+02  0.46916502412E+02  0.00000000000E+00 0.  1.
         12    1    3    3    0    0  0.98471816234E+02  0.67263231273E+01 -0.31082927103E+03  0.32612386872E+03  0.00000000000E+00 0. -1.
        -11    1    4    4    0    0 -0.84336330486E+02  0.35357890634E+02 -0.19268242450E+03  0.21328223972E+03  0.00000000000E+00 0. -1.
         11    1    4    4    0    0 -0.32533223738E+02 -0.41883777552E+02 -0.37854648418E+02  0.65158544150E+02  0.00000000000E+00 0.  1.
         21    1    1    2  503  502  0.12281550561E+02  0.33851999116E+02  0.73942574269E+02  0.82245356208E+02  0.00000000000E+00 0. -1.
          1    1    1    2  501    0 -0.53352117837E+01 -0.63517218550E+02  0.13552518953E+03  0.14976641324E+03  0.00000000000E+00 0. -1.
<scales pt_clust_5="13000.00000" pt_clust_6="13000.00000" pt_clust_7="13000.00000" pt_clust_8="13000.00000" pt_clust_9="36.01103" pt_clust_10="37.00509"></scales>
<clustering>
<clus scale="   36.011">  1  9  2 -1</clus>
<clus scale="   37.005">  1 10  2 -1</clus>
<clus scale="   79.988">  5  6 -1 -1</clus>
<clus scale="  103.348">  7  8 -1 -1</clus>
<clus scale="  140.315">  2  5  1 -1</clus>
<clus scale="   36.011">  1  5  2 -1</clus>
</clustering>
</event>
<event>
10    4  0.7697601E-005  0.1638757E+03  0.7546771E-02  0.1186235E+00
          2   -1    0    0  503    0 -0.00000000000E+00  0.00000000000E+00  0.65188955679E+03  0.65188955679E+03  0.00000000000E+00 0. -1.
         21   -1    0    0  501  502  0.00000000000E+00 -0.00000000000E+00 -0.73906179988E+03  0.73906179988E+03  0.00000000000E+00 0.  1.
         23    2    1    2    0    0 -0.39249594011E+02 -0.15971081324E+03  0.51987332409E+03  0.55317907329E+03  0.93224135994E+02 0.  0.
         24    2    1    2    0    0  0.30135643472E+02  0.69183714538E+02  0.57035185647E+02  0.12457278415E+03  0.81060611793E+02 0.  0.
        -13    1    4    4    0    0 -0.90783171125E+01  0.70419627699E+02  0.42398207769E+02  0.82697931225E+02  0.00000000000E+00 0.  1.
         14    1    4    4    0    0  0.39213960584E+02 -0.12359131612E+01  0.14636977877E+02  0.41874852924E+02  0.00000000000E+00 0. -1.
        -13    1    3    3    0    0  0.23889520413E+02 -0.23620955371E+02  0.52602814973E+02  0.62415661987E+02  0.00000000000E+00 0.  1.
         13    1    3    3    0    0 -0.63139114423E+02 -0.13608985787E+03  0.46727050912E+03  0.49076341131E+03  0.00000000000E+00 0. -1.
         21    1    1    2  503  502 -0.62379589724E+02  0.88862091398E+02 -0.61947133863E+03  0.62891368556E+03  0.00000000000E+00 0.  1.
          1    1    1    2  501    0  0.71493540263E+02  0.16650073019E+01 -0.44609414203E+02  0.84285813659E+02  0.00000000000E+00 0. -1.
<scales pt_clust_5="13000.00000" pt_clust_6="13000.00000" pt_clust_7="13000.00000" pt_clust_8="13000.00000" pt_clust_9="90.48125" pt_clust_10="71.51293"></scales>
<clustering>
<clus scale="   71.513">  2 10  1 -1</clus>
<clus scale="   81.061">  5  6 -1 -1</clus>
<clus scale="   90.481">  2  9  1 -1</clus>
<clus scale="   93.224">  7  8 -1 -1</clus>
<clus scale="  157.275">  2  5  1 -1</clus>
<clus scale="   71.513">  2  5  1 -1</clus>
</clustering>
</event>
<event>
10    4  0.7697601E-005  0.1074396E+03  0.7546771E-02  0.1269086E+00
          2   -1    0    0  502    0 -0.00000000000E+00  0.00000000000E+00  0.10959751513E+04  0.10959751513E+04  0.00000000000E+00 0. -1.
         21   -1    0    0  503  502  0.00000000000E+00 -0.00000000000E+00 -0.48661113983E+02  0.48661113983E+02  0.00000000000E+00 0. -1.
         24    2    1    2    0    0  0.64674456520E+02 -0.37316641048E+01  0.94059463900E+03  0.94632602045E+03  0.81350792416E+02 0.  0.
         23    2    1    2    0    0  0.23676221903E+01 -0.23270722592E+01  0.52005780204E+02  0.10430222117E+03  0.90351155314E+02 0.  0.
        -13    1    3    3    0    0  0.13372354531E+02  0.30750754271E+02  0.17124954434E+03  0.17450167676E+03  0.00000000000E+00 0.  1.
         14    1    3    3    0    0  0.51302101989E+02 -0.34482418375E+02  0.76934509466E+03  0.77182434369E+03  0.00000000000E+00 0. -1.
        -13    1    4    4    0    0 -0.17706621062E+02  0.37466022200E+02  0.90799296534E+01  0.42422545556E+02  0.00000000000E+00 0.  1.
         13    1    4    4    0    0  0.20074243252E+02 -0.39793094460E+02  0.42925850551E+02  0.61879675616E+02  0.00000000000E+00 0. -1.
         21    1    1    2  503  501 -0.13721048588E+02  0.17122026381E+02  0.17225814930E+02  0.27895513291E+02  0.00000000000E+00 0. -1.
          1    1    1    2  501    0 -0.53321030122E+02 -0.11063290017E+02  0.37487803178E+02  0.66112510363E+02  0.00000000000E+00 0. -1.
<scales pt_clust_5="13000.00000" pt_clust_6="13000.00000" pt_clust_7="13000.00000" pt_clust_8="13000.00000" pt_clust_9="21.94154" pt_clust_10="58.10577"></scales>
<clustering>
<clus scale="   21.942">  2  9  1 -1</clus>
<clus scale="   58.106">  2 10  1 -1</clus>
<clus scale="   81.351">  5  6 -1 -1</clus>
<clus scale="   90.351">  7  8 -1 -1</clus>
<clus scale="   99.989">  1  5  2 -1</clus>
<clus scale="   21.942">  2  5  1 -1</clus>
</clustering>
</event>
<event>
10    4  0.7697601E-005  0.1593051E+03  0.7546771E-02  0.1213772E+00
          2   -1    0    0  503    0 -0.00000000000E+00  0.00000000000E+00  0.60692991352E+03  0.60692991352E+03  0.00000000000E+00 0. -1.
         21   -1    0    0  501  502  0.00000000000E+00 -0.00000000000E+00 -0.24859306669E+03  0.24859306669E+03  0.00000000000E+00 0. -1.
         24    2    1    2    0    0 -0.45339296239E+02  0.51191635638E-01  0.19326478814E+03  0.21473047887E+03  0.81867245080E+02 0.  0.
         23    2    1    2    0    0  0.16051680093E+03 -0.22547291919E+02  0.28302014938E+03  0.34149512078E+03  0.10121506215E+03 0.  0.
        -13    1    3    3    0    0 -0.18009907620E+02  0.20456794135E+02  0.11146989557E+02  0.29446435692E+02  0.00000000000E+00 0.  1.
         14    1    3    3    0    0 -0.27329388619E+02 -0.20405602500E+02  0.18211779859E+03  0.18528404318E+03  0.00000000000E+00 0. -1.
        -13    1    4    4    0    0  0.16065024015E+03  0.72581585496E+01  0.24706979312E+03  0.29479596876E+03  0.00000000000E+00 0. -1.
         13    1    4    4    0    0 -0.13343921823E+00 -0.29805450469E+02  0.35950356255E+02  0.46699152011E+02  0.00000000000E+00 0.  1.
         21    1    1    2  503  502 -0.89428704034E+02  0.18357371476E+02 -0.19642320811E+03  0.21660231503E+03  0.00000000000E+00 0. -1.
          1    1    1    2  501    0 -0.25748800661E+02  0.41387288074E+01  0.78475117407E+02  0.82695065534E+02  0.00000000000E+00 0. -1.
<scales pt_clust_5="13000.00000" pt_clust_6="13000.00000" pt_clust_7="13000.00000" pt_clust_8="13000.00000" pt_clust_9="123.01878" pt_clust_10="26.07931"></scales>
<clustering>
<clus scale="   26.079">  2 10  1 -1</clus>
<clus scale="   81.867">  5  6 -1 -1</clus>
<clus scale="   94.132">  1  5  2 -1</clus>
<clus scale="  101.215">  7  8 -1 -1</clus>
<clus scale="  123.019">  2  9  1 -1</clus>
<clus scale="   26.079">  2  5  1 -1</clus>
</clustering>
</event>
<event>
10    4  0.7697601E-005  0.1244470E+03  0.7546771E-02  0.1249765E+00
          4   -1    0    0  503    0 -0.00000000000E+00  0.00000000000E+00  0.57830077133E+02  0.57830077133E+02  0.00000000000E+00 0. -1.
         21   -1    0    0  501  502  0.00000000000E+00 -0.00000000000E+00 -0.65141675824E+03  0.65141675824E+03  0.00000000000E+00 0.  1.
         23    2    1    2    0    0  0.12747996125E+02 -0.33973036854E+02 -0.26153372477E+03  0.27874612740E+03  0.89346716288E+02 0.  0.
         24    2    1    2    0    0 -0.47510233841E+02 -0.59301573950E+02 -0.97119401354E+02  0.14777029336E+03  0.81424704415E+02 0.  0.
        -11    1    4    4    0    0 -0.32379146681E+02 -0.77551111293E+02 -0.58288257288E+02  0.10227465444E+03  0.00000000000E+00 0.  1.
         12    1    4    4    0    0 -0.15131087160E+02  0.18249537344E+02 -0.38831144066E+02  0.45495638927E+02  0.00000000000E+00 0. -1.
        -11    1    3    3    0    0 -0.21883876505E+02 -0.50123766810E+02 -0.11548957658E+03  0.12778551698E+03  0.00000000000E+00 0.  1.
         11    1    3    3    0    0  0.34631872630E+02  0.16150729955E+02 -0.14604414818E+03  0.15096061042E+03  0.00000000000E+00 0. -1.
         21    1    1    2  503  502 -0.35105164244E+02  0.96377224976E+01 -0.11525551794E+03  0.12086807960E+03  0.00000000000E+00 0. -1.
          3    1    1    2  501    0  0.69867401960E+02  0.83636888306E+02 -0.11967803705E+03  0.16186233501E+03  0.00000000000E+00 0. -1.
<scales pt_clust_5="13000.00000" pt_clust_6="13000.00000" pt_clust_7="13000.00000" pt_clust_8="13000.00000" pt_clust_9="36.40410" pt_clust_10="94.11200"></scales>
<clustering>
<clus scale="   36.404">  2  9  1 -1</clus>
<clus scale="   81.425">  5  6 -1 -1</clus>
<clus scale="   89.347">  7  8 -1 -1</clus>
<clus scale="   94.098">  1  7  2 -1</clus>
<clus scale="   94.112">  2 10  1 -1</clus>
<clus scale="   36.404">  2  5  1 -1</clus>
</clustering>
</event>
<event>
10    4  0.7697601E-005  0.2789669E+03  0.7546771E-02  0.1112389E+00
          2   -1    0    0  502    0 -0.00000000000E+00  0.00000000000E+00  0.17690053340E+03  0.17690053340E+03  0.00000000000E+00 0. -1.
         21   -1    0    0  503  502  0.00000000000E+00 -0.00000000000E+00 -0.10293511394E+04  0.10293511394E+04  0.00000000000E+00 0.  1.
         24    2    1    2    0    0 -0.79840036437E+02 -0.13793212371E+03 -0.14152455888E+03  0.22774010163E+03  0.80228741450E+02 0.  0.
         23    2    1    2    0    0  0.21757726092E+03 -0.12140027217E+03 -0.39842689392E+03  0.47884038096E+03  0.92012119230E+02 0.  0.
        -11    1    3    3    0    0 -0.64254989597E+02 -0.34087125465E+02 -0.48225365989E+02  0.87271540237E+02  0.00000000000E+00 0.  1.
         12    1    3    3    0    0 -0.15585046840E+02 -0.10384499824E+03 -0.93299192895E+02  0.14046856139E+03  0.00000000000E+00 0. -1.
        -11    1    4    4    0    0  0.11086981828E+03 -0.10227505153E+03 -0.28166841230E+03  0.31951431464E+03  0.00000000000E+00 0.  1.
         11    1    4    4    0    0  0.10670744264E+03 -0.19125220637E+02 -0.11675848162E+03  0.15932606632E+03  0.00000000000E+00 0. -1.
         21    1    1    2  503  501 -0.64388707685E+01 -0.32259852641E+02 -0.12437312035E+03  0.12865002999E+03  0.00000000000E+00 0.  1.
          1    1    1    2  501    0 -0.13129835371E+03  0.29159224852E+03 -0.18812603280E+03  0.37102116018E+03  0.00000000000E+00 0. -1.
<scales pt_clust_5="13000.00000" pt_clust_6="13000.00000" pt_clust_7="13000.00000" pt_clust_8="13000.00000" pt_clust_9="32.89616" pt_clust_10="263.35596"></scales>
<clustering>
<clus scale="   32.896">  2  9  1 -1</clus>
<clus scale="   80.229">  5  6 -1 -1</clus>
<clus scale="   92.012">  7  8 -1 -1</clus>
<clus scale="  184.152">  1  5  2 -1</clus>
<clus scale="  263.356">  2 10  1 -1</clus>
<clus scale="   32.896">  2  5  1 -1</clus>
</clustering>
</event>
<event>
10    4  0.7697601E-005  0.1118163E+03  0.7546771E-02  0.1269889E+00
          2   -1    0    0  502    0 -0.00000000000E+00  0.00000000000E+00  0.42782017048E+03  0.42782017048E+03  0.00000000000E+00 0. -1.
         21   -1    0    0  503  502  0.00000000000E+00 -0.00000000000E+00 -0.88453511679E+02  0.88453511679E+02  0.00000000000E+00 0. -1.
         23    2    1    2    0    0  0.28889188594E+02 -0.29234685187E+02  0.86283909354E+02  0.11972776936E+03  0.72115003337E+02 0.  0.
         24    2    1    2    0    0  0.19975265765E+02 -0.27733720139E+02  0.19829989218E+03  0.21716430951E+03  0.81665902389E+02 0.  0.
        -11    1    4    4    0    0 -0.18557225078E+02 -0.17318707830E+02  0.14819896547E+02  0.29392815061E+02  0.00000000000E+00 0.  1.
         12    1    4    4    0    0  0.38532490843E+02 -0.10415012308E+02  0.18347999563E+03  0.18777149445E+03  0.00000000000E+00 0. -1.
        -11    1    3    3    0    0 -0.68348136389E+01  0.20353657336E+02  0.27911615725E+02  0.35214263258E+02  0.00000000000E+00 0.  1.
         11    1    3    3    0    0  0.35724002233E+02 -0.49588342523E+02  0.58372293630E+02  0.84513506100E+02  0.00000000000E+00 0. -1.
         21    1    1    2  503  501 -0.18947314070E+02 -0.49600537832E+02 -0.54337887004E+01  0.53373590130E+02  0.00000000000E+00 0. -1.
          1    1    1    2  501    0 -0.29917140288E+02  0.10656894316E+03  0.60216645970E+02  0.12600801316E+03  0.00000000000E+00 0. -1.
<scales pt_clust_5="13000.00000" pt_clust_6="13000.00000" pt_clust_7="13000.00000" pt_clust_8="13000.00000" pt_clust_9="53.09627" pt_clust_10="76.37775"></scales>
<clustering>
<clus scale="   53.096">  2  9  1 -1</clus>
<clus scale="   72.115">  7  8 -1 -1</clus>
<clus scale="   81.666">  5  6 -1 -1</clus>
<clus scale="   87.334">  1  7  2 -1</clus>
<clus scale="   76.378">  2 10  1 -1</clus>
<clus scale="   53.096">  2  5  1 -1</clus>
</clustering>
</event>
<event>
10    4  0.7697601E-005  0.2397687E+03  0.7546771E-02  0.1123349E+00
          2   -1    0    0  502    0 -0.00000000000E+00  0.00000000000E+00  0.14546423995E+04  0.14546423995E+04  0.00000000000E+00 0. -1.
         21   -1    0    0  503  502  0.00000000000E+00 -0.00000000000E+00 -0.98945120754E+02  0.98945120754E+02  0.00000000000E+00 0. -1.
         23    2    1    2    0    0  0.76291000679E+02 -0.18489485440E+03  0.57421547524E+03  0.61501328422E+03  0.92257811600E+02 0.  0.
         24    2    1    2    0    0  0.17733956253E+03  0.15402545117E+03  0.45165561464E+03  0.51540800073E+03  0.80495049132E+02 0.  0.
        -11    1    4    4    0    0  0.10739311501E+02  0.44915649447E+02  0.11965953741E+03  0.12826204922E+03  0.00000000000E+00 0.  1.
         12    1    4    4    0    0  0.16660025103E+03  0.10910980172E+03  0.33199607722E+03  0.38714595150E+03  0.00000000000E+00 0. -1.
        -11    1    3    3    0    0  0.31024702831E+02 -0.32586862391E+02  0.50082422612E+02  0.67325216976E+02  0.00000000000E+00 0.  1.
         11    1    3    3    0    0  0.45266297848E+02 -0.15230799201E+03  0.52413305262E+03  0.54768806724E+03  0.00000000000E+00 0. -1.
         21    1    1    2  503  501 -0.50575692389E+02  0.23740242337E+02  0.37972077922E+02  0.67552782833E+02  0.00000000000E+00 0.  1.
          1    1    1    2  501    0 -0.20305487082E+03  0.71291608888E+01  0.29185411095E+03  0.35561345247E+03  0.00000000000E+00 0. -1.
<scales pt_clust_5="13000.00000" pt_clust_6="13000.00000" pt_clust_7="13000.00000" pt_clust_8="13000.00000" pt_clust_9="37.09062" pt_clust_10="236.66973"></scales>
<clustering>
<clus scale="   37.091">  9 10 -1 -1</clus>
<clus scale="   80.495">  5  6 -1 -1</clus>
<clus scale="   92.258">  7  8 -1 -1</clus>
<clus scale="  220.268">  1  7  2 -1</clus>
<clus scale="  236.670">  2  9  1 -1</clus>
<clus scale="  236.670">  2  5  1 -1</clus>
</clustering>
</event>
<event>
10    4  0.7697601E-005  0.1741208E+03  0.7546771E-02  0.1187858E+00
         21   -1    0    0  503  502  0.00000000000E+00  0.00000000000E+00  0.25082891913E+03  0.25082891913E+03  0.00000000000E+00 0. -1.
          2   -1    0    0  502    0 -0.00000000000E+00 -0.00000000000E+00 -0.24620454537E+03  0.24620454537E+03  0.00000000000E+00 0. -1.
         24    2    1    2    0    0 -0.89072437595E+02 -0.55191069859E+02 -0.51021001384E+02  0.13973924087E+03  0.77097078576E+02 0.  0.
         23    2    1    2    0    0  0.72934894555E+02 -0.11533083906E+03  0.86175196813E+01  0.16853439800E+03  0.98533651012E+02 0.  0.
        -13    1    3    3    0    0 -0.16627347188E+02  0.16210296346E+02  0.47985846960E+01  0.23712207768E+02  0.00000000000E+00 0.  1.
         14    1    3    3    0    0 -0.72445090407E+02 -0.71401366205E+02 -0.55819586080E+02  0.11602703310E+03  0.00000000000E+00 0. -1.
        -11    1    4    4    0    0  0.94074149139E+01 -0.78131135290E+02  0.40270037035E+02  0.88400507012E+02  0.00000000000E+00 0.  1.
         11    1    4    4    0    0  0.63527479641E+02 -0.37199703770E+02 -0.31652517354E+02  0.80133890988E+02  0.00000000000E+00 0. -1.
         21    1    1    2  503  501  0.20269788661E+02  0.12156315731E+02  0.12028231789E+02  0.26520156570E+02  0.00000000000E+00 0. -1.
          1    1    1    2  501    0 -0.41322456214E+01  0.15836559319E+03  0.34999623672E+02  0.16223966906E+03  0.00000000000E+00 0. -1.
<scales pt_clust_5="13000.00000" pt_clust_6="13000.00000" pt_clust_7="13000.00000" pt_clust_8="13000.00000" pt_clust_9="23.63557" pt_clust_10="143.55902"></scales>
<clustering>
<clus scale="   23.636">  1  9  2 -1</clus>
<clus scale="   77.097">  5  6 -1 -1</clus>
<clus scale="   98.534">  7  8 -1 -1</clus>
<clus scale="  126.474">  2  5  1 -1</clus>
<clus scale="  143.559">  1 10  2 -1</clus>
<clus scale="   23.636">  1  5  2 -1</clus>
</clustering>
</event>
<event>
10    4  0.7697601E-005  0.1076324E+03  0.7546771E-02  0.1270122E+00
         21   -1    0    0  501  502  0.00000000000E+00  0.00000000000E+00  0.21716666151E+03  0.21716666151E+03  0.00000000000E+00 0. -1.
          2   -1    0    0  503    0 -0.00000000000E+00 -0.00000000000E+00 -0.22896728859E+03  0.22896728859E+03  0.00000000000E+00 0. -1.
         24    2    1    2    0    0  0.24472097440E+02  0.23771056694E+02 -0.51019340150E+02  0.10104018224E+03  0.80263308363E+02 0.  0.
         23    2    1    2    0    0 -0.52059674119E+02 -0.65908948420E+02 -0.82639087314E+02  0.14969408579E+03  0.92330392702E+02 0.  0.
        -11    1    3    3    0    0  0.22136459146E+02  0.16889107081E+02  0.17007012176E+02  0.32626725619E+02  0.00000000000E+00 0.  1.
         12    1    3    3    0    0  0.23356382948E+01  0.68819496130E+01 -0.68026352326E+02  0.68413456625E+02  0.00000000000E+00 0. -1.
        -13    1    4    4    0    0 -0.20126601752E+01 -0.49518412762E+02 -0.83413861335E+02  0.97025750532E+02  0.00000000000E+00 0.  1.
         13    1    4    4    0    0 -0.50047013944E+02 -0.16390535659E+02  0.77477402125E+00  0.52668335256E+02  0.00000000000E+00 0. -1.
         21    1    1    2  503  502  0.21005980017E+02  0.12588088169E+02  0.15124114426E+03  0.15321094895E+03  0.00000000000E+00 0. -1.
          1    1    1    2  501    0  0.65815966613E+01  0.29549803558E+02 -0.29383343878E+02  0.42188733121E+02  0.00000000000E+00 0. -1.
<scales pt_clust_5="13000.00000" pt_clust_6="13000.00000" pt_clust_7="13000.00000" pt_clust_8="13000.00000" pt_clust_9="24.48900" pt_clust_10="31.98357"></scales>
<clustering>
<clus scale="   24.489">  1  9  2 -1</clus>
<clus scale="   31.984">  1 10  2 -1</clus>
<clus scale="   80.263">  5  6 -1 -1</clus>
<clus scale="   92.330">  7  8 -1 -1</clus>
<clus scale="   97.478">  2  5  1 -1</clus>
<clus scale="   24.489">  1  5  2 -1</clus>
</clustering>
</event>
<event>
10    4  0.7697601E-005  0.4171344E+03  0.7546771E-02  0.1066835E+00
          2   -1    0    0  502    0 -0.00000000000E+00  0.00000000000E+00  0.26007045734E+04  0.26007045734E+04  0.00000000000E+00 0. -1.
         21   -1    0    0  503  502  0.00000000000E+00 -0.00000000000E+00 -0.21745109630E+03  0.21745109630E+03  0.00000000000E+00 0. -1.
         24    2    1    2    0    0  0.11744208310E+03  0.11800326628E+03  0.11639112393E+04  0.11782815785E+04  0.77075881360E+02 0.  0.
         23    2    1    2    0    0  0.13235288172E+02  0.29821001852E+03  0.30152374030E+03  0.43441094981E+03  0.93230463652E+02 0.  0.
        -13    1    3    3    0    0  0.70741704406E+02  0.10910321514E+03  0.70294640536E+03  0.71487170115E+03  0.00000000000E+00 0.  1.
         14    1    3    3    0    0  0.46700378692E+02  0.89000511407E+01  0.46096483393E+03  0.46340987732E+03  0.00000000000E+00 0. -1.
        -11    1    4    4    0    0  0.51470387375E+02  0.12737217373E+03  0.14175201801E+03  0.19739935670E+03  0.00000000000E+00 0.  1.
         11    1    4    4    0    0 -0.38235099203E+02  0.17083784479E+03  0.15977172229E+03  0.23701159311E+03  0.00000000000E+00 0. -1.
         21    1    1    2  503  501 -0.11862515304E+03  0.12683876178E+03  0.48356577222E+02  0.18027300681E+03  0.00000000000E+00 0. -1.
          1    1    1    2  501    0 -0.12052218233E+02 -0.54305204658E+03  0.86946192028E+03  0.10251901346E+04  0.00000000000E+00 0. -1.
<scales pt_clust_5="13000.00000" pt_clust_6="13000.00000" pt_clust_7="13000.00000" pt_clust_8="13000.00000" pt_clust_9="173.66634" pt_clust_10="406.58249"></scales>
<clustering>
<clus scale="   77.076">  5  6 -1 -1</clus>
<clus scale="   93.230">  7  8 -1 -1</clus>
<clus scale="  173.666">  2  9  1 -1</clus>
<clus scale="  183.914">  1  5  2 -1</clus>
<clus scale="  406.582">  2 10  1 -1</clus>
<clus scale="  173.666">  2  5  1 -1</clus>
</clustering>
</event>
<event>
10    4  0.7697601E-005  0.1165048E+03  0.7546771E-02  0.1253640E+00
         21   -1    0    0  503  502  0.00000000000E+00  0.00000000000E+00  0.52610777172E+02  0.52610777172E+02  0.00000000000E+00 0. -1.
         -1   -1    0    0    0  501 -0.00000000000E+00 -0.00000000000E+00 -0.58933802483E+03  0.58933802483E+03  0.00000000000E+00 0.  1.
         24    2    1    2    0    0 -0.68741386543E+01  0.76387076001E+02 -0.24306233090E+03  0.26656548260E+03  0.78074455814E+02 0.  0.
         23    2    1    2    0    0 -0.32388771597E+02 -0.59728294421E+02 -0.72907245247E+02  0.13538973766E+03  0.91642855560E+02 0.  0.
        -13    1    3    3    0    0  0.31970321328E+02  0.56336036775E+02 -0.12748512061E+03  0.14299757502E+03  0.00000000000E+00 0.  1.
         14    1    3    3    0    0 -0.38844459982E+02  0.20051039226E+02 -0.11557721029E+03  0.12356790758E+03  0.00000000000E+00 0. -1.
        -11    1    4    4    0    0  0.26582195271E+02 -0.14511004720E+02 -0.48488497189E+02  0.57169193829E+02  0.00000000000E+00 0.  1.
         11    1    4    4    0    0 -0.58970966867E+02 -0.45217289700E+02 -0.24418748058E+02  0.78220543835E+02  0.00000000000E+00 0. -1.
         21    1    1    2  503  501 -0.21928371999E+02 -0.68217610708E+01 -0.22019799737E+02  0.31816057315E+02  0.00000000000E+00 0. -1.
         -2    1    1    2    0  502  0.61191282250E+02 -0.98370205094E+01 -0.19873787177E+03  0.20817752442E+03  0.00000000000E+00 0.  1.
<scales pt_clust_5="13000.00000" pt_clust_6="13000.00000" pt_clust_7="13000.00000" pt_clust_8="13000.00000" pt_clust_9="22.96497" pt_clust_10="59.95089"></scales>
<clustering>
<clus scale="   22.965">  1  9  2 -1</clus>
<clus scale="   59.951">  1 10  2 -1</clus>
<clus scale="   78.074">  5  6 -1 -1</clus>
<clus scale="   91.643">  7  8 -1 -1</clus>
<clus scale="  106.163">  2  5  1 -1</clus>
<clus scale="   22.965">  1  5  2 -1</clus>
</clustering>
</event>
<event>
10    4  0.7697601E-005  0.1882075E+03  0.7546771E-02  0.1180751E+00
          2   -1    0    0  503    0 -0.00000000000E+00  0.00000000000E+00  0.41868948092E+03  0.41868948092E+03  0.00000000000E+00 0. -1.
         21   -1    0    0  501  502  0.00000000000E+00 -0.00000000000E+00 -0.45272588224E+03  0.45272588224E+03  0.00000000000E+00 0. -1.
         24    2    1    2    0    0 -0.55671330112E+02  0.57838756820E+02 -0.32185886284E+02  0.11740218431E+03  0.79389689625E+02 0.  0.
         23    2    1    2    0    0 -0.30141346727E+02 -0.18830784548E+03  0.30147689701E+03  0.36811808942E+03  0.90852973934E+02 0.  0.
        -11    1    3    3    0    0 -0.17481360615E+02 -0.12930300270E+02 -0.29878764578E+02  0.36953094684E+02  0.00000000000E+00 0.  1.
         12    1    3    3    0    0 -0.38189969497E+02  0.70769057091E+02 -0.23071217061E+01  0.80449089630E+02  0.00000000000E+00 0. -1.
        -11    1    4    4    0    0 -0.31484321467E+02 -0.14898253545E+02  0.29941841866E+02  0.45931844632E+02  0.00000000000E+00 0.  1.
         11    1    4    4    0    0  0.13429747404E+01 -0.17340959194E+03  0.27153505514E+03  0.32218624478E+03  0.00000000000E+00 0. -1.
         21    1    1    2  503  502 -0.47754048656E+02 -0.21253485692E+01 -0.40623158809E+02  0.62731230669E+02  0.00000000000E+00 0.  1.
          1    1    1    2  501    0  0.13356672550E+03  0.13259443723E+03 -0.26270425323E+03  0.32316385876E+03  0.00000000000E+00 0. -1.
<scales pt_clust_5="13000.00000" pt_clust_6="13000.00000" pt_clust_7="13000.00000" pt_clust_8="13000.00000" pt_clust_9="47.80132" pt_clust_10="164.82659"></scales>
<clustering>
<clus scale="   47.801">  2  9  1 -1</clus>
<clus scale="   79.390">  5  6 -1 -1</clus>
<clus scale="   90.853">  7  8 -1 -1</clus>
<clus scale="  117.357">  1  5  2 -1</clus>
<clus scale="  164.827">  2 10  1 -1</clus>
<clus scale="   47.801">  2  5  1 -1</clus>
</clustering>
</event>
<event>
10    4  0.7697601E-005  0.1667923E+03  0.7546771E-02  0.1182905E+00
         21   -1    0    0  503  502  0.00000000000E+00  0.00000000000E+00  0.14142730300E+03  0.14142730300E+03  0.00000000000E+00 0. -1.
         -1   -1    0    0    0  501 -0.00000000000E+00 -0.00000000000E+00 -0.30630084543E+03  0.30630084543E+03  0.00000000000E+00 0.  1.
         24    2    1    2    0    0 -0.15398901656E+03  0.58610601668E+01 -0.41885693811E+02  0.17836327733E+03  0.79448587826E+02 0.  0.
         23    2    1    2    0    0  0.12412219306E+03 -0.24642925077E+02 -0.39753640693E+02  0.16097072236E+03  0.91201035870E+02 0.  0.
        -13    1    3    3    0    0 -0.10535516167E+03 -0.33451833452E+02 -0.21683494868E+02  0.11264505849E+03  0.00000000000E+00 0.  1.
         14    1    3    3    0    0 -0.48633854886E+02  0.39312893619E+02 -0.20202198942E+02  0.65718218843E+02  0.00000000000E+00 0. -1.
        -13    1    4    4    0    0  0.10737953612E+03 -0.55001329228E+02 -0.37000194014E+02  0.12619241400E+03  0.00000000000E+00 0. -1.
         13    1    4    4    0    0  0.16742656938E+02  0.30358404151E+02 -0.27534466788E+01  0.34778308362E+02  0.00000000000E+00 0.  1.
         21    1    1    2  503  501  0.20598419059E+02 -0.15048979350E+02 -0.10391166876E+02  0.27545289910E+02  0.00000000000E+00 0.  1.
         -2    1    1    2    0  502  0.92684044403E+01  0.33830844260E+02 -0.72843041051E+02  0.80848858828E+02  0.00000000000E+00 0.  1.
<scales pt_clust_5="13000.00000" pt_clust_6="13000.00000" pt_clust_7="13000.00000" pt_clust_8="13000.00000" pt_clust_9="25.51013" pt_clust_10="33.26819"></scales>
<clustering>
<clus scale="   25.510">  2  9  1 -1</clus>
<clus scale="   33.268">  1 10  2 -1</clus>
<clus scale="   79.449">  5  6 -1 -1</clus>
<clus scale="   91.201">  7  8 -1 -1</clus>
<clus scale="  160.668">  2  5  1 -1</clus>
<clus scale="   33.268">  1  5  2 -1</clus>
</clustering>
</event>
<event>
10    4  0.7697601E-005  0.2227156E+03  0.7546771E-02  0.1131875E+00
          2   -1    0    0  503    0 -0.00000000000E+00  0.00000000000E+00  0.37356228428E+03  0.37356228428E+03  0.00000000000E+00 0. -1.
         21   -1    0    0  501  502  0.00000000000E+00 -0.00000000000E+00 -0.17875417109E+03  0.17875417109E+03  0.00000000000E+00 0. -1.
         24    2    1    2    0    0  0.51304737664E+02 -0.71564886484E+02  0.91105604764E+02  0.15236436103E+03  0.84622445068E+02 0.  0.
         23    2    1    2    0    0  0.60338366122E+02 -0.28901575574E+02  0.12565699070E+03  0.16832130115E+03  0.89812925646E+02 0.  0.
        -11    1    3    3    0    0  0.22888192809E+02 -0.46058084036E+02 -0.22710376561E+01  0.51481784032E+02  0.00000000000E+00 0.  1.
         12    1    3    3    0    0  0.28416544855E+02 -0.25506802448E+02  0.93376642420E+02  0.10088257700E+03  0.00000000000E+00 0. -1.
        -11    1    4    4    0    0 -0.15180478342E+02 -0.24480338587E+02  0.65892871721E+02  0.71913868229E+02  0.00000000000E+00 0.  1.
         11    1    4    4    0    0  0.75518844464E+02 -0.44212369870E+01  0.59764118977E+02  0.96407432922E+02  0.00000000000E+00 0. -1.
         21    1    1    2  503  502 -0.56458924189E+02 -0.12758372105E+01 -0.83296739387E+02  0.10063590151E+03  0.00000000000E+00 0. -1.
          1    1    1    2  501    0 -0.55184179597E+02  0.10174229927E+03  0.61342257113E+02  0.13099489168E+03  0.00000000000E+00 0. -1.
<scales pt_clust_5="13000.00000" pt_clust_6="13000.00000" pt_clust_7="13000.00000" pt_clust_8="13000.00000" pt_clust_9="56.47334" pt_clust_10="127.69752"></scales>
<clustering>
<clus scale="   56.473">  2  9  1 -1</clus>
<clus scale="   84.622">  5  6 -1 -1</clus>
<clus scale="   89.813">  7  8 -1 -1</clus>
<clus scale="   99.069">  5  7 -1 -1</clus>
<clus scale="  127.698">  2 10  1 -1</clus>
<clus scale="   56.473">  2  5  1 -1</clus>
</clustering>
</event>
<event>
10    4  0.7697601E-005  0.9764385E+02  0.7546771E-02  0.1300998E+00
          4   -1    0    0  503    0 -0.00000000000E+00  0.00000000000E+00  0.27562081335E+03  0.27562081335E+03  0.00000000000E+00 0. -1.
         21   -1    0    0  501  502  0.00000000000E+00 -0.00000000000E+00 -0.16581133501E+03  0.16581133501E+03  0.00000000000E+00 0.  1.
         23    2    1    2    0    0 -0.47188777644E+02  0.51897790066E+00  0.18496728766E+03  0.20799180280E+03  0.82587180943E+02 0.  0.
         24    2    1    2    0    0  0.57708767284E+02 -0.51831386446E+02  0.38947952963E+02  0.10068271828E+03  0.51022272377E+02 0.  0.
        -13    1    4    4    0    0  0.33856565763E+02 -0.57129158976E+02  0.18811411389E+02  0.69020845032E+02  0.00000000000E+00 0.  1.
         14    1    4    4    0    0  0.23852201521E+02  0.52977725298E+01  0.20136541574E+02  0.31661873251E+02  0.00000000000E+00 0. -1.
        -13    1    3    3    0    0 -0.35535410092E+02 -0.38035731901E+02  0.12840446241E+03  0.13855391816E+03  0.00000000000E+00 0. -1.
         13    1    3    3    0    0 -0.11653367552E+02  0.38554709802E+02  0.56562825251E+02  0.69437884643E+02  0.00000000000E+00 0.  1.
         21    1    1    2  503  502  0.18216369340E+01  0.25671761100E+02 -0.95141866941E+02  0.98561313526E+02  0.00000000000E+00 0.  1.
          3    1    1    2  501    0 -0.12341626574E+02  0.25640647445E+02 -0.18963895339E+02  0.34196313753E+02  0.00000000000E+00 0. -1.
<scales pt_clust_5="13000.00000" pt_clust_6="13000.00000" pt_clust_7="13000.00000" pt_clust_8="13000.00000" pt_clust_9="25.73631" pt_clust_10="37.39333"></scales>
<clustering>
<clus scale="   25.736">  2  9  1 -1</clus>
<clus scale="   37.393">  2 10  1 -1</clus>
<clus scale="   51.022">  5  6 -1 -1</clus>
<clus scale="   72.917">  2  5  1 -1</clus>
<clus scale="   82.587">  7  8 -1 -1</clus>
<clus scale="   25.736">  2  5  1 -1</clus>
</clustering>
</event>
<event>
10    4  0.7697601E-005  0.1615685E+03  0.7546771E-02  0.1213386E+00
          2   -1    0    0  503    0 -0.00000000000E+00  0.00000000000E+00  0.11372841235E+04  0.11372841235E+04  0.00000000000E+00 0. -1.
         21   -1    0    0  501  502  0.00000000000E+00 -0.00000000000E+00 -0.65872251531E+02  0.65872251531E+02  0.00000000000E+00 0. -1.
         24    2    1    2    0    0 -0.44413542160E+02  0.11765720074E+02  0.42560708040E+03  0.43598376105E+03  0.82640535538E+02 0.  0.
         23    2    1    2    0    0  0.13156768302E+03  0.65254900580E+00  0.33660373918E+03  0.37206934566E+03  0.88447949169E+02 0.  0.
        -11    1    3    3    0    0 -0.20295057462E+02 -0.29190835940E+02  0.85885195591E+02  0.92953004696E+02  0.00000000000E+00 0.  1.
         12    1    3    3    0    0 -0.24118484698E+02  0.40956556014E+02  0.33972188481E+03  0.34303075635E+03  0.00000000000E+00 0. -1.
        -13    1    4    4    0    0  0.13230178391E+03  0.23983810212E+02  0.29847507343E+03  0.32736272640E+03  0.00000000000E+00 0. -1.
         13    1    4    4    0    0 -0.73410088435E+00 -0.23331261206E+02  0.38128665751E+02  0.44706619259E+02  0.00000000000E+00 0.  1.
         21    1    1    2  503  502  0.67493100939E+02 -0.14085850546E+01  0.26194032081E+02  0.72411532941E+02  0.00000000000E+00 0. -1.
          1    1    1    2  501    0 -0.15464724180E+03 -0.11009684026E+02  0.28300702026E+03  0.32269173534E+03  0.00000000000E+00 0. -1.
<scales pt_clust_5="13000.00000" pt_clust_6="13000.00000" pt_clust_7="13000.00000" pt_clust_8="13000.00000" pt_clust_9="67.50780" pt_clust_10="135.20850"></scales>
<clustering>
<clus scale="   67.508">  2  9  1 -1</clus>
<clus scale="   82.641">  5  6 -1 -1</clus>
<clus scale="   88.448">  7  8 -1 -1</clus>
<clus scale="   90.973">  1  5  2 -1</clus>
<clus scale="  135.208">  2 10  1 -1</clus>
<clus scale="   67.508">  2  5  1 -1</clus>
</clustering>
</event>
<event>
10    4  0.7697601E-005  0.1193768E+03  0.7546771E-02  0.1261989E+00
         21   -1    0    0  503  502  0.00000000000E+00  0.00000000000E+00  0.44862372147E+03  0.44862372147E+03  0.00000000000E+00 0.  1.
          2   -1    0    0  502    0 -0.00000000000E+00 -0.00000000000E+00 -0.50546697526E+03  0.50546697526E+03  0.00000000000E+00 0. -1.
         24    2    1    2    0    0  0.15392983230E+02 -0.19965823064E+02 -0.15248000052E+03  0.17378237883E+03  0.79464373213E+02 0.  0.
         23    2    1    2    0    0 -0.11210873332E+03 -0.35452567124E+02  0.36060232496E+03  0.38857705387E+03  0.84456127212E+02 0.  0.
        -11    1    3    3    0    0 -0.18082909705E+02 -0.37080510334E+02 -0.51221555745E+02  0.65769321443E+02  0.00000000000E+00 0.  1.
         12    1    3    3    0    0  0.33475892936E+02  0.17114687270E+02 -0.10125844477E+03  0.10801305738E+03  0.00000000000E+00 0. -1.
        -11    1    4    4    0    0 -0.67044104197E+02 -0.22646230071E+02  0.31622624276E+03  0.32404752777E+03  0.00000000000E+00 0.  1.
         11    1    4    4    0    0 -0.45064629124E+02 -0.12806337052E+02  0.44376082196E+02  0.64529526093E+02  0.00000000000E+00 0. -1.
         21    1    1    2  503  501  0.45376705196E+02 -0.14340442547E+02  0.47646860762E+02  0.67341792428E+02  0.00000000000E+00 0. -1.
          1    1    1    2  501    0  0.51339044894E+02  0.69758832735E+02 -0.31261243900E+03  0.32438947161E+03  0.00000000000E+00 0. -1.
<scales pt_clust_5="13000.00000" pt_clust_6="13000.00000" pt_clust_7="13000.00000" pt_clust_8="13000.00000" pt_clust_9="47.58880" pt_clust_10="84.36815"></scales>
<clustering>
<clus scale="   47.589">  1  9  2 -1</clus>
<clus scale="   79.464">  5  6 -1 -1</clus>
<clus scale="   83.699">  2  5  1 -1</clus>
<clus scale="   84.368">  1 10  2 -1</clus>
<clus scale="   84.456">  7  8 -1 -1</clus>
<clus scale="   47.589">  1  5  2 -1</clus>
</clustering>
</event>
<event>
10    4  0.7697601E-005  0.1840033E+03  0.7546771E-02  0.1168088E+00
          2   -1    0    0  503    0 -0.00000000000E+00  0.00000000000E+00  0.78663809634E+03  0.78663809634E+03  0.00000000000E+00 0. -1.
         21   -1    0    0  501  502  0.00000000000E+00 -0.00000000000E+00 -0.18063002870E+03  0.18063002870E+03  0.00000000000E+00 0. -1.
         24    2    1    2    0    0 -0.14995095333E+03 -0.48313826284E+02  0.37389811498E+03  0.41016537163E+03  0.60135825294E+02 0.  0.
         23    2    1    2    0    0  0.10755354649E+03  0.13771976982E+03  0.12254134220E+03  0.23452021566E+03  0.97205198646E+02 0.  0.
        -11    1    3    3    0    0 -0.30782314971E+02  0.14377458083E+02  0.76154404265E+02  0.83389180982E+02  0.00000000000E+00 0.  1.
         12    1    3    3    0    0 -0.11916863835E+03 -0.62691284367E+02  0.29774371072E+03  0.32677619065E+03  0.00000000000E+00 0. -1.
        -13    1    4    4    0    0  0.62092124839E+02  0.75933956838E+02  0.10379931926E+02  0.98636406843E+02  0.00000000000E+00 0.  1.
         13    1    4    4    0    0  0.45461421651E+02  0.61785812980E+02  0.11216141027E+03  0.13588380882E+03  0.00000000000E+00 0. -1.
         21    1    1    2  503  502  0.43080699877E+02 -0.48432436336E+02 -0.94414437055E+02  0.11452394298E+03  0.00000000000E+00 0. -1.
          1    1    1    2  501    0 -0.68329304198E+00 -0.40973507198E+02  0.20398304751E+03  0.20805859476E+03  0.00000000000E+00 0. -1.
<scales pt_clust_5="13000.00000" pt_clust_6="13000.00000" pt_clust_7="13000.00000" pt_clust_8="13000.00000" pt_clust_9="84.04443" pt_clust_10="40.97922"></scales>
<clustering>
<clus scale="   40.979">  2 10  1 -1</clus>
<clus scale="   60.136">  5  6 -1 -1</clus>
<clus scale="   84.044">  2  9  1 -1</clus>
<clus scale="   97.205">  7  8 -1 -1</clus>
<clus scale="  167.406">  1  5  2 -1</clus>
<clus scale="   40.979">  2  5  1 -1</clus>
</clustering>
</event>
<event>
10    4  0.7697601E-005  0.1881621E+03  0.7546771E-02  0.1189563E+00
         21   -1    0    0  501  502  0.00000000000E+00  0.00000000000E+00  0.34891339077E+03  0.34891339077E+03  0.00000000000E+00 0. -1.
          2   -1    0    0  503    0 -0.00000000000E+00 -0.00000000000E+00 -0.31599180122E+03  0.31599180122E+03  0.00000000000E+00 0. -1.
         24    2    1    2    0    0 -0.18309263901E+02  0.48118866278E+02  0.65163011719E+02  0.11595283526E+03  0.80920871669E+02 0.  0.
         23    2    1    2    0    0 -0.36879133666E+02 -0.20524304466E+03 -0.19600088605E+03  0.30078542534E+03  0.92578328381E+02 0.  0.
        -11    1    3    3    0    0 -0.12403606213E+02 -0.16985916891E+02 -0.33022455958E+01  0.21290271151E+02  0.00000000000E+00 0.  1.
         12    1    3    3    0    0 -0.59056576884E+01  0.65104783168E+02  0.68465257315E+02  0.94662564107E+02  0.00000000000E+00 0. -1.
        -11    1    4    4    0    0  0.24709001068E+02 -0.54078366123E+02 -0.25339456828E+02  0.64630430052E+02  0.00000000000E+00 0.  1.
         11    1    4    4    0    0 -0.61588134734E+02 -0.15116467853E+03 -0.17066142923E+03  0.23615499529E+03  0.00000000000E+00 0. -1.
         21    1    1    2  503  502  0.31576956470E+02  0.12034431816E+02  0.57823405239E+02  0.66973710681E+02  0.00000000000E+00 0. -1.
          1    1    1    2  501    0  0.23611441097E+02  0.14508974656E+03  0.10593605864E+03  0.18119322070E+03  0.00000000000E+00 0. -1.
<scales pt_clust_5="13000.00000" pt_clust_6="13000.00000" pt_clust_7="13000.00000" pt_clust_8="13000.00000" pt_clust_9="33.79248" pt_clust_10="163.81155"></scales>
<clustering>
<clus scale="   33.792">  1  9  2 -1</clus>
<clus scale="   80.921">  5  6 -1 -1</clus>
<clus scale="   92.578">  7  8 -1 -1</clus>
<clus scale="   96.507">  2  5  1 -1</clus>
<clus scale="  163.812">  1 10  2 -1</clus>
<clus scale="   33.792">  1  5  2 -1</clus>
</clustering>
</event>
<event>
10    4  0.7697601E-005  0.3135423E+03  0.7546771E-02  0.1090957E+00
         21   -1    0    0  503  502  0.00000000000E+00  0.00000000000E+00  0.41170996281E+03  0.41170996281E+03  0.00000000000E+00 0. -1.
          2   -1    0    0  502    0 -0.00000000000E+00 -0.00000000000E+00 -0.79383280495E+03  0.79383280495E+03  0.00000000000E+00 0. -1.
         24    2    1    2    0    0  0.62984065831E+02 -0.20164324762E+03  0.11546478638E+03  0.25461946444E+03  0.82897303438E+02 0.  0.
         23    2    1    2    0    0 -0.28010323963E+03 -0.12737830370E+03 -0.38366095689E+02  0.32315443345E+03  0.90960285043E+02 0.  0.
        -11    1    3    3    0    0 -0.17553585762E+02 -0.14844198347E+02  0.66923407374E+01  0.23942974382E+02  0.00000000000E+00 0.  1.
         12    1    3    3    0    0  0.80537651594E+02 -0.18679904928E+03  0.10877244564E+03  0.23067649006E+03  0.00000000000E+00 0. -1.
        -11    1    4    4    0    0 -0.19501076870E+03 -0.12778815984E+03 -0.46261482243E+02  0.23769547418E+03  0.00000000000E+00 0.  1.
         11    1    4    4    0    0 -0.85092470927E+02  0.40985614481E+00  0.78953865538E+01  0.85458959269E+02  0.00000000000E+00 0. -1.
         21    1    1    2  503  501  0.34932009491E+02  0.15294739959E+02  0.51536667272E+01  0.38480314944E+02  0.00000000000E+00 0.  1.
          1    1    1    2  501    0  0.18218716430E+03  0.31372681136E+03 -0.46437519955E+03  0.58928855493E+03  0.00000000000E+00 0. -1.
<scales pt_clust_5="13000.00000" pt_clust_6="13000.00000" pt_clust_7="13000.00000" pt_clust_8="13000.00000" pt_clust_9="38.13364" pt_clust_10="300.05847"></scales>
<clustering>
<clus scale="   38.134">  1  9  2 -1</clus>
<clus scale="   82.897">  5  6 -1 -1</clus>
<clus scale="   90.960">  7  8 -1 -1</clus>
<clus scale="  225.804">  2  5  1 -1</clus>
<clus scale="  300.058">  1 10  2 -1</clus>
<clus scale="   38.134">  1  5  2 -1</clus>
</clustering>
</event>
<event>
10    4  0.1493338E-004  0.1529765E+03  0.7546771E-02  0.1217177E+00
          2   -1    0    0  503    0 -0.00000000000E+00  0.00000000000E+00  0.11790396091E+04  0.11790396091E+04  0.00000000000E+00 0. -1.
         21   -1    0    0  501  502  0.00000000000E+00 -0.00000000000E+00 -0.20257924215E+03  0.20257924215E+03  0.00000000000E+00 0. -1.
         23    2    1    2    0    0  0.82081795027E+01 -0.40054308562E+02  0.26454033280E+03  0.28280162839E+03  0.91232951790E+02 0.  0.
         24    2    1    2    0    0  0.11214317302E+03  0.77474150970E+02  0.30778705978E+03  0.34720713555E+03  0.85097505750E+02 0.  0.
        -11    1    4    4    0    0  0.21373919237E+02  0.22846711062E+02  0.17281574655E+03  0.17562488117E+03  0.00000000000E+00 0.  1.
         12    1    4    4    0    0  0.90769253782E+02  0.54627439908E+02  0.13497131323E+03  0.17158225438E+03  0.00000000000E+00 0. -1.
        -13    1    3    3    0    0  0.45281124681E+02 -0.40707640798E+02  0.19052516164E+03  0.20001832289E+03  0.00000000000E+00 0. -1.
         13    1    3    3    0    0 -0.37072945178E+02  0.65333223526E+00  0.74015171164E+02  0.82783305500E+02  0.00000000000E+00 0.  1.
         21    1    1    2  503  502 -0.59748906504E+02 -0.86089916084E+02 -0.15500026138E+03  0.18710020446E+03  0.00000000000E+00 0. -1.
          1    1    1    2  501    0 -0.60602446018E+02  0.48670073676E+02  0.55913323571E+03  0.56450988283E+03  0.00000000000E+00 0. -1.
<scales pt_clust_5="13000.00000" pt_clust_6="13000.00000" pt_clust_7="13000.00000" pt_clust_8="13000.00000" pt_clust_9="127.12283" pt_clust_10="77.72669"></scales>
<clustering>
<clus scale="   77.727">  2 10  1 -1</clus>
<clus scale="   85.098">  5  6 -1 -1</clus>
<clus scale="   91.233">  7  8 -1 -1</clus>
<clus scale="   98.915">  1  7  2 -1</clus>
<clus scale="  127.123">  2  9  1 -1</clus>
<clus scale="   77.727">  2  5  1 -1</clus>
</clustering>
</event>
<event>
10    4  0.7697601E-005  0.1864591E+03  0.7546771E-02  0.1162875E+00
         21   -1    0    0  501  502  0.00000000000E+00  0.00000000000E+00  0.20343702721E+03  0.20343702721E+03  0.00000000000E+00 0. -1.
          2   -1    0    0  503    0 -0.00000000000E+00 -0.00000000000E+00 -0.73082011410E+03  0.73082011410E+03  0.00000000000E+00 0. -1.
         24    2    1    2    0    0 -0.12009719794E+03 -0.11728377193E+03 -0.10503892422E+03  0.21341272279E+03  0.79580113940E+02 0.  0.
         23    2    1    2    0    0  0.10018086235E+03  0.81311984614E+02  0.73880623692E+02  0.17404581101E+03  0.90475155427E+02 0.  0.
        -13    1    3    3    0    0 -0.26863554960E+02 -0.26490556474E+02  0.10740091512E+02  0.39226900631E+02  0.00000000000E+00 0.  1.
         14    1    3    3    0    0 -0.93233642984E+02 -0.90793215453E+02 -0.11577901573E+03  0.17418582216E+03  0.00000000000E+00 0. -1.
        -11    1    4    4    0    0  0.14802282849E+02 -0.19873771974E+02  0.16378389240E+02  0.29703973204E+02  0.00000000000E+00 0.  1.
         11    1    4    4    0    0  0.85378579498E+02  0.10118575659E+03  0.57502234452E+02  0.14434183780E+03  0.00000000000E+00 0. -1.
         21    1    1    2  503  502 -0.25064212637E+02 -0.77603833968E+02 -0.84921692575E+02  0.11773811478E+03  0.00000000000E+00 0. -1.
          1    1    1    2  501    0  0.44980548234E+02  0.11357562128E+03 -0.41130309379E+03  0.42906049274E+03  0.00000000000E+00 0. -1.
<scales pt_clust_5="13000.00000" pt_clust_6="13000.00000" pt_clust_7="13000.00000" pt_clust_8="13000.00000" pt_clust_9="81.55103" pt_clust_10="67.92854"></scales>
<clustering>
<clus scale="   79.580">  5  6 -1 -1</clus>
<clus scale="   81.551">  2  9  1 -1</clus>
<clus scale="   67.929">  1 10  2 -1</clus>
<clus scale="   90.475">  7  8 -1 -1</clus>
<clus scale="  181.423">  2  5  1 -1</clus>
<clus scale="   67.929">  1  5  2 -1</clus>
</clustering>
</event>
<event>
10    4  0.7697601E-005  0.1528428E+03  0.7546771E-02  0.1221608E+00
          2   -1    0    0  502    0 -0.00000000000E+00  0.00000000000E+00  0.48774217786E+03  0.48774217786E+03  0.00000000000E+00 0. -1.
         21   -1    0    0  503  502  0.00000000000E+00 -0.00000000000E+00 -0.11725880559E+03  0.11725880559E+03  0.00000000000E+00 0. -1.
         24    2    1    2    0    0 -0.40321823944E+02 -0.54300267080E+01  0.20384521041E+03  0.22284019841E+03  0.80309087536E+02 0.  0.
         23    2    1    2    0    0  0.93444332240E+02  0.11500845610E+03  0.11519134868E+02  0.17431058550E+03  0.91064271506E+02 0.  0.
        -13    1    3    3    0    0  0.50304688248E+01 -0.30553780635E+02  0.37662086512E+02  0.48757275233E+02  0.00000000000E+00 0.  1.
         14    1    3    3    0    0 -0.45352292768E+02  0.25123753927E+02  0.16618312390E+03  0.17408292317E+03  0.00000000000E+00 0. -1.
        -13    1    4    4    0    0  0.72693271376E+02  0.12259910159E+03 -0.10755858939E+02  0.14293543968E+03  0.00000000000E+00 0. -1.
         13    1    4    4    0    0  0.20751060864E+02 -0.75906454900E+01  0.22274993807E+02  0.31375145817E+02  0.00000000000E+00 0.  1.
         21    1    1    2  503  501 -0.47483406959E+01 -0.21630713451E+02 -0.10901914899E+01  0.22172573627E+02  0.00000000000E+00 0. -1.
          1    1    1    2  501    0 -0.48374167601E+02 -0.87947715945E+02  0.15620921847E+03  0.18567762592E+03  0.00000000000E+00 0. -1.
<scales pt_clust_5="13000.00000" pt_clust_6="13000.00000" pt_clust_7="13000.00000" pt_clust_8="13000.00000" pt_clust_9="22.14576" pt_clust_10="122.75276"></scales>
<clustering>
<clus scale="   22.146">  2  9  1 -1</clus>
<clus scale="   80.309">  5  6 -1 -1</clus>
<clus scale="   90.357">  1  5  2 -1</clus>
<clus scale="   91.064">  7  8 -1 -1</clus>
<clus scale="  122.753">  2 10  1 -1</clus>
<clus scale="   22.146">  2  5  1 -1</clus>
</clustering>
</event>
<event>
10    4  0.7697601E-005  0.9237054E+02  0.7546771E-02  0.1303176E+00
         -3   -1    0    0    0  501 -0.00000000000E+00  0.00000000000E+00  0.31119044029E+03  0.31119044029E+03  0.00000000000E+00 0.  1.
         21   -1    0    0  503  502  0.00000000000E+00 -0.00000000000E+00 -0.17068674677E+03  0.17068674677E+03  0.00000000000E+00 0.  1.
         24    2    1    2    0    0  0.96353974827E+01 -0.12622908835E+02  0.14978620091E+03  0.17100422909E+03  0.80959012297E+02 0.  0.
         23    2    1    2    0    0 -0.35130197440E+02 -0.30467161659E+02  0.76749835368E+02  0.12763829946E+03  0.90766841678E+02 0.  0.
        -13    1    3    3    0    0 -0.25583495034E+02 -0.28144805440E+02  0.10646867484E+03  0.11305849820E+03  0.00000000000E+00 0.  1.
         14    1    3    3    0    0  0.35218892517E+02  0.15521896606E+02  0.43317526061E+02  0.57945730890E+02  0.00000000000E+00 0. -1.
        -13    1    4    4    0    0 -0.62546058074E+02 -0.59488193586E+01  0.34704396918E+02  0.71775991792E+02  0.00000000000E+00 0.  1.
         13    1    4    4    0    0  0.27415860634E+02 -0.24518342301E+02  0.42045438450E+02  0.55862307668E+02  0.00000000000E+00 0. -1.
         21    1    1    2  503  501 -0.65284071443E+01  0.26648163265E+02 -0.12628660645E+03  0.12923254882E+03  0.00000000000E+00 0.  1.
         -4    1    1    2    0  502  0.32023207101E+02  0.16441907229E+02  0.40254263697E+02  0.54002109701E+02  0.00000000000E+00 0.  1.
<scales pt_clust_5="13000.00000" pt_clust_6="13000.00000" pt_clust_7="13000.00000" pt_clust_8="13000.00000" pt_clust_9="27.43619" pt_clust_10="37.26248"></scales>
<clustering>
<clus scale="   27.436">  2  9  1 -1</clus>
<clus scale="   37.262">  2 10  1 -1</clus>
<clus scale="   80.959">  5  6 -1 -1</clus>
<clus scale="   82.753">  1  5  2 -1</clus>
<clus scale="   90.767">  7  8 -1 -1</clus>
<clus scale="   27.436">  2  5  1 -1</clus>
</clustering>
</event>
<event>
10    4  0.7697601E-005  0.1451069E+03  0.7546771E-02  0.1215115E+00
         21   -1    0    0  503  502  0.00000000000E+00  0.00000000000E+00  0.70572088780E+02  0.70572088780E+02  0.00000000000E+00 0.  1.
         -3   -1    0    0    0  501 -0.00000000000E+00 -0.00000000000E+00 -0.42431566639E+03  0.42431566639E+03  0.00000000000E+00 0.  1.
         23    2    1    2    0    0 -0.59021345697E+02 -0.69270150968E+02 -0.25919873566E+03  0.29765062722E+03  0.11458637901E+03 0.  0.
         24    2    1    2    0    0  0.56567097703E+02  0.63718902014E+02 -0.56490679418E+02  0.13107660995E+03  0.82036246857E+02 0.  0.
        -11    1    4    4    0    0  0.73188683294E+02  0.42784188529E+02 -0.22269391339E+02  0.87652700705E+02  0.00000000000E+00 0.  1.
         12    1    4    4    0    0 -0.16621585591E+02  0.20934713485E+02 -0.34221288079E+02  0.43423909244E+02  0.00000000000E+00 0. -1.
        -13    1    3    3    0    0 -0.86501089529E+02 -0.70773382010E+02 -0.23791810786E+03  0.26286181948E+03  0.00000000000E+00 0.  1.
         13    1    3    3    0    0  0.27479743832E+02  0.15032310413E+01 -0.21280627800E+02  0.34788807744E+02  0.00000000000E+00 0. -1.
         21    1    1    2  503  501  0.55225990556E+01 -0.23830401911E+02 -0.15074084920E+02  0.28733520351E+02  0.00000000000E+00 0.  1.
         -4    1    1    2    0  502 -0.30683510615E+01  0.29381650866E+02 -0.22980077607E+02  0.37426997645E+02  0.00000000000E+00 0.  1.
<scales pt_clust_5="13000.00000" pt_clust_6="13000.00000" pt_clust_7="13000.00000" pt_clust_8="13000.00000" pt_clust_9="24.46195" pt_clust_10="26.79269"></scales>
<clustering>
<clus scale="   24.462">  1  9  2 -1</clus>
<clus scale="   26.793">  1 10  2 -1</clus>
<clus scale="   82.036">  5  6 -1 -1</clus>
<clus scale="  114.586">  7  8 -1 -1</clus>
<clus scale="  121.062">  1  5  2 -1</clus>
<clus scale="   24.462">  1  5  2 -1</clus>
</clustering>
</event>
<event>
10    4  0.7697601E-005  0.1840877E+03  0.7546771E-02  0.1165586E+00
          2   -1    0    0  503    0 -0.00000000000E+00  0.00000000000E+00  0.39873510001E+03  0.39873510001E+03  0.00000000000E+00 0. -1.
         21   -1    0    0  501  502  0.00000000000E+00 -0.00000000000E+00 -0.26265467802E+03  0.26265467802E+03  0.00000000000E+00 0.  1.
         23    2    1    2    0    0  0.51239044226E+02  0.15981980886E+03  0.21577498295E+03  0.28920450064E+03  0.94406509111E+02 0.  0.
         24    2    1    2    0    0 -0.12576321786E+03 -0.72018204348E+02 -0.13135524464E+03  0.21127765964E+03  0.79881414902E+02 0.  0.
        -11    1    4    4    0    0 -0.13514065647E+03 -0.54797359992E+02 -0.11416678843E+03  0.18520206067E+03  0.00000000000E+00 0.  1.
         12    1    4    4    0    0  0.93774386140E+01 -0.17220844356E+02 -0.17188456203E+02  0.26075598976E+02  0.00000000000E+00 0. -1.
        -11    1    3    3    0    0  0.72351870292E+01  0.22162520226E+02 -0.63870765687E+01  0.24172711499E+02  0.00000000000E+00 0.  1.
         11    1    3    3    0    0  0.44003857197E+02  0.13765728864E+03  0.22216205952E+03  0.26503178914E+03  0.00000000000E+00 0. -1.
         21    1    1    2  503  502  0.24816167577E+02  0.99613028218E+01 -0.16837286633E+02  0.31600062473E+02  0.00000000000E+00 0. -1.
          1    1    1    2  501    0  0.49708006056E+02 -0.97762907337E+02  0.68497970298E+02  0.12930755528E+03  0.00000000000E+00 0. -1.
<scales pt_clust_5="13000.00000" pt_clust_6="13000.00000" pt_clust_7="13000.00000" pt_clust_8="13000.00000" pt_clust_9="26.74079" pt_clust_10="110.02885"></scales>
<clustering>
<clus scale="   26.741">  2  9  1 -1</clus>
<clus scale="   79.881">  5  6 -1 -1</clus>
<clus scale="   94.407">  7  8 -1 -1</clus>
<clus scale="  110.029">  2 10  1 -1</clus>
<clus scale="  177.078">  2  5  1 -1</clus>
<clus scale="   26.741">  2  5  1 -1</clus>
</clustering>
</event>
<event>
10    4  0.7697601E-005  0.1193145E+03  0.7546771E-02  0.1261083E+00
         21   -1    0    0  501  502  0.00000000000E+00  0.00000000000E+00  0.68596624087E+02  0.68596624087E+02  0.00000000000E+00 0. -1.
          2   -1    0    0  503    0 -0.00000000000E+00 -0.00000000000E+00 -0.77919392639E+03  0.77919392639E+03  0.00000000000E+00 0. -1.
         24    2    1    2    0    0 -0.48530546018E+02  0.23201169969E+02 -0.43673696564E+03  0.44487851500E+03  0.65453859860E+02 0.  0.
         23    2    1    2    0    0 -0.39224169174E+02  0.28164342524E+02 -0.11766585629E+03  0.15655035809E+03  0.91274285784E+02 0.  0.
        -11    1    3    3    0    0 -0.27354651962E+02 -0.12399063691E+01 -0.51859827529E+02  0.58645170842E+02  0.00000000000E+00 0.  1.
         12    1    3    3    0    0 -0.21175894057E+02  0.24441076338E+02 -0.38487713811E+03  0.38623334416E+03  0.00000000000E+00 0. -1.
        -11    1    4    4    0    0 -0.63357213364E+02  0.40933770286E+02 -0.79123380386E+02  0.10931705886E+03  0.00000000000E+00 0. -1.
         11    1    4    4    0    0  0.24133044189E+02 -0.12769427762E+02 -0.38542475907E+02  0.47233299231E+02  0.00000000000E+00 0.  1.
         21    1    1    2  503  502 -0.19697613073E+02 -0.21282794667E+02  0.21802571135E+02  0.36280923606E+02  0.00000000000E+00 0. -1.
          1    1    1    2  501    0  0.10745232827E+03 -0.30082717826E+02 -0.17799705151E+03  0.21008075378E+03  0.00000000000E+00 0. -1.
<scales pt_clust_5="13000.00000" pt_clust_6="13000.00000" pt_clust_7="13000.00000" pt_clust_8="13000.00000" pt_clust_9="28.99919" pt_clust_10="76.84371"></scales>
<clustering>
<clus scale="   28.999">  1  9  2 -1</clus>
<clus scale="   65.454">  5  6 -1 -1</clus>
<clus scale="   85.333">  2  5  1 -1</clus>
<clus scale="   76.844">  1 10  2 -1</clus>
<clus scale="   91.274">  7  8 -1 -1</clus>
<clus scale="   28.999">  1  5  2 -1</clus>
</clustering>
</event>
<event>
10    4  0.7697601E-005  0.1867319E+03  0.7546771E-02  0.1187604E+00
         21   -1    0    0  501  502  0.00000000000E+00  0.00000000000E+00  0.74425712811E+03  0.74425712811E+03  0.00000000000E+00 0. -1.
         -3   -1    0    0    0  501 -0.00000000000E+00 -0.00000000000E+00 -0.98040217764E+02  0.98040217764E+02  0.00000000000E+00 0.  1.
         24    2    1    2    0    0 -0.43794849950E+02  0.44094571117E+02  0.75030775273E+02  0.12661961830E+03  0.80873916780E+02 0.  0.
         23    2    1    2    0    0  0.19739543345E+03 -0.15723365684E+02  0.33608578080E+03  0.40006615498E+03  0.88809317825E+02 0.  0.
        -11    1    3    3    0    0 -0.38591751055E+02  0.60538463051E+02  0.81121941154E+02  0.10832819621E+03  0.00000000000E+00 0.  1.
         12    1    3    3    0    0 -0.52030988958E+01 -0.16443891934E+02 -0.60911658810E+01  0.18291422084E+02  0.00000000000E+00 0. -1.
        -13    1    4    4    0    0  0.67680088439E+02 -0.60769905961E+01  0.45731581462E+02  0.81907885633E+02  0.00000000000E+00 0.  1.
         13    1    4    4    0    0  0.12971534501E+03 -0.96463750876E+01  0.29035419934E+03  0.31815826935E+03  0.00000000000E+00 0. -1.
         21    1    1    2  503  502 -0.21807583558E+02 -0.76139012464E+01  0.16168910651E+03  0.16333067488E+03  0.00000000000E+00 0.  1.
         -4    1    1    2    0  503 -0.13179299994E+03 -0.20757304187E+02  0.73411247763E+02  0.15228089771E+03  0.00000000000E+00 0.  1.
<scales pt_clust_5="13000.00000" pt_clust_6="13000.00000" pt_clust_7="13000.00000" pt_clust_8="13000.00000" pt_clust_9="23.09853" pt_clust_10="164.26122"></scales>
<clustering>
<clus scale="   23.099">  1  9  2 -1</clus>
<clus scale="   80.874">  5  6 -1 -1</clus>
<clus scale="   88.809">  7  8 -1 -1</clus>
<clus scale="  103.119">  2  5  1 -1</clus>
<clus scale="  164.261">  1 10  2 -1</clus>
<clus scale="   23.099">  1  5  2 -1</clus>
</clustering>
</event>
<event>
10    4  0.7697601E-005  0.1297429E+03  0.7546771E-02  0.1230448E+00
         21   -1    0    0  503  502  0.00000000000E+00  0.00000000000E+00  0.83644727163E+02  0.83644727163E+02  0.00000000000E+00 0.  1.
          4   -1    0    0  502    0 -0.00000000000E+00 -0.00000000000E+00 -0.44084688116E+03  0.44084688116E+03  0.00000000000E+00 0. -1.
         23    2    1    2    0    0  0.76441000793E+02  0.66100133733E+02 -0.19213776793E+03  0.23531423610E+03  0.90793246246E+02 0.  0.
         24    2    1    2    0    0 -0.39257870138E+02 -0.68293422734E+02 -0.27992417509E+02  0.11623107565E+03  0.80752186055E+02 0.  0.
        -11    1    4    4    0    0 -0.46122655407E+02 -0.45591358812E+02  0.15511675927E+02  0.66681957306E+02  0.00000000000E+00 0.  1.
         12    1    4    4    0    0  0.68647852690E+01 -0.22702063923E+02 -0.43504093436E+02  0.49549118345E+02  0.00000000000E+00 0. -1.
        -13    1    3    3    0    0 -0.20771365491E+02  0.15469989634E+02 -0.43638085661E+02  0.50744977326E+02  0.00000000000E+00 0. -1.
         13    1    3    3    0    0  0.97212366284E+02  0.50630144099E+02 -0.14849968227E+03  0.18456925877E+03  0.00000000000E+00 0.  1.
         21    1    1    2  503  501  0.20558209277E+02  0.78533381031E+01  0.21569893357E+01  0.22112609322E+02  0.00000000000E+00 0. -1.
          3    1    1    2  501    0 -0.57741339933E+02 -0.56600491019E+01 -0.13922895790E+03  0.15083368725E+03  0.00000000000E+00 0. -1.
<scales pt_clust_5="13000.00000" pt_clust_6="13000.00000" pt_clust_7="13000.00000" pt_clust_8="13000.00000" pt_clust_9="22.00716" pt_clust_10="56.29777"></scales>
<clustering>
<clus scale="   22.007">  1  9  2 -1</clus>
<clus scale="   56.298">  1 10  2 -1</clus>
<clus scale="   80.752">  5  6 -1 -1</clus>
<clus scale="   90.793">  7  8 -1 -1</clus>
<clus scale="  122.926">  1  5  2 -1</clus>
<clus scale="   22.007">  1  5  2 -1</clus>
</clustering>
</event>
<event>
10    4  0.7697601E-005  0.2101153E+03  0.7546771E-02  0.1164153E+00
         21   -1    0    0  503  502  0.00000000000E+00  0.00000000000E+00  0.12352255343E+04  0.12352255343E+04  0.00000000000E+00 0.  1.
         -3   -1    0    0    0  501 -0.00000000000E+00 -0.00000000000E+00 -0.13357412304E+03  0.13357412304E+03  0.00000000000E+00 0.  1.
         24    2    1    2    0    0  0.86708628977E+02  0.33566358298E+02  0.19872429600E+03  0.23375922202E+03  0.80665614170E+02 0.  0.
         23    2    1    2    0    0 -0.72792081731E+01  0.92937698058E+02  0.60853433496E+02  0.14283533760E+03  0.89489612279E+02 0.  0.
        -11    1    3    3    0    0  0.36249553245E+02  0.56915432816E+02  0.10711746202E+03  0.12659994973E+03  0.00000000000E+00 0.  1.
         12    1    3    3    0    0  0.50459075732E+02 -0.23349074518E+02  0.91606833979E+02  0.10715927228E+03  0.00000000000E+00 0. -1.
        -11    1    4    4    0    0  0.90664211476E+01  0.10716512878E+03  0.51143376733E+02  0.11908908347E+03  0.00000000000E+00 0. -1.
         11    1    4    4    0    0 -0.16345629321E+02 -0.14227430717E+02  0.97100567639E+01  0.23746254127E+02  0.00000000000E+00 0.  1.
         21    1    1    2  503  501  0.14256774188E+03  0.10718091655E+03  0.45370575258E+03  0.48750612286E+03  0.00000000000E+00 0.  1.
         -4    1    1    2    0  502 -0.22199716268E+03 -0.23368497291E+03  0.38836792915E+03  0.50469897483E+03  0.00000000000E+00 0.  1.
<scales pt_clust_5="13000.00000" pt_clust_6="13000.00000" pt_clust_7="13000.00000" pt_clust_8="13000.00000" pt_clust_9="13000.00000" pt_clust_10="210.11535"></scales>
<clustering>
<clus scale="   80.666">  5  6 -1 -1</clus>
<clus scale="   89.490">  7  8 -1 -1</clus>
<clus scale="  123.094">  2  5  1 -1</clus>
<clus scale="  139.768">  2  7  1 -1</clus>
<clus scale="  210.115">  2 10  1 -1</clus>
<clus scale="  210.115">  1  5  2 -1</clus>
</clustering>
</event>
<event>
10    4  0.7697601E-005  0.2918473E+03  0.7546771E-02  0.1091711E+00
          2   -1    0    0  502    0 -0.00000000000E+00  0.00000000000E+00  0.86294294861E+03  0.86294294861E+03  0.00000000000E+00 0. -1.
         21   -1    0    0  503  502  0.00000000000E+00 -0.00000000000E+00 -0.45488005645E+03  0.45488005645E+03  0.00000000000E+00 0.  1.
         24    2    1    2    0    0  0.26934020241E+03 -0.74064684428E+01  0.43016476469E+03  0.51383031231E+03  0.79880314588E+02 0.  0.
         23    2    1    2    0    0 -0.15909789912E+03  0.30017399558E+03  0.14456943060E+03  0.38055976366E+03  0.92243397190E+02 0.  0.
        -13    1    3    3    0    0  0.16734818953E+03  0.33710428207E+02  0.24889234406E+03  0.30180988791E+03  0.00000000000E+00 0.  1.
         14    1    3    3    0    0  0.10199201288E+03 -0.41116896650E+02  0.18127242063E+03  0.21202042440E+03  0.00000000000E+00 0. -1.
        -13    1    4    4    0    0 -0.12922867441E+02  0.17048870559E+02 -0.13064205432E+02  0.25066670178E+02  0.00000000000E+00 0.  1.
         13    1    4    4    0    0 -0.14617503168E+03  0.28312512502E+03  0.15763363603E+03  0.35549309348E+03  0.00000000000E+00 0. -1.
         21    1    1    2  503  501 -0.50425306724E+02 -0.39026232606E+02 -0.14907966052E+03  0.16214346601E+03  0.00000000000E+00 0.  1.
          1    1    1    2  501    0 -0.59816996568E+02 -0.25374129453E+03 -0.17591642608E+02  0.26128946309E+03  0.00000000000E+00 0. -1.
<scales pt_clust_5="13000.00000" pt_clust_6="13000.00000" pt_clust_7="13000.00000" pt_clust_8="13000.00000" pt_clust_9="63.76330" pt_clust_10="276.88623"></scales>
<clustering>
<clus scale="   63.763">  2  9  1 -1</clus>
<clus scale="   79.880">  5  6 -1 -1</clus>
<clus scale="   92.243">  7  8 -1 -1</clus>
<clus scale="  274.487">  1  5  2 -1</clus>
<clus scale="  276.886">  2 10  1 -1</clus>
<clus scale="   63.763">  2  5  1 -1</clus>
</clustering>
</event>
<event>
10    4  0.7697601E-005  0.1037388E+03  0.7546771E-02  0.1277762E+00
         21   -1    0    0  501  502  0.00000000000E+00  0.00000000000E+00  0.39848569891E+02  0.39848569891E+02  0.00000000000E+00 0. -1.
          2   -1    0    0  503    0 -0.00000000000E+00 -0.00000000000E+00 -0.10921983206E+04  0.10921983206E+04  0.00000000000E+00 0. -1.
         24    2    1    2    0    0 -0.11958390861E+02 -0.33149607675E+02 -0.51741073556E+03  0.52483659791E+03  0.80608223075E+02 0.  0.
         23    2    1    2    0    0  0.11050834303E+02  0.96803008730E+02 -0.31939581556E+03  0.34630762046E+03  0.91773294351E+02 0.  0.
        -13    1    3    3    0    0 -0.33582840799E+02 -0.46666794636E+02 -0.26638997393E+03  0.27252378819E+03  0.00000000000E+00 0.  1.
         14    1    3    3    0    0  0.21624449938E+02  0.13517186961E+02 -0.25102076163E+03  0.25231280972E+03  0.00000000000E+00 0. -1.
        -11    1    4    4    0    0  0.13671354947E+02  0.55536335247E+02 -0.28996918859E+03  0.29555595208E+03  0.00000000000E+00 0. -1.
         11    1    4    4    0    0 -0.26205206433E+01  0.41266673483E+02 -0.29426626969E+02  0.50751668382E+02  0.00000000000E+00 0.  1.
         21    1    1    2  503  502  0.22011304657E+02 -0.29078131397E+02  0.48743639741E+01  0.36793948992E+02  0.00000000000E+00 0. -1.
          1    1    1    2  501    0 -0.21103748099E+02 -0.34575269658E+02 -0.22041756358E+03  0.22410872315E+03  0.00000000000E+00 0. -1.
<scales pt_clust_5="13000.00000" pt_clust_6="13000.00000" pt_clust_7="13000.00000" pt_clust_8="13000.00000" pt_clust_9="36.46965" pt_clust_10="41.93262"></scales>
<clustering>
<clus scale="   36.470">  1  9  2 -1</clus>
<clus scale="   41.933">  1 10  2 -1</clus>
<clus scale="   80.608">  5  6 -1 -1</clus>
<clus scale="   91.773">  7  8 -1 -1</clus>
<clus scale="   94.006">  2  5  1 -1</clus>
<clus scale="   36.470">  1  5  2 -1</clus>
</clustering>
</event>
<event>
10    4  0.7697601E-005  0.2186297E+03  0.7546771E-02  0.1177055E+00
         -1   -1    0    0    0  501 -0.00000000000E+00  0.00000000000E+00  0.10559363430E+03  0.10559363430E+03  0.00000000000E+00 0.  1.
         21   -1    0    0  503  502  0.00000000000E+00 -0.00000000000E+00 -0.83448862213E+03  0.83448862213E+03  0.00000000000E+00 0.  1.
         24    2    1    2    0    0 -0.14659399872E+02  0.67752463630E+01 -0.47224016602E+02  0.94754055376E+02  0.80544529909E+02 0.  0.
         23    2    1    2    0    0  0.56493734752E+02 -0.15917591530E+03 -0.31242702439E+03  0.36743633181E+03  0.94182260985E+02 0.  0.
        -13    1    3    3    0    0 -0.34092148713E+02  0.18819654111E+02 -0.57695345721E+02  0.69607520445E+02  0.00000000000E+00 0.  1.
         14    1    3    3    0    0  0.19432748840E+02 -0.12044407748E+02  0.10471329118E+02  0.25146534930E+02  0.00000000000E+00 0. -1.
        -13    1    4    4    0    0  0.94654587511E+01 -0.14300924806E+03 -0.22220940816E+03  0.26442061383E+03  0.00000000000E+00 0.  1.
         13    1    4    4    0    0  0.47028276001E+02 -0.16166667240E+02 -0.90217616226E+02  0.10301571798E+03  0.00000000000E+00 0. -1.
         21    1    1    2  503  501  0.28865862891E+02 -0.51675555173E+02 -0.18422969438E+03  0.19350499046E+03  0.00000000000E+00 0.  1.
         -2    1    1    2    0  502 -0.70700197770E+02  0.20407622411E+03 -0.18501425245E+03  0.28438687878E+03  0.00000000000E+00 0.  1.
<scales pt_clust_5="13000.00000" pt_clust_6="13000.00000" pt_clust_7="13000.00000" pt_clust_8="13000.00000" pt_clust_9="59.19122" pt_clust_10="197.30351"></scales>
<clustering>
<clus scale="   59.191">  2  9  1 -1</clus>
<clus scale="   80.545">  5  6 -1 -1</clus>
<clus scale="   81.367">  1  5  2 -1</clus>
<clus scale="   94.182">  7  8 -1 -1</clus>
<clus scale="  197.304">  2 10  1 -1</clus>
<clus scale="   59.191">  2  5  1 -1</clus>
</clustering>
</event>
<event>
10    4  0.7697601E-005  0.4234412E+03  0.7546771E-02  0.1043134E+00
          2   -1    0    0  502    0 -0.00000000000E+00  0.00000000000E+00  0.18692283483E+04  0.18692283483E+04  0.00000000000E+00 0. -1.
         21   -1    0    0  503  502  0.00000000000E+00 -0.00000000000E+00 -0.24272862945E+03  0.24272862945E+03  0.00000000000E+00 0.  1.
         24    2    1    2    0    0 -0.24014260962E+03  0.24846582072E+03  0.27154324090E+03  0.44645268104E+03  0.78616332310E+02 0.  0.
         23    2    1    2    0    0 -0.20132127634E+03 -0.38100251195E+03  0.77866787727E+03  0.89457409767E+03  0.90807393436E+02 0.  0.
        -13    1    3    3    0    0 -0.73119873086E+02  0.49899676174E+02  0.34509455975E+02  0.95012610079E+02  0.00000000000E+00 0.  1.
         14    1    3    3    0    0 -0.16702273653E+03  0.19856614455E+03  0.23703378493E+03  0.35144007096E+03  0.00000000000E+00 0. -1.
        -11    1    4    4    0    0 -0.19895214893E+03 -0.30702957544E+03  0.63076080985E+03  0.72918332195E+03  0.00000000000E+00 0.  1.
         11    1    4    4    0    0 -0.23691274049E+01 -0.73972936506E+02  0.14790706742E+03  0.16539077572E+03  0.00000000000E+00 0. -1.
         21    1    1    2  503  501  0.17289540944E+02 -0.22671595165E+02 -0.10544188261E+02  0.30399167085E+02  0.00000000000E+00 0.  1.
          1    1    1    2  501    0  0.42417434501E+03  0.15520828640E+03  0.58683278893E+03  0.74053103196E+03  0.00000000000E+00 0. -1.
<scales pt_clust_5="13000.00000" pt_clust_6="13000.00000" pt_clust_7="13000.00000" pt_clust_8="13000.00000" pt_clust_9="28.51192" pt_clust_10="413.58976"></scales>
<clustering>
<clus scale="   28.512">  2  9  1 -1</clus>
<clus scale="   78.616">  5  6 -1 -1</clus>
<clus scale="   90.807">  7  8 -1 -1</clus>
<clus scale="  343.525">  1  5  2 -1</clus>
<clus scale="  413.590">  2 10  1 -1</clus>
<clus scale="   28.512">  2  5  1 -1</clus>
</clustering>
</event>
<event>
10    4  0.7697601E-005  0.1863990E+03  0.7546771E-02  0.1163034E+00
          2   -1    0    0  503    0 -0.00000000000E+00  0.00000000000E+00  0.70515027388E+03  0.70515027388E+03  0.00000000000E+00 0. -1.
         21   -1    0    0  501  502  0.00000000000E+00 -0.00000000000E+00 -0.59403705039E+03  0.59403705039E+03  0.00000000000E+00 0. -1.
         23    2    1    2    0    0  0.69276153894E+02  0.10595325194E+03  0.22732543959E+03  0.27558314400E+03  0.90796127010E+02 0.  0.
         24    2    1    2    0    0 -0.49444376784E+02 -0.20961478682E+03  0.38887825226E+03  0.45149248501E+03  0.78968751359E+02 0.  0.
        -11    1    4    4    0    0 -0.32708424445E+02 -0.12598323395E+03  0.15416518323E+03  0.20176352491E+03  0.00000000000E+00 0.  1.
         12    1    4    4    0    0 -0.16735952339E+02 -0.83631552869E+02  0.23471306903E+03  0.24972896010E+03  0.00000000000E+00 0. -1.
        -11    1    3    3    0    0  0.44086685997E+02  0.11911795016E+03  0.17829842663E+03  0.21891334100E+03  0.00000000000E+00 0.  1.
         11    1    3    3    0    0  0.25189467897E+02 -0.13164698217E+02  0.49027012960E+02  0.56669802998E+02  0.00000000000E+00 0. -1.
         21    1    1    2  503  502  0.54916076807E+02  0.94921659298E+01 -0.42270668935E+03  0.42636465839E+03  0.00000000000E+00 0. -1.
          1    1    1    2  501    0 -0.74747853916E+02  0.94169368945E+02 -0.82383779002E+02  0.14574703687E+03  0.00000000000E+00 0. -1.
<scales pt_clust_5="13000.00000" pt_clust_6="13000.00000" pt_clust_7="13000.00000" pt_clust_8="13000.00000" pt_clust_9="55.73039" pt_clust_10="107.42431"></scales>
<clustering>
<clus scale="   55.730">  2  9  1 -1</clus>
<clus scale="   78.969">  5  6 -1 -1</clus>
<clus scale="   90.796">  7  8 -1 -1</clus>
<clus scale="  107.424">  2 10  1 -1</clus>
<clus scale="  180.933">  2  5  1 -1</clus>
<clus scale="   55.730">  2  5  1 -1</clus>
</clustering>
</event>
<event>
10    4  0.7697601E-005  0.4024649E+03  0.7546771E-02  0.1090789E+00
         21   -1    0    0  501  502  0.00000000000E+00  0.00000000000E+00  0.44352322391E+03  0.44352322391E+03  0.00000000000E+00 0.  1.
          2   -1    0    0  503    0 -0.00000000000E+00 -0.00000000000E+00 -0.13747133118E+04  0.13747133118E+04  0.00000000000E+00 0. -1.
         23    2    1    2    0    0 -0.47553279037E+02  0.22046747056E+02 -0.49855843459E+02  0.11826429237E+03  0.93559950400E+02 0.  0.
         24    2    1    2    0    0 -0.21663854705E+03 -0.28138809804E+03  0.98637626045E+02  0.37739422169E+03  0.81151065976E+02 0.  0.
        -13    1    4    4    0    0 -0.20689632777E+03 -0.28273013285E+03  0.84877427098E+02  0.36048106205E+03  0.00000000000E+00 0.  1.
         14    1    4    4    0    0 -0.97422192864E+01  0.13420348136E+01  0.13760198947E+02  0.16913159644E+02  0.00000000000E+00 0. -1.
        -11    1    3    3    0    0 -0.23568056475E+02  0.61863912669E+01 -0.75747636543E+02  0.79570278149E+02  0.00000000000E+00 0.  1.
         11    1    3    3    0    0 -0.23985222562E+02  0.15860355790E+02  0.25891793084E+02  0.38694014217E+02  0.00000000000E+00 0. -1.
         21    1    1    2  503  502 -0.78631071468E+02 -0.25678664158E+03 -0.30010303330E+03  0.40272081557E+03  0.00000000000E+00 0.  1.
          1    1    1    2  501    0  0.34282289756E+03  0.51612799257E+03 -0.67986883716E+03  0.91985720606E+03  0.00000000000E+00 0. -1.
<scales pt_clust_5="13000.00000" pt_clust_6="13000.00000" pt_clust_7="13000.00000" pt_clust_8="13000.00000" pt_clust_9="266.98164" pt_clust_10="394.19878"></scales>
<clustering>
<clus scale="   81.151">  5  6 -1 -1</clus>
<clus scale="   93.560">  7  8 -1 -1</clus>
<clus scale="  107.242">  2  7  1 -1</clus>
<clus scale="  266.982">  2  9  1 -1</clus>
<clus scale="  394.199">  1 10  2 -1</clus>
<clus scale="  394.199">  1  5  2 -1</clus>
</clustering>
</event>
<event>
10    4  0.7697601E-005  0.1773523E+03  0.7546771E-02  0.1199472E+00
          2   -1    0    0  503    0 -0.00000000000E+00  0.00000000000E+00  0.56696466256E+03  0.56696466256E+03  0.00000000000E+00 0. -1.
         21   -1    0    0  501  502  0.00000000000E+00 -0.00000000000E+00 -0.12097378580E+03  0.12097378580E+03  0.00000000000E+00 0. -1.
         23    2    1    2    0    0 -0.29022041517E+02 -0.16751047179E+03  0.35069926692E+03  0.40337543586E+03  0.10401792820E+03 0.  0.
         24    2    1    2    0    0 -0.25344989114E+02  0.30535764516E+02  0.64648772755E+02  0.11117487813E+03  0.81274770510E+02 0.  0.
        -11    1    4    4    0    0 -0.16269527340E+02  0.52823116392E+02  0.67160397538E+02  0.86979872055E+02  0.00000000000E+00 0.  1.
         12    1    4    4    0    0 -0.90754617747E+01 -0.22287351876E+02 -0.25116247836E+01  0.24195006078E+02  0.00000000000E+00 0. -1.
        -11    1    3    3    0    0 -0.37489675414E+02 -0.27404362382E+02  0.35883013303E+02  0.58686160923E+02  0.00000000000E+00 0.  1.
         11    1    3    3    0    0  0.84676338976E+01 -0.14010610941E+03  0.31481625362E+03  0.34468927494E+03  0.00000000000E+00 0. -1.
         21    1    1    2  503  502  0.13301940704E+02  0.86803807530E+02 -0.21241210981E+02  0.90349497354E+02  0.00000000000E+00 0.  1.
          1    1    1    2  501    0  0.41065089927E+02  0.50170899744E+02  0.51884048074E+02  0.83038637009E+02  0.00000000000E+00 0. -1.
<scales pt_clust_5="13000.00000" pt_clust_6="13000.00000" pt_clust_7="13000.00000" pt_clust_8="13000.00000" pt_clust_9="143.64582" pt_clust_10="64.83410"></scales>
<clustering>
<clus scale="   64.834">  2 10  1 -1</clus>
<clus scale="   81.275">  5  6 -1 -1</clus>
<clus scale="   92.747">  2  5  1 -1</clus>
<clus scale="  104.018">  7  8 -1 -1</clus>
<clus scale="  143.646">  2  9  1 -1</clus>
<clus scale="   64.834">  2  5  1 -1</clus>
</clustering>
</event>
<event>
10    4  0.7697601E-005  0.1750360E+03  0.7546771E-02  0.1201685E+00
          2   -1    0    0  503    0 -0.00000000000E+00  0.00000000000E+00  0.84886754686E+03  0.84886754686E+03  0.00000000000E+00 0. -1.
         21   -1    0    0  501  502  0.00000000000E+00 -0.00000000000E+00 -0.12679460697E+03  0.12679460697E+03  0.00000000000E+00 0.  1.
         23    2    1    2    0    0 -0.13850659234E+03 -0.76009211143E+02  0.13111014985E+03  0.22373536168E+03  0.88916614719E+02 0.  0.
         24    2    1    2    0    0 -0.40020166591E+02 -0.48721545906E+02  0.13963867536E-01  0.10234821290E+03  0.80621050100E+02 0.  0.
        -13    1    4    4    0    0 -0.31372135366E+02 -0.49790854756E+02 -0.33502016759E+02  0.67717983000E+02  0.00000000000E+00 0.  1.
         14    1    4    4    0    0 -0.86480312246E+01  0.10693088499E+01  0.33515980626E+02  0.34630229899E+02  0.00000000000E+00 0. -1.
        -13    1    3    3    0    0 -0.50041640491E+02  0.13974213799E+02  0.58127638859E+02  0.77963240272E+02  0.00000000000E+00 0.  1.
         13    1    3    3    0    0 -0.88464951847E+02 -0.89983424942E+02  0.72982510995E+02  0.14577212141E+03  0.00000000000E+00 0. -1.
         21    1    1    2  503  502  0.99239085157E+02  0.11262265595E+03  0.19767387495E+03  0.24820801658E+03  0.00000000000E+00 0. -1.
          1    1    1    2  501    0  0.79287673772E+02  0.12108101099E+02  0.39327495122E+03  0.40137056268E+03  0.00000000000E+00 0. -1.
<scales pt_clust_5="13000.00000" pt_clust_6="13000.00000" pt_clust_7="13000.00000" pt_clust_8="13000.00000" pt_clust_9="150.76945" pt_clust_10="80.20691"></scales>
<clustering>
<clus scale="   80.207">  2 10  1 -1</clus>
<clus scale="   80.621">  5  6 -1 -1</clus>
<clus scale="   88.917">  7  8 -1 -1</clus>
<clus scale="   91.955">  2  5  1 -1</clus>
<clus scale="  150.769">  1  9  2 -1</clus>
<clus scale="   80.207">  2  5  1 -1</clus>
</clustering>
</event>
<event>
10    4  0.7697601E-005  0.1211325E+03  0.7546771E-02  0.1252982E+00
         21   -1    0    0  501  502  0.00000000000E+00  0.00000000000E+00  0.17353712561E+03  0.17353712561E+03  0.00000000000E+00 0. -1.
          2   -1    0    0  503    0 -0.00000000000E+00 -0.00000000000E+00 -0.22821764529E+03  0.22821764529E+03  0.00000000000E+00 0. -1.
         24    2    1    2    0    0  0.42279461613E+02 -0.28863079511E+02 -0.55839231045E+02  0.10976584233E+03  0.79434817212E+02 0.  0.
         23    2    1    2    0    0  0.50374990268E+01 -0.49522666617E+02  0.48724880624E+02  0.11371646591E+03  0.89885759278E+02 0.  0.
        -11    1    3    3    0    0 -0.22208976002E+02 -0.10396188074E+02 -0.36871446585E+01  0.24797467155E+02  0.00000000000E+00 0.  1.
         12    1    3    3    0    0  0.64488437616E+02 -0.18466891436E+02 -0.52152086387E+02  0.84968375175E+02  0.00000000000E+00 0. -1.
        -13    1    4    4    0    0 -0.26703298521E+02 -0.44147066809E+02  0.60432033287E+02  0.79461061577E+02  0.00000000000E+00 0. -1.
         13    1    4    4    0    0  0.31740797548E+02 -0.53755998079E+01 -0.11707152663E+02  0.34255404329E+02  0.00000000000E+00 0.  1.
         21    1    1    2  503  502 -0.11320702554E+02 -0.33182636251E+02  0.22537034170E+02  0.41679294188E+02  0.00000000000E+00 0.  1.
          1    1    1    2  501    0 -0.35996258086E+02  0.11156838238E+03 -0.70103203437E+02  0.13659316848E+03  0.00000000000E+00 0. -1.
<scales pt_clust_5="13000.00000" pt_clust_6="13000.00000" pt_clust_7="13000.00000" pt_clust_8="13000.00000" pt_clust_9="35.06060" pt_clust_10="81.20127"></scales>
<clustering>
<clus scale="   35.061">  1  9  2 -1</clus>
<clus scale="   79.435">  5  6 -1 -1</clus>
<clus scale="   89.886">  7  8 -1 -1</clus>
<clus scale="   95.697">  2  5  1 -1</clus>
<clus scale="   81.201">  1 10  2 -1</clus>
<clus scale="   35.061">  1  5  2 -1</clus>
</clustering>
</event>
<event>
10    4  0.7697601E-005  0.3281616E+03  0.7546771E-02  0.1103543E+00
         21   -1    0    0  501  502  0.00000000000E+00  0.00000000000E+00  0.11270376578E+03  0.11270376578E+03  0.00000000000E+00 0. -1.
          2   -1    0    0  503    0 -0.00000000000E+00 -0.00000000000E+00 -0.27113246300E+04  0.27113246300E+04  0.00000000000E+00 0. -1.
         23    2    1    2    0    0 -0.43762728298E+02 -0.11160743417E+03 -0.41098020055E+03  0.43743704394E+03  0.89861262073E+02 0.  0.
         24    2    1    2    0    0  0.20097140617E+03  0.32514226324E+03 -0.16091917104E+04  0.16559103895E+04  0.80213838299E+02 0.  0.
        -13    1    4    4    0    0  0.46981603997E+02  0.66429778523E+02 -0.22247531314E+03  0.23688700164E+03  0.00000000000E+00 0.  1.
         14    1    4    4    0    0  0.15398980217E+03  0.25871248472E+03 -0.13867163972E+04  0.14190233879E+04  0.00000000000E+00 0. -1.
        -11    1    3    3    0    0 -0.33880627712E+02  0.36403937845E+01 -0.99436266002E+02  0.10511289358E+03  0.00000000000E+00 0.  1.
         11    1    3    3    0    0 -0.98821005862E+01 -0.11524782795E+03 -0.31154393454E+03  0.33232415036E+03  0.00000000000E+00 0. -1.
         21    1    1    2  503  502  0.37150562224E+02  0.51346757993E+02  0.23261783559E+01  0.63419751937E+02  0.00000000000E+00 0. -1.
          1    1    1    2  501    0 -0.19435924009E+03 -0.26488158707E+03 -0.58077513167E+03  0.66726121043E+03  0.00000000000E+00 0. -1.
<scales pt_clust_5="13000.00000" pt_clust_6="13000.00000" pt_clust_7="13000.00000" pt_clust_8="13000.00000" pt_clust_9="63.37708" pt_clust_10="318.20710"></scales>
<clustering>
<clus scale="   63.377">  1  9  2 -1</clus>
<clus scale="   80.214">  5  6 -1 -1</clus>
<clus scale="   89.861">  7  8 -1 -1</clus>
<clus scale="  141.841">  2  7  1 -1</clus>
<clus scale="  318.207">  1 10  2 -1</clus>
<clus scale="   63.377">  1  5  2 -1</clus>
</clustering>
</event>
<event>
10    4  0.7697601E-005  0.1004841E+03  0.7546771E-02  0.1286920E+00
         21   -1    0    0  501  502  0.00000000000E+00  0.00000000000E+00  0.88398802811E+02  0.88398802811E+02  0.00000000000E+00 0. -1.
          2   -1    0    0  503    0 -0.00000000000E+00 -0.00000000000E+00 -0.38326255636E+03  0.38326255636E+03  0.00000000000E+00 0. -1.
         24    2    1    2    0    0  0.61878276226E+00 -0.47097257472E+02 -0.19036732959E+03  0.21158465415E+03  0.79434319704E+02 0.  0.
         23    2    1    2    0    0  0.21115374442E+01  0.11284902972E+02 -0.81310858426E+02  0.12485815943E+03  0.94054753483E+02 0.  0.
        -13    1    3    3    0    0 -0.35784744713E+02 -0.35387759634E+02 -0.13683646316E+03  0.14579800800E+03  0.00000000000E+00 0.  1.
         14    1    3    3    0    0  0.36403527475E+02 -0.11709497837E+02 -0.53530866421E+02  0.65786646152E+02  0.00000000000E+00 0. -1.
        -13    1    4    4    0    0 -0.14411666614E+02  0.45414474107E+02 -0.17748762202E+02  0.50844755410E+02  0.00000000000E+00 0.  1.
         13    1    4    4    0    0  0.16523204058E+02 -0.34129571135E+02 -0.63562096224E+02  0.74013404020E+02  0.00000000000E+00 0. -1.
         21    1    1    2  503  502  0.21119137584E+02 -0.32060002048E+02  0.27492885540E+02  0.47219915914E+02  0.00000000000E+00 0. -1.
          1    1    1    2  501    0 -0.23849457791E+02  0.67872356548E+02 -0.50678451073E+02  0.87998629668E+02  0.00000000000E+00 0. -1.
<scales pt_clust_5="13000.00000" pt_clust_6="13000.00000" pt_clust_7="13000.00000" pt_clust_8="13000.00000" pt_clust_9="38.39091" pt_clust_10="58.42231"></scales>
<clustering>
<clus scale="   38.391">  1  9  2 -1</clus>
<clus scale="   58.422">  1 10  2 -1</clus>
<clus scale="   79.434">  5  6 -1 -1</clus>
<clus scale="   86.951">  2  5  1 -1</clus>
<clus scale="   94.055">  7  8 -1 -1</clus>
<clus scale="   38.391">  1  5  2 -1</clus>
</clustering>
</event>
<event>
10    4  0.1050175E-004  0.5319634E+03  0.7546771E-02  0.1060359E+00
         21   -1    0    0  503  502  0.00000000000E+00  0.00000000000E+00  0.54566091707E+03  0.54566091707E+03  0.00000000000E+00 0.  1.
          2   -1    0    0  502    0 -0.00000000000E+00 -0.00000000000E+00 -0.11124514733E+04  0.11124514733E+04  0.00000000000E+00 0. -1.
         24    2    1    2    0    0 -0.15283807553E+02 -0.64080593049E+02 -0.54410875450E+01  0.10396553306E+03  0.80245307970E+02 0.  0.
         23    2    1    2    0    0 -0.27161425755E+03  0.47968387431E+03  0.15380454968E+03  0.57965014674E+03  0.92019177020E+02 0.  0.
        -13    1    3    3    0    0 -0.14723331597E+02 -0.83149862374E+02 -0.13490706901E+01  0.84454106460E+02  0.00000000000E+00 0.  1.
         14    1    3    3    0    0 -0.56047595600E+00  0.19069269325E+02 -0.40920168549E+01  0.19511426597E+02  0.00000000000E+00 0. -1.
        -13    1    4    4    0    0 -0.26386740975E+03  0.43264653194E+03  0.16036069822E+03  0.53153041782E+03  0.00000000000E+00 0.  1.
         13    1    4    4    0    0 -0.77468477934E+01  0.47037342369E+02 -0.65561485464E+01  0.48119728923E+02  0.00000000000E+00 0. -1.
         21    1    1    2  503  501 -0.11064553974E+02 -0.34128688540E+02  0.54519412092E+02  0.65265289633E+02  0.00000000000E+00 0.  1.
          1    1    1    2  501    0  0.29796261908E+03 -0.38147459272E+03 -0.76967343049E+03  0.90923142096E+03  0.00000000000E+00 0. -1.
<scales pt_clust_5="13000.00000" pt_clust_6="13000.00000" pt_clust_7="13000.00000" pt_clust_8="13000.00000" pt_clust_9="35.87745" pt_clust_10="523.94442"></scales>
<clustering>
<clus scale="   35.877">  1  9  2 -1</clus>
<clus scale="   80.245">  5  6 -1 -1</clus>
<clus scale="   92.019">  7  8 -1 -1</clus>
<clus scale="  106.162">  2  5  1 -1</clus>
<clus scale="  523.944">  1 10  2 -1</clus>
<clus scale="   35.877">  1  5  2 -1</clus>
</clustering>
</event>
<event>
10    4  0.7697601E-005  0.1149862E+03  0.7546771E-02  0.1255648E+00
         21   -1    0    0  501  502  0.00000000000E+00  0.00000000000E+00  0.19032461326E+03  0.19032461326E+03  0.00000000000E+00 0.  1.
          2   -1    0    0  503    0 -0.00000000000E+00 -0.00000000000E+00 -0.63935819483E+03  0.63935819483E+03  0.00000000000E+00 0. -1.
         23    2    1    2    0    0  0.27954753300E+02 -0.42336831858E+02 -0.17248127569E+03  0.20168445407E+03  0.91394491004E+02 0.  0.
         24    2    1    2    0    0  0.25499224771E+01  0.11219811791E+03 -0.15974100093E+03  0.21095892308E+03  0.79947233111E+02 0.  0.
        -11    1    4    4    0    0 -0.12384210357E+02  0.11646431783E+03 -0.11728013208E+03  0.16574659989E+03  0.00000000000E+00 0.  1.
         12    1    4    4    0    0  0.14934132834E+02 -0.42661999164E+01 -0.42460868850E+02  0.45212323196E+02  0.00000000000E+00 0. -1.
        -13    1    3    3    0    0 -0.65493729313E+01 -0.45018727361E+02 -0.28682698580E+02  0.53779896772E+02  0.00000000000E+00 0.  1.
         13    1    3    3    0    0  0.34504126232E+02  0.26818955031E+01 -0.14379857711E+03  0.14790455730E+03  0.00000000000E+00 0. -1.
         21    1    1    2  503  502 -0.42246766427E+02  0.14104789831E+02  0.13983226766E+03  0.14675420760E+03  0.00000000000E+00 0.  1.
          1    1    1    2  501    0  0.11742090649E+02 -0.83966075883E+02 -0.25664357261E+03  0.27028522334E+03  0.00000000000E+00 0. -1.
<scales pt_clust_5="13000.00000" pt_clust_6="13000.00000" pt_clust_7="13000.00000" pt_clust_8="13000.00000" pt_clust_9="44.53913" pt_clust_10="82.11276"></scales>
<clustering>
<clus scale="   44.539">  1  9  2 -1</clus>
<clus scale="   79.947">  5  6 -1 -1</clus>
<clus scale="   82.113">  1 10  2 -1</clus>
<clus scale="   91.394">  7  8 -1 -1</clus>
<clus scale="  106.115">  1  5  2 -1</clus>
<clus scale="   44.539">  1  5  2 -1</clus>
</clustering>
</event>
<event>
10    4  0.7697601E-005  0.1010642E+03  0.7546771E-02  0.1284497E+00
          2   -1    0    0  503    0 -0.00000000000E+00  0.00000000000E+00  0.47306855980E+03  0.47306855980E+03  0.00000000000E+00 0. -1.
         21   -1    0    0  501  502  0.00000000000E+00 -0.00000000000E+00 -0.59172312874E+02  0.59172312874E+02  0.00000000000E+00 0. -1.
         24    2    1    2    0    0  0.45074031517E+02  0.26109825770E+02  0.32956690087E+03  0.34225374198E+03  0.76222637241E+02 0.  0.
         23    2    1    2    0    0 -0.78487917826E+01 -0.38327886622E+02  0.82575810270E+02  0.12794748669E+03  0.89560954015E+02 0.  0.
        -13    1    3    3    0    0  0.21412233420E+01  0.42772246105E+02  0.11296870468E+03  0.12081381590E+03  0.00000000000E+00 0.  1.
         14    1    3    3    0    0  0.42932808175E+02 -0.16662420335E+02  0.21659819619E+03  0.22143992608E+03  0.00000000000E+00 0. -1.
        -11    1    4    4    0    0  0.30142121711E+02  0.80204701362E+01  0.52079297315E+02  0.60705260491E+02  0.00000000000E+00 0. -1.
         11    1    4    4    0    0 -0.37990913494E+02 -0.46348356759E+02  0.30496512955E+02  0.67242226203E+02  0.00000000000E+00 0.  1.
         21    1    1    2  503  502 -0.69997825058E+01  0.21620022670E+02  0.15522820133E+02  0.27520542877E+02  0.00000000000E+00 0. -1.
          1    1    1    2  501    0 -0.30225457228E+02 -0.94019618173E+01 -0.13769284353E+02  0.34519101122E+02  0.00000000000E+00 0. -1.
<scales pt_clust_5="13000.00000" pt_clust_6="13000.00000" pt_clust_7="13000.00000" pt_clust_8="13000.00000" pt_clust_9="22.72493" pt_clust_10="33.40639"></scales>
<clustering>
<clus scale="   22.725">  2  9  1 -1</clus>
<clus scale="   33.406">  2 10  1 -1</clus>
<clus scale="   76.223">  5  6 -1 -1</clus>
<clus scale="   89.458">  1  5  2 -1</clus>
<clus scale="   89.561">  7  8 -1 -1</clus>
<clus scale="   22.725">  2  5  1 -1</clus>
</clustering>
</event>
<event>
10    4  0.7697601E-005  0.8489568E+02  0.7546771E-02  0.1317000E+00
         21   -1    0    0  501  502  0.00000000000E+00  0.00000000000E+00  0.16629405145E+03  0.16629405145E+03  0.00000000000E+00 0.  1.
          2   -1    0    0  503    0 -0.00000000000E+00 -0.00000000000E+00 -0.27664147903E+03  0.27664147903E+03  0.00000000000E+00 0. -1.
         23    2    1    2    0    0 -0.81596993582E+01  0.66063720382E+01 -0.15048195638E+03  0.17089012320E+03  0.80301868997E+02 0.  0.
         24    2    1    2    0    0  0.74832909534E+02  0.63756159352E+01 -0.22259654241E+02  0.11363108262E+03  0.82315963835E+02 0.  0.
        -13    1    4    4    0    0  0.36109424006E+02 -0.17778281978E+02  0.25439988390E+02  0.47614607228E+02  0.00000000000E+00 0.  1.
         14    1    4    4    0    0  0.38723485528E+02  0.24153897913E+02 -0.47699642631E+02  0.66016475390E+02  0.00000000000E+00 0. -1.
        -13    1    3    3    0    0 -0.28521292696E+02  0.32530241610E+02 -0.55624942521E+02  0.70468538985E+02  0.00000000000E+00 0.  1.
         13    1    3    3    0    0  0.20361593337E+02 -0.25923869572E+02 -0.94857013860E+02  0.10042158421E+03  0.00000000000E+00 0. -1.
         21    1    1    2  503  502 -0.20593177834E+02 -0.66932868869E+02  0.11193423223E+02  0.70918126256E+02  0.00000000000E+00 0.  1.
          1    1    1    2  501    0 -0.46080032342E+02  0.53950880895E+02  0.51200759826E+02  0.87496198413E+02  0.00000000000E+00 0. -1.
<scales pt_clust_5="13000.00000" pt_clust_6="13000.00000" pt_clust_7="13000.00000" pt_clust_8="13000.00000" pt_clust_9="70.02919" pt_clust_10="59.91257"></scales>
<clustering>
<clus scale="   70.029">  1  9  2 -1</clus>
<clus scale="   59.913">  1 10  2 -1</clus>
<clus scale="   80.302">  7  8 -1 -1</clus>
<clus scale="   82.316">  5  6 -1 -1</clus>
<clus scale="   82.944">  2  7  1 -1</clus>
<clus scale="   70.029">  1  5  2 -1</clus>
</clustering>
</event>
<event>
10    4  0.7697601E-005  0.1365009E+03  0.7546771E-02  0.1220289E+00
          2   -1    0    0  503    0 -0.00000000000E+00  0.00000000000E+00  0.20084005430E+03  0.20084005430E+03  0.00000000000E+00 0. -1.
         21   -1    0    0  501  502  0.00000000000E+00 -0.00000000000E+00 -0.25332468997E+03  0.25332468997E+03  0.00000000000E+00 0. -1.
         24    2    1    2    0    0 -0.99614120019E+02  0.75761605801E+02  0.47522835477E+02  0.15724273056E+03  0.82486741969E+02 0.  0.
         23    2    1    2    0    0  0.90044720361E+02  0.29340955651E+02 -0.22420541184E+02  0.13379992116E+03  0.91819360113E+02 0.  0.
        -13    1    3    3    0    0 -0.72947371897E+01  0.31821278039E+02  0.44195213167E+02  0.54945643991E+02  0.00000000000E+00 0.  1.
         14    1    3    3    0    0 -0.92319382830E+02  0.43940327762E+02  0.33276223104E+01  0.10229708657E+03  0.00000000000E+00 0. -1.
        -11    1    4    4    0    0  0.51402188346E+02 -0.26523396135E+02 -0.30506148389E+02  0.65393429325E+02  0.00000000000E+00 0.  1.
         11    1    4    4    0    0  0.38642532015E+02  0.55864351786E+02  0.80856072050E+01  0.68406491833E+02  0.00000000000E+00 0. -1.
         21    1    1    2  503  502  0.28995973100E+02 -0.51504211121E+01 -0.49328992099E+02  0.57451220659E+02  0.00000000000E+00 0. -1.
          1    1    1    2  501    0 -0.19426573441E+02 -0.99952140340E+02 -0.28257937866E+02  0.10567087189E+03  0.00000000000E+00 0. -1.
<scales pt_clust_5="13000.00000" pt_clust_6="13000.00000" pt_clust_7="13000.00000" pt_clust_8="13000.00000" pt_clust_9="29.44984" pt_clust_10="102.14024"></scales>
<clustering>
<clus scale="   29.450">  2  9  1 -1</clus>
<clus scale="   82.487">  5  6 -1 -1</clus>
<clus scale="   91.819">  7  8 -1 -1</clus>
<clus scale="  102.140">  2 10  1 -1</clus>
<clus scale="  130.406">  1  5  2 -1</clus>
<clus scale="   29.450">  2  5  1 -1</clus>
</clustering>
</event>
<event>
10    4  0.7697601E-005  0.3398063E+03  0.7546771E-02  0.1083244E+00
          2   -1    0    0  503    0 -0.00000000000E+00  0.00000000000E+00  0.59423174452E+03  0.59423174452E+03  0.00000000000E+00 0. -1.
         21   -1    0    0  501  502  0.00000000000E+00 -0.00000000000E+00 -0.60125253599E+03  0.60125253599E+03  0.00000000000E+00 0. -1.
         23    2    1    2    0    0 -0.19796426259E+03 -0.40112854226E+01 -0.57502558973E+01  0.22015334617E+03  0.96065033767E+02 0.  0.
         24    2    1    2    0    0 -0.13378805916E+03 -0.19663523839E+03  0.29819713077E+03  0.39149629389E+03  0.88222205713E+02 0.  0.
        -13    1    4    4    0    0 -0.67716744885E+02 -0.35947246506E+02  0.12167852136E+03  0.14381733077E+03  0.00000000000E+00 0.  1.
         14    1    4    4    0    0 -0.66071314273E+02 -0.16068799188E+03  0.17651860941E+03  0.24767896312E+03  0.00000000000E+00 0. -1.
        -11    1    3    3    0    0 -0.14650058447E+03 -0.34486280740E+02 -0.33549007534E+02  0.15419877015E+03  0.00000000000E+00 0. -1.
         11    1    3    3    0    0 -0.51463678124E+02  0.30474995317E+02  0.27798751637E+02  0.65954576022E+02  0.00000000000E+00 0.  1.
         21    1    1    2  503  502  0.91033798438E+01  0.28724229683E+02 -0.20368380052E+03  0.20590056699E+03  0.00000000000E+00 0. -1.
          1    1    1    2  501    0  0.32264894191E+03  0.17192229413E+03 -0.95783865818E+02  0.37793407346E+03  0.00000000000E+00 0. -1.
<scales pt_clust_5="13000.00000" pt_clust_6="13000.00000" pt_clust_7="13000.00000" pt_clust_8="13000.00000" pt_clust_9="30.13226" pt_clust_10="328.15418"></scales>
<clustering>
<clus scale="   30.132">  2  9  1 -1</clus>
<clus scale="   88.222">  5  6 -1 -1</clus>
<clus scale="   96.065">  7  8 -1 -1</clus>
<clus scale="  217.751">  1  7  2 -1</clus>
<clus scale="  328.154">  2 10  1 -1</clus>
<clus scale="   30.132">  2  5  1 -1</clus>
</clustering>
</event>
<event>
10    4  0.7697601E-005  0.1345065E+03  0.7546771E-02  0.1240147E+00
         21   -1    0    0  503  502  0.00000000000E+00  0.00000000000E+00  0.56232247686E+03  0.56232247686E+03  0.00000000000E+00 0. -1.
          2   -1    0    0  502    0 -0.00000000000E+00 -0.00000000000E+00 -0.14456163826E+03  0.14456163826E+03  0.00000000000E+00 0. -1.
         24    2    1    2    0    0 -0.19394323193E+02  0.20847690532E+02 -0.78166915528E+02  0.11901470010E+03  0.85109730262E+02 0.  0.
         23    2    1    2    0    0 -0.32039487440E+01  0.64588148760E+02  0.10656628550E+03  0.15584530745E+03  0.93538721404E+02 0.  0.
        -11    1    3    3    0    0  0.30784234634E+02  0.77317922327E+01 -0.52003808326E+02  0.60924919314E+02  0.00000000000E+00 0.  1.
         12    1    3    3    0    0 -0.50178557827E+02  0.13115898299E+02 -0.26163107202E+02  0.58089780790E+02  0.00000000000E+00 0. -1.
        -13    1    4    4    0    0 -0.46813995757E+02  0.23194413413E+02  0.37716645193E+02  0.64436607118E+02  0.00000000000E+00 0.  1.
         13    1    4    4    0    0  0.43610047013E+02  0.41393735347E+02  0.68849640305E+02  0.91408700333E+02  0.00000000000E+00 0. -1.
         21    1    1    2  503  501 -0.16208539692E+02  0.39845796093E+02  0.17924174167E+03  0.18433124038E+03  0.00000000000E+00 0. -1.
          1    1    1    2  501    0  0.38806811629E+02 -0.12528163539E+03  0.21011972696E+03  0.24769286718E+03  0.00000000000E+00 0. -1.
<scales pt_clust_5="13000.00000" pt_clust_6="13000.00000" pt_clust_7="13000.00000" pt_clust_8="13000.00000" pt_clust_9="43.01633" pt_clust_10="96.65669"></scales>
<clustering>
<clus scale="   43.016">  1  9  2 -1</clus>
<clus scale="   85.110">  5  6 -1 -1</clus>
<clus scale="   90.458">  2  5  1 -1</clus>
<clus scale="   93.539">  7  8 -1 -1</clus>
<clus scale="   96.657">  1 10  2 -1</clus>
<clus scale="   43.016">  1  5  2 -1</clus>
</clustering>
</event>
<event>
10    4  0.7697601E-005  0.1471729E+03  0.7546771E-02  0.1231509E+00
          2   -1    0    0  502    0 -0.00000000000E+00  0.00000000000E+00  0.49448756741E+03  0.49448756741E+03  0.00000000000E+00 0. -1.
         21   -1    0    0  503  502  0.00000000000E+00 -0.00000000000E+00 -0.30913618994E+03  0.30913618994E+03  0.00000000000E+00 0. -1.
         24    2    1    2    0    0  0.24221865280E+02 -0.90688139725E+00  0.29334575392E+03  0.30486898456E+03  0.79409352146E+02 0.  0.
         23    2    1    2    0    0 -0.32962844382E+02  0.13234286149E+03  0.40268964044E+02  0.16904122961E+03  0.91390184084E+02 0.  0.
        -11    1    3    3    0    0  0.38995432415E+01 -0.38836826191E+02  0.16281362591E+03  0.16742694612E+03  0.00000000000E+00 0.  1.
         12    1    3    3    0    0  0.20322322038E+02  0.37929944794E+02  0.13053212802E+03  0.13744203844E+03  0.00000000000E+00 0. -1.
        -13    1    4    4    0    0 -0.13406242651E+02  0.11731921599E+03 -0.42378695642E+01  0.11815872935E+03  0.00000000000E+00 0. -1.
         13    1    4    4    0    0 -0.19556601731E+02  0.15023645498E+02  0.44506833609E+02  0.50882500265E+02  0.00000000000E+00 0.  1.
         21    1    1    2  503  501 -0.43648087032E+02 -0.42074740495E+02 -0.20348729703E+03  0.21232644522E+03  0.00000000000E+00 0. -1.
          1    1    1    2  501    0  0.52389066134E+02 -0.89361239595E+02  0.55223956524E+02  0.11738709796E+03  0.00000000000E+00 0. -1.
<scales pt_clust_5="13000.00000" pt_clust_6="13000.00000" pt_clust_7="13000.00000" pt_clust_8="13000.00000" pt_clust_9="60.62540" pt_clust_10="115.35911"></scales>
<clustering>
<clus scale="   60.625">  2  9  1 -1</clus>
<clus scale="   79.409">  5  6 -1 -1</clus>
<clus scale="   82.397">  1  5  2 -1</clus>
<clus scale="   91.390">  7  8 -1 -1</clus>
<clus scale="  115.359">  2 10  1 -1</clus>
<clus scale="   60.625">  2  5  1 -1</clus>
</clustering>
</event>
<event>
10    4  0.7697601E-005  0.1459641E+03  0.7546771E-02  0.1208123E+00
         21   -1    0    0  501  502  0.00000000000E+00  0.00000000000E+00  0.26168734638E+03  0.26168734638E+03  0.00000000000E+00 0. -1.
          2   -1    0    0  503    0 -0.00000000000E+00 -0.00000000000E+00 -0.31679294189E+03  0.31679294189E+03  0.00000000000E+00 0. -1.
         24    2    1    2    0    0  0.40739715684E+02 -0.11241541816E+03 -0.68218676713E+02  0.15899882227E+03  0.79560586697E+02 0.  0.
         23    2    1    2    0    0  0.64053472439E+02  0.11251495147E+03 -0.74203231264E+02  0.17564088484E+03  0.92634438846E+02 0.  0.
        -13    1    3    3    0    0 -0.21374003181E+02 -0.10090287920E+02 -0.76339177170E+01  0.24838249174E+02  0.00000000000E+00 0.  1.
         14    1    3    3    0    0  0.62113718865E+02 -0.10232513025E+03 -0.60584758996E+02  0.13416057310E+03  0.00000000000E+00 0. -1.
        -11    1    4    4    0    0  0.78912056413E+02  0.65574839968E+02 -0.73829166574E+02  0.12640378998E+03  0.00000000000E+00 0. -1.
         11    1    4    4    0    0 -0.14858583973E+02  0.46940111505E+02 -0.37406468963E+00  0.49237094859E+02  0.00000000000E+00 0.  1.
         21    1    1    2  503  502 -0.27977679930E+02  0.70860618808E+01  0.14478793651E+03  0.14763640949E+03  0.00000000000E+00 0. -1.
          1    1    1    2  501    0 -0.76815508193E+02 -0.71855951886E+01 -0.57471624045E+02  0.96204171675E+02  0.00000000000E+00 0. -1.
<scales pt_clust_5="13000.00000" pt_clust_6="13000.00000" pt_clust_7="13000.00000" pt_clust_8="13000.00000" pt_clust_9="28.86110" pt_clust_10="81.72800"></scales>
<clustering>
<clus scale="   28.861">  1  9  2 -1</clus>
<clus scale="   79.561">  5  6 -1 -1</clus>
<clus scale="   81.728">  1 10  2 -1</clus>
<clus scale="   92.634">  7  8 -1 -1</clus>
<clus scale="  138.037">  2  5  1 -1</clus>
<clus scale="   28.861">  1  5  2 -1</clus>
</clustering>
</event>
<event>
10    4  0.7697601E-005  0.5011738E+03  0.7546771E-02  0.1071914E+00
          2   -1    0    0  503    0 -0.00000000000E+00  0.00000000000E+00  0.18065508804E+04  0.18065508804E+04  0.00000000000E+00 0. -1.
         21   -1    0    0  501  502  0.00000000000E+00 -0.00000000000E+00 -0.74549060065E+03  0.74549060065E+03  0.00000000000E+00 0. -1.
         23    2    1    2    0    0  0.78099881157E+01  0.14105285067E+02 -0.26083564016E+01  0.92263032241E+02  0.90805884248E+02 0.  0.
         24    2    1    2    0    0  0.49041920785E+03  0.66531158482E+02  0.15653860784E+04  0.16437363217E+04  0.80610955909E+02 0.  0.
        -11    1    4    4    0    0  0.11987507174E+03  0.27651266870E+02  0.28928180345E+03  0.31435423839E+03  0.00000000000E+00 0.  1.
         12    1    4    4    0    0  0.37054413611E+03  0.38879891611E+02  0.12761042750E+04  0.13293820833E+04  0.00000000000E+00 0. -1.
        -11    1    3    3    0    0  0.14245763283E+02  0.49127204472E+02 -0.16933744008E+02  0.53881125424E+02  0.00000000000E+00 0.  1.
         11    1    3    3    0    0 -0.64357751677E+01 -0.35021919406E+02  0.14325387607E+02  0.38381906817E+02  0.00000000000E+00 0. -1.
         21    1    1    2  503  502 -0.61438238730E+02 -0.11089974526E+03  0.26944416709E+02  0.12961254672E+03  0.00000000000E+00 0. -1.
          1    1    1    2  501    0 -0.43679095723E+03  0.30263301710E+02 -0.52866185897E+03  0.68642958042E+03  0.00000000000E+00 0. -1.
<scales pt_clust_5="13000.00000" pt_clust_6="13000.00000" pt_clust_7="13000.00000" pt_clust_8="13000.00000" pt_clust_9="126.06456" pt_clust_10="494.64841"></scales>
<clustering>
<clus scale="   80.611">  5  6 -1 -1</clus>
<clus scale="   90.806">  7  8 -1 -1</clus>
<clus scale="   92.226">  1  7  2 -1</clus>
<clus scale="  126.065">  2  9  1 -1</clus>
<clus scale="  494.648">  2 10  1 -1</clus>
<clus scale="  126.065">  2  5  1 -1</clus>
</clustering>
</event>
<event>
10    4  0.7697601E-005  0.2470101E+03  0.7546771E-02  0.1155575E+00
         21   -1    0    0  501  502  0.00000000000E+00  0.00000000000E+00  0.17470665952E+03  0.17470665952E+03  0.00000000000E+00 0. -1.
          2   -1    0    0  503    0 -0.00000000000E+00 -0.00000000000E+00 -0.80284677962E+03  0.80284677962E+03  0.00000000000E+00 0. -1.
         24    2    1    2    0    0 -0.38741632551E+02 -0.24733978542E+01 -0.52049564779E+02  0.10266981413E+03  0.79529250913E+02 0.  0.
         23    2    1    2    0    0 -0.49895228861E+02 -0.19732848462E+03 -0.19550341502E+03  0.29665463604E+03  0.91401986286E+02 0.  0.
        -13    1    3    3    0    0 -0.15712186509E+02 -0.27337839819E+02  0.90463581367E+01  0.32803458452E+02  0.00000000000E+00 0.  1.
         14    1    3    3    0    0 -0.23029446042E+02  0.24864441965E+02 -0.61095922916E+02  0.69866355681E+02  0.00000000000E+00 0. -1.
        -11    1    4    4    0    0 -0.22238619807E+02 -0.12088995655E+03 -0.55729114122E+02  0.13496174260E+03  0.00000000000E+00 0.  1.
         11    1    4    4    0    0 -0.27656609054E+02 -0.76438528065E+02 -0.13977430090E+03  0.16169289344E+03  0.00000000000E+00 0. -1.
         21    1    1    2  503  502 -0.33813032034E+02 -0.28059160981E+02  0.55745775896E+02  0.70980484505E+02  0.00000000000E+00 0. -1.
          1    1    1    2  501    0  0.12244989345E+03  0.22786104345E+03 -0.43633291619E+03  0.50724850446E+03  0.00000000000E+00 0. -1.
<scales pt_clust_5="13000.00000" pt_clust_6="13000.00000" pt_clust_7="13000.00000" pt_clust_8="13000.00000" pt_clust_9="43.93902" pt_clust_10="229.47708"></scales>
<clustering>
<clus scale="   43.939">  1  9  2 -1</clus>
<clus scale="   79.529">  5  6 -1 -1</clus>
<clus scale="   91.402">  7  8 -1 -1</clus>
<clus scale="   92.514">  2  5  1 -1</clus>
<clus scale="  229.477">  1 10  2 -1</clus>
<clus scale="   43.939">  1  5  2 -1</clus>
</clustering>
</event>
<event>
10    4  0.7697601E-005  0.2234609E+03  0.7546771E-02  0.1146876E+00
         21   -1    0    0  503  502  0.00000000000E+00  0.00000000000E+00  0.44976362537E+03  0.44976362537E+03  0.00000000000E+00 0. -1.
          2   -1    0    0  502    0 -0.00000000000E+00 -0.00000000000E+00 -0.57609863439E+03  0.57609863439E+03  0.00000000000E+00 0. -1.
         24    2    1    2    0    0  0.12825430601E+03  0.11548961847E+02 -0.34494513824E+03  0.37701086825E+03  0.81040118775E+02 0.  0.
         23    2    1    2    0    0  0.14814216342E+02 -0.18693493231E+03  0.26507278915E+02  0.20959996131E+03  0.89807449708E+02 0.  0.
        -11    1    3    3    0    0  0.61852493043E+02 -0.15860356583E+01 -0.26562161980E+03  0.27273263705E+03  0.00000000000E+00 0.  1.
         12    1    3    3    0    0  0.66401812966E+02  0.13134997505E+02 -0.79323518439E+02  0.10427823120E+03  0.00000000000E+00 0. -1.
        -13    1    4    4    0    0  0.48921441824E+02 -0.11635754356E+03  0.34371816396E+02  0.13081975071E+03  0.00000000000E+00 0. -1.
         13    1    4    4    0    0 -0.34107225481E+02 -0.70577388750E+02 -0.78645374810E+01  0.78780210602E+02  0.00000000000E+00 0.  1.
         21    1    1    2  503  501  0.26412129758E+02 -0.77681729650E+01  0.18766548892E+03  0.18967414383E+03  0.00000000000E+00 0. -1.
          1    1    1    2  501    0 -0.16948065211E+03  0.18315414343E+03  0.44373613890E+01  0.24957728637E+03  0.00000000000E+00 0. -1.
<scales pt_clust_5="13000.00000" pt_clust_6="13000.00000" pt_clust_7="13000.00000" pt_clust_8="13000.00000" pt_clust_9="27.53080" pt_clust_10="204.62023"></scales>
<clustering>
<clus scale="   27.531">  1  9  2 -1</clus>
<clus scale="   81.040">  5  6 -1 -1</clus>
<clus scale="   89.807">  7  8 -1 -1</clus>
<clus scale="  153.486">  2  5  1 -1</clus>
<clus scale="  204.620">  1 10  2 -1</clus>
<clus scale="   27.531">  1  5  2 -1</clus>
</clustering>
</event>
<event>
10    4  0.7697601E-005  0.2763984E+03  0.7546771E-02  0.1119728E+00
         21   -1    0    0  503  502  0.00000000000E+00  0.00000000000E+00  0.16013580455E+04  0.16013580455E+04  0.00000000000E+00 0.  1.
         -1   -1    0    0    0  501 -0.00000000000E+00 -0.00000000000E+00 -0.12931678975E+03  0.12931678975E+03  0.00000000000E+00 0.  1.
         23    2    1    2    0    0 -0.84385978946E+02 -0.97821206899E+02  0.17865783374E+03  0.23872482553E+03  0.91547467506E+02 0.  0.
         24    2    1    2    0    0  0.17622423365E+03 -0.90660628147E+02  0.66779342082E+03  0.70130133133E+03  0.81247611810E+02 0.  0.
        -13    1    4    4    0    0  0.12034818988E+03 -0.45350795168E+02  0.53535320007E+03  0.55058462588E+03  0.00000000000E+00 0.  1.
         14    1    4    4    0    0  0.55876043766E+02 -0.45309832980E+02  0.13244022074E+03  0.15071670545E+03  0.00000000000E+00 0. -1.
        -11    1    3    3    0    0 -0.35871417489E+02 -0.10159427751E+03  0.10498877099E+03  0.15043536104E+03  0.00000000000E+00 0.  1.
         11    1    3    3    0    0 -0.48514561457E+02  0.37730706095E+01  0.73669062744E+02  0.88289464495E+02  0.00000000000E+00 0. -1.
         21    1    1    2  503  501  0.98262520870E+02 -0.63741513239E+02  0.35806586608E+03  0.37673554116E+03  0.00000000000E+00 0.  1.
         -2    1    1    2    0  502 -0.19010077557E+03  0.25222334829E+03  0.26752413510E+03  0.41391313721E+03  0.00000000000E+00 0.  1.
<scales pt_clust_5="13000.00000" pt_clust_6="13000.00000" pt_clust_7="13000.00000" pt_clust_8="13000.00000" pt_clust_9="117.12602" pt_clust_10="264.18737"></scales>
<clustering>
<clus scale="   81.248">  5  6 -1 -1</clus>
<clus scale="   91.547">  7  8 -1 -1</clus>
<clus scale="  117.126">  1  9  2 -1</clus>
<clus scale="  157.377">  2  7  1 -1</clus>
<clus scale="  264.187">  1 10  2 -1</clus>
<clus scale="  117.126">  1  5  2 -1</clus>
</clustering>
</event>
<event>
10    4  0.7697601E-005  0.1613927E+03  0.7546771E-02  0.1224432E+00
         21   -1    0    0  503  502  0.00000000000E+00  0.00000000000E+00  0.42170986926E+03  0.42170986926E+03  0.00000000000E+00 0. -1.
          2   -1    0    0  502    0 -0.00000000000E+00 -0.00000000000E+00 -0.20439467335E+03  0.20439467335E+03  0.00000000000E+00 0. -1.
         24    2    1    2    0    0  0.10140460592E+02 -0.13527330604E+02 -0.47766703125E+02  0.87032630804E+02  0.70761594689E+02 0.  0.
         23    2    1    2    0    0  0.13665488532E+03  0.13025744197E+02 -0.58577757184E+02  0.17615220841E+03  0.93562915706E+02 0.  0.
        -11    1    3    3    0    0 -0.35126484712E+01 -0.36747099771E+02 -0.60968866773E+01  0.37414703902E+02  0.00000000000E+00 0.  1.
         12    1    3    3    0    0  0.13653109063E+02  0.23219769168E+02 -0.41669816448E+02  0.49617926902E+02  0.00000000000E+00 0. -1.
        -11    1    4    4    0    0  0.34536612335E+02 -0.37301535801E+02 -0.29005685318E+02  0.58527873236E+02  0.00000000000E+00 0.  1.
         11    1    4    4    0    0  0.10211827299E+03  0.50327279998E+02 -0.29572071866E+02  0.11762433517E+03  0.00000000000E+00 0. -1.
         21    1    1    2  503  501 -0.41954759127E+02  0.32332115166E+00  0.18147391999E+03  0.18626081173E+03  0.00000000000E+00 0. -1.
          1    1    1    2  501    0 -0.10484058679E+03  0.17826525548E+00  0.14218573623E+03  0.17665889166E+03  0.00000000000E+00 0. -1.
<scales pt_clust_5="13000.00000" pt_clust_6="13000.00000" pt_clust_7="13000.00000" pt_clust_8="13000.00000" pt_clust_9="41.95600" pt_clust_10="131.50509"></scales>
<clustering>
<clus scale="   41.956">  1  9  2 -1</clus>
<clus scale="   70.762">  5  6 -1 -1</clus>
<clus scale="   72.347">  2  5  1 -1</clus>
<clus scale="   93.563">  7  8 -1 -1</clus>
<clus scale="  131.505">  1 10  2 -1</clus>
<clus scale="   41.956">  1  5  2 -1</clus>
</clustering>
</event>
<event>
10    4  0.8618435E-005  0.2891358E+03  0.7546771E-02  0.1139517E+00
         -3   -1    0    0    0  501 -0.00000000000E+00  0.00000000000E+00  0.19690159459E+04  0.19690159459E+04  0.00000000000E+00 0.  1.
         21   -1    0    0  501  502  0.00000000000E+00 -0.00000000000E+00 -0.22197464685E+03  0.22197464685E+03  0.00000000000E+00 0.  1.
         24    2    1    2    0    0  0.12416207564E+02  0.14510911602E+02  0.35700877246E+03  0.36676325544E+03  0.81824771065E+02 0.  0.
         23    2    1    2    0    0 -0.55343000616E+02 -0.28277748761E+03  0.43016499108E+03  0.52769269207E+03  0.10193970034E+03 0.  0.
        -13    1    3    3    0    0  0.43744481160E+02 -0.17513929773E+01  0.25713911164E+03  0.26083935620E+03  0.00000000000E+00 0.  1.
         14    1    3    3    0    0 -0.31328273596E+02  0.16262304580E+02  0.99869660820E+02  0.10592389923E+03  0.00000000000E+00 0. -1.
        -11    1    4    4    0    0  0.22688522121E+02 -0.17248512005E+02  0.48328565683E+02  0.56106420875E+02  0.00000000000E+00 0. -1.
         11    1    4    4    0    0 -0.78031522738E+02 -0.26552897560E+03  0.38183642539E+03  0.47158627120E+03  0.00000000000E+00 0.  1.
         21    1    1    2  503  502  0.29444196764E+02  0.13401957627E+02 -0.15217745064E+03  0.15557811438E+03  0.00000000000E+00 0.  1.
         -4    1    1    2    0  503  0.13482596288E+02  0.25486461838E+03  0.11120449862E+04  0.11409565309E+04  0.00000000000E+00 0.  1.
<scales pt_clust_5="13000.00000" pt_clust_6="13000.00000" pt_clust_7="13000.00000" pt_clust_8="13000.00000" pt_clust_9="32.35078" pt_clust_10="270.56953"></scales>
<clustering>
<clus scale="   32.351">  2  9  1 -1</clus>
<clus scale="   81.825">  5  6 -1 -1</clus>
<clus scale="   84.532">  1  5  2 -1</clus>
<clus scale="  101.940">  7  8 -1 -1</clus>
<clus scale="  270.570">  2 10  1 -1</clus>
<clus scale="   32.351">  2  5  1 -1</clus>
</clustering>
</event>
<event>
10    4  0.7697601E-005  0.5092715E+03  0.7546771E-02  0.1011387E+00
         -1   -1    0    0    0  501 -0.00000000000E+00  0.00000000000E+00  0.18248630961E+03  0.18248630961E+03  0.00000000000E+00 0.  1.
         21   -1    0    0  503  502  0.00000000000E+00 -0.00000000000E+00 -0.21673160346E+04  0.21673160346E+04  0.00000000000E+00 0. -1.
         24    2    1    2    0    0  0.13506800918E+03  0.32968081085E+02 -0.15449404688E+03  0.22275481855E+03  0.80131374585E+02 0.  0.
         23    2    1    2    0    0  0.17110091245E+03  0.29037625101E+03 -0.23960714239E+03  0.42358489137E+03  0.91753409333E+02 0.  0.
        -13    1    3    3    0    0  0.88929545070E+02  0.47308531690E+01 -0.43132969444E+02  0.98950987924E+02  0.00000000000E+00 0.  1.
         14    1    3    3    0    0  0.46138464111E+02  0.28237227916E+02 -0.11136107744E+03  0.12380383063E+03  0.00000000000E+00 0. -1.
        -13    1    4    4    0    0 -0.76525178721E+01  0.27725015190E+02 -0.63786589455E+01  0.29460563250E+02  0.00000000000E+00 0.  1.
         13    1    4    4    0    0  0.17875343032E+03  0.26265123582E+03 -0.23322848344E+03  0.39412432812E+03  0.00000000000E+00 0. -1.
         21    1    1    2  503  501 -0.12592317508E+03  0.92106966179E+02 -0.43893912789E+03  0.46584106435E+03  0.00000000000E+00 0.  1.
         -2    1    1    2    0  502 -0.18024574654E+03 -0.41545129828E+03 -0.11517894079E+04  0.12376215700E+04  0.00000000000E+00 0.  1.
<scales pt_clust_5="13000.00000" pt_clust_6="13000.00000" pt_clust_7="13000.00000" pt_clust_8="13000.00000" pt_clust_9="156.01391" pt_clust_10="441.82477"></scales>
<clustering>
<clus scale="   80.131">  5  6 -1 -1</clus>
<clus scale="   91.753">  7  8 -1 -1</clus>
<clus scale="  143.958">  5  7 -1 -1</clus>
<clus scale="  156.014">  2  9  1 -1</clus>
<clus scale="  441.825">  2 10  1 -1</clus>
<clus scale="  156.014">  2  5  1 -1</clus>
</clustering>
</event>
<event>
10    4  0.7697601E-005  0.1935720E+03  0.7546771E-02  0.1182288E+00
          2   -1    0    0  502    0 -0.00000000000E+00  0.00000000000E+00  0.10799860905E+03  0.10799860905E+03  0.00000000000E+00 0. -1.
         21   -1    0    0  503  502  0.00000000000E+00 -0.00000000000E+00 -0.63837517239E+03  0.63837517239E+03  0.00000000000E+00 0.  1.
         24    2    1    2    0    0 -0.12701836168E+01 -0.70067136418E+02 -0.18041711656E+03  0.20835292458E+03  0.77133574166E+02 0.  0.
         23    2    1    2    0    0 -0.10840137247E+03  0.18056716417E+03 -0.13322430272E+03  0.26527666930E+03  0.90926553381E+02 0.  0.
        -13    1    3    3    0    0  0.10519781264E+01 -0.34798604218E+02 -0.16693068083E+03  0.17052243758E+03  0.00000000000E+00 0.  1.
         14    1    3    3    0    0 -0.23221617432E+01 -0.35268532200E+02 -0.13486435724E+02  0.37830487008E+02  0.00000000000E+00 0. -1.
        -11    1    4    4    0    0 -0.48129842253E+02  0.14531185042E+03 -0.11930698774E+03  0.19407774965E+03  0.00000000000E+00 0.  1.
         11    1    4    4    0    0 -0.60271530217E+02  0.35255313750E+02 -0.13917314981E+02  0.71198919644E+02  0.00000000000E+00 0. -1.
         21    1    1    2  503  501  0.63792697183E+01 -0.22645341547E+02 -0.65611653715E+02  0.69702192786E+02  0.00000000000E+00 0.  1.
          1    1    1    2  501    0  0.10329228637E+03 -0.87854686201E+02 -0.15112349034E+03  0.20304199478E+03  0.00000000000E+00 0. -1.
<scales pt_clust_5="13000.00000" pt_clust_6="13000.00000" pt_clust_7="13000.00000" pt_clust_8="13000.00000" pt_clust_9="23.47839" pt_clust_10="179.94343"></scales>
<clustering>
<clus scale="   23.478">  9 10 -1 -1</clus>
<clus scale="   77.134">  5  6 -1 -1</clus>
<clus scale="   90.927">  7  8 -1 -1</clus>
<clus scale="  104.214">  1  5  2 -1</clus>
<clus scale="  179.943">  2  9  1 -1</clus>
<clus scale="  179.943">  2  5  1 -1</clus>
</clustering>
</event>
<event>
10    4  0.7697601E-005  0.1162241E+03  0.7546771E-02  0.1251448E+00
         21   -1    0    0  501  502  0.00000000000E+00  0.00000000000E+00  0.45322204099E+03  0.45322204099E+03  0.00000000000E+00 0. -1.
          2   -1    0    0  503    0 -0.00000000000E+00 -0.00000000000E+00 -0.53178606558E+03  0.53178606558E+03  0.00000000000E+00 0. -1.
         23    2    1    2    0    0  0.69124285992E+02  0.18058407694E+02 -0.51942108148E+02  0.12670311303E+03  0.90837345014E+02 0.  0.
         24    2    1    2    0    0 -0.51207042792E+02 -0.10119509587E+03  0.27546778539E+03  0.30978324070E+03  0.84973800491E+02 0.  0.
        -13    1    4    4    0    0 -0.17494168370E+02 -0.44674105745E+02  0.32225993370E+02  0.57795642568E+02  0.00000000000E+00 0.  1.
         14    1    4    4    0    0 -0.33712874422E+02 -0.56520990129E+02  0.24324179202E+03  0.25198759814E+03  0.00000000000E+00 0. -1.
        -13    1    3    3    0    0 -0.21059284882E+02  0.42667632942E+01 -0.21828160656E+02  0.30629517567E+02  0.00000000000E+00 0.  1.
         13    1    3    3    0    0  0.90183570874E+02  0.13791644400E+02 -0.30113947492E+02  0.96073595459E+02  0.00000000000E+00 0. -1.
         21    1    1    2  503  502 -0.17378767557E+02 -0.27446834525E+02  0.11371433410E+03  0.11826368871E+03  0.00000000000E+00 0. -1.
          1    1    1    2  501    0 -0.53847564286E+00  0.11058352271E+03 -0.41580403594E+03  0.43025806413E+03  0.00000000000E+00 0. -1.
<scales pt_clust_5="13000.00000" pt_clust_6="13000.00000" pt_clust_7="13000.00000" pt_clust_8="13000.00000" pt_clust_9="32.48616" pt_clust_10="109.99915"></scales>
<clustering>
<clus scale="   32.486">  1  9  2 -1</clus>
<clus scale="   84.974">  5  6 -1 -1</clus>
<clus scale="   90.837">  7  8 -1 -1</clus>
<clus scale="  109.999">  1 10  2 -1</clus>
<clus scale="  111.701">  1  5  2 -1</clus>
<clus scale="   32.486">  1  5  2 -1</clus>
</clustering>
</event>
<event>
10    4  0.7697601E-005  0.1146647E+03  0.7546771E-02  0.1255910E+00
         21   -1    0    0  503  502  0.00000000000E+00  0.00000000000E+00  0.16218080890E+03  0.16218080890E+03  0.00000000000E+00 0.  1.
          4   -1    0    0  502    0 -0.00000000000E+00 -0.00000000000E+00 -0.25325470917E+03  0.25325470917E+03  0.00000000000E+00 0. -1.
         23    2    1    2    0    0 -0.61277125769E+02 -0.18766944997E+02 -0.29012110843E+02  0.11492784542E+03  0.90882466463E+02 0.  0.
         24    2    1    2    0    0  0.51272882165E+02 -0.10849592550E+03 -0.59323321598E+02  0.15609039764E+03  0.80278773368E+02 0.  0.
        -13    1    4    4    0    0  0.42652238616E+02 -0.60305229372E+02  0.63964499300E+01  0.74140735904E+02  0.00000000000E+00 0.  1.
         14    1    4    4    0    0  0.86206435484E+01 -0.48190696127E+02 -0.65719771528E+02  0.81949661733E+02  0.00000000000E+00 0. -1.
        -11    1    3    3    0    0 -0.49103156964E+02 -0.54531332258E+02 -0.17599405348E+02  0.75462078491E+02  0.00000000000E+00 0.  1.
         11    1    3    3    0    0 -0.12173968805E+02  0.35764387261E+02 -0.11412705495E+02  0.39465766929E+02  0.00000000000E+00 0. -1.
         21    1    1    2  503  501  0.10944749965E+02  0.58661032838E+02  0.31787136807E+02  0.67611584746E+02  0.00000000000E+00 0.  1.
          3    1    1    2  501    0 -0.94050636126E+00  0.68601837658E+02 -0.34525604640E+02  0.76805690272E+02  0.00000000000E+00 0. -1.
<scales pt_clust_5="13000.00000" pt_clust_6="13000.00000" pt_clust_7="13000.00000" pt_clust_8="13000.00000" pt_clust_9="59.67331" pt_clust_10="79.63460"></scales>
<clustering>
<clus scale="   59.673">  1  9  2 -1</clus>
<clus scale="   79.635">  1 10  2 -1</clus>
<clus scale="   80.279">  5  6 -1 -1</clus>
<clus scale="   90.882">  7  8 -1 -1</clus>
<clus scale="  106.457">  1  5  2 -1</clus>
<clus scale="   59.673">  1  5  2 -1</clus>
</clustering>
</event>
<event>
10    4  0.7697601E-005  0.2078055E+03  0.7546771E-02  0.1186391E+00
         21   -1    0    0  503  502  0.00000000000E+00  0.00000000000E+00  0.54838842338E+03  0.54838842338E+03  0.00000000000E+00 0.  1.
         -1   -1    0    0    0  501 -0.00000000000E+00 -0.00000000000E+00 -0.39053314484E+03  0.39053314484E+03  0.00000000000E+00 0.  1.
         24    2    1    2    0    0  0.10125807960E+01 -0.74796870789E+01  0.42067080664E+02  0.87622489818E+02  0.76492420589E+02 0.  0.
         23    2    1    2    0    0  0.72342602678E+02  0.17998181095E+03 -0.28425306949E+03  0.35574554249E+03  0.90156414360E+02 0.  0.
        -13    1    3    3    0    0 -0.34819734050E+02 -0.23309988593E+01  0.40578151773E+01  0.35132795206E+02  0.00000000000E+00 0.  1.
         14    1    3    3    0    0  0.35832314846E+02 -0.51486882196E+01  0.38009265487E+02  0.52489694612E+02  0.00000000000E+00 0. -1.
        -11    1    4    4    0    0  0.18323852240E+01  0.12016804162E+03 -0.14132407194E+03  0.18551606176E+03  0.00000000000E+00 0.  1.
         11    1    4    4    0    0  0.70510217454E+02  0.59813769330E+02 -0.14292899756E+03  0.17022948073E+03  0.00000000000E+00 0. -1.
         21    1    1    2  503  501  0.13052289742E+02 -0.19876989605E+03  0.24108291227E+03  0.31273120156E+03  0.00000000000E+00 0.  1.
         -2    1    1    2    0  502 -0.86407473216E+02  0.26267772176E+02  0.15895835509E+03  0.18282233435E+03  0.00000000000E+00 0.  1.
<scales pt_clust_5="13000.00000" pt_clust_6="13000.00000" pt_clust_7="13000.00000" pt_clust_8="13000.00000" pt_clust_9="187.22968" pt_clust_10="90.21020"></scales>
<clustering>
<clus scale="   76.492">  5  6 -1 -1</clus>
<clus scale="   76.864">  2  5  1 -1</clus>
<clus scale="   90.156">  7  8 -1 -1</clus>
<clus scale="   90.210">  1 10  2 -1</clus>
<clus scale="  187.230">  1  9  2 -1</clus>
<clus scale="   90.210">  1  5  2 -1</clus>
</clustering>
</event>
<event>
10    4  0.7697601E-005  0.1253651E+03  0.7546771E-02  0.1253419E+00
         -3   -1    0    0    0  501 -0.00000000000E+00  0.00000000000E+00  0.13223596545E+03  0.13223596545E+03  0.00000000000E+00 0.  1.
         21   -1    0    0  503  502  0.00000000000E+00 -0.00000000000E+00 -0.22173305216E+03  0.22173305216E+03  0.00000000000E+00 0.  1.
         24    2    1    2    0    0  0.10212492386E+00 -0.38534021329E+02  0.65024492120E+00  0.88401091566E+02  0.79557833946E+02 0.  0.
         23    2    1    2    0    0 -0.60482276348E+02 -0.41877931960E+02 -0.44461182861E+02  0.12976688540E+03  0.97215126537E+02 0.  0.
        -11    1    3    3    0    0 -0.54342232706E+01 -0.51130110275E+02  0.27442024479E+02  0.58282790486E+02  0.00000000000E+00 0.  1.
         12    1    3    3    0    0  0.55363481945E+01  0.12596088945E+02 -0.26791779558E+02  0.30118301080E+02  0.00000000000E+00 0. -1.
        -11    1    4    4    0    0 -0.51790399838E+02 -0.71158385394E+02 -0.19080655626E+02  0.90054609801E+02  0.00000000000E+00 0. -1.
         11    1    4    4    0    0 -0.86918765092E+01  0.29280453434E+02 -0.25380527235E+02  0.39712275599E+02  0.00000000000E+00 0.  1.
         21    1    1    2  503  501  0.65862189095E+02  0.46879122143E+02 -0.58177488564E+02  0.99599699903E+02  0.00000000000E+00 0.  1.
         -4    1    1    2    0  502 -0.54820376708E+01  0.33532831145E+02  0.12491339800E+02  0.36201340744E+02  0.00000000000E+00 0.  1.
<scales pt_clust_5="13000.00000" pt_clust_6="13000.00000" pt_clust_7="13000.00000" pt_clust_8="13000.00000" pt_clust_9="79.15573" pt_clust_10="33.97800"></scales>
<clustering>
<clus scale="   33.978">  2 10  1 -1</clus>
<clus scale="   79.558">  5  6 -1 -1</clus>
<clus scale="   85.582">  1  5  2 -1</clus>
<clus scale="   79.156">  2  9  1 -1</clus>
<clus scale="   97.215">  7  8 -1 -1</clus>
<clus scale="   33.978">  2  5  1 -1</clus>
</clustering>
</event>
<event>
10    4  0.7697601E-005  0.1522982E+03  0.7546771E-02  0.1199700E+00
          2   -1    0    0  502    0 -0.00000000000E+00  0.00000000000E+00  0.20222524749E+04  0.20222524749E+04  0.00000000000E+00 0. -1.
         21   -1    0    0  503  502  0.00000000000E+00 -0.00000000000E+00 -0.12276986746E+03  0.12276986746E+03  0.00000000000E+00 0.  1.
         24    2    1    2    0    0  0.10295926626E+02 -0.95128442704E+02  0.74748602700E+03  0.75794279945E+03  0.81157254542E+02 0.  0.
         23    2    1    2    0    0 -0.58544607573E+02  0.17791543527E+03  0.81439150386E+03  0.84074800430E+03  0.92424628684E+02 0.  0.
        -11    1    3    3    0    0  0.22282963479E+02 -0.67409402217E+02  0.25990729117E+03  0.26942969022E+03  0.00000000000E+00 0.  1.
         12    1    3    3    0    0 -0.11987036853E+02 -0.27719040487E+02  0.48757873583E+03  0.48851310924E+03  0.00000000000E+00 0. -1.
        -11    1    4    4    0    0 -0.61276749607E+02  0.49249914474E+02  0.35996086555E+03  0.36844567964E+03  0.00000000000E+00 0.  1.
         11    1    4    4    0    0  0.27321420347E+01  0.12866552079E+03  0.45443063831E+03  0.47230232465E+03  0.00000000000E+00 0. -1.
         21    1    1    2  503  501  0.27992316402E+01 -0.50009734571E+02 -0.96446826204E+02  0.10867750243E+03  0.00000000000E+00 0.  1.
          1    1    1    2  501    0  0.45449449307E+02 -0.32777257990E+02  0.43405190282E+03  0.43765403623E+03  0.00000000000E+00 0. -1.
<scales pt_clust_5="13000.00000" pt_clust_6="13000.00000" pt_clust_7="13000.00000" pt_clust_8="13000.00000" pt_clust_9="50.08802" pt_clust_10="58.94748"></scales>
<clustering>
<clus scale="   50.088">  2  9  1 -1</clus>
<clus scale="   58.947">  2 10  1 -1</clus>
<clus scale="   81.157">  5  6 -1 -1</clus>
<clus scale="   92.425">  7  8 -1 -1</clus>
<clus scale="  145.736">  1  5  2 -1</clus>
<clus scale="   50.088">  2  5  1 -1</clus>
</clustering>
</event>
<event>
10    4  0.7697601E-005  0.1802456E+03  0.7546771E-02  0.1193163E+00
         21   -1    0    0  501  502  0.00000000000E+00  0.00000000000E+00  0.80146923919E+02  0.80146923919E+02  0.00000000000E+00 0.  1.
          2   -1    0    0  503    0 -0.00000000000E+00 -0.00000000000E+00 -0.71549790208E+03  0.71549790208E+03  0.00000000000E+00 0. -1.
         24    2    1    2    0    0  0.50230711883E+02  0.27865479738E+02 -0.20234555147E+03  0.22590657412E+03  0.82404178627E+02 0.  0.
         23    2    1    2    0    0 -0.10943758463E+03  0.10305609877E+03 -0.17360111947E+03  0.24642593910E+03  0.89393793750E+02 0.  0.
        -11    1    3    3    0    0  0.56139305236E+02  0.16952422626E+02 -0.63228741991E+02  0.86237347125E+02  0.00000000000E+00 0.  1.
         12    1    3    3    0    0 -0.59085933533E+01  0.10913057112E+02 -0.13911680948E+03  0.13966922700E+03  0.00000000000E+00 0. -1.
        -13    1    4    4    0    0 -0.74228954567E+02  0.10082892139E+03 -0.85746693393E+02  0.15175277432E+03  0.00000000000E+00 0.  1.
         13    1    4    4    0    0 -0.35208630062E+02  0.22271773731E+01 -0.87854426075E+02  0.94673164788E+02  0.00000000000E+00 0. -1.
         21    1    1    2  503  502 -0.23939861231E+01  0.24913949313E+02 -0.27255831597E+02  0.37004275374E+02  0.00000000000E+00 0.  1.
          1    1    1    2  501    0  0.61600858869E+02 -0.15583552782E+03 -0.23214847563E+03  0.28630803740E+03  0.00000000000E+00 0. -1.
<scales pt_clust_5="13000.00000" pt_clust_6="13000.00000" pt_clust_7="13000.00000" pt_clust_8="13000.00000" pt_clust_9="25.02870" pt_clust_10="156.51599"></scales>
<clustering>
<clus scale="   25.029">  1  9  2 -1</clus>
<clus scale="   82.404">  5  6 -1 -1</clus>
<clus scale="   89.394">  7  8 -1 -1</clus>
<clus scale="  101.415">  2  5  1 -1</clus>
<clus scale="  156.516">  1 10  2 -1</clus>
<clus scale="   25.029">  1  5  2 -1</clus>
</clustering>
</event>
<event>
10    4  0.7697601E-005  0.2896907E+03  0.7546771E-02  0.1126509E+00
          2   -1    0    0  502    0 -0.00000000000E+00  0.00000000000E+00  0.13460939846E+04  0.13460939846E+04  0.00000000000E+00 0. -1.
         21   -1    0    0  503  502  0.00000000000E+00 -0.00000000000E+00 -0.16028933910E+03  0.16028933910E+03  0.00000000000E+00 0.  1.
         24    2    1    2    0    0  0.77533201731E+02 -0.31936123329E+02  0.33096904239E+03  0.35061356859E+03  0.79737407264E+02 0.  0.
         23    2    1    2    0    0 -0.17305090262E+03 -0.20432488553E+03  0.37248010614E+03  0.46792621327E+03  0.92294300209E+02 0.  0.
        -11    1    3    3    0    0  0.31002079511E+02  0.26615448526E+02  0.12254044317E+03  0.12917302833E+03  0.00000000000E+00 0.  1.
         12    1    3    3    0    0  0.46531122220E+02 -0.58551571855E+02  0.20842859921E+03  0.22144054026E+03  0.00000000000E+00 0. -1.
        -13    1    4    4    0    0 -0.37207057729E+02 -0.92142085540E+02  0.85042267008E+02  0.13079264601E+03  0.00000000000E+00 0.  1.
         13    1    4    4    0    0 -0.13584384489E+03 -0.11218279999E+03  0.28743783913E+03  0.33713356726E+03  0.00000000000E+00 0. -1.
         21    1    1    2  503  501 -0.13919166573E+02 -0.24651617641E+02 -0.65436819935E+02  0.71298126579E+02  0.00000000000E+00 0.  1.
          1    1    1    2  501    0  0.10943686746E+03  0.26091262650E+03  0.54779231694E+03  0.61654541529E+03  0.00000000000E+00 0. -1.
<scales pt_clust_5="13000.00000" pt_clust_6="13000.00000" pt_clust_7="13000.00000" pt_clust_8="13000.00000" pt_clust_9="28.30981" pt_clust_10="274.59519"></scales>
<clustering>
<clus scale="   28.310">  2  9  1 -1</clus>
<clus scale="   79.737">  5  6 -1 -1</clus>
<clus scale="   92.294">  7  8 -1 -1</clus>
<clus scale="  115.482">  1  5  2 -1</clus>
<clus scale="  274.595">  2 10  1 -1</clus>
<clus scale="   28.310">  2  5  1 -1</clus>
</clustering>
</event>
<event>
10    4  0.7697601E-005  0.1742045E+03  0.7546771E-02  0.1174007E+00
         21   -1    0    0  501  502  0.00000000000E+00  0.00000000000E+00  0.49648861873E+02  0.49648861873E+02  0.00000000000E+00 0.  1.
          2   -1    0    0  503    0 -0.00000000000E+00 -0.00000000000E+00 -0.18716586659E+04  0.18716586659E+04  0.00000000000E+00 0. -1.
         23    2    1    2    0    0 -0.10078925998E+03 -0.15605628006E+03 -0.11306121473E+04  0.11489572057E+04  0.85479795358E+02 0.  0.
         24    2    1    2    0    0  0.11834749419E+03  0.39113166701E+02 -0.43378750922E+03  0.45865813183E+03  0.81607043496E+02 0.  0.
        -11    1    4    4    0    0  0.31588873565E+02  0.28466618534E+01 -0.28616622471E+02  0.42718514703E+02  0.00000000000E+00 0.  1.
         12    1    4    4    0    0  0.86758620629E+02  0.36266504848E+02 -0.40517088675E+03  0.41593961713E+03  0.00000000000E+00 0. -1.
        -11    1    3    3    0    0 -0.14196788787E+02 -0.10061985273E+03 -0.54778399044E+03  0.55712943178E+03  0.00000000000E+00 0.  1.
         11    1    3    3    0    0 -0.86592471191E+02 -0.55436427335E+02 -0.58282815686E+03  0.59182777391E+03  0.00000000000E+00 0. -1.
         21    1    1    2  503  502  0.45791822184E+01 -0.29493971680E+02 -0.31483853140E+02  0.43383133632E+02  0.00000000000E+00 0.  1.
          1    1    1    2  501    0 -0.22137416435E+02  0.14643708504E+03 -0.22612629433E+03  0.27030905658E+03  0.00000000000E+00 0. -1.
<scales pt_clust_5="13000.00000" pt_clust_6="13000.00000" pt_clust_7="13000.00000" pt_clust_8="13000.00000" pt_clust_9="29.84733" pt_clust_10="133.01226"></scales>
<clustering>
<clus scale="   29.847">  1  9  2 -1</clus>
<clus scale="   81.607">  5  6 -1 -1</clus>
<clus scale="   85.480">  7  8 -1 -1</clus>
<clus scale="  133.012">  1 10  2 -1</clus>
<clus scale="  172.337">  1  5  2 -1</clus>
<clus scale="   29.847">  1  5  2 -1</clus>
</clustering>
</event>
<event>
10    4  0.7697601E-005  0.1546392E+03  0.7546771E-02  0.1214439E+00
          2   -1    0    0  502    0 -0.00000000000E+00  0.00000000000E+00  0.32815563383E+03  0.32815563383E+03  0.00000000000E+00 0. -1.
         21   -1    0    0  503  502  0.00000000000E+00 -0.00000000000E+00 -0.21256216375E+03  0.21256216375E+03  0.00000000000E+00 0. -1.
         24    2    1    2    0    0  0.38706500545E+02 -0.47675753766E+02  0.15809795698E+03  0.18711307292E+03  0.79026371370E+02 0.  0.
         23    2    1    2    0    0  0.99699206503E+02  0.56211898757E+02 -0.65536974710E+02  0.15906938611E+03  0.88928427421E+02 0.  0.
        -13    1    3    3    0    0  0.18941438340E+02  0.20523671299E+02  0.58165376946E+02  0.64522943557E+02  0.00000000000E+00 0.  1.
         14    1    3    3    0    0  0.19765062205E+02 -0.68199425065E+02  0.99932580038E+02  0.12259012936E+03  0.00000000000E+00 0. -1.
        -11    1    4    4    0    0  0.72842907767E+02  0.80576204449E+02 -0.51080214458E+02  0.12003250495E+03  0.00000000000E+00 0. -1.
         11    1    4    4    0    0  0.26856298736E+02 -0.24364305692E+02 -0.14456760252E+02  0.39036881159E+02  0.00000000000E+00 0.  1.
         21    1    1    2  503  501  0.16608697558E+02 -0.23591725485E+02 -0.17316990114E+02  0.33649613557E+02  0.00000000000E+00 0. -1.
          1    1    1    2  501    0 -0.15501440461E+03  0.15055580495E+02  0.40349477923E+02  0.16088572500E+03  0.00000000000E+00 0. -1.
<scales pt_clust_5="13000.00000" pt_clust_6="13000.00000" pt_clust_7="13000.00000" pt_clust_8="13000.00000" pt_clust_9="28.85166" pt_clust_10="126.51101"></scales>
<clustering>
<clus scale="   28.852">  2  9  1 -1</clus>
<clus scale="   79.026">  5  6 -1 -1</clus>
<clus scale="   88.928">  7  8 -1 -1</clus>
<clus scale="  101.467">  1  5  2 -1</clus>
<clus scale="  126.511">  2 10  1 -1</clus>
<clus scale="   28.852">  2  5  1 -1</clus>
</clustering>
</event>
<event>
10    4  0.7697601E-005  0.2023998E+03  0.7546771E-02  0.1160614E+00
          2   -1    0    0  502    0 -0.00000000000E+00  0.00000000000E+00  0.89219206984E+03  0.89219206984E+03  0.00000000000E+00 0. -1.
         21   -1    0    0  503  502  0.00000000000E+00 -0.00000000000E+00 -0.29550522724E+03  0.29550522724E+03  0.00000000000E+00 0. -1.
         23    2    1    2    0    0  0.10428574220E+03  0.34103993060E+02 -0.64539197191E+01  0.14179412595E+03  0.89584165491E+02 0.  0.
         24    2    1    2    0    0 -0.13448202946E+03  0.14148115534E+03  0.63807704795E+03  0.67209198744E+03  0.80392704248E+02 0.  0.
        -11    1    4    4    0    0  0.16579986886E+01  0.42892710004E+02  0.13793499781E+03  0.14445967310E+03  0.00000000000E+00 0.  1.
         12    1    4    4    0    0 -0.13614002815E+03  0.98588445333E+02  0.50014205014E+03  0.52763231434E+03  0.00000000000E+00 0. -1.
        -13    1    3    3    0    0 -0.96335627255E+01  0.20804347179E+02 -0.13982997654E+02  0.26854247629E+02  0.00000000000E+00 0.  1.
         13    1    3    3    0    0  0.11391930492E+03  0.13299645881E+02  0.75290779345E+01  0.11493987832E+03  0.00000000000E+00 0. -1.
         21    1    1    2  503  501  0.13168334205E+02  0.22466123093E+02 -0.14450454172E+03  0.14683219773E+03  0.00000000000E+00 0. -1.
          1    1    1    2  501    0  0.17027953057E+02 -0.19805127149E+03  0.10956825609E+03  0.22697898596E+03  0.00000000000E+00 0. -1.
<scales pt_clust_5="13000.00000" pt_clust_6="13000.00000" pt_clust_7="13000.00000" pt_clust_8="13000.00000" pt_clust_9="26.04096" pt_clust_10="185.74897"></scales>
<clustering>
<clus scale="   26.041">  2  9  1 -1</clus>
<clus scale="   80.393">  5  6 -1 -1</clus>
<clus scale="   89.584">  7  8 -1 -1</clus>
<clus scale="  149.488">  1  7  2 -1</clus>
<clus scale="  185.749">  2 10  1 -1</clus>
<clus scale="   26.041">  2  5  1 -1</clus>
</clustering>
</event>
<event>
10    4  0.7697601E-005  0.9483964E+02  0.7546771E-02  0.1296562E+00
         21   -1    0    0  501  502  0.00000000000E+00  0.00000000000E+00  0.80541093134E+03  0.80541093134E+03  0.00000000000E+00 0. -1.
          2   -1    0    0  503    0 -0.00000000000E+00 -0.00000000000E+00 -0.11093226506E+03  0.11093226506E+03  0.00000000000E+00 0. -1.
         24    2    1    2    0    0 -0.24278705464E+02  0.18413497340E+01 -0.57559373669E+01  0.86292606623E+02  0.82585937271E+02 0.  0.
         23    2    1    2    0    0  0.21276578855E+02  0.34390024082E+02  0.55303009271E+02  0.11422928570E+03  0.91403174526E+02 0.  0.
        -13    1    3    3    0    0 -0.55046950182E+02  0.34538244931E+01 -0.60050244952E+01  0.55481131451E+02  0.00000000000E+00 0.  1.
         14    1    3    3    0    0  0.30768244718E+02 -0.16124747591E+01  0.24908712839E+00  0.30811475172E+02  0.00000000000E+00 0. -1.
        -13    1    4    4    0    0 -0.29611895916E+02 -0.86519570089E+00  0.41183903343E+02  0.50731911435E+02  0.00000000000E+00 0. -1.
         13    1    4    4    0    0  0.50888474771E+02  0.35255219783E+02  0.14119105928E+02  0.63497374266E+02  0.00000000000E+00 0.  1.
         21    1    1    2  503  502  0.66143639842E+02 -0.83007559537E+02  0.62607795185E+03  0.63501089583E+03  0.00000000000E+00 0. -1.
          1    1    1    2  501    0 -0.63141513233E+02  0.46776185720E+02  0.18853642518E+02  0.80810408241E+02  0.00000000000E+00 0. -1.
<scales pt_clust_5="13000.00000" pt_clust_6="13000.00000" pt_clust_7="13000.00000" pt_clust_8="13000.00000" pt_clust_9="45.98327" pt_clust_10="78.58033"></scales>
<clustering>
<clus scale="   78.580">  1 10  2 -1</clus>
<clus scale="   45.983">  1  9  2 -1</clus>
<clus scale="   82.586">  5  6 -1 -1</clus>
<clus scale="   86.374">  2  5  1 -1</clus>
<clus scale="   91.403">  7  8 -1 -1</clus>
<clus scale="   78.580">  1  5  2 -1</clus>
</clustering>
</event>
<event>
10    4  0.7697601E-005  0.1081476E+03  0.7546771E-02  0.1268725E+00
         21   -1    0    0  503  502  0.00000000000E+00  0.00000000000E+00  0.18369667659E+03  0.18369667659E+03  0.00000000000E+00 0. -1.
         -3   -1    0    0    0  501 -0.00000000000E+00 -0.00000000000E+00 -0.14659070492E+03  0.14659070492E+03  0.00000000000E+00 0.  1.
         23    2    1    2    0    0  0.46009434324E+02 -0.25459665570E+01 -0.31482224355E+02  0.10727584370E+03  0.91616735369E+02 0.  0.
         24    2    1    2    0    0 -0.84036771932E+02 -0.17653918019E+02  0.50284476507E+02  0.12785467003E+03  0.80277320660E+02 0.  0.
        -13    1    4    4    0    0 -0.24004100696E+02 -0.22436273746E+02 -0.17463233463E+02  0.37209511591E+02  0.00000000000E+00 0.  1.
         14    1    4    4    0    0 -0.60032671236E+02  0.47823557272E+01  0.67747709970E+02  0.90645158438E+02  0.00000000000E+00 0. -1.
        -13    1    3    3    0    0  0.68383816332E+02  0.47488578924E+01 -0.73035057499E+00  0.68552398933E+02  0.00000000000E+00 0. -1.
         13    1    3    3    0    0 -0.22374382008E+02 -0.72948244495E+01 -0.30751873780E+02  0.38723444772E+02  0.00000000000E+00 0.  1.
         21    1    1    2  503  501  0.14487127628E+02  0.20576491208E+02  0.49821744234E+02  0.55816440731E+02  0.00000000000E+00 0. -1.
         -4    1    1    2    0  502  0.23540209979E+02 -0.37660663267E+00 -0.31518024710E+02  0.39340427045E+02  0.00000000000E+00 0.  1.
<scales pt_clust_5="13000.00000" pt_clust_6="13000.00000" pt_clust_7="13000.00000" pt_clust_8="13000.00000" pt_clust_9="29.61316" pt_clust_10="23.54323"></scales>
<clustering>
<clus scale="   23.543">  1 10  2 -1</clus>
<clus scale="   29.613">  1  9  2 -1</clus>
<clus scale="   80.277">  5  6 -1 -1</clus>
<clus scale="   91.617">  7  8 -1 -1</clus>
<clus scale="   98.726">  1  5  2 -1</clus>
<clus scale="   23.543">  1  5  2 -1</clus>
</clustering>
</event>
<event>
10    4  0.7697601E-005  0.1804177E+03  0.7546771E-02  0.1168526E+00
          2   -1    0    0  503    0 -0.00000000000E+00  0.00000000000E+00  0.33176175257E+03  0.33176175257E+03  0.00000000000E+00 0. -1.
         21   -1    0    0  501  502  0.00000000000E+00 -0.00000000000E+00 -0.36640744243E+03  0.36640744243E+03  0.00000000000E+00 0. -1.
         23    2    1    2    0    0  0.50895543403E+02 -0.11965901809E+03 -0.16228891823E+02  0.15964142792E+03  0.91177692617E+02 0.  0.
         24    2    1    2    0    0 -0.28909313042E+02  0.18412635529E+03  0.10089255786E+02  0.20374579028E+03  0.81684091968E+02 0.  0.
        -13    1    4    4    0    0 -0.22579516388E+02  0.95253693433E+01  0.15410472627E+02  0.28949091316E+02  0.00000000000E+00 0.  1.
         14    1    4    4    0    0 -0.63297966538E+01  0.17460098595E+03 -0.53212168410E+01  0.17479669896E+03  0.00000000000E+00 0. -1.
        -11    1    3    3    0    0  0.10701318756E+02 -0.33686289380E+02  0.36718644132E+02  0.50966097969E+02  0.00000000000E+00 0.  1.
         11    1    3    3    0    0  0.40194224646E+02 -0.85972728710E+02 -0.52947535955E+02  0.10867532995E+03  0.00000000000E+00 0. -1.
         21    1    1    2  503  502 -0.34520800191E+02 -0.34847686581E+02 -0.17657432463E+03  0.18326084968E+03  0.00000000000E+00 0. -1.
          1    1    1    2  501    0  0.12534569830E+02 -0.29619650621E+02  0.14806827081E+03  0.15152112712E+03  0.00000000000E+00 0. -1.
<scales pt_clust_5="13000.00000" pt_clust_6="13000.00000" pt_clust_7="13000.00000" pt_clust_8="13000.00000" pt_clust_9="57.00295" pt_clust_10="32.16271"></scales>
<clustering>
<clus scale="   32.163">  2 10  1 -1</clus>
<clus scale="   57.003">  2  9  1 -1</clus>
<clus scale="   81.684">  5  6 -1 -1</clus>
<clus scale="   91.178">  7  8 -1 -1</clus>
<clus scale="  175.811">  2  5  1 -1</clus>
<clus scale="   32.163">  2  5  1 -1</clus>
</clustering>
</event>
<event>
10    4  0.7697601E-005  0.1161376E+03  0.7546771E-02  0.1253491E+00
         21   -1    0    0  501  502  0.00000000000E+00  0.00000000000E+00  0.25135903963E+03  0.25135903963E+03  0.00000000000E+00 0.  1.
          2   -1    0    0  503    0 -0.00000000000E+00 -0.00000000000E+00 -0.66026634012E+03  0.66026634012E+03  0.00000000000E+00 0. -1.
         23    2    1    2    0    0 -0.42674504246E+02  0.60283220210E+02 -0.22214541205E+03  0.25140681586E+03  0.91660367758E+02 0.  0.
         24    2    1    2    0    0 -0.80810432284E+01 -0.78888895097E+02 -0.12062497671E+03  0.16524805538E+03  0.80422470554E+02 0.  0.
        -13    1    4    4    0    0 -0.17155409735E+02 -0.88116282819E+02 -0.72433344497E+02  0.11534893487E+03  0.00000000000E+00 0.  1.
         14    1    4    4    0    0  0.90743665068E+01  0.92273877229E+01 -0.48191632213E+02  0.49899120504E+02  0.00000000000E+00 0. -1.
        -11    1    3    3    0    0 -0.20798377841E+02  0.80401698387E+02 -0.19141986946E+03  0.20865898507E+03  0.00000000000E+00 0.  1.
         11    1    3    3    0    0 -0.21876126405E+02 -0.20118478177E+02 -0.30725542583E+02  0.42747830794E+02  0.00000000000E+00 0. -1.
         21    1    1    2  503  502 -0.15145071652E+02  0.37489563915E+02  0.20825549027E+03  0.21214426654E+03  0.00000000000E+00 0.  1.
          1    1    1    2  501    0  0.65900619126E+02 -0.18883889029E+02 -0.27439240201E+03  0.28282624197E+03  0.00000000000E+00 0. -1.
<scales pt_clust_5="13000.00000" pt_clust_6="13000.00000" pt_clust_7="13000.00000" pt_clust_8="13000.00000" pt_clust_9="40.43316" pt_clust_10="66.08389"></scales>
<clustering>
<clus scale="   40.433">  1  9  2 -1</clus>
<clus scale="   66.084">  1 10  2 -1</clus>
<clus scale="   80.422">  5  6 -1 -1</clus>
<clus scale="   91.660">  7  8 -1 -1</clus>
<clus scale="  107.490">  1  5  2 -1</clus>
<clus scale="   40.433">  1  5  2 -1</clus>
</clustering>
</event>
<event>
10    4  0.9452974E-005  0.3192071E+03  0.7546771E-02  0.1129544E+00
         21   -1    0    0  503  502  0.00000000000E+00  0.00000000000E+00  0.50444822903E+03  0.50444822903E+03  0.00000000000E+00 0. -1.
          2   -1    0    0  502    0 -0.00000000000E+00 -0.00000000000E+00 -0.62734634466E+03  0.62734634466E+03  0.00000000000E+00 0. -1.
         24    2    1    2    0    0 -0.12414357046E+02 -0.68156519602E+01 -0.23127712774E+03  0.24475370346E+03  0.78833344269E+02 0.  0.
         23    2    1    2    0    0  0.87705242683E+02 -0.28039518515E+02 -0.18253781067E+02  0.13078700258E+03  0.91069288616E+02 0.  0.
        -11    1    3    3    0    0  0.29535438791E+02  0.90979720584E+01 -0.13562554759E+03  0.13910213658E+03  0.00000000000E+00 0.  1.
         12    1    3    3    0    0 -0.41949795836E+02 -0.15913624019E+02 -0.95651580144E+02  0.10565156688E+03  0.00000000000E+00 0. -1.
        -13    1    4    4    0    0  0.24403415928E+02  0.14760993585E+02  0.29216441463E+02  0.40829083902E+02  0.00000000000E+00 0.  1.
         13    1    4    4    0    0  0.63301826755E+02 -0.42800512100E+02 -0.47470222530E+02  0.89957918682E+02  0.00000000000E+00 0. -1.
         21    1    1    2  503  501 -0.32871646839E+03  0.83965915268E+02  0.29372587819E+03  0.44875347691E+03  0.00000000000E+00 0. -1.
          1    1    1    2  501    0  0.25342558275E+03 -0.49110744792E+02 -0.16709308502E+03  0.30750039074E+03  0.00000000000E+00 0. -1.
<scales pt_clust_5="13000.00000" pt_clust_6="13000.00000" pt_clust_7="13000.00000" pt_clust_8="13000.00000" pt_clust_9="13000.00000" pt_clust_10="319.20706"></scales>
<clustering>
<clus scale="   78.833">  5  6 -1 -1</clus>
<clus scale="   80.095">  2  5  1 -1</clus>
<clus scale="   91.069">  7  8 -1 -1</clus>
<clus scale="  128.202">  2  7  1 -1</clus>
<clus scale="  319.207">  2 10  1 -1</clus>
<clus scale="  319.207">  1  5  2 -1</clus>
</clustering>
</event>
<event>
10    4  0.7697601E-005  0.2067342E+03  0.7546771E-02  0.1164934E+00
         -3   -1    0    0    0  501 -0.00000000000E+00  0.00000000000E+00  0.57094447206E+03  0.57094447206E+03  0.00000000000E+00 0.  1.
         21   -1    0    0  501  502  0.00000000000E+00 -0.00000000000E+00 -0.13951725869E+03  0.13951725869E+03  0.00000000000E+00 0. -1.
         23    2    1    2    0    0 -0.65806999193E+02 -0.48524807456E+02  0.67579521888E+02  0.13963480390E+03  0.90805663924E+02 0.  0.
         24    2    1    2    0    0 -0.59024875927E+01  0.21671993535E+03  0.18499014229E+03  0.29631917645E+03  0.81125408157E+02 0.  0.
        -13    1    4    4    0    0 -0.12684559021E+02  0.36321418813E+02  0.76690789123E+02  0.85799887171E+02  0.00000000000E+00 0.  1.
         14    1    4    4    0    0  0.67820714287E+01  0.18039851653E+03  0.10829935317E+03  0.21051928928E+03  0.00000000000E+00 0. -1.
        -13    1    3    3    0    0 -0.82825519475E+02 -0.16045472569E+02  0.38023571822E+02  0.92538186066E+02  0.00000000000E+00 0. -1.
         13    1    3    3    0    0  0.17018520282E+02 -0.32479334886E+02  0.29555950066E+02  0.47096617836E+02  0.00000000000E+00 0.  1.
         21    1    1    2  503  502 -0.19915651863E+02 -0.14836668529E+02  0.52118722156E+01  0.25375648448E+02  0.00000000000E+00 0. -1.
         -4    1    1    2    0  503  0.91625138649E+02 -0.15335845936E+03  0.17364567697E+03  0.24913210195E+03  0.00000000000E+00 0.  1.
<scales pt_clust_5="13000.00000" pt_clust_6="13000.00000" pt_clust_7="13000.00000" pt_clust_8="13000.00000" pt_clust_9="24.83465" pt_clust_10="190.15186"></scales>
<clustering>
<clus scale="   24.835">  2  9  1 -1</clus>
<clus scale="   81.125">  5  6 -1 -1</clus>
<clus scale="   90.806">  7  8 -1 -1</clus>
<clus scale="  126.921">  1  7  2 -1</clus>
<clus scale="  190.152">  2 10  1 -1</clus>
<clus scale="   24.835">  2  5  1 -1</clus>
</clustering>
</event>
<event>
10    4  0.7697601E-005  0.1196760E+03  0.7546771E-02  0.1247456E+00
         21   -1    0    0  501  502  0.00000000000E+00  0.00000000000E+00  0.48412775079E+03  0.48412775079E+03  0.00000000000E+00 0.  1.
          2   -1    0    0  503    0 -0.00000000000E+00 -0.00000000000E+00 -0.10901187399E+03  0.10901187399E+03  0.00000000000E+00 0. -1.
         24    2    1    2    0    0 -0.28648258633E+02  0.17868098536E+01 -0.33225048460E+02  0.88948873336E+02  0.77356853675E+02 0.  0.
         23    2    1    2    0    0  0.73705850675E+02 -0.10146403914E+03  0.28248946934E+03  0.32179939542E+03  0.89593788523E+02 0.  0.
        -13    1    3    3    0    0 -0.52615516726E+02  0.34302891039E+01 -0.66826319979E+01  0.53149008026E+02  0.00000000000E+00 0.  1.
         14    1    3    3    0    0  0.23967258094E+02 -0.16434792503E+01 -0.26542416462E+02  0.35799865310E+02  0.00000000000E+00 0. -1.
        -13    1    4    4    0    0  0.75121078043E+02 -0.61187837247E+02  0.11919487409E+03  0.15360516203E+03  0.00000000000E+00 0.  1.
         13    1    4    4    0    0 -0.14152273684E+01 -0.40276201892E+02  0.16329459524E+03  0.16819423338E+03  0.00000000000E+00 0. -1.
         21    1    1    2  503  502 -0.54546498301E+02  0.40735850966E+02  0.43921046058E+02  0.81017210009E+02  0.00000000000E+00 0.  1.
          1    1    1    2  501    0  0.94889062592E+01  0.58941378320E+02  0.81930409862E+02  0.10137414602E+03  0.00000000000E+00 0. -1.
<scales pt_clust_5="13000.00000" pt_clust_6="13000.00000" pt_clust_7="13000.00000" pt_clust_8="13000.00000" pt_clust_9="72.96977" pt_clust_10="59.70030"></scales>
<clustering>
<clus scale="   59.700">  1 10  2 -1</clus>
<clus scale="   72.970">  2  9  1 -1</clus>
<clus scale="   77.357">  5  6 -1 -1</clus>
<clus scale="   89.594">  7  8 -1 -1</clus>
<clus scale="  110.812">  2  5  1 -1</clus>
<clus scale="   59.700">  1  5  2 -1</clus>
</clustering>
</event>
<event>
10    4  0.7697601E-005  0.1179090E+03  0.7546771E-02  0.1270711E+00
          2   -1    0    0  502    0 -0.00000000000E+00  0.00000000000E+00  0.86725285782E+03  0.86725285782E+03  0.00000000000E+00 0. -1.
         21   -1    0    0  503  502  0.00000000000E+00 -0.00000000000E+00 -0.10339972198E+03  0.10339972198E+03  0.00000000000E+00 0.  1.
         23    2    1    2    0    0 -0.17062873485E+02 -0.15784239882E+01  0.26732360291E+03  0.27739200607E+03  0.72047090746E+02 0.  0.
         24    2    1    2    0    0 -0.58400858643E+02 -0.74085605026E+02  0.17229476342E+03  0.21061471145E+03  0.75985090739E+02 0.  0.
        -11    1    4    4    0    0 -0.30214133339E+02 -0.72768900176E+02  0.73081576620E+02  0.10746684850E+03  0.00000000000E+00 0.  1.
         12    1    4    4    0    0 -0.28186725304E+02 -0.13167048501E+01  0.99213186801E+02  0.10314786295E+03  0.00000000000E+00 0. -1.
        -13    1    3    3    0    0  0.24269491242E+02 -0.10230959297E+02  0.15829668160E+03  0.16047280187E+03  0.00000000000E+00 0. -1.
         13    1    3    3    0    0 -0.41332364727E+02  0.86525353084E+01  0.10902692130E+03  0.11691920420E+03  0.00000000000E+00 0.  1.
         21    1    1    2  503  501  0.21651155285E+02 -0.21146558367E+01 -0.72033626874E+02  0.75246845084E+02  0.00000000000E+00 0.  1.
          1    1    1    2  501    0  0.53812576843E+02  0.77778684851E+02  0.39626839638E+03  0.40739901720E+03  0.00000000000E+00 0. -1.
<scales pt_clust_5="13000.00000" pt_clust_6="13000.00000" pt_clust_7="13000.00000" pt_clust_8="13000.00000" pt_clust_9="21.75418" pt_clust_10="90.15992"></scales>
<clustering>
<clus scale="   21.754">  2  9  1 -1</clus>
<clus scale="   72.047">  7  8 -1 -1</clus>
<clus scale="   73.308">  1  7  2 -1</clus>
<clus scale="   75.985">  5  6 -1 -1</clus>
<clus scale="   90.160">  2 10  1 -1</clus>
<clus scale="   21.754">  2  5  1 -1</clus>
</clustering>
</event>
<event>
10    4  0.7697601E-005  0.1339933E+03  0.7546771E-02  0.1224050E+00
         21   -1    0    0  501  502  0.00000000000E+00  0.00000000000E+00  0.71953809793E+02  0.71953809793E+02  0.00000000000E+00 0. -1.
          2   -1    0    0  503    0 -0.00000000000E+00 -0.00000000000E+00 -0.12282449127E+04  0.12282449127E+04  0.00000000000E+00 0. -1.
         23    2    1    2    0    0 -0.47930691872E+02  0.59637825444E+02 -0.20436407402E+03  0.23626600197E+03  0.90570014288E+02 0.  0.
         24    2    1    2    0    0  0.13401323495E+03 -0.16295552257E+02 -0.37580871616E+03  0.40736358770E+03  0.80546938341E+02 0.  0.
        -13    1    4    4    0    0  0.38313032311E+01 -0.23363951219E+02 -0.33116084654E+02  0.40709067342E+02  0.00000000000E+00 0.  1.
         14    1    4    4    0    0  0.13018193171E+03  0.70683989623E+01 -0.34269263150E+03  0.36665452035E+03  0.00000000000E+00 0. -1.
        -13    1    3    3    0    0 -0.63538257475E+01 -0.23310359101E+02 -0.27992504034E+02  0.36977347459E+02  0.00000000000E+00 0.  1.
         13    1    3    3    0    0 -0.41576866125E+02  0.82948184544E+02 -0.17637156999E+03  0.19928865451E+03  0.00000000000E+00 0. -1.
         21    1    1    2  503  502  0.10178423060E+02  0.27345540568E+02  0.28190716387E+02  0.40572100949E+02  0.00000000000E+00 0. -1.
          1    1    1    2  501    0 -0.96260966134E+02 -0.70687813755E+02 -0.60430902910E+03  0.61599703186E+03  0.00000000000E+00 0. -1.
<scales pt_clust_5="13000.00000" pt_clust_6="13000.00000" pt_clust_7="13000.00000" pt_clust_8="13000.00000" pt_clust_9="29.17840" pt_clust_10="115.66090"></scales>
<clustering>
<clus scale="   29.178">  1  9  2 -1</clus>
<clus scale="   80.547">  5  6 -1 -1</clus>
<clus scale="   90.570">  7  8 -1 -1</clus>
<clus scale="  115.661">  1 10  2 -1</clus>
<clus scale="  127.433">  1  5  2 -1</clus>
<clus scale="   29.178">  1  5  2 -1</clus>
</clustering>
</event>
<event>
10    4  0.7697601E-005  0.1188908E+03  0.7546771E-02  0.1245687E+00
         21   -1    0    0  501  502  0.00000000000E+00  0.00000000000E+00  0.12729603247E+03  0.12729603247E+03  0.00000000000E+00 0. -1.
          2   -1    0    0  503    0 -0.00000000000E+00 -0.00000000000E+00 -0.14781967217E+04  0.14781967217E+04  0.00000000000E+00 0. -1.
         24    2    1    2    0    0 -0.82219597567E+02 -0.29033178755E+01 -0.11396857127E+04  0.11460946510E+04  0.88774623069E+02 0.  0.
         23    2    1    2    0    0  0.54904803039E+02 -0.36342510406E+02 -0.26962024072E+03  0.29211467905E+03  0.91107606988E+02 0.  0.
        -13    1    3    3    0    0 -0.58239498200E+02  0.27592756945E+00 -0.27635981154E+03  0.28242992179E+03  0.00000000000E+00 0.  1.
         14    1    3    3    0    0 -0.23980099367E+02 -0.31792454449E+01 -0.86332590117E+03  0.86366472916E+03  0.00000000000E+00 0. -1.
        -11    1    4    4    0    0  0.75116308776E+02 -0.30878189543E+02 -0.25195412969E+03  0.26472024083E+03  0.00000000000E+00 0.  1.
         11    1    4    4    0    0 -0.20211505738E+02 -0.54643208635E+01 -0.17666111022E+02  0.27394438219E+02  0.00000000000E+00 0. -1.
         21    1    1    2  503  502 -0.12425703218E+01 -0.55538326891E+02  0.34675792326E+02  0.65486336806E+02  0.00000000000E+00 0. -1.
          1    1    1    2  501    0  0.28557364850E+02  0.94784155173E+02  0.23729471874E+02  0.10179708736E+03  0.00000000000E+00 0. -1.
<scales pt_clust_5="13000.00000" pt_clust_6="13000.00000" pt_clust_7="13000.00000" pt_clust_8="13000.00000" pt_clust_9="55.55223" pt_clust_10="56.77177"></scales>
<clustering>
<clus scale="   55.552">  1  9  2 -1</clus>
<clus scale="   56.772">  1 10  2 -1</clus>
<clus scale="   88.775">  5  6 -1 -1</clus>
<clus scale="   91.108">  7  8 -1 -1</clus>
<clus scale="  117.113">  2  5  1 -1</clus>
<clus scale="   55.552">  1  5  2 -1</clus>
</clustering>
</event>
<event>
10    4  0.7697601E-005  0.1073778E+03  0.7546771E-02  0.1270153E+00
         21   -1    0    0  503  502  0.00000000000E+00  0.00000000000E+00  0.75633960379E+03  0.75633960379E+03  0.00000000000E+00 0.  1.
         -1   -1    0    0    0  501 -0.00000000000E+00 -0.00000000000E+00 -0.57746956899E+02  0.57746956899E+02  0.00000000000E+00 0.  1.
         23    2    1    2    0    0  0.19391238718E+02 -0.99375062516E+01  0.14763760455E+03  0.17581381303E+03  0.92945470065E+02 0.  0.
         24    2    1    2    0    0 -0.70936923086E+02  0.62955381276E+02  0.48968341305E+03  0.50549060638E+03  0.82069976465E+02 0.  0.
        -11    1    4    4    0    0 -0.62518527963E+02  0.74671756501E+02  0.30335053311E+03  0.31860003687E+03  0.00000000000E+00 0.  1.
         12    1    4    4    0    0 -0.84183951234E+01 -0.11716375226E+02  0.18633287994E+03  0.18689056951E+03  0.00000000000E+00 0. -1.
        -13    1    3    3    0    0  0.29968088364E+02  0.30238282313E+02  0.32952910318E+02  0.53836180547E+02  0.00000000000E+00 0. -1.
         13    1    3    3    0    0 -0.10576849646E+02 -0.40175788564E+02  0.11468469424E+03  0.12197763249E+03  0.00000000000E+00 0.  1.
         21    1    1    2  503  501  0.61576251018E+02 -0.99351469613E+01  0.62813233690E+02  0.88520303666E+02  0.00000000000E+00 0.  1.
         -2    1    1    2    0  502 -0.10030566649E+02 -0.43082728063E+02 -0.15416043968E+01  0.44261837611E+02  0.00000000000E+00 0.  1.
<scales pt_clust_5="13000.00000" pt_clust_6="13000.00000" pt_clust_7="13000.00000" pt_clust_8="13000.00000" pt_clust_9="62.22572" pt_clust_10="44.23501"></scales>
<clustering>
<clus scale="   44.235">  1 10  2 -1</clus>
<clus scale="   62.226">  2  9  1 -1</clus>
<clus scale="   82.070">  5  6 -1 -1</clus>
<clus scale="   92.945">  7  8 -1 -1</clus>
<clus scale="   98.115">  1  5  2 -1</clus>
<clus scale="   44.235">  1  5  2 -1</clus>
</clustering>
</event>
<event>
10    4  0.7697601E-005  0.1297711E+03  0.7546771E-02  0.1230487E+00
         21   -1    0    0  501  502  0.00000000000E+00  0.00000000000E+00  0.26791685972E+03  0.26791685972E+03  0.00000000000E+00 0. -1.
          4   -1    0    0  503    0 -0.00000000000E+00 -0.00000000000E+00 -0.19614927599E+03  0.19614927599E+03  0.00000000000E+00 0. -1.
         23    2    1    2    0    0 -0.75898164073E+01  0.10866837171E+03 -0.10900482039E+03  0.17917851162E+03  0.91413717981E+02 0.  0.
         24    2    1    2    0    0  0.51516745581E+01 -0.63754443787E+02  0.13253715107E+02  0.10415949471E+03  0.81131809550E+02 0.  0.
        -13    1    4    4    0    0 -0.26492857587E+02 -0.18663621689E+02 -0.21624686580E+02  0.38959329401E+02  0.00000000000E+00 0.  1.
         14    1    4    4    0    0  0.31644532145E+02 -0.45090822098E+02  0.34878401687E+02  0.65200165310E+02  0.00000000000E+00 0. -1.
        -13    1    3    3    0    0  0.36217444803E+02  0.85026311897E+02 -0.71802896387E+02  0.11703346937E+03  0.00000000000E+00 0.  1.
         13    1    3    3    0    0 -0.43807261210E+02  0.23642059812E+02 -0.37201924004E+02  0.62145042252E+02  0.00000000000E+00 0. -1.
         21    1    1    2  503  502  0.42847378933E+01 -0.20307296442E+02  0.14750065123E+03  0.14895364172E+03  0.00000000000E+00 0. -1.
          3    1    1    2  501    0 -0.18465960441E+01 -0.24606631478E+02  0.20018037780E+02  0.31774487663E+02  0.00000000000E+00 0. -1.
<scales pt_clust_5="13000.00000" pt_clust_6="13000.00000" pt_clust_7="13000.00000" pt_clust_8="13000.00000" pt_clust_9="20.75440" pt_clust_10="29.01493"></scales>
<clustering>
<clus scale="   20.754">  1  9  2 -1</clus>
<clus scale="   29.015">  1 10  2 -1</clus>
<clus scale="   81.132">  5  6 -1 -1</clus>
<clus scale="   91.414">  7  8 -1 -1</clus>
<clus scale="  122.745">  1  5  2 -1</clus>
<clus scale="   20.754">  1  5  2 -1</clus>
</clustering>
</event>
<event>
10    4  0.7697601E-005  0.1724363E+03  0.7546771E-02  0.1199220E+00
         21   -1    0    0  501  502  0.00000000000E+00  0.00000000000E+00  0.87149441148E+02  0.87149441148E+02  0.00000000000E+00 0. -1.
          2   -1    0    0  503    0 -0.00000000000E+00 -0.00000000000E+00 -0.97264550652E+03  0.97264550652E+03  0.00000000000E+00 0. -1.
         23    2    1    2    0    0  0.36119514963E+02  0.29234818580E+02 -0.11179564280E+03  0.15121499501E+03  0.90600303457E+02 0.  0.
         24    2    1    2    0    0 -0.64333693669E+02  0.14218567236E+03 -0.35545234987E+03  0.39707585725E+03  0.83470197169E+02 0.  0.
        -11    1    4    4    0    0  0.13096586414E+02  0.19011618664E+02 -0.10431721995E+03  0.10684121208E+03  0.00000000000E+00 0.  1.
         12    1    4    4    0    0 -0.77430280082E+02  0.12317405370E+03 -0.25113512992E+03  0.29023464517E+03  0.00000000000E+00 0. -1.
        -11    1    3    3    0    0  0.17683153150E+02 -0.14985250237E+02 -0.98928762693E+02  0.10160783296E+03  0.00000000000E+00 0.  1.
         11    1    3    3    0    0  0.18436361813E+02  0.44220068817E+02 -0.12866880112E+02  0.49607162052E+02  0.00000000000E+00 0. -1.
         21    1    1    2  503  502  0.99040918411E+01 -0.18377203852E+02  0.30535391867E+02  0.36989495983E+02  0.00000000000E+00 0. -1.
          1    1    1    2  501    0  0.18310086864E+02 -0.15304328709E+03 -0.44878346457E+03  0.47451459943E+03  0.00000000000E+00 0. -1.
<scales pt_clust_5="13000.00000" pt_clust_6="13000.00000" pt_clust_7="13000.00000" pt_clust_8="13000.00000" pt_clust_9="20.87613" pt_clust_10="150.88746"></scales>
<clustering>
<clus scale="   20.876">  1  9  2 -1</clus>
<clus scale="   83.470">  5  6 -1 -1</clus>
<clus scale="   90.600">  7  8 -1 -1</clus>
<clus scale="  101.462">  2  7  1 -1</clus>
<clus scale="  150.887">  1 10  2 -1</clus>
<clus scale="   20.876">  1  5  2 -1</clus>
</clustering>
</event>
<event>
10    4  0.7697601E-005  0.1385236E+03  0.7546771E-02  0.1217052E+00
         21   -1    0    0  503  502  0.00000000000E+00  0.00000000000E+00  0.23156334108E+03  0.23156334108E+03  0.00000000000E+00 0.  1.
         -1   -1    0    0    0  501 -0.00000000000E+00 -0.00000000000E+00 -0.17821731744E+03  0.17821731744E+03  0.00000000000E+00 0.  1.
         23    2    1    2    0    0 -0.79779005305E+02  0.67926636269E+02  0.25630185369E+02  0.14028086925E+03  0.89683322156E+02 0.  0.
         24    2    1    2    0    0  0.61028881339E+02 -0.90580531494E+02  0.92094768384E+02  0.16464056179E+03  0.81827325381E+02 0.  0.
        -11    1    4    4    0    0  0.30394464360E+02 -0.95922759154E+02  0.50155450812E+02  0.11243028255E+03  0.00000000000E+00 0.  1.
         12    1    4    4    0    0  0.30634416978E+02  0.53422276606E+01  0.41939317572E+02  0.52210279241E+02  0.00000000000E+00 0. -1.
        -13    1    3    3    0    0 -0.27047040768E+01  0.43393185567E+02 -0.19508331817E+02  0.47653530699E+02  0.00000000000E+00 0. -1.
         13    1    3    3    0    0 -0.77074301228E+02  0.24533450702E+02  0.45138517186E+02  0.92627338550E+02  0.00000000000E+00 0.  1.
         21    1    1    2  503  501  0.18943220149E+02 -0.66483890247E+01  0.11766497150E+02  0.23270090705E+02  0.00000000000E+00 0.  1.
         -2    1    1    2    0  502 -0.19309618291E+00  0.29302284249E+02 -0.76145427255E+02  0.81589136779E+02  0.00000000000E+00 0.  1.
<scales pt_clust_5="13000.00000" pt_clust_6="13000.00000" pt_clust_7="13000.00000" pt_clust_8="13000.00000" pt_clust_9="20.07602" pt_clust_10="29.21780"></scales>
<clustering>
<clus scale="   20.076">  1  9  2 -1</clus>
<clus scale="   29.218">  1 10  2 -1</clus>
<clus scale="   81.827">  5  6 -1 -1</clus>
<clus scale="   89.683">  7  8 -1 -1</clus>
<clus scale="  133.572">  1  5  2 -1</clus>
<clus scale="   20.076">  1  5  2 -1</clus>
</clustering>
</event>
<event>
10    4  0.7697601E-005  0.1003086E+03  0.7546771E-02  0.1283117E+00
         -3   -1    0    0    0  501 -0.00000000000E+00  0.00000000000E+00  0.36277762368E+03  0.36277762368E+03  0.00000000000E+00 0.  1.
         21   -1    0    0  503  502  0.00000000000E+00 -0.00000000000E+00 -0.18188442617E+03  0.18188442617E+03  0.00000000000E+00 0.  1.
         24    2    1    2    0    0 -0.46151964618E+02  0.46962515365E+02  0.19915875028E+03  0.22453016693E+03  0.80088116239E+02 0.  0.
         23    2    1    2    0    0  0.55482554521E+02  0.16779119940E+01 -0.94142711858E+00  0.90853020721E+02  0.71918397119E+02 0.  0.
        -13    1    3    3    0    0 -0.12069679126E+02  0.58771037056E+02  0.79789215971E+02  0.99830010198E+02  0.00000000000E+00 0.  1.
         14    1    3    3    0    0 -0.34082285492E+02 -0.11808521691E+02  0.11936953431E+03  0.12470015673E+03  0.00000000000E+00 0. -1.
        -11    1    4    4    0    0 -0.49804216034E+01  0.22581885237E+02  0.11267969379E+02  0.25723788098E+02  0.00000000000E+00 0. -1.
         11    1    4    4    0    0  0.60462976124E+02 -0.20903973243E+02 -0.12209396498E+02  0.65129232622E+02  0.00000000000E+00 0.  1.
         21    1    1    2  503  501  0.59098121632E+01 -0.13517839678E+03 -0.34748484545E+02  0.13969818186E+03  0.00000000000E+00 0.  1.
         -4    1    1    2    0  502 -0.15240402066E+02  0.86537969420E+02  0.17424358899E+02  0.89580680336E+02  0.00000000000E+00 0.  1.
<scales pt_clust_5="13000.00000" pt_clust_6="13000.00000" pt_clust_7="13000.00000" pt_clust_8="13000.00000" pt_clust_9="83.47182" pt_clust_10="87.86973"></scales>
<clustering>
<clus scale="   71.918">  7  8 -1 -1</clus>
<clus scale="   80.088">  5  6 -1 -1</clus>
<clus scale="   87.870">  2 10  1 -1</clus>
<clus scale="   83.472">  2  9  1 -1</clus>
<clus scale="   93.915">  2  7  1 -1</clus>
<clus scale="   87.870">  2  5  1 -1</clus>
</clustering>
</event>
<event>
10    4  0.7697601E-005  0.2307736E+03  0.7546771E-02  0.1141603E+00
         21   -1    0    0  501  502  0.00000000000E+00  0.00000000000E+00  0.14519840726E+04  0.14519840726E+04  0.00000000000E+00 0. -1.
          2   -1    0    0  503    0 -0.00000000000E+00 -0.00000000000E+00 -0.69816373635E+03  0.69816373635E+03  0.00000000000E+00 0. -1.
         24    2    1    2    0    0 -0.18481393779E+01 -0.13428934867E+03 -0.56457236655E+03  0.58589370542E+03  0.80575630307E+02 0.  0.
         23    2    1    2    0    0 -0.12139674812E+03 -0.67206341068E+02  0.17241521037E+02  0.16598296018E+03  0.89438304376E+02 0.  0.
        -11    1    3    3    0    0  0.13765049474E+02 -0.68577289899E+02 -0.14579859954E+03  0.16170823388E+03  0.00000000000E+00 0.  1.
         12    1    3    3    0    0 -0.15613188852E+02 -0.65712058772E+02 -0.41877376700E+03  0.42418547154E+03  0.00000000000E+00 0. -1.
        -13    1    4    4    0    0 -0.91588490848E+02 -0.27278842585E+02  0.48495233999E+02  0.10716517452E+03  0.00000000000E+00 0.  1.
         13    1    4    4    0    0 -0.29808257269E+02 -0.39927498483E+02 -0.31253712962E+02  0.58817785664E+02  0.00000000000E+00 0. -1.
         21    1    1    2  503  502  0.54629166312E+02 -0.12118308358E+03  0.70039043305E+03  0.71289301040E+03  0.00000000000E+00 0. -1.
          1    1    1    2  501    0  0.68615721183E+02  0.32267877332E+03  0.60076074873E+03  0.68537813297E+03  0.00000000000E+00 0. -1.
<scales pt_clust_5="13000.00000" pt_clust_6="13000.00000" pt_clust_7="13000.00000" pt_clust_8="13000.00000" pt_clust_9="132.92737" pt_clust_10="212.73747"></scales>
<clustering>
<clus scale="   80.576">  5  6 -1 -1</clus>
<clus scale="   89.438">  7  8 -1 -1</clus>
<clus scale="  132.927">  1  9  2 -1</clus>
<clus scale="  158.100">  2  5  1 -1</clus>
<clus scale="  212.737">  1 10  2 -1</clus>
<clus scale="  132.927">  1  5  2 -1</clus>
</clustering>
</event>
<event>
10    4  0.7697601E-005  0.2221776E+03  0.7546771E-02  0.1133033E+00
          2   -1    0    0  503    0 -0.00000000000E+00  0.00000000000E+00  0.10709829877E+04  0.10709829877E+04  0.00000000000E+00 0. -1.
         21   -1    0    0  501  502  0.00000000000E+00 -0.00000000000E+00 -0.79528828101E+02  0.79528828101E+02  0.00000000000E+00 0.  1.
         24    2    1    2    0    0 -0.11908326744E+03 -0.19165499310E+03  0.42232843440E+03  0.48556336661E+03  0.80610269353E+02 0.  0.
         23    2    1    2    0    0  0.14055468727E+03  0.11601476882E+03  0.25527130406E+03  0.32662494053E+03  0.91133783007E+02 0.  0.
        -13    1    3    3    0    0 -0.54089583703E+02 -0.14387809271E+03  0.22608316939E+03  0.27338651779E+03  0.00000000000E+00 0.  1.
         14    1    3    3    0    0 -0.64993683740E+02 -0.47776900390E+02  0.19624526501E+03  0.21217684882E+03  0.00000000000E+00 0. -1.
        -11    1    4    4    0    0  0.58388660685E+02  0.77071150401E+01  0.12573326815E+03  0.13884340113E+03  0.00000000000E+00 0. -1.
         11    1    4    4    0    0  0.82166026590E+02  0.10830765378E+03  0.12953803591E+03  0.18778153940E+03  0.00000000000E+00 0.  1.
         21    1    1    2  503  502 -0.36953323745E+02  0.34347345837E+02  0.50790762096E+02  0.71589034190E+02  0.00000000000E+00 0. -1.
          1    1    1    2  501    0  0.15481903915E+02  0.41292878440E+02  0.26306365903E+03  0.26673447445E+03  0.00000000000E+00 0. -1.
<scales pt_clust_5="13000.00000" pt_clust_6="13000.00000" pt_clust_7="13000.00000" pt_clust_8="13000.00000" pt_clust_9="52.97785" pt_clust_10="44.09981"></scales>
<clustering>
<clus scale="   44.100">  2 10  1 -1</clus>
<clus scale="   52.978">  2  9  1 -1</clus>
<clus scale="   80.610">  5  6 -1 -1</clus>
<clus scale="   91.134">  7  8 -1 -1</clus>
<clus scale="  218.072">  1  5  2 -1</clus>
<clus scale="   44.100">  2  5  1 -1</clus>
</clustering>
</event>
<event>
10    4  0.7697601E-005  0.2370116E+03  0.7546771E-02  0.1122580E+00
         21   -1    0    0  501  502  0.00000000000E+00  0.00000000000E+00  0.28135842336E+03  0.28135842336E+03  0.00000000000E+00 0.  1.
         -3   -1    0    0    0  501 -0.00000000000E+00 -0.00000000000E+00 -0.47530864257E+03  0.47530864257E+03  0.00000000000E+00 0.  1.
         24    2    1    2    0    0 -0.21176705831E+03 -0.14160712789E+03 -0.20415431782E+03  0.33563989262E+03  0.77956952078E+02 0.  0.
         23    2    1    2    0    0  0.10327320170E+03  0.10942846823E+03  0.72642150308E+02  0.19009120127E+03  0.90652296988E+02 0.  0.
        -11    1    3    3    0    0 -0.21383070529E+03 -0.14638262201E+03 -0.19229579899E+03  0.32269043504E+03  0.00000000000E+00 0.  1.
         12    1    3    3    0    0  0.20636469769E+01  0.47754941257E+01 -0.11858518822E+02  0.12949457581E+02  0.00000000000E+00 0. -1.
        -11    1    4    4    0    0  0.20876114551E+02  0.88035012397E+02  0.39875309736E+02  0.98873737124E+02  0.00000000000E+00 0. -1.
         11    1    4    4    0    0  0.82397087152E+02  0.21393455831E+02  0.32766840573E+02  0.91217464143E+02  0.00000000000E+00 0.  1.
         21    1    1    2  503  502  0.33070872913E+02 -0.52053921038E+00  0.68651103911E+02  0.76203199831E+02  0.00000000000E+00 0. -1.
         -4    1    1    2    0  503  0.75422983698E+02  0.32699198869E+02 -0.13108915561E+03  0.15473277221E+03  0.00000000000E+00 0.  1.
<scales pt_clust_5="13000.00000" pt_clust_6="13000.00000" pt_clust_7="13000.00000" pt_clust_8="13000.00000" pt_clust_9="33.07497" pt_clust_10="83.91492"></scales>
<clustering>
<clus scale="   33.075">  1  9  2 -1</clus>
<clus scale="   77.957">  5  6 -1 -1</clus>
<clus scale="   83.915">  1 10  2 -1</clus>
<clus scale="   90.652">  7  8 -1 -1</clus>
<clus scale="  232.452">  2  5  1 -1</clus>
<clus scale="   33.075">  1  5  2 -1</clus>
</clustering>
</event>
<event>
10    4  0.7697601E-005  0.1798524E+03  0.7546771E-02  0.1192548E+00
          2   -1    0    0  503    0 -0.00000000000E+00  0.00000000000E+00  0.13435880833E+04  0.13435880833E+04  0.00000000000E+00 0. -1.
         21   -1    0    0  501  502  0.00000000000E+00 -0.00000000000E+00 -0.92675865668E+02  0.92675865668E+02  0.00000000000E+00 0. -1.
         23    2    1    2    0    0  0.49900131830E+02 -0.98338104396E+01  0.11036168520E+03  0.15153993844E+03  0.90542390064E+02 0.  0.
         24    2    1    2    0    0  0.42322428232E+02  0.16627944395E+03  0.56385968208E+03  0.59489498836E+03  0.80760539164E+02 0.  0.
        -11    1    4    4    0    0  0.19843394639E+02  0.31966965790E+01  0.11618723907E+03  0.11791290728E+03  0.00000000000E+00 0.  1.
         12    1    4    4    0    0  0.22479033593E+02  0.16308274737E+03  0.44767244301E+03  0.47698208108E+03  0.00000000000E+00 0. -1.
        -11    1    3    3    0    0  0.28678315457E+02  0.32828807067E+02  0.89445157983E+02  0.99501822283E+02  0.00000000000E+00 0.  1.
         11    1    3    3    0    0  0.21221816372E+02 -0.42662617507E+02  0.20916527219E+02  0.52038116161E+02  0.00000000000E+00 0. -1.
         21    1    1    2  503  502 -0.92552409206E+01 -0.23498210916E+02 -0.43415725365E+02  0.50226990849E+02  0.00000000000E+00 0. -1.
          1    1    1    2  501    0 -0.82967319141E+02 -0.13294742260E+03  0.62010657570E+03  0.63960203131E+03  0.00000000000E+00 0. -1.
<scales pt_clust_5="13000.00000" pt_clust_6="13000.00000" pt_clust_7="13000.00000" pt_clust_8="13000.00000" pt_clust_9="25.25521" pt_clust_10="160.70054"></scales>
<clustering>
<clus scale="   25.255">  2  9  1 -1</clus>
<clus scale="   80.761">  5  6 -1 -1</clus>
<clus scale="   90.542">  7  8 -1 -1</clus>
<clus scale="  103.470">  1  7  2 -1</clus>
<clus scale="  160.701">  2 10  1 -1</clus>
<clus scale="   25.255">  2  5  1 -1</clus>
</clustering>
</event>
<event>
10    4  0.7697601E-005  0.2009854E+03  0.7546771E-02  0.1167668E+00
          2   -1    0    0  502    0 -0.00000000000E+00  0.00000000000E+00  0.30733528797E+03  0.30733528797E+03  0.00000000000E+00 0. -1.
         21   -1    0    0  503  502  0.00000000000E+00 -0.00000000000E+00 -0.35937043781E+03  0.35937043781E+03  0.00000000000E+00 0. -1.
         23    2    1    2    0    0  0.75982980702E+02 -0.79258346310E+02  0.13569001016E+03  0.18681926952E+03  0.66591003827E+02 0.  0.
         24    2    1    2    0    0  0.13221118196E+03  0.34581158891E+02  0.53593010573E+01  0.15864439388E+03  0.80396942834E+02 0.  0.
        -13    1    4    4    0    0  0.98086933209E+01 -0.21392734726E+02 -0.33393751966E+01  0.23769959833E+02  0.00000000000E+00 0.  1.
         14    1    4    4    0    0  0.12240248864E+03  0.55973893618E+02  0.86986762540E+01  0.13487443405E+03  0.00000000000E+00 0. -1.
        -13    1    3    3    0    0  0.10322558804E+02 -0.54391847138E+02  0.40774432602E+02  0.68757418577E+02  0.00000000000E+00 0.  1.
         13    1    3    3    0    0  0.65660421898E+02 -0.24866499172E+02  0.94915577562E+02  0.11806185095E+03  0.00000000000E+00 0. -1.
         21    1    1    2  503  501  0.18076929562E+02 -0.89856798128E+01 -0.33813836371E+02  0.39381383345E+02  0.00000000000E+00 0. -1.
          1    1    1    2  501    0 -0.22627109222E+03  0.53662867231E+02 -0.15927062469E+03  0.28186067903E+03  0.00000000000E+00 0. -1.
<scales pt_clust_5="13000.00000" pt_clust_6="13000.00000" pt_clust_7="13000.00000" pt_clust_8="13000.00000" pt_clust_9="20.18707" pt_clust_10="184.20499"></scales>
<clustering>
<clus scale="   20.187">  2  9  1 -1</clus>
<clus scale="   66.591">  7  8 -1 -1</clus>
<clus scale="   80.397">  5  6 -1 -1</clus>
<clus scale="  129.702">  1  7  2 -1</clus>
<clus scale="  184.205">  2 10  1 -1</clus>
<clus scale="   20.187">  2  5  1 -1</clus>
</clustering>
</event>
<event>
10    4  0.7697601E-005  0.1731221E+03  0.7546771E-02  0.1176704E+00
         21   -1    0    0  501  502  0.00000000000E+00  0.00000000000E+00  0.11315295386E+03  0.11315295386E+03  0.00000000000E+00 0.  1.
         -1   -1    0    0    0  501 -0.00000000000E+00 -0.00000000000E+00 -0.10735123123E+04  0.10735123123E+04  0.00000000000E+00 0.  1.
         24    2    1    2    0    0 -0.52548224428E+01 -0.12359220710E+03 -0.22300214108E+03  0.27560024342E+03  0.10451264243E+03 0.  0.
         23    2    1    2    0    0  0.85433795439E+02  0.15067938090E+03 -0.16664133217E+03  0.25692045572E+03  0.90750084002E+02 0.  0.
        -13    1    3    3    0    0 -0.30052718815E+02 -0.12777245514E+03 -0.15507783288E+03  0.20317012687E+03  0.00000000000E+00 0.  1.
         14    1    3    3    0    0  0.24797896372E+02  0.41802480374E+01 -0.67924308205E+02  0.72430116548E+02  0.00000000000E+00 0. -1.
        -13    1    4    4    0    0  0.51750911188E+01  0.79330180894E+02 -0.10938409309E+03  0.13522181403E+03  0.00000000000E+00 0. -1.
         13    1    4    4    0    0  0.80258704320E+02  0.71349200009E+02 -0.57257239076E+02  0.12169864168E+03  0.00000000000E+00 0.  1.
         21    1    1    2  503  502  0.72397558974E+01 -0.23270664321E+02  0.34719237626E+02  0.42418903154E+02  0.00000000000E+00 0.  1.
         -2    1    1    2    0  503 -0.87418728893E+02 -0.38165094776E+01 -0.60543512285E+03  0.61172566391E+03  0.00000000000E+00 0.  1.
<scales pt_clust_5="13000.00000" pt_clust_6="13000.00000" pt_clust_7="13000.00000" pt_clust_8="13000.00000" pt_clust_9="24.37084" pt_clust_10="87.24549"></scales>
<clustering>
<clus scale="   24.371">  1  9  2 -1</clus>
<clus scale="   87.245">  1 10  2 -1</clus>
<clus scale="   90.750">  7  8 -1 -1</clus>
<clus scale="  104.513">  5  6 -1 -1</clus>
<clus scale="  165.179">  1  7  2 -1</clus>
<clus scale="   24.371">  1  5  2 -1</clus>
</clustering>
</event>
<event>
10    4  0.7697601E-005  0.1050173E+03  0.7546771E-02  0.1275700E+00
         21   -1    0    0  501  502  0.00000000000E+00  0.00000000000E+00  0.38101360621E+03  0.38101360621E+03  0.00000000000E+00 0. -1.
          2   -1    0    0  503    0 -0.00000000000E+00 -0.00000000000E+00 -0.63030525983E+03  0.63030525983E+03  0.00000000000E+00 0. -1.
         24    2    1    2    0    0 -0.55346213206E+02  0.18103433717E+01 -0.52695150553E+03  0.53596667724E+03  0.80721182304E+02 0.  0.
         23    2    1    2    0    0  0.10365163259E+02 -0.20023373479E+02 -0.67106252840E+02  0.11692448312E+03  0.93057581571E+02 0.  0.
        -11    1    3    3    0    0 -0.72794004763E+02 -0.77443117650E+01 -0.33048248172E+03  0.33849314944E+03  0.00000000000E+00 0.  1.
         12    1    3    3    0    0  0.17447791557E+02  0.95546551367E+01 -0.19646902381E+03  0.19747352780E+03  0.00000000000E+00 0. -1.
        -13    1    4    4    0    0  0.43724676415E+02 -0.37462545885E+02 -0.46501479555E+02  0.74011332055E+02  0.00000000000E+00 0.  1.
         13    1    4    4    0    0 -0.33359513156E+02  0.17439172406E+02 -0.20604773285E+02  0.42913151065E+02  0.00000000000E+00 0. -1.
         21    1    1    2  503  502 -0.10722606381E+02  0.37334345880E+02  0.15038000339E+03  0.15531572068E+03  0.00000000000E+00 0. -1.
          1    1    1    2  501    0  0.55703656328E+02 -0.19121315772E+02  0.19438610136E+03  0.20311198499E+03  0.00000000000E+00 0. -1.
<scales pt_clust_5="13000.00000" pt_clust_6="13000.00000" pt_clust_7="13000.00000" pt_clust_8="13000.00000" pt_clust_9="38.84363" pt_clust_10="48.26098"></scales>
<clustering>
<clus scale="   38.844">  1  9  2 -1</clus>
<clus scale="   48.261">  1 10  2 -1</clus>
<clus scale="   80.721">  5  6 -1 -1</clus>
<clus scale="   93.058">  7  8 -1 -1</clus>
<clus scale="   94.259">  2  5  1 -1</clus>
<clus scale="   38.844">  1  5  2 -1</clus>
</clustering>
</event>
<event>
10    4  0.7697601E-005  0.1653974E+03  0.7546771E-02  0.1184524E+00
         21   -1    0    0  501  502  0.00000000000E+00  0.00000000000E+00  0.88768637292E+02  0.88768637292E+02  0.00000000000E+00 0.  1.
         -1   -1    0    0    0  501 -0.00000000000E+00 -0.00000000000E+00 -0.13283907425E+04  0.13283907425E+04  0.00000000000E+00 0.  1.
         24    2    1    2    0    0  0.13408998609E+03 -0.19195696975E+02 -0.68524604946E+03  0.70305006176E+03  0.79803771144E+02 0.  0.
         23    2    1    2    0    0 -0.13945785791E+03  0.19470179409E+02 -0.44724478953E+03  0.47783447817E+03  0.92034258523E+02 0.  0.
        -13    1    3    3    0    0  0.11992288368E+03  0.14372423980E+02 -0.52543651525E+03  0.53913968149E+03  0.00000000000E+00 0.  1.
         14    1    3    3    0    0  0.14167102405E+02 -0.33568120955E+02 -0.15980953421E+03  0.16391038026E+03  0.00000000000E+00 0. -1.
        -11    1    4    4    0    0 -0.31576930349E+02  0.46431538667E+02 -0.12790137188E+03  0.13968447030E+03  0.00000000000E+00 0. -1.
         11    1    4    4    0    0 -0.10788092756E+03 -0.26961359258E+02 -0.31934341765E+03  0.33815000787E+03  0.00000000000E+00 0.  1.
         21    1    1    2  503  502 -0.28326519125E+02  0.82871741756E+01  0.59306786365E+02  0.66244726964E+02  0.00000000000E+00 0.  1.
         -2    1    1    2    0  503  0.33694390948E+02 -0.85616566100E+01 -0.16643805254E+03  0.17003011286E+03  0.00000000000E+00 0.  1.
<scales pt_clust_5="13000.00000" pt_clust_6="13000.00000" pt_clust_7="13000.00000" pt_clust_8="13000.00000" pt_clust_9="29.51388" pt_clust_10="32.72721"></scales>
<clustering>
<clus scale="   29.514">  1  9  2 -1</clus>
<clus scale="   32.727">  1 10  2 -1</clus>
<clus scale="   79.804">  5  6 -1 -1</clus>
<clus scale="   92.034">  7  8 -1 -1</clus>
<clus scale="  158.917">  2  5  1 -1</clus>
<clus scale="   29.514">  1  5  2 -1</clus>
</clustering>
</event>
<event>
10    4  0.7697601E-005  0.1159737E+03  0.7546771E-02  0.1263543E+00
         21   -1    0    0  501  502  0.00000000000E+00  0.00000000000E+00  0.91247220437E+02  0.91247220437E+02  0.00000000000E+00 0. -1.
          2   -1    0    0  503    0 -0.00000000000E+00 -0.00000000000E+00 -0.32391099211E+03  0.32391099211E+03  0.00000000000E+00 0. -1.
         23    2    1    2    0    0 -0.65157153810E+01 -0.50183228204E+02 -0.17229189561E+03  0.21027497129E+03  0.10940866198E+03 0.  0.
         24    2    1    2    0    0  0.86714718965E+01  0.19938436898E+02 -0.35627355747E+02  0.90021538365E+02  0.79761100803E+02 0.  0.
        -13    1    4    4    0    0  0.41609660442E+02  0.16621973849E+02 -0.35090946016E+02  0.56912462159E+02  0.00000000000E+00 0.  1.
         14    1    4    4    0    0 -0.32938188545E+02  0.33164630488E+01 -0.53640973101E+00  0.33109076206E+02  0.00000000000E+00 0. -1.
        -11    1    3    3    0    0  0.34757998154E+02 -0.53116336372E+02 -0.15087113687E+03  0.16368128654E+03  0.00000000000E+00 0. -1.
         11    1    3    3    0    0 -0.41273713535E+02  0.29331081687E+01 -0.21420758745E+02  0.46593684741E+02  0.00000000000E+00 0.  1.
         21    1    1    2  503  502  0.30547360166E+02  0.47722669061E+01  0.32060593604E+02  0.44539840668E+02  0.00000000000E+00 0. -1.
          1    1    1    2  501    0 -0.32703116682E+02  0.25472524400E+02 -0.56805113920E+02  0.70321862230E+02  0.00000000000E+00 0. -1.
<scales pt_clust_5="13000.00000" pt_clust_6="13000.00000" pt_clust_7="13000.00000" pt_clust_8="13000.00000" pt_clust_9="30.91789" pt_clust_10="38.85771"></scales>
<clustering>
<clus scale="   30.918">  1  9  2 -1</clus>
<clus scale="   38.858">  1 10  2 -1</clus>
<clus scale="   79.761">  5  6 -1 -1</clus>
<clus scale="   88.552">  1  5  2 -1</clus>
<clus scale="  109.409">  7  8 -1 -1</clus>
<clus scale="   30.918">  1  5  2 -1</clus>
</clustering>
</event>
<event>
10    4  0.7697601E-005  0.1221727E+03  0.7546771E-02  0.1243655E+00
         21   -1    0    0  501  502  0.00000000000E+00  0.00000000000E+00  0.22754036395E+03  0.22754036395E+03  0.00000000000E+00 0.  1.
          2   -1    0    0  503    0 -0.00000000000E+00 -0.00000000000E+00 -0.73161002533E+03  0.73161002533E+03  0.00000000000E+00 0. -1.
         24    2    1    2    0    0 -0.66760965745E+02 -0.97319887572E+01 -0.43602015360E+03  0.44831118426E+03  0.79483365767E+02 0.  0.
         23    2    1    2    0    0  0.12713219994E+03  0.33082477980E+02 -0.22116264740E+03  0.27344421217E+03  0.92745748977E+02 0.  0.
        -11    1    3    3    0    0 -0.15305627132E+02  0.33604913940E+02 -0.16162669262E+03  0.16579125498E+03  0.00000000000E+00 0.  1.
         12    1    3    3    0    0 -0.51455338613E+02 -0.43336902697E+02 -0.27439346099E+03  0.28251992928E+03  0.00000000000E+00 0. -1.
        -11    1    4    4    0    0  0.44773281759E+02 -0.32037063690E+02 -0.89014622822E+02  0.10466433626E+03  0.00000000000E+00 0. -1.
         11    1    4    4    0    0  0.82358918177E+02  0.65119541669E+02 -0.13214802458E+03  0.16877987591E+03  0.00000000000E+00 0.  1.
         21    1    1    2  503  502  0.42470992766E+01  0.24222725585E+02  0.15518993462E+03  0.15712636346E+03  0.00000000000E+00 0.  1.
          1    1    1    2  501    0 -0.64618333467E+02 -0.47573214808E+02 -0.20767949896E+01  0.80268629393E+02  0.00000000000E+00 0. -1.
<scales pt_clust_5="13000.00000" pt_clust_6="13000.00000" pt_clust_7="13000.00000" pt_clust_8="13000.00000" pt_clust_9="24.59224" pt_clust_10="71.11436"></scales>
<clustering>
<clus scale="   24.592">  1  9  2 -1</clus>
<clus scale="   71.114">  1 10  2 -1</clus>
<clus scale="   79.483">  5  6 -1 -1</clus>
<clus scale="   92.746">  7  8 -1 -1</clus>
<clus scale="  112.437">  2  5  1 -1</clus>
<clus scale="   24.592">  1  5  2 -1</clus>
</clustering>
</event>
<event>
10    4  0.7697601E-005  0.1394208E+03  0.7546771E-02  0.1217497E+00
          2   -1    0    0  503    0 -0.00000000000E+00  0.00000000000E+00  0.48313626747E+03  0.48313626747E+03  0.00000000000E+00 0. -1.
         21   -1    0    0  501  502  0.00000000000E+00 -0.00000000000E+00 -0.12329535634E+03  0.12329535634E+03  0.00000000000E+00 0. -1.
         23    2    1    2    0    0 -0.12098942774E+03  0.23272399331E+02  0.20866588088E+03  0.25914555687E+03  0.91841840168E+02 0.  0.
         24    2    1    2    0    0  0.80210057559E+02  0.71189534222E+02  0.96185815084E+02  0.16307769319E+03  0.76426565243E+02 0.  0.
        -13    1    4    4    0    0  0.51733354273E+02  0.38958881710E+02  0.83768374817E+01  0.65301652465E+02  0.00000000000E+00 0.  1.
         14    1    4    4    0    0  0.28476703285E+02  0.32230652512E+02  0.87808977602E+02  0.97776040720E+02  0.00000000000E+00 0. -1.
        -11    1    3    3    0    0 -0.90727086716E+02  0.57231725464E+02  0.13310433211E+03  0.17094922606E+03  0.00000000000E+00 0.  1.
         11    1    3    3    0    0 -0.30262341023E+02 -0.33959326133E+02  0.75561548769E+02  0.88196330808E+02  0.00000000000E+00 0. -1.
         21    1    1    2  503  502 -0.22153780739E+02  0.14971720266E+02 -0.23466823008E+02  0.35575752850E+02  0.00000000000E+00 0. -1.
          1    1    1    2  501    0  0.62933150918E+02 -0.10943365382E+03  0.78456038163E+02  0.14863262090E+03  0.00000000000E+00 0. -1.
<scales pt_clust_5="13000.00000" pt_clust_6="13000.00000" pt_clust_7="13000.00000" pt_clust_8="13000.00000" pt_clust_9="26.73841" pt_clust_10="117.33253"></scales>
<clustering>
<clus scale="   26.738">  2  9  1 -1</clus>
<clus scale="   76.427">  5  6 -1 -1</clus>
<clus scale="   91.842">  7  8 -1 -1</clus>
<clus scale="  117.333">  2 10  1 -1</clus>
<clus scale="  129.785">  2  5  1 -1</clus>
<clus scale="   26.738">  2  5  1 -1</clus>
</clustering>
</event>
<event>
10    4  0.7697601E-005  0.1748694E+03  0.7546771E-02  0.1174543E+00
          2   -1    0    0  503    0 -0.00000000000E+00  0.00000000000E+00  0.10676622444E+04  0.10676622444E+04  0.00000000000E+00 0. -1.
         21   -1    0    0  501  502  0.00000000000E+00 -0.00000000000E+00 -0.38051140887E+02  0.38051140887E+02  0.00000000000E+00 0. -1.
         24    2    1    2    0    0  0.13846554597E+03 -0.15121192629E+02  0.49949136732E+03  0.52465103625E+03  0.79785499452E+02 0.  0.
         23    2    1    2    0    0 -0.15228790719E+03  0.12570636174E+02  0.38730483445E+03  0.42657780705E+03  0.92811438446E+02 0.  0.
        -11    1    3    3    0    0  0.51736344939E+02  0.31601764737E+02  0.15791417987E+03  0.16915143844E+03  0.00000000000E+00 0.  1.
         12    1    3    3    0    0  0.86729201030E+02 -0.46722957366E+02  0.34157718745E+03  0.35549959781E+03  0.00000000000E+00 0. -1.
        -11    1    4    4    0    0 -0.13868441818E+03 -0.21788759794E+02  0.28271669848E+03  0.31565305242E+03  0.00000000000E+00 0. -1.
         11    1    4    4    0    0 -0.13603489009E+02  0.34359395968E+02  0.10458813597E+03  0.11092475463E+03  0.00000000000E+00 0.  1.
         21    1    1    2  503  502  0.29234770401E+02 -0.16315324898E+02  0.96681646819E+02  0.10231423390E+03  0.00000000000E+00 0.  1.
          1    1    1    2  501    0 -0.15412409182E+02  0.18865881353E+02  0.46133254878E+02  0.52170308047E+02  0.00000000000E+00 0. -1.
<scales pt_clust_5="13000.00000" pt_clust_6="13000.00000" pt_clust_7="13000.00000" pt_clust_8="13000.00000" pt_clust_9="31.66644" pt_clust_10="24.36111"></scales>
<clustering>
<clus scale="   24.361">  2 10  1 -1</clus>
<clus scale="   31.666">  1  9  2 -1</clus>
<clus scale="   79.785">  5  6 -1 -1</clus>
<clus scale="   92.811">  7  8 -1 -1</clus>
<clus scale="  168.318">  1  5  2 -1</clus>
<clus scale="   24.361">  2  5  1 -1</clus>
</clustering>
</event>
<event>
10    4  0.1391821E-004  0.9739733E+02  0.7546771E-02  0.1293081E+00
          2   -1    0    0  503    0 -0.00000000000E+00  0.00000000000E+00  0.10166066429E+04  0.10166066429E+04  0.00000000000E+00 0. -1.
         21   -1    0    0  501  502  0.00000000000E+00 -0.00000000000E+00 -0.17726773212E+03  0.17726773212E+03  0.00000000000E+00 0. -1.
         24    2    1    2    0    0 -0.73438044945E+01 -0.32454075350E+02  0.86035075539E+03  0.86462253123E+03  0.79129645101E+02 0.  0.
         23    2    1    2    0    0 -0.73020526780E+01  0.18294287608E+02  0.12729358420E+03  0.15843445565E+03  0.92248681431E+02 0.  0.
        -13    1    3    3    0    0  0.88979880582E+01 -0.25289443261E+02  0.86300052241E+02  0.90368297255E+02  0.00000000000E+00 0.  1.
         14    1    3    3    0    0 -0.16241792553E+02 -0.71646320893E+01  0.77405070315E+03  0.77425423398E+03  0.00000000000E+00 0. -1.
        -13    1    4    4    0    0 -0.24651871920E+02 -0.31615657056E+02  0.41708951328E+02  0.57852408602E+02  0.00000000000E+00 0. -1.
         13    1    4    4    0    0  0.17349819242E+02  0.49909944664E+02  0.85584632872E+02  0.10058204705E+03  0.00000000000E+00 0.  1.
         21    1    1    2  503  502  0.28865280002E+02 -0.15872218568E+01 -0.14672038577E+03  0.14954128281E+03  0.00000000000E+00 0. -1.
          1    1    1    2  501    0 -0.14219422830E+02  0.15747009599E+02 -0.15850430331E+01  0.21276105337E+02  0.00000000000E+00 0. -1.
<scales pt_clust_5="13000.00000" pt_clust_6="13000.00000" pt_clust_7="13000.00000" pt_clust_8="13000.00000" pt_clust_9="20.42032" pt_clust_10="21.21698"></scales>
<clustering>
<clus scale="   21.217">  2 10  1 -1</clus>
<clus scale="   20.420">  2  9  1 -1</clus>
<clus scale="   79.130">  5  6 -1 -1</clus>
<clus scale="   85.076">  1  5  2 -1</clus>
<clus scale="   92.249">  7  8 -1 -1</clus>
<clus scale="   21.217">  2  5  1 -1</clus>
</clustering>
</event>
