<event>
 9    2  0.1751298E-004  0.1093066E+03  0.7546771E-02  0.1263132E+00
          2   -1    0    0  502    0 -0.00000000000E+00  0.00000000000E+00  0.56654304719E+02  0.56654304719E+02  0.00000000000E+00 0. -1.
         21   -1    0    0  501  502  0.00000000000E+00 -0.00000000000E+00 -0.33848221272E+03  0.33848221272E+03  0.00000000000E+00 0.  1.
         23    2    1    2    0    0  0.59395753890E+02  0.31530677026E+02 -0.68043662980E+02  0.12558311708E+03  0.81358097635E+02 0.  0.
         24    2    1    2    0    0 -0.50773922138E+02 -0.69033382707E+02 -0.11317188707E+03  0.16183322820E+03  0.77707905841E+02 0.  0.
        -11    1    4    4    0    0 -0.59204697908E+01 -0.58512022772E+02 -0.96166500440E+02  0.11272401953E+03  0.00000000000E+00 0.  1.
         12    1    4    4    0    0 -0.44853452348E+02 -0.10521359935E+02 -0.17005386631E+02  0.49109208677E+02  0.00000000000E+00 0. -1.
        -11    1    3    3    0    0  0.64789393610E+02 -0.79958580598E+01 -0.47329329638E+02  0.80632900943E+02  0.00000000000E+00 0.  1.
         11    1    3    3    0    0 -0.53936397196E+01  0.39526535086E+02 -0.20714333342E+02  0.44950216141E+02  0.00000000000E+00 0. -1.
          1    1    1    2  501    0 -0.86218317520E+01  0.37502705681E+02 -0.10061235794E+03  0.10772017215E+03  0.00000000000E+00 0. -1.
<scales pt_clust_5="13000.00000" pt_clust_6="13000.00000" pt_clust_7="13000.00000" pt_clust_8="13000.00000" pt_clust_9="38.48102"></scales>
<clustering>
<clus scale="   38.481">  2  9  1 -1</clus>
<clus scale="   77.708">  5  6 -1 -1</clus>
<clus scale="   81.358">  7  8 -1 -1</clus>
<clus scale="  106.618">  2  5  1 -1</clus>
<clus scale="   38.481">  2  5  1 -1</clus>
</clustering>
</event>
<event>
 9    2  0.1751298E-004  0.1775405E+03  0.7546771E-02  0.1171494E+00
          2   -1    0    0  502    0 -0.00000000000E+00  0.00000000000E+00  0.12566243454E+04  0.12566243454E+04  0.00000000000E+00 0. -1.
         21   -1    0    0  501  502  0.00000000000E+00 -0.00000000000E+00 -0.34162786265E+03  0.34162786265E+03  0.00000000000E+00 0. -1.
         24    2    1    2    0    0  0.15017689783E+03 -0.27555391311E+02  0.11540782733E+04  0.11669535820E+04  0.81065415641E+02 0.  0.
         23    2    1    2    0    0 -0.10640457307E+03  0.16319514742E+03 -0.12641646549E+03  0.24961859053E+03  0.91508079871E+02 0.  0.
        -11    1    3    3    0    0  0.13382097919E+02  0.23150759854E+02  0.15761997069E+03  0.15987211573E+03  0.00000000000E+00 0.  1.
         12    1    3    3    0    0  0.13679479991E+03 -0.50706151165E+02  0.99645830257E+03  0.10070814663E+04  0.00000000000E+00 0. -1.
        -11    1    4    4    0    0 -0.39203495235E+02  0.78700820575E+00 -0.18358913493E+02  0.43296456266E+02  0.00000000000E+00 0.  1.
         11    1    4    4    0    0 -0.67201077831E+02  0.16240813921E+03 -0.10805755200E+03  0.20632213427E+03  0.00000000000E+00 0. -1.
          1    1    1    2  501    0 -0.43772324760E+02 -0.13563975611E+03 -0.11266532497E+03  0.18168003551E+03  0.00000000000E+00 0. -1.
<scales pt_clust_5="13000.00000" pt_clust_6="13000.00000" pt_clust_7="13000.00000" pt_clust_8="13000.00000" pt_clust_9="142.52775"></scales>
<clustering>
<clus scale="   81.065">  5  6 -1 -1</clus>
<clus scale="   91.508">  7  8 -1 -1</clus>
<clus scale="  142.528">  2  9  1 -1</clus>
<clus scale="  172.391">  1  5  2 -1</clus>
<clus scale="  142.528">  2  5  1 -1</clus>
</clustering>
</event>
<event>
 9    2  0.1751298E-004  0.1116875E+03  0.7546771E-02  0.1263263E+00
         21   -1    0    0  501  502  0.00000000000E+00  0.00000000000E+00  0.21560555617E+03  0.21560555617E+03  0.00000000000E+00 0.  1.
          2   -1    0    0  502    0 -0.00000000000E+00 -0.00000000000E+00 -0.18023288946E+03  0.18023288946E+03  0.00000000000E+00 0. -1.
         23    2    1    2    0    0  0.52197265761E+02  0.57222823631E+02 -0.47674831056E+02  0.12942641462E+03  0.92083121080E+02 0.  0.
         24    2    1    2    0    0 -0.21842005766E+02  0.10073507758E+02  0.14766299179E+03  0.16830290761E+03  0.77090601196E+02 0.  0.
        -13    1    4    4    0    0 -0.42785314977E+02 -0.12835638723E+02  0.11437686151E+03  0.12279007797E+03  0.00000000000E+00 0.  1.
         14    1    4    4    0    0  0.20943309211E+02  0.22909146480E+02  0.33286130274E+02  0.45512829639E+02  0.00000000000E+00 0. -1.
        -13    1    3    3    0    0  0.29177704225E+01  0.64266514740E+02 -0.61967411276E+01  0.64630471928E+02  0.00000000000E+00 0. -1.
         13    1    3    3    0    0  0.49279495338E+02 -0.70436911085E+01 -0.41478089928E+02  0.64795942692E+02  0.00000000000E+00 0.  1.
          1    1    1    2  501    0 -0.30355259994E+02 -0.67296331389E+02 -0.64615494020E+02  0.98109123404E+02  0.00000000000E+00 0. -1.
<scales pt_clust_5="13000.00000" pt_clust_6="13000.00000" pt_clust_7="13000.00000" pt_clust_8="13000.00000" pt_clust_9="73.82576"></scales>
<clustering>
<clus scale="   73.826">  1  9  2 -1</clus>
<clus scale="   77.091">  5  6 -1 -1</clus>
<clus scale="   92.083">  7  8 -1 -1</clus>
<clus scale="   99.688">  1  5  2 -1</clus>
<clus scale="   73.826">  1  5  2 -1</clus>
</clustering>
</event>
<event>
 9    2  0.1751298E-004  0.9145751E+02  0.7546771E-02  0.1309523E+00
          2   -1    0    0  502    0 -0.00000000000E+00  0.00000000000E+00  0.22706925786E+03  0.22706925786E+03  0.00000000000E+00 0. -1.
         21   -1    0    0  501  502  0.00000000000E+00 -0.00000000000E+00 -0.16945164073E+03  0.16945164073E+03  0.00000000000E+00 0.  1.
         24    2    1    2    0    0  0.54315344068E+01 -0.37011331000E+01  0.18251416337E+03  0.19775686246E+03  0.75849567340E+02 0.  0.
         23    2    1    2    0    0  0.15226924684E+02 -0.20555356259E+02 -0.31361267970E+02  0.99951094211E+02  0.91390974385E+02 0.  0.
        -13    1    3    3    0    0  0.22456871148E+02  0.23837770801E+02  0.14285122237E+03  0.14655723152E+03  0.00000000000E+00 0.  1.
         14    1    3    3    0    0 -0.17025336741E+02 -0.27538903901E+02  0.39662941005E+02  0.51199630940E+02  0.00000000000E+00 0. -1.
        -11    1    4    4    0    0  0.50022109327E+02 -0.22664434034E+02 -0.34654131629E+02  0.64936868038E+02  0.00000000000E+00 0.  1.
         11    1    4    4    0    0 -0.34795184643E+02  0.21090777749E+01  0.32928636588E+01  0.35014226173E+02  0.00000000000E+00 0. -1.
          1    1    1    2  501    0 -0.20658459091E+02  0.24256489359E+02 -0.93535278278E+02  0.98812941918E+02  0.00000000000E+00 0. -1.
<scales pt_clust_5="13000.00000" pt_clust_6="13000.00000" pt_clust_7="13000.00000" pt_clust_8="13000.00000" pt_clust_9="31.86141"></scales>
<clustering>
<clus scale="   31.861">  2  9  1 -1</clus>
<clus scale="   75.850">  5  6 -1 -1</clus>
<clus scale="   75.930">  1  5  2 -1</clus>
<clus scale="   91.391">  7  8 -1 -1</clus>
<clus scale="   31.861">  2  5  1 -1</clus>
</clustering>
</event>
<event>
 9    2  0.1751298E-004  0.1045739E+03  0.7546771E-02  0.1273606E+00
          2   -1    0    0  502    0 -0.00000000000E+00  0.00000000000E+00  0.20536229706E+03  0.20536229706E+03  0.00000000000E+00 0. -1.
         21   -1    0    0  501  502  0.00000000000E+00 -0.00000000000E+00 -0.11407641558E+03  0.11407641558E+03  0.00000000000E+00 0.  1.
         23    2    1    2    0    0 -0.16264644112E+02 -0.70666960662E-01  0.11434805834E+02  0.91028914633E+02  0.88831103072E+02 0.  0.
         24    2    1    2    0    0  0.71170093421E+02  0.63884660761E+02  0.67587339025E+02  0.14333786724E+03  0.82651459210E+02 0.  0.
        -13    1    4    4    0    0  0.60558554073E+02  0.22734992730E+01  0.17067412738E+02  0.62958747192E+02  0.00000000000E+00 0.  1.
         14    1    4    4    0    0  0.10611539348E+02  0.61611161488E+02  0.50519926287E+02  0.80379120045E+02  0.00000000000E+00 0. -1.
        -13    1    3    3    0    0 -0.69469364092E+01 -0.44434614411E+02  0.59650199798E+01  0.45368230588E+02  0.00000000000E+00 0.  1.
         13    1    3    3    0    0 -0.93177077025E+01  0.44363947450E+02  0.54697858542E+01  0.45660684045E+02  0.00000000000E+00 0. -1.
          1    1    1    2  501    0 -0.54905449309E+02 -0.63813993800E+02  0.12263736616E+02  0.85071930767E+02  0.00000000000E+00 0. -1.
<scales pt_clust_5="13000.00000" pt_clust_6="13000.00000" pt_clust_7="13000.00000" pt_clust_8="13000.00000" pt_clust_9="84.18334"></scales>
<clustering>
<clus scale="   82.651">  5  6 -1 -1</clus>
<clus scale="   84.183">  2  9  1 -1</clus>
<clus scale="   88.831">  7  8 -1 -1</clus>
<clus scale="   99.378">  2  5  1 -1</clus>
<clus scale="   84.183">  2  5  1 -1</clus>
</clustering>
</event>
<event>
 9    2  0.1751298E-004  0.2031097E+03  0.7546771E-02  0.1168726E+00
          2   -1    0    0  502    0 -0.00000000000E+00  0.00000000000E+00  0.80484877451E+03  0.80484877451E+03  0.00000000000E+00 0. -1.
         21   -1    0    0  501  502  0.00000000000E+00 -0.00000000000E+00 -0.21916901566E+03  0.21916901566E+03  0.00000000000E+00 0. -1.
         23    2    1    2    0    0  0.44496938127E+02  0.68285785480E+02  0.10688117982E+03  0.16269210284E+03  0.91663557244E+02 0.  0.
         24    2    1    2    0    0 -0.60394859408E+02  0.12189992827E+03  0.60964587487E+03  0.62992913497E+03  0.81458521810E+02 0.  0.
        -11    1    4    4    0    0 -0.37923364311E+02  0.11954293421E+02  0.91431822667E+02  0.99703886023E+02  0.00000000000E+00 0.  1.
         12    1    4    4    0    0 -0.22471495097E+02  0.10994563485E+03  0.51821405221E+03  0.53022524894E+03  0.00000000000E+00 0. -1.
        -13    1    3    3    0    0  0.31985666864E+02  0.89752169216E+02  0.70035872484E+02  0.11825209596E+03  0.00000000000E+00 0. -1.
         13    1    3    3    0    0  0.12511271262E+02 -0.21466383736E+02  0.36845307339E+02  0.44440006888E+02  0.00000000000E+00 0.  1.
          1    1    1    2  501    0  0.15897921281E+02 -0.19018571375E+03 -0.13084729584E+03  0.23139655236E+03  0.00000000000E+00 0. -1.
<scales pt_clust_5="13000.00000" pt_clust_6="13000.00000" pt_clust_7="13000.00000" pt_clust_8="13000.00000" pt_clust_9="186.05934"></scales>
<clustering>
<clus scale="   81.459">  5  6 -1 -1</clus>
<clus scale="   91.664">  7  8 -1 -1</clus>
<clus scale="  122.659">  1  7  2 -1</clus>
<clus scale="  186.059">  2  9  1 -1</clus>
<clus scale="  186.059">  2  5  1 -1</clus>
</clustering>
</event>
<event>
 9    2  0.1751298E-004  0.1619892E+03  0.7546771E-02  0.1191862E+00
         21   -1    0    0  501  502  0.00000000000E+00  0.00000000000E+00  0.10875138926E+03  0.10875138926E+03  0.00000000000E+00 0.  1.
          2   -1    0    0  502    0 -0.00000000000E+00 -0.00000000000E+00 -0.13439976478E+04  0.13439976478E+04  0.00000000000E+00 0. -1.
         24    2    1    2    0    0  0.20332608698E+02  0.11668943020E+03 -0.26439873425E+03  0.30095918022E+03  0.81485577807E+02 0.  0.
         23    2    1    2    0    0  0.12872168606E+03 -0.30050661274E+02  0.36108032986E+01  0.16219777357E+03  0.93929575455E+02 0.  0.
        -11    1    3    3    0    0  0.42606590839E+02  0.11274225938E+03 -0.23209100074E+03  0.26151935159E+03  0.00000000000E+00 0.  1.
         12    1    3    3    0    0 -0.22273982141E+02  0.39471708232E+01 -0.32307733509E+02  0.39439828630E+02  0.00000000000E+00 0. -1.
        -13    1    4    4    0    0  0.41915849439E+02  0.22190635332E+02  0.31720071329E+02  0.57057213880E+02  0.00000000000E+00 0.  1.
         13    1    4    4    0    0  0.86805836618E+02 -0.52241296606E+02 -0.28109268030E+02  0.10514055969E+03  0.00000000000E+00 0. -1.
          1    1    1    2  501    0 -0.14905429476E+03 -0.86638768928E+02 -0.97445832754E+03  0.98959208322E+03  0.00000000000E+00 0. -1.
<scales pt_clust_5="13000.00000" pt_clust_6="13000.00000" pt_clust_7="13000.00000" pt_clust_8="13000.00000" pt_clust_9="131.97634"></scales>
<clustering>
<clus scale="   81.486">  5  6 -1 -1</clus>
<clus scale="   93.930">  7  8 -1 -1</clus>
<clus scale="  143.770">  2  5  1 -1</clus>
<clus scale="  131.976">  1  9  2 -1</clus>
<clus scale="  131.976">  1  5  2 -1</clus>
</clustering>
</event>
<event>
 9    2  0.1751298E-004  0.1102870E+03  0.7546771E-02  0.1264394E+00
         21   -1    0    0  501  502  0.00000000000E+00  0.00000000000E+00  0.23047234080E+03  0.23047234080E+03  0.00000000000E+00 0. -1.
          2   -1    0    0  502    0 -0.00000000000E+00 -0.00000000000E+00 -0.25223393105E+03  0.25223393105E+03  0.00000000000E+00 0. -1.
         24    2    1    2    0    0  0.35250640562E+01  0.66068490946E+02 -0.20457218842E+03  0.22986968426E+03  0.81319246763E+02 0.  0.
         23    2    1    2    0    0  0.39669067533E+02 -0.63429446647E+01  0.98357981813E+02  0.14074234914E+03  0.92305191565E+02 0.  0.
        -13    1    3    3    0    0 -0.23968953125E+02 -0.25879106050E+01 -0.21045541590E+02  0.32001918943E+02  0.00000000000E+00 0.  1.
         14    1    3    3    0    0  0.27494017181E+02  0.68656401551E+02 -0.18352664683E+03  0.19786776532E+03  0.00000000000E+00 0. -1.
        -11    1    4    4    0    0  0.38244622497E+02  0.30039136104E+02  0.91602163597E+02  0.10371093107E+03  0.00000000000E+00 0. -1.
         11    1    4    4    0    0  0.14244450356E+01 -0.36382080768E+02  0.67558182160E+01  0.37031418072E+02  0.00000000000E+00 0.  1.
          1    1    1    2  501    0 -0.43194131589E+02 -0.59725546282E+02  0.84452616362E+02  0.11209423845E+03  0.00000000000E+00 0. -1.
<scales pt_clust_5="13000.00000" pt_clust_6="13000.00000" pt_clust_7="13000.00000" pt_clust_8="13000.00000" pt_clust_9="73.70803"></scales>
<clustering>
<clus scale="   73.708">  1  9  2 -1</clus>
<clus scale="   81.319">  5  6 -1 -1</clus>
<clus scale="   92.305">  7  8 -1 -1</clus>
<clus scale="  101.271">  2  5  1 -1</clus>
<clus scale="   73.708">  1  5  2 -1</clus>
</clustering>
</event>
<event>
 9    2  0.1751298E-004  0.1763638E+03  0.7546771E-02  0.1175910E+00
         21   -1    0    0  501  502  0.00000000000E+00  0.00000000000E+00  0.79556193366E+03  0.79556193366E+03  0.00000000000E+00 0.  1.
         -3   -1    0    0    0  501 -0.00000000000E+00 -0.00000000000E+00 -0.44893640273E+02  0.44893640273E+02  0.00000000000E+00 0.  1.
         23    2    1    2    0    0  0.85398817744E+02 -0.89742237971E+02  0.35520981240E+03  0.39236666641E+03  0.11149422736E+03 0.  0.
         24    2    1    2    0    0 -0.93747931746E+02  0.11760457892E+03  0.37607072756E+03  0.41313318223E+03  0.81426791942E+02 0.  0.
        -13    1    4    4    0    0 -0.36973457602E+01  0.62432541237E+02  0.10497587335E+03  0.12219421654E+03  0.00000000000E+00 0.  1.
         14    1    4    4    0    0 -0.90050585986E+02  0.55172037682E+02  0.27109485421E+03  0.29093896569E+03  0.00000000000E+00 0. -1.
        -11    1    3    3    0    0  0.46780533176E+02 -0.22535951420E+02  0.34307308735E+02  0.62235671630E+02  0.00000000000E+00 0. -1.
         11    1    3    3    0    0  0.38618284568E+02 -0.67206286550E+02  0.32090250366E+03  0.33013099478E+03  0.00000000000E+00 0.  1.
         -4    1    1    2    0  502  0.83491140017E+01 -0.27862340948E+02  0.19387753432E+02  0.34955725294E+02  0.00000000000E+00 0.  1.
<scales pt_clust_5="13000.00000" pt_clust_6="13000.00000" pt_clust_7="13000.00000" pt_clust_8="13000.00000" pt_clust_9="29.08640"></scales>
<clustering>
<clus scale="   29.086">  1  9  2 -1</clus>
<clus scale="   81.427">  5  6 -1 -1</clus>
<clus scale="  111.494">  7  8 -1 -1</clus>
<clus scale="  159.071">  1  5  2 -1</clus>
<clus scale="   29.086">  1  5  2 -1</clus>
</clustering>
</event>
<event>
 9    2  0.1751298E-004  0.1433609E+03  0.7546771E-02  0.1211455E+00
         21   -1    0    0  501  502  0.00000000000E+00  0.00000000000E+00  0.43730972323E+03  0.43730972323E+03  0.00000000000E+00 0. -1.
          2   -1    0    0  502    0 -0.00000000000E+00 -0.00000000000E+00 -0.77363096263E+02  0.77363096263E+02  0.00000000000E+00 0. -1.
         24    2    1    2    0    0 -0.93122369623E+02  0.68859566041E+02  0.11089243121E+03  0.17939994783E+03  0.80459893246E+02 0.  0.
         23    2    1    2    0    0  0.61604031845E+02 -0.77284538139E+02  0.26596070233E+03  0.29852758984E+03  0.92820634206E+02 0.  0.
        -11    1    3    3    0    0 -0.38441092604E+02 -0.96600627034E+01  0.57469995640E+02  0.69812855628E+02  0.00000000000E+00 0.  1.
         12    1    3    3    0    0 -0.54681277019E+02  0.78519628745E+02  0.53422435574E+02  0.10958709220E+03  0.00000000000E+00 0. -1.
        -11    1    4    4    0    0  0.11968290023E+02  0.17753075072E+02  0.89683438274E+02  0.92203745809E+02  0.00000000000E+00 0.  1.
         11    1    4    4    0    0  0.49635741822E+02 -0.95037613211E+02  0.17627726406E+03  0.20632384403E+03  0.00000000000E+00 0. -1.
          1    1    1    2  501    0  0.31518337779E+02  0.84249720976E+01 -0.16906506584E+02  0.36745281821E+02  0.00000000000E+00 0. -1.
<scales pt_clust_5="13000.00000" pt_clust_6="13000.00000" pt_clust_7="13000.00000" pt_clust_8="13000.00000" pt_clust_9="32.62494"></scales>
<clustering>
<clus scale="   32.625">  1  9  2 -1</clus>
<clus scale="   80.460">  5  6 -1 -1</clus>
<clus scale="   92.821">  7  8 -1 -1</clus>
<clus scale="  135.685">  2  5  1 -1</clus>
<clus scale="   32.625">  1  5  2 -1</clus>
</clustering>
</event>
<event>
 9    2  0.1751298E-004  0.1289478E+03  0.7546771E-02  0.1232003E+00
         21   -1    0    0  501  502  0.00000000000E+00  0.00000000000E+00  0.51933670733E+02  0.51933670733E+02  0.00000000000E+00 0. -1.
          2   -1    0    0  502    0 -0.00000000000E+00 -0.00000000000E+00 -0.89519139057E+03  0.89519139057E+03  0.00000000000E+00 0. -1.
         24    2    1    2    0    0  0.73946450534E+02  0.10519562024E+03 -0.58032057135E+03  0.59975351413E+03  0.79988224829E+02 0.  0.
         23    2    1    2    0    0 -0.55905072245E+02 -0.19888019970E+01 -0.19521767909E+03  0.22261953237E+03  0.91215029066E+02 0.  0.
        -13    1    3    3    0    0  0.12987811880E+02  0.53427417380E+02 -0.11332184663E+03  0.12595639368E+03  0.00000000000E+00 0.  1.
         14    1    3    3    0    0  0.60958638654E+02  0.51768202862E+02 -0.46699872472E+03  0.47379712044E+03  0.00000000000E+00 0. -1.
        -11    1    4    4    0    0 -0.20485171691E+02 -0.34230788607E+02 -0.15507896357E+03  0.16012768059E+03  0.00000000000E+00 0.  1.
         11    1    4    4    0    0 -0.35419900554E+02  0.32241986610E+02 -0.40138715518E+02  0.62491851783E+02  0.00000000000E+00 0. -1.
          1    1    1    2  501    0 -0.18041378288E+02 -0.10320681825E+03 -0.67719469399E+02  0.12475201481E+03  0.00000000000E+00 0. -1.
<scales pt_clust_5="13000.00000" pt_clust_6="13000.00000" pt_clust_7="13000.00000" pt_clust_8="13000.00000" pt_clust_9="104.77184"></scales>
<clustering>
<clus scale="   79.988">  5  6 -1 -1</clus>
<clus scale="   91.215">  7  8 -1 -1</clus>
<clus scale="  104.772">  1  9  2 -1</clus>
<clus scale="  121.266">  2  5  1 -1</clus>
<clus scale="  104.772">  1  5  2 -1</clus>
</clustering>
</event>
<event>
 9    2  0.1751298E-004  0.1276770E+03  0.7546771E-02  0.1234361E+00
         21   -1    0    0  501  502  0.00000000000E+00  0.00000000000E+00  0.17517412008E+03  0.17517412008E+03  0.00000000000E+00 0. -1.
         -3   -1    0    0    0  501 -0.00000000000E+00 -0.00000000000E+00 -0.16409405937E+03  0.16409405937E+03  0.00000000000E+00 0.  1.
         24    2    1    2    0    0  0.11194737470E+03 -0.10748047755E+02 -0.19440225311E+02  0.13964182848E+03  0.80462305877E+02 0.  0.
         23    2    1    2    0    0 -0.47362947467E+02  0.79299687487E+01  0.68227244030E+02  0.12478716009E+03  0.92794101632E+02 0.  0.
        -11    1    3    3    0    0  0.78997702521E+02 -0.41757360662E+02 -0.27903519385E+02  0.93610472529E+02  0.00000000000E+00 0.  1.
         12    1    3    3    0    0  0.32949672182E+02  0.31009312907E+02  0.84632940744E+01  0.46031355949E+02  0.00000000000E+00 0. -1.
        -13    1    4    4    0    0  0.13877196636E+02  0.20723820290E+02 -0.79823749943E+01  0.26187241635E+02  0.00000000000E+00 0.  1.
         13    1    4    4    0    0 -0.61240144103E+02 -0.12793851542E+02  0.76209619024E+02  0.98599918453E+02  0.00000000000E+00 0. -1.
         -4    1    1    2    0  502 -0.64584427237E+02  0.28180790060E+01 -0.37706958007E+02  0.74839190889E+02  0.00000000000E+00 0.  1.
<scales pt_clust_5="13000.00000" pt_clust_6="13000.00000" pt_clust_7="13000.00000" pt_clust_8="13000.00000" pt_clust_9="64.64591"></scales>
<clustering>
<clus scale="   64.646">  1  9  2 -1</clus>
<clus scale="   80.462">  5  6 -1 -1</clus>
<clus scale="   92.794">  7  8 -1 -1</clus>
<clus scale="  119.016">  2  5  1 -1</clus>
<clus scale="   64.646">  1  5  2 -1</clus>
</clustering>
</event>
<event>
 9    2  0.1751298E-004  0.1029963E+03  0.7546771E-02  0.1279118E+00
         21   -1    0    0  501  502  0.00000000000E+00  0.00000000000E+00  0.13713312609E+03  0.13713312609E+03  0.00000000000E+00 0. -1.
          2   -1    0    0  502    0 -0.00000000000E+00 -0.00000000000E+00 -0.24792336644E+03  0.24792336644E+03  0.00000000000E+00 0. -1.
         24    2    1    2    0    0 -0.15485887047E+02 -0.17364150326E+02  0.69570539313E+01  0.84466197746E+02  0.80900009568E+02 0.  0.
         23    2    1    2    0    0  0.94803093072E+01  0.94821498515E+02  0.28284508360E+02  0.13517870167E+03  0.91609361573E+02 0.  0.
        -13    1    3    3    0    0 -0.38139262642E+02  0.17935952916E+02  0.15418547983E+01  0.42174388888E+02  0.00000000000E+00 0.  1.
         14    1    3    3    0    0  0.22653375595E+02 -0.35300103243E+02  0.54151991330E+01  0.42291808857E+02  0.00000000000E+00 0. -1.
        -11    1    4    4    0    0  0.21205359747E+02 -0.64270017856E+01  0.24711651325E+02  0.33190952761E+02  0.00000000000E+00 0.  1.
         11    1    4    4    0    0 -0.11725050440E+02  0.10124850030E+03  0.35728570348E+01  0.10198774891E+03  0.00000000000E+00 0. -1.
          1    1    1    2  501    0  0.60055777399E+01 -0.77457348188E+02 -0.14603180264E+03  0.16541159311E+03  0.00000000000E+00 0. -1.
<scales pt_clust_5="13000.00000" pt_clust_6="13000.00000" pt_clust_7="13000.00000" pt_clust_8="13000.00000" pt_clust_9="77.68986"></scales>
<clustering>
<clus scale="   77.690">  1  9  2 -1</clus>
<clus scale="   80.900">  5  6 -1 -1</clus>
<clus scale="   91.609">  7  8 -1 -1</clus>
<clus scale="   93.599">  2  5  1 -1</clus>
<clus scale="   77.690">  1  5  2 -1</clus>
</clustering>
</event>
<event>
 9    2  0.1751298E-004  0.1142246E+03  0.7546771E-02  0.1257125E+00
         -1   -1    0    0    0  501 -0.00000000000E+00  0.00000000000E+00  0.11378372548E+03  0.11378372548E+03  0.00000000000E+00 0.  1.
         21   -1    0    0  501  502  0.00000000000E+00 -0.00000000000E+00 -0.48065315762E+03  0.48065315762E+03  0.00000000000E+00 0. -1.
         24    2    1    2    0    0 -0.65076663141E+02 -0.25802176610E+01  0.59946388585E+02  0.11891833000E+03  0.79412657028E+02 0.  0.
         23    2    1    2    0    0  0.94276257534E+02 -0.25685378308E+02 -0.17356022376E+03  0.21902302170E+03  0.91105331194E+02 0.  0.
        -13    1    3    3    0    0 -0.26275619401E+02  0.13425026915E+02  0.69821098381E+02  0.75799903046E+02  0.00000000000E+00 0.  1.
         14    1    3    3    0    0 -0.38801043740E+02 -0.16005244576E+02 -0.98747097959E+01  0.43118426952E+02  0.00000000000E+00 0. -1.
        -13    1    4    4    0    0  0.55485988630E+02 -0.25050768511E+01 -0.20131885700E+02  0.59078449252E+02  0.00000000000E+00 0.  1.
         13    1    4    4    0    0  0.38790268904E+02 -0.23180301457E+02 -0.15342833806E+03  0.15994457245E+03  0.00000000000E+00 0. -1.
         -2    1    1    2    0  502 -0.29199594393E+02  0.28265595969E+02 -0.25325559697E+03  0.25649553139E+03  0.00000000000E+00 0.  1.
<scales pt_clust_5="13000.00000" pt_clust_6="13000.00000" pt_clust_7="13000.00000" pt_clust_8="13000.00000" pt_clust_9="40.63939"></scales>
<clustering>
<clus scale="   40.639">  2  9  1 -1</clus>
<clus scale="   79.413">  5  6 -1 -1</clus>
<clus scale="   91.105">  7  8 -1 -1</clus>
<clus scale="  105.135">  1  5  2 -1</clus>
<clus scale="   40.639">  2  5  1 -1</clus>
</clustering>
</event>
<event>
 9    2  0.1751298E-004  0.9607470E+02  0.7546771E-02  0.1293862E+00
         21   -1    0    0  501  502  0.00000000000E+00  0.00000000000E+00  0.17696265071E+03  0.17696265071E+03  0.00000000000E+00 0.  1.
          2   -1    0    0  502    0 -0.00000000000E+00 -0.00000000000E+00 -0.16643641564E+03  0.16643641564E+03  0.00000000000E+00 0. -1.
         23    2    1    2    0    0  0.17608356130E+02 -0.23771520568E+02 -0.12216804935E+03  0.15546509157E+03  0.91483457624E+02 0.  0.
         24    2    1    2    0    0 -0.44839567608E+02 -0.27437274276E+01  0.81829202236E+02  0.12443709422E+03  0.82282788096E+02 0.  0.
        -13    1    4    4    0    0 -0.17312062410E+02  0.39428115927E+02  0.32579165714E+02  0.53997091302E+02  0.00000000000E+00 0.  1.
         14    1    4    4    0    0 -0.27527505198E+02 -0.42171843354E+02  0.49250036521E+02  0.70440002922E+02  0.00000000000E+00 0. -1.
        -11    1    3    3    0    0 -0.22882005233E+02 -0.42467692326E+02 -0.83521798532E+02  0.96451966724E+02  0.00000000000E+00 0. -1.
         11    1    3    3    0    0  0.40490361363E+02  0.18696171757E+02 -0.38646250817E+02  0.59013124844E+02  0.00000000000E+00 0.  1.
          1    1    1    2  501    0  0.27231211478E+02  0.26515247996E+02  0.50865082188E+02  0.63496880560E+02  0.00000000000E+00 0. -1.
<scales pt_clust_5="13000.00000" pt_clust_6="13000.00000" pt_clust_7="13000.00000" pt_clust_8="13000.00000" pt_clust_9="38.00786"></scales>
<clustering>
<clus scale="   38.008">  1  9  2 -1</clus>
<clus scale="   82.283">  5  6 -1 -1</clus>
<clus scale="   87.359">  1  5  2 -1</clus>
<clus scale="   91.483">  7  8 -1 -1</clus>
<clus scale="   38.008">  1  5  2 -1</clus>
</clustering>
</event>
<event>
 9    2  0.1751298E-004  0.1025200E+03  0.7546771E-02  0.1280055E+00
          2   -1    0    0  502    0 -0.00000000000E+00  0.00000000000E+00  0.22169726683E+03  0.22169726683E+03  0.00000000000E+00 0. -1.
         21   -1    0    0  501  502  0.00000000000E+00 -0.00000000000E+00 -0.27972402460E+03  0.27972402460E+03  0.00000000000E+00 0.  1.
         24    2    1    2    0    0 -0.47166421270E+00  0.41117084234E+02  0.15351904776E+03  0.17877033546E+03  0.81852903020E+02 0.  0.
         23    2    1    2    0    0  0.66429422875E+02 -0.96717234323E+02 -0.17201496858E+03  0.22775896640E+03  0.92292500878E+02 0.  0.
        -11    1    3    3    0    0  0.36968981465E+02  0.83923148326E+01  0.41489704547E+02  0.56200819587E+02  0.00000000000E+00 0.  1.
         12    1    3    3    0    0 -0.37440645678E+02  0.32724769402E+02  0.11202934321E+03  0.12256951587E+03  0.00000000000E+00 0. -1.
        -13    1    4    4    0    0  0.88860672459E+02 -0.67614168953E+02 -0.11825126649E+03  0.16263842406E+03  0.00000000000E+00 0.  1.
         13    1    4    4    0    0 -0.22431249584E+02 -0.29103065370E+02 -0.53763702091E+02  0.65120542337E+02  0.00000000000E+00 0. -1.
          1    1    1    2  501    0 -0.65957758663E+02  0.55600150089E+02 -0.39530836939E+02  0.94891989582E+02  0.00000000000E+00 0. -1.
<scales pt_clust_5="13000.00000" pt_clust_6="13000.00000" pt_clust_7="13000.00000" pt_clust_8="13000.00000" pt_clust_9="86.26588"></scales>
<clustering>
<clus scale="   81.853">  5  6 -1 -1</clus>
<clus scale="   86.266">  2  9  1 -1</clus>
<clus scale="   92.293">  7  8 -1 -1</clus>
<clus scale="   93.233">  1  5  2 -1</clus>
<clus scale="   86.266">  2  5  1 -1</clus>
</clustering>
</event>
<event>
 9    2  0.1751298E-004  0.1165799E+03  0.7546771E-02  0.1254566E+00
         21   -1    0    0  501  502  0.00000000000E+00  0.00000000000E+00  0.95684076605E+02  0.95684076605E+02  0.00000000000E+00 0. -1.
          2   -1    0    0  502    0 -0.00000000000E+00 -0.00000000000E+00 -0.23909224365E+03  0.23909224365E+03  0.00000000000E+00 0. -1.
         23    2    1    2    0    0 -0.42401280196E+02 -0.58195109164E+02 -0.16594057718E+03  0.20423174156E+03  0.94814502124E+02 0.  0.
         24    2    1    2    0    0  0.32574036724E+02  0.40719802576E+02  0.41211516374E+02  0.10314257029E+03  0.78872241848E+02 0.  0.
        -13    1    4    4    0    0  0.61414632739E+01 -0.23006825099E+02  0.19613110388E+02  0.30849727249E+02  0.00000000000E+00 0.  1.
         14    1    4    4    0    0  0.26432573450E+02  0.63726627675E+02  0.21598405986E+02  0.72292843042E+02  0.00000000000E+00 0. -1.
        -11    1    3    3    0    0  0.99142517001E+01  0.17934076428E+02 -0.95715580650E+01  0.22617210436E+02  0.00000000000E+00 0.  1.
         11    1    3    3    0    0 -0.52315531896E+02 -0.76129185592E+02 -0.15636901912E+03  0.18161453113E+03  0.00000000000E+00 0. -1.
          1    1    1    2  501    0  0.98272434719E+01  0.17475306588E+02 -0.18679106238E+02  0.27402008402E+02  0.00000000000E+00 0. -1.
<scales pt_clust_5="13000.00000" pt_clust_6="13000.00000" pt_clust_7="13000.00000" pt_clust_8="13000.00000" pt_clust_9="20.04898"></scales>
<clustering>
<clus scale="   20.049">  1  9  2 -1</clus>
<clus scale="   78.872">  5  6 -1 -1</clus>
<clus scale="   94.815">  7  8 -1 -1</clus>
<clus scale="  104.028">  1  5  2 -1</clus>
<clus scale="   20.049">  1  5  2 -1</clus>
</clustering>
</event>
<event>
 9    2  0.1751298E-004  0.1060728E+03  0.7546771E-02  0.1277795E+00
         21   -1    0    0  501  502  0.00000000000E+00  0.00000000000E+00  0.35612081929E+03  0.35612081929E+03  0.00000000000E+00 0. -1.
          2   -1    0    0  502    0 -0.00000000000E+00 -0.00000000000E+00 -0.42465101383E+02  0.42465101383E+02  0.00000000000E+00 0. -1.
         24    2    1    2    0    0  0.21029496206E+02 -0.31637359289E+02  0.77052320643E+02  0.11798132517E+03  0.80866375945E+02 0.  0.
         23    2    1    2    0    0  0.20191145949E+02  0.37614607093E+02  0.17690158832E+03  0.20780916418E+03  0.10033910366E+03 0.  0.
        -11    1    3    3    0    0 -0.41886551415E+01  0.24529569599E+02  0.36794283208E+02  0.44419183844E+02  0.00000000000E+00 0.  1.
         12    1    3    3    0    0  0.25218151348E+02 -0.56166928888E+02  0.40258037434E+02  0.73562141324E+02  0.00000000000E+00 0. -1.
        -13    1    4    4    0    0 -0.26470596708E+02 -0.20790489072E+02  0.44990790843E+02  0.56188149878E+02  0.00000000000E+00 0.  1.
         13    1    4    4    0    0  0.46661742658E+02  0.58405096165E+02  0.13191079748E+03  0.15162101430E+03  0.00000000000E+00 0. -1.
          1    1    1    2  501    0 -0.41220642156E+02 -0.59772478036E+01  0.59701808939E+02  0.72795431324E+02  0.00000000000E+00 0. -1.
<scales pt_clust_5="13000.00000" pt_clust_6="13000.00000" pt_clust_7="13000.00000" pt_clust_8="13000.00000" pt_clust_9="41.65176"></scales>
<clustering>
<clus scale="   41.652">  1  9  2 -1</clus>
<clus scale="   80.866">  5  6 -1 -1</clus>
<clus scale="   87.880">  2  5  1 -1</clus>
<clus scale="  100.339">  7  8 -1 -1</clus>
<clus scale="   41.652">  1  5  2 -1</clus>
</clustering>
</event>
<event>
 9    2  0.1751298E-004  0.1164894E+03  0.7546771E-02  0.1253469E+00
          2   -1    0    0  502    0 -0.00000000000E+00  0.00000000000E+00  0.19831581633E+04  0.19831581633E+04  0.00000000000E+00 0. -1.
         21   -1    0    0  501  502  0.00000000000E+00 -0.00000000000E+00 -0.15640072994E+02  0.15640072994E+02  0.00000000000E+00 0.  1.
         24    2    1    2    0    0 -0.83382296881E+01  0.79155633464E+02  0.13846723928E+04  0.13892046009E+04  0.78972446979E+02 0.  0.
         23    2    1    2    0    0 -0.15447514247E+01 -0.29991632857E+02  0.18644143789E+03  0.21002998676E+03  0.91925520276E+02 0.  0.
        -13    1    3    3    0    0  0.14435142594E+02  0.14060796517E+02  0.73283324707E+02  0.76003454004E+02  0.00000000000E+00 0.  1.
         14    1    3    3    0    0 -0.22773372282E+02  0.65094836948E+02  0.13113890681E+04  0.13132011469E+04  0.00000000000E+00 0. -1.
        -11    1    4    4    0    0  0.28881412876E+02 -0.17179085628E+01  0.13061061571E+02  0.31743952950E+02  0.00000000000E+00 0.  1.
         11    1    4    4    0    0 -0.30426164300E+02 -0.28273724294E+02  0.17338037632E+03  0.17828603381E+03  0.00000000000E+00 0. -1.
          1    1    1    2  501    0  0.98829811128E+01 -0.49164000607E+02  0.39640425962E+03  0.39956364865E+03  0.00000000000E+00 0. -1.
<scales pt_clust_5="13000.00000" pt_clust_6="13000.00000" pt_clust_7="13000.00000" pt_clust_8="13000.00000" pt_clust_9="50.14753"></scales>
<clustering>
<clus scale="   50.148">  2  9  1 -1</clus>
<clus scale="   78.972">  5  6 -1 -1</clus>
<clus scale="   91.926">  7  8 -1 -1</clus>
<clus scale="  106.565">  1  5  2 -1</clus>
<clus scale="   50.148">  2  5  1 -1</clus>
</clustering>
</event>
<event>
 9    2  0.1751298E-004  0.1162921E+03  0.7546771E-02  0.1252228E+00
         -1   -1    0    0    0  501 -0.00000000000E+00  0.00000000000E+00  0.87559998117E+02  0.87559998117E+02  0.00000000000E+00 0.  1.
         21   -1    0    0  501  502  0.00000000000E+00 -0.00000000000E+00 -0.40228322610E+03  0.40228322610E+03  0.00000000000E+00 0. -1.
         23    2    1    2    0    0  0.67600087585E+02 -0.22828305234E+01  0.24200314528E+02  0.11633720238E+03  0.91507957457E+02 0.  0.
         24    2    1    2    0    0 -0.95728663356E+02  0.71369942604E+01 -0.25489716381E+03  0.28476363062E+03  0.83083376992E+02 0.  0.
        -13    1    4    4    0    0 -0.52514375438E+02  0.43252706705E+02 -0.11040379488E+03  0.12968251304E+03  0.00000000000E+00 0.  1.
         14    1    4    4    0    0 -0.43214287918E+02 -0.36115712444E+02 -0.14449336893E+03  0.15508111758E+03  0.00000000000E+00 0. -1.
        -13    1    3    3    0    0  0.48393790609E+02 -0.22043094034E+02  0.53973138133E+02  0.75769100589E+02  0.00000000000E+00 0.  1.
         13    1    3    3    0    0  0.19206296976E+02  0.19760263510E+02 -0.29772823606E+02  0.40568101792E+02  0.00000000000E+00 0. -1.
         -2    1    1    2    0  502  0.28128575771E+02 -0.48541637370E+01 -0.84026378701E+02  0.88742391212E+02  0.00000000000E+00 0.  1.
<scales pt_clust_5="13000.00000" pt_clust_6="13000.00000" pt_clust_7="13000.00000" pt_clust_8="13000.00000" pt_clust_9="28.54435"></scales>
<clustering>
<clus scale="   28.544">  2  9  1 -1</clus>
<clus scale="   83.083">  5  6 -1 -1</clus>
<clus scale="   91.508">  7  8 -1 -1</clus>
<clus scale="  109.786">  2  5  1 -1</clus>
<clus scale="   28.544">  2  5  1 -1</clus>
</clustering>
</event>
<event>
 9    2  0.1751298E-004  0.1110879E+03  0.7546771E-02  0.1261284E+00
         21   -1    0    0  501  502  0.00000000000E+00  0.00000000000E+00  0.36986490599E+02  0.36986490599E+02  0.00000000000E+00 0. -1.
          2   -1    0    0  502    0 -0.00000000000E+00 -0.00000000000E+00 -0.52645940416E+03  0.52645940416E+03  0.00000000000E+00 0. -1.
         23    2    1    2    0    0  0.37890843765E+02  0.36991267238E+02 -0.16213400294E+03  0.19223821169E+03  0.88679339371E+02 0.  0.
         24    2    1    2    0    0 -0.52739149025E+02 -0.68000223952E+02 -0.15276063423E+03  0.19327622954E+03  0.81329215164E+02 0.  0.
        -11    1    4    4    0    0 -0.78221074216E+01  0.18833991297E+02 -0.21840898539E+02  0.29881925000E+02  0.00000000000E+00 0.  1.
         12    1    4    4    0    0 -0.44917041603E+02 -0.86834215249E+02 -0.13091973569E+03  0.16339430454E+03  0.00000000000E+00 0. -1.
        -13    1    3    3    0    0  0.39265279122E+02  0.11651742496E+02 -0.16088129876E+02  0.44004013120E+02  0.00000000000E+00 0. -1.
         13    1    3    3    0    0 -0.13744353570E+01  0.25339524742E+02 -0.14604587306E+03  0.14823419857E+03  0.00000000000E+00 0.  1.
          1    1    1    2  501    0  0.14848305260E+02  0.31008956714E+02 -0.17457827639E+03  0.17793145352E+03  0.00000000000E+00 0. -1.
<scales pt_clust_5="13000.00000" pt_clust_6="13000.00000" pt_clust_7="13000.00000" pt_clust_8="13000.00000" pt_clust_9="34.38064"></scales>
<clustering>
<clus scale="   34.381">  1  9  2 -1</clus>
<clus scale="   81.329">  5  6 -1 -1</clus>
<clus scale="   88.679">  7  8 -1 -1</clus>
<clus scale="  105.313">  1  5  2 -1</clus>
<clus scale="   34.381">  1  5  2 -1</clus>
</clustering>
</event>
<event>
 9    2  0.1751298E-004  0.2141999E+03  0.7546771E-02  0.1147717E+00
         21   -1    0    0  501  502  0.00000000000E+00  0.00000000000E+00  0.73671822759E+03  0.73671822759E+03  0.00000000000E+00 0. -1.
          2   -1    0    0  502    0 -0.00000000000E+00 -0.00000000000E+00 -0.17466543105E+03  0.17466543105E+03  0.00000000000E+00 0. -1.
         24    2    1    2    0    0 -0.13104330134E+03  0.73500611981E+02  0.18258306018E+03  0.25002653157E+03  0.81252728163E+02 0.  0.
         23    2    1    2    0    0  0.15988761321E+02 -0.21797194351E+03  0.72342765395E+01  0.24582283202E+03  0.11229034392E+03 0.  0.
        -13    1    3    3    0    0 -0.11307679160E+03  0.45648623650E+02  0.89625692537E+02  0.15133711508E+03  0.00000000000E+00 0.  1.
         14    1    3    3    0    0 -0.17966509745E+02  0.27851988331E+02  0.92957367645E+02  0.98689416484E+02  0.00000000000E+00 0. -1.
        -13    1    4    4    0    0  0.12592976990E+02 -0.19319715005E+03 -0.34995546706E+02  0.19674453016E+03  0.00000000000E+00 0. -1.
         13    1    4    4    0    0  0.33957843317E+01 -0.24774793462E+02  0.42229823245E+02  0.49078301862E+02  0.00000000000E+00 0.  1.
          1    1    1    2  501    0  0.11505454002E+03  0.14447133153E+03  0.37223545982E+03  0.41553429505E+03  0.00000000000E+00 0. -1.
<scales pt_clust_5="13000.00000" pt_clust_6="13000.00000" pt_clust_7="13000.00000" pt_clust_8="13000.00000" pt_clust_9="182.40749"></scales>
<clustering>
<clus scale="   81.253">  5  6 -1 -1</clus>
<clus scale="  112.290">  7  8 -1 -1</clus>
<clus scale="  170.812">  2  5  1 -1</clus>
<clus scale="  182.407">  1  9  2 -1</clus>
<clus scale="  182.407">  1  5  2 -1</clus>
</clustering>
</event>
<event>
 9    2  0.1751298E-004  0.1065425E+03  0.7546771E-02  0.1271644E+00
          2   -1    0    0  502    0 -0.00000000000E+00  0.00000000000E+00  0.10811392279E+04  0.10811392279E+04  0.00000000000E+00 0. -1.
         21   -1    0    0  501  502  0.00000000000E+00 -0.00000000000E+00 -0.14927170942E+03  0.14927170942E+03  0.00000000000E+00 0. -1.
         24    2    1    2    0    0  0.44826184007E+02 -0.39728981230E+02  0.86504909062E+03  0.87086378362E+03  0.80659913888E+02 0.  0.
         23    2    1    2    0    0 -0.28152710725E+02  0.21899732586E+02  0.20075646377E+03  0.22340280289E+03  0.91287902739E+02 0.  0.
        -13    1    3    3    0    0  0.24647350056E+02  0.18217232793E+02  0.14492920129E+03  0.14813450922E+03  0.00000000000E+00 0.  1.
         14    1    3    3    0    0  0.20178833951E+02 -0.57946214023E+02  0.72011988933E+03  0.72272927439E+03  0.00000000000E+00 0. -1.
        -13    1    4    4    0    0 -0.39043146765E+02  0.50298701221E+02  0.16249525495E+03  0.17452516878E+03  0.00000000000E+00 0.  1.
         13    1    4    4    0    0  0.10890436040E+02 -0.28398968635E+02  0.38261208811E+02  0.48877634112E+02  0.00000000000E+00 0. -1.
          1    1    1    2  501    0 -0.16673473282E+02  0.17829248645E+02 -0.13393803587E+03  0.13614435086E+03  0.00000000000E+00 0. -1.
<scales pt_clust_5="13000.00000" pt_clust_6="13000.00000" pt_clust_7="13000.00000" pt_clust_8="13000.00000" pt_clust_9="24.41079"></scales>
<clustering>
<clus scale="   24.411">  2  9  1 -1</clus>
<clus scale="   80.660">  5  6 -1 -1</clus>
<clus scale="   91.288">  7  8 -1 -1</clus>
<clus scale="   97.590">  1  5  2 -1</clus>
<clus scale="   24.411">  2  5  1 -1</clus>
</clustering>
</event>
<event>
 9    2  0.1751298E-004  0.9562654E+02  0.7546771E-02  0.1296309E+00
          2   -1    0    0  502    0 -0.00000000000E+00  0.00000000000E+00  0.74396746540E+02  0.74396746540E+02  0.00000000000E+00 0. -1.
         21   -1    0    0  501  502  0.00000000000E+00 -0.00000000000E+00 -0.38768541904E+03  0.38768541904E+03  0.00000000000E+00 0. -1.
         23    2    1    2    0    0 -0.17659486133E+02 -0.10368496558E+01  0.15672263216E+02  0.94813730757E+02  0.91820973628E+02 0.  0.
         24    2    1    2    0    0  0.62258555107E+02  0.99682100180E+00 -0.13931892803E+03  0.17245270231E+03  0.80330875076E+02 0.  0.
        -11    1    4    4    0    0 -0.13226037423E+02 -0.18204989877E+02 -0.20875876293E+02  0.30694493534E+02  0.00000000000E+00 0.  1.
         12    1    4    4    0    0  0.75484592530E+02  0.19201810878E+02 -0.11844305174E+03  0.14175820878E+03  0.00000000000E+00 0. -1.
        -13    1    3    3    0    0  0.35740502509E+02 -0.12024698830E+02 -0.12478238751E+01  0.37729749084E+02  0.00000000000E+00 0. -1.
         13    1    3    3    0    0 -0.53399988642E+02  0.10987849174E+02  0.16920087091E+02  0.57083981673E+02  0.00000000000E+00 0.  1.
          1    1    1    2  501    0 -0.44599068974E+02  0.40028653970E-01 -0.18964200769E+03  0.19481573251E+03  0.00000000000E+00 0. -1.
<scales pt_clust_5="13000.00000" pt_clust_6="13000.00000" pt_clust_7="13000.00000" pt_clust_8="13000.00000" pt_clust_9="44.59909"></scales>
<clustering>
<clus scale="   44.599">  2  9  1 -1</clus>
<clus scale="   80.331">  5  6 -1 -1</clus>
<clus scale="   84.655">  2  5  1 -1</clus>
<clus scale="   91.821">  7  8 -1 -1</clus>
<clus scale="   44.599">  2  5  1 -1</clus>
</clustering>
</event>
<event>
 9    2  0.1751298E-004  0.1179775E+03  0.7546771E-02  0.1250072E+00
         21   -1    0    0  501  502  0.00000000000E+00  0.00000000000E+00  0.20479987920E+02  0.20479987920E+02  0.00000000000E+00 0. -1.
          2   -1    0    0  502    0 -0.00000000000E+00 -0.00000000000E+00 -0.12816202233E+04  0.12816202233E+04  0.00000000000E+00 0. -1.
         24    2    1    2    0    0 -0.80513865629E+02  0.44366890825E+02 -0.87784807514E+03  0.88650805902E+03  0.82634085722E+02 0.  0.
         23    2    1    2    0    0  0.30346000147E+02 -0.13198992628E+02 -0.27462622674E+03  0.29191297971E+03  0.93265911112E+02 0.  0.
        -13    1    3    3    0    0 -0.12494302978E+02  0.52039403899E+02 -0.31516077051E+03  0.31967251748E+03  0.00000000000E+00 0.  1.
         14    1    3    3    0    0 -0.68019562651E+02 -0.76725130741E+01 -0.56268730463E+03  0.56683554154E+03  0.00000000000E+00 0. -1.
        -11    1    4    4    0    0  0.61580935466E+02 -0.89705738674E+01 -0.22211577219E+03  0.23066880817E+03  0.00000000000E+00 0.  1.
         11    1    4    4    0    0 -0.31234935319E+02 -0.42284187607E+01 -0.52510454551E+02  0.61244171533E+02  0.00000000000E+00 0. -1.
          1    1    1    2  501    0  0.50167865481E+02 -0.31167898197E+02 -0.10866593349E+03  0.12367917248E+03  0.00000000000E+00 0. -1.
<scales pt_clust_5="13000.00000" pt_clust_6="13000.00000" pt_clust_7="13000.00000" pt_clust_8="13000.00000" pt_clust_9="59.06143"></scales>
<clustering>
<clus scale="   59.061">  1  9  2 -1</clus>
<clus scale="   82.634">  5  6 -1 -1</clus>
<clus scale="   93.266">  7  8 -1 -1</clus>
<clus scale="  109.766">  2  5  1 -1</clus>
<clus scale="   59.061">  1  5  2 -1</clus>
</clustering>
</event>
<event>
 9    2  0.1751298E-004  0.1128476E+03  0.7546771E-02  0.1271569E+00
          4   -1    0    0  502    0 -0.00000000000E+00  0.00000000000E+00  0.27380756260E+03  0.27380756260E+03  0.00000000000E+00 0. -1.
         21   -1    0    0  501  502  0.00000000000E+00 -0.00000000000E+00 -0.76971237117E+02  0.76971237117E+02  0.00000000000E+00 0.  1.
         24    2    1    2    0    0  0.12221577110E+02  0.60898009503E+01  0.15936668392E+03  0.17971272087E+03  0.81929661764E+02 0.  0.
         23    2    1    2    0    0  0.33011393527E+02 -0.32701883624E+00  0.98793678906E+01  0.11777016444E+03  0.11261594327E+03 0.  0.
        -13    1    3    3    0    0  0.40227827009E+02  0.25487562685E+02  0.10850409320E+03  0.11849486131E+03  0.00000000000E+00 0.  1.
         14    1    3    3    0    0 -0.28006249899E+02 -0.19397761735E+02  0.50862590727E+02  0.61217859561E+02  0.00000000000E+00 0. -1.
        -13    1    4    4    0    0  0.73043718057E+02 -0.15171678532E+02  0.45267028453E+01  0.74739919826E+02  0.00000000000E+00 0.  1.
         13    1    4    4    0    0 -0.40032324530E+02  0.14844659696E+02  0.53526650453E+01  0.43030244617E+02  0.00000000000E+00 0. -1.
          3    1    1    2  501    0 -0.45232970637E+02 -0.57627821141E+01  0.27590273669E+02  0.53295914398E+02  0.00000000000E+00 0. -1.
<scales pt_clust_5="13000.00000" pt_clust_6="13000.00000" pt_clust_7="13000.00000" pt_clust_8="13000.00000" pt_clust_9="45.59859"></scales>
<clustering>
<clus scale="   45.599">  2  9  1 -1</clus>
<clus scale="   81.930">  5  6 -1 -1</clus>
<clus scale="   82.248">  1  5  2 -1</clus>
<clus scale="  112.616">  7  8 -1 -1</clus>
<clus scale="   45.599">  2  5  1 -1</clus>
</clustering>
</event>
<event>
 9    2  0.1751298E-004  0.1788865E+03  0.7546771E-02  0.1168972E+00
         21   -1    0    0  501  502  0.00000000000E+00  0.00000000000E+00  0.18904781683E+03  0.18904781683E+03  0.00000000000E+00 0.  1.
         -1   -1    0    0    0  501 -0.00000000000E+00 -0.00000000000E+00 -0.48520769022E+03  0.48520769022E+03  0.00000000000E+00 0.  1.
         24    2    1    2    0    0  0.66645406327E+02  0.14467384913E+03 -0.25002022547E+03  0.31063119049E+03  0.92787340494E+02 0.  0.
         23    2    1    2    0    0 -0.13037739631E+03 -0.70377371592E+02  0.89721308650E+02  0.19617303218E+03  0.92101603830E+02 0.  0.
        -11    1    3    3    0    0  0.49063860288E+02  0.13816474102E+03 -0.25223602012E+03  0.29175292268E+03  0.00000000000E+00 0.  1.
         12    1    3    3    0    0  0.17581546039E+02  0.65091081094E+01  0.22157946522E+01  0.18878267808E+02  0.00000000000E+00 0. -1.
        -11    1    4    4    0    0 -0.40964523373E+01 -0.30886611177E+02 -0.74222967390E+01  0.32028958157E+02  0.00000000000E+00 0. -1.
         11    1    4    4    0    0 -0.12628094398E+03 -0.39490760415E+02  0.97143605389E+02  0.16414407403E+03  0.00000000000E+00 0.  1.
         -2    1    1    2    0  502  0.63731989987E+02 -0.74296477534E+02 -0.13586095656E+03  0.16745128438E+03  0.00000000000E+00 0.  1.
<scales pt_clust_5="13000.00000" pt_clust_6="13000.00000" pt_clust_7="13000.00000" pt_clust_8="13000.00000" pt_clust_9="97.88638"></scales>
<clustering>
<clus scale="   92.102">  7  8 -1 -1</clus>
<clus scale="   92.787">  5  6 -1 -1</clus>
<clus scale="   97.886">  1  9  2 -1</clus>
<clus scale="  178.532">  1  7  2 -1</clus>
<clus scale="   97.886">  1  5  2 -1</clus>
</clustering>
</event>
<event>
 9    2  0.1751298E-004  0.1362787E+03  0.7546771E-02  0.1221051E+00
         21   -1    0    0  501  502  0.00000000000E+00  0.00000000000E+00  0.19892281319E+03  0.19892281319E+03  0.00000000000E+00 0.  1.
          2   -1    0    0  502    0 -0.00000000000E+00 -0.00000000000E+00 -0.24464756607E+03  0.24464756607E+03  0.00000000000E+00 0. -1.
         23    2    1    2    0    0  0.30698083475E+02  0.87001427094E+02 -0.59865273486E+02  0.14261655415E+03  0.90796530230E+02 0.  0.
         24    2    1    2    0    0 -0.50710304064E+02 -0.12651594792E+03  0.11205267834E+03  0.19348905432E+03  0.79400197762E+02 0.  0.
        -13    1    4    4    0    0 -0.34247902170E+02 -0.71379794659E+02  0.11048989947E+03  0.13592649401E+03  0.00000000000E+00 0.  1.
         14    1    4    4    0    0 -0.16462401895E+02 -0.55136153261E+02  0.15627788688E+01  0.57562560318E+02  0.00000000000E+00 0. -1.
        -13    1    3    3    0    0 -0.10243368340E+02  0.81079687446E+02 -0.17843180523E+02  0.83649395709E+02  0.00000000000E+00 0.  1.
         13    1    3    3    0    0  0.40941451816E+02  0.59217396474E+01 -0.42022092963E+02  0.58967158438E+02  0.00000000000E+00 0. -1.
          1    1    1    2  501    0  0.20012220589E+02  0.39514520826E+02 -0.97912157728E+02  0.10746477079E+03  0.00000000000E+00 0. -1.
<scales pt_clust_5="13000.00000" pt_clust_6="13000.00000" pt_clust_7="13000.00000" pt_clust_8="13000.00000" pt_clust_9="44.29321"></scales>
<clustering>
<clus scale="   44.293">  1  9  2 -1</clus>
<clus scale="   79.400">  5  6 -1 -1</clus>
<clus scale="   90.797">  7  8 -1 -1</clus>
<clus scale="  128.966">  1  5  2 -1</clus>
<clus scale="   44.293">  1  5  2 -1</clus>
</clustering>
</event>
<event>
 9    2  0.1751298E-004  0.1070373E+03  0.7546771E-02  0.1270489E+00
         -3   -1    0    0    0  501 -0.00000000000E+00  0.00000000000E+00  0.52912880981E+03  0.52912880981E+03  0.00000000000E+00 0.  1.
         21   -1    0    0  501  502  0.00000000000E+00 -0.00000000000E+00 -0.11224001789E+03  0.11224001789E+03  0.00000000000E+00 0.  1.
         24    2    1    2    0    0 -0.22604164947E+02  0.43896692276E+02  0.12408507649E+02  0.94692048639E+02  0.79842001150E+02 0.  0.
         23    2    1    2    0    0 -0.65050546851E+02 -0.76493229898E+02  0.36331653218E+01  0.13506495278E+03  0.90258261193E+02 0.  0.
        -13    1    3    3    0    0  0.20833598466E+02 -0.10754019701E+02 -0.15610348457E+01  0.23497331648E+02  0.00000000000E+00 0.  1.
         14    1    3    3    0    0 -0.43437763413E+02  0.54650711977E+02  0.13969542495E+02  0.71194716991E+02  0.00000000000E+00 0. -1.
        -11    1    4    4    0    0 -0.83997517165E+02 -0.54997421326E+02  0.19550728310E+02  0.10228651045E+03  0.00000000000E+00 0.  1.
         11    1    4    4    0    0  0.18946970314E+02 -0.21495808572E+02 -0.15917562988E+02  0.32778442332E+02  0.00000000000E+00 0. -1.
         -4    1    1    2    0  502  0.87654711798E+02  0.32596537622E+02  0.40084711895E+03  0.41161182628E+03  0.00000000000E+00 0.  1.
<scales pt_clust_5="13000.00000" pt_clust_6="13000.00000" pt_clust_7="13000.00000" pt_clust_8="13000.00000" pt_clust_9="93.51947"></scales>
<clustering>
<clus scale="   79.842">  5  6 -1 -1</clus>
<clus scale="   90.258">  7  8 -1 -1</clus>
<clus scale="   93.519">  2  9  1 -1</clus>
<clus scale="   98.413">  1  5  2 -1</clus>
<clus scale="   93.519">  2  5  1 -1</clus>
</clustering>
</event>
<event>
 9    2  0.1751298E-004  0.2516013E+03  0.7546771E-02  0.1134177E+00
         21   -1    0    0  501  502  0.00000000000E+00  0.00000000000E+00  0.20997410856E+03  0.20997410856E+03  0.00000000000E+00 0.  1.
          2   -1    0    0  502    0 -0.00000000000E+00 -0.00000000000E+00 -0.57374296843E+03  0.57374296843E+03  0.00000000000E+00 0. -1.
         23    2    1    2    0    0 -0.23650115806E+02  0.11135415788E+03 -0.12482009985E+03  0.19210620160E+03  0.91463976036E+02 0.  0.
         24    2    1    2    0    0  0.12397680840E+03 -0.24290673504E+03  0.18430116661E+02  0.28564451782E+03  0.82940885049E+02 0.  0.
        -13    1    4    4    0    0  0.59740516190E+02 -0.18699800032E+03 -0.80187647691E+01  0.19647259856E+03  0.00000000000E+00 0.  1.
         14    1    4    4    0    0  0.64236292214E+02 -0.55908734718E+02  0.26448881430E+02  0.89171919258E+02  0.00000000000E+00 0. -1.
        -13    1    3    3    0    0  0.39016269308E+01  0.25613004643E+02  0.11803450499E+02  0.28470513575E+02  0.00000000000E+00 0. -1.
         13    1    3    3    0    0 -0.27551742736E+02  0.85741153240E+02 -0.13662355034E+03  0.16363568802E+03  0.00000000000E+00 0.  1.
          1    1    1    2  501    0 -0.10032669260E+03  0.13155257715E+03 -0.25737887669E+03  0.30596635758E+03  0.00000000000E+00 0. -1.
<scales pt_clust_5="13000.00000" pt_clust_6="13000.00000" pt_clust_7="13000.00000" pt_clust_8="13000.00000" pt_clust_9="237.53752"></scales>
<clustering>
<clus scale="   82.941">  5  6 -1 -1</clus>
<clus scale="   91.464">  7  8 -1 -1</clus>
<clus scale="  146.030">  2  7  1 -1</clus>
<clus scale="  237.538">  1  9  2 -1</clus>
<clus scale="  237.538">  1  5  2 -1</clus>
</clustering>
</event>
<event>
 9    2  0.1751298E-004  0.2858713E+03  0.7546771E-02  0.1092813E+00
         21   -1    0    0  501  502  0.00000000000E+00  0.00000000000E+00  0.14560483647E+03  0.14560483647E+03  0.00000000000E+00 0.  1.
          2   -1    0    0  502    0 -0.00000000000E+00 -0.00000000000E+00 -0.77234074711E+03  0.77234074711E+03  0.00000000000E+00 0. -1.
         23    2    1    2    0    0 -0.29542983533E+03  0.10448764699E+03 -0.37239095434E+03  0.49471410814E+03  0.88716232667E+02 0.  0.
         24    2    1    2    0    0  0.20836949189E+03 -0.83999349679E+02 -0.13628164974E+03  0.27511591893E+03  0.81500582182E+02 0.  0.
        -11    1    4    4    0    0  0.17298168421E+03 -0.98505244814E+02 -0.10162084298E+03  0.22350110080E+03  0.00000000000E+00 0.  1.
         12    1    4    4    0    0  0.35387807680E+02  0.14505895136E+02 -0.34660806757E+02  0.51614818135E+02  0.00000000000E+00 0. -1.
        -11    1    3    3    0    0 -0.20375602325E+03  0.33157569988E+02 -0.20467230118E+03  0.29070034800E+03  0.00000000000E+00 0.  1.
         11    1    3    3    0    0 -0.91673812084E+02  0.71330077006E+02 -0.16771865317E+03  0.20401376014E+03  0.00000000000E+00 0. -1.
          1    1    1    2  501    0  0.87060343438E+02 -0.20488297315E+02 -0.11806330655E+03  0.14811555651E+03  0.00000000000E+00 0. -1.
<scales pt_clust_5="13000.00000" pt_clust_6="13000.00000" pt_clust_7="13000.00000" pt_clust_8="13000.00000" pt_clust_9="89.43870"></scales>
<clustering>
<clus scale="   81.501">  5  6 -1 -1</clus>
<clus scale="   88.716">  7  8 -1 -1</clus>
<clus scale="   89.439">  1  9  2 -1</clus>
<clus scale="  283.715">  1  5  2 -1</clus>
<clus scale="   89.439">  1  5  2 -1</clus>
</clustering>
</event>
<event>
 9    2  0.1751298E-004  0.1519255E+03  0.7546771E-02  0.1228198E+00
         21   -1    0    0  501  502  0.00000000000E+00  0.00000000000E+00  0.87387223732E+02  0.87387223732E+02  0.00000000000E+00 0.  1.
         -3   -1    0    0    0  501 -0.00000000000E+00 -0.00000000000E+00 -0.42379193230E+03  0.42379193230E+03  0.00000000000E+00 0.  1.
         24    2    1    2    0    0 -0.47369952435E+01 -0.33445432806E+01 -0.15246046289E+03  0.17226988995E+03  0.79994356954E+02 0.  0.
         23    2    1    2    0    0 -0.41245933486E+02  0.11672022863E+03 -0.14475714020E+03  0.21044096261E+03  0.89475864371E+02 0.  0.
        -11    1    3    3    0    0 -0.37939183401E+02 -0.18301946876E+02 -0.64123824276E+02  0.76721624959E+02  0.00000000000E+00 0.  1.
         12    1    3    3    0    0  0.33202188158E+02  0.14957403596E+02 -0.88336638619E+02  0.95548264994E+02  0.00000000000E+00 0. -1.
        -11    1    4    4    0    0 -0.29496324749E+02  0.40942766195E+02 -0.11948065298E+03  0.12969953629E+03  0.00000000000E+00 0. -1.
         11    1    4    4    0    0 -0.11749608737E+02  0.75777462431E+02 -0.25276487221E+02  0.80741426320E+02  0.00000000000E+00 0.  1.
         -4    1    1    2    0  502  0.45982928730E+02 -0.11337568535E+03 -0.39187105480E+02  0.12846830348E+03  0.00000000000E+00 0.  1.
<scales pt_clust_5="13000.00000" pt_clust_6="13000.00000" pt_clust_7="13000.00000" pt_clust_8="13000.00000" pt_clust_9="122.78200"></scales>
<clustering>
<clus scale="   79.994">  5  6 -1 -1</clus>
<clus scale="   80.204">  2  5  1 -1</clus>
<clus scale="   89.476">  7  8 -1 -1</clus>
<clus scale="  122.782">  1  9  2 -1</clus>
<clus scale="  122.782">  1  5  2 -1</clus>
</clustering>
</event>
<event>
 9    2  0.1751298E-004  0.1243035E+03  0.7546771E-02  0.1236506E+00
         -3   -1    0    0    0  501 -0.00000000000E+00  0.00000000000E+00  0.69395218492E+03  0.69395218492E+03  0.00000000000E+00 0.  1.
         21   -1    0    0  501  502  0.00000000000E+00 -0.00000000000E+00 -0.58210058380E+02  0.58210058380E+02  0.00000000000E+00 0. -1.
         24    2    1    2    0    0  0.96271935914E+01  0.80828750925E+02  0.19222561943E+03  0.22321172288E+03  0.79036792907E+02 0.  0.
         23    2    1    2    0    0  0.63541076913E+02 -0.12537713113E+03  0.14156145960E+03  0.21507952032E+03  0.80390669549E+02 0.  0.
        -13    1    3    3    0    0  0.28877644479E+02  0.17482192609E+02  0.12247716480E+03  0.12704409198E+03  0.00000000000E+00 0.  1.
         14    1    3    3    0    0 -0.19250450888E+02  0.63346558315E+02  0.69748454628E+02  0.96167630899E+02  0.00000000000E+00 0. -1.
        -11    1    4    4    0    0  0.13543491159E+02 -0.39694204100E+02  0.98261475638E+02  0.10683807180E+03  0.00000000000E+00 0.  1.
         11    1    4    4    0    0  0.49997585754E+02 -0.85682927034E+02  0.43299983965E+02  0.10824144852E+03  0.00000000000E+00 0. -1.
         -4    1    1    2    0  502 -0.73168270504E+02  0.44548380209E+02  0.30195504751E+03  0.31387100010E+03  0.00000000000E+00 0.  1.
<scales pt_clust_5="13000.00000" pt_clust_6="13000.00000" pt_clust_7="13000.00000" pt_clust_8="13000.00000" pt_clust_9="85.66307"></scales>
<clustering>
<clus scale="   79.037">  5  6 -1 -1</clus>
<clus scale="   80.391">  7  8 -1 -1</clus>
<clus scale="   85.663">  2  9  1 -1</clus>
<clus scale="  123.432">  1  5  2 -1</clus>
<clus scale="   85.663">  2  5  1 -1</clus>
</clustering>
</event>
<event>
 9    2  0.1751298E-004  0.1008468E+03  0.7546771E-02  0.1282454E+00
         21   -1    0    0  501  502  0.00000000000E+00  0.00000000000E+00  0.38298782508E+02  0.38298782508E+02  0.00000000000E+00 0. -1.
          2   -1    0    0  502    0 -0.00000000000E+00 -0.00000000000E+00 -0.93364339126E+03  0.93364339126E+03  0.00000000000E+00 0. -1.
         24    2    1    2    0    0  0.49759482042E+02 -0.26219470454E+02 -0.76424267730E+03  0.77052965162E+03  0.80533269685E+02 0.  0.
         23    2    1    2    0    0  0.10129555820E+02  0.10312143253E+02 -0.88260435948E+02  0.12607903921E+03  0.88865467845E+02 0.  0.
        -11    1    3    3    0    0  0.18136092931E+02  0.26700915614E+02 -0.16525182319E+03  0.16837464723E+03  0.00000000000E+00 0.  1.
         12    1    3    3    0    0  0.31623389111E+02 -0.52920386068E+02 -0.59899085411E+03  0.60215500439E+03  0.00000000000E+00 0. -1.
        -11    1    4    4    0    0 -0.10059138066E+02 -0.27446131805E+02 -0.76172429207E+02  0.81588696405E+02  0.00000000000E+00 0.  1.
         11    1    4    4    0    0  0.20188693886E+02  0.37758275058E+02 -0.12088006741E+02  0.44490342808E+02  0.00000000000E+00 0. -1.
          1    1    1    2  501    0 -0.59889037862E+02  0.15907327201E+02 -0.42841495498E+02  0.75333482936E+02  0.00000000000E+00 0. -1.
<scales pt_clust_5="13000.00000" pt_clust_6="13000.00000" pt_clust_7="13000.00000" pt_clust_8="13000.00000" pt_clust_9="61.96563"></scales>
<clustering>
<clus scale="   61.966">  1  9  2 -1</clus>
<clus scale="   80.533">  5  6 -1 -1</clus>
<clus scale="   88.865">  7  8 -1 -1</clus>
<clus scale="   93.587">  2  5  1 -1</clus>
<clus scale="   61.966">  1  5  2 -1</clus>
</clustering>
</event>
<event>
 9    2  0.1751298E-004  0.1239493E+03  0.7546771E-02  0.1238819E+00
          2   -1    0    0  502    0 -0.00000000000E+00  0.00000000000E+00  0.32706866577E+03  0.32706866577E+03  0.00000000000E+00 0. -1.
         21   -1    0    0  501  502  0.00000000000E+00 -0.00000000000E+00 -0.92359161232E+02  0.92359161232E+02  0.00000000000E+00 0.  1.
         23    2    1    2    0    0  0.90320321716E+02  0.18301341081E+02  0.25236435264E+03  0.28278020535E+03  0.88227991343E+02 0.  0.
         24    2    1    2    0    0 -0.67662060638E+02 -0.16103932203E+02  0.19428828323E+01  0.10660937172E+03  0.80773091210E+02 0.  0.
        -13    1    4    4    0    0 -0.26841818099E+02 -0.47759319820E+02 -0.18274149995E+01  0.54815830506E+02  0.00000000000E+00 0.  1.
         14    1    4    4    0    0 -0.40820242539E+02  0.31655387617E+02  0.37702978318E+01  0.51793541218E+02  0.00000000000E+00 0. -1.
        -13    1    3    3    0    0  0.11465561023E+02 -0.30234734683E+02  0.42551896917E+02  0.53444009975E+02  0.00000000000E+00 0.  1.
         13    1    3    3    0    0  0.78854760694E+02  0.48536075764E+02  0.20981245572E+03  0.22933619538E+03  0.00000000000E+00 0. -1.
          1    1    1    2  501    0 -0.22658261079E+02 -0.21974088781E+01 -0.19597730933E+02  0.30038249926E+02  0.00000000000E+00 0. -1.
<scales pt_clust_5="13000.00000" pt_clust_6="13000.00000" pt_clust_7="13000.00000" pt_clust_8="13000.00000" pt_clust_9="22.76456"></scales>
<clustering>
<clus scale="   22.765">  2  9  1 -1</clus>
<clus scale="   80.773">  5  6 -1 -1</clus>
<clus scale="   88.228">  7  8 -1 -1</clus>
<clus scale="  118.758">  2  5  1 -1</clus>
<clus scale="   22.765">  2  5  1 -1</clus>
</clustering>
</event>
<event>
 9    2  0.1751298E-004  0.8915965E+02  0.7546771E-02  0.1309157E+00
         -1   -1    0    0    0  501 -0.00000000000E+00  0.00000000000E+00  0.42387097902E+03  0.42387097902E+03  0.00000000000E+00 0.  1.
         21   -1    0    0  501  502  0.00000000000E+00 -0.00000000000E+00 -0.95219279863E+02  0.95219279863E+02  0.00000000000E+00 0.  1.
         24    2    1    2    0    0  0.47964046059E+01  0.11344792831E+02  0.22264334115E+03  0.23731501359E+03  0.81219754346E+02 0.  0.
         23    2    1    2    0    0 -0.39709701772E+02 -0.24256360676E+02 -0.56918593689E+02  0.11465002729E+03  0.87975399981E+02 0.  0.
        -13    1    3    3    0    0  0.31110667266E+02 -0.16594103824E+02  0.16008257118E+03  0.16391969831E+03  0.00000000000E+00 0.  1.
         14    1    3    3    0    0 -0.26314262660E+02  0.27938896655E+02  0.62560769973E+02  0.73395315281E+02  0.00000000000E+00 0. -1.
        -11    1    4    4    0    0 -0.23938690216E+02 -0.52822302319E+02 -0.12151462472E+02  0.59252970826E+02  0.00000000000E+00 0. -1.
         11    1    4    4    0    0 -0.15771011556E+02  0.28565941643E+02 -0.44767131217E+02  0.55397056463E+02  0.00000000000E+00 0.  1.
         -2    1    1    2    0  502  0.34913297166E+02  0.12911567845E+02  0.16292695169E+03  0.16712521800E+03  0.00000000000E+00 0.  1.
<scales pt_clust_5="13000.00000" pt_clust_6="13000.00000" pt_clust_7="13000.00000" pt_clust_8="13000.00000" pt_clust_9="37.22430"></scales>
<clustering>
<clus scale="   37.224">  2  9  1 -1</clus>
<clus scale="   81.220">  5  6 -1 -1</clus>
<clus scale="   82.501">  1  5  2 -1</clus>
<clus scale="   87.975">  7  8 -1 -1</clus>
<clus scale="   37.224">  2  5  1 -1</clus>
</clustering>
</event>
<event>
 9    2  0.1751298E-004  0.1974334E+03  0.7546771E-02  0.1176147E+00
          2   -1    0    0  502    0 -0.00000000000E+00  0.00000000000E+00  0.65821342645E+03  0.65821342645E+03  0.00000000000E+00 0. -1.
         21   -1    0    0  501  502  0.00000000000E+00 -0.00000000000E+00 -0.91456662314E+02  0.91456662314E+02  0.00000000000E+00 0. -1.
         24    2    1    2    0    0 -0.19734236931E+02  0.57688580908E+02  0.12391075886E+03  0.16754938839E+03  0.94876282139E+02 0.  0.
         23    2    1    2    0    0  0.18514935959E+03 -0.22044342018E+02  0.22141050293E+03  0.30343385773E+03  0.91012399350E+02 0.  0.
        -13    1    3    3    0    0 -0.28851443534E+02  0.14211135513E+02 -0.37508664575E+01  0.32379486804E+02  0.00000000000E+00 0.  1.
         14    1    3    3    0    0  0.91172066023E+01  0.43477445396E+02  0.12766162532E+03  0.13516990158E+03  0.00000000000E+00 0. -1.
        -11    1    4    4    0    0  0.65403785938E+02  0.18881889555E+02  0.30984889905E+02  0.74794681433E+02  0.00000000000E+00 0.  1.
         11    1    4    4    0    0  0.11974557365E+03 -0.40926231573E+02  0.19042561303E+03  0.22863917629E+03  0.00000000000E+00 0. -1.
          1    1    1    2  501    0 -0.16541512266E+03 -0.35644238890E+02  0.22143550234E+03  0.27868684265E+03  0.00000000000E+00 0. -1.
<scales pt_clust_5="13000.00000" pt_clust_6="13000.00000" pt_clust_7="13000.00000" pt_clust_8="13000.00000" pt_clust_9="175.20475"></scales>
<clustering>
<clus scale="   91.012">  7  8 -1 -1</clus>
<clus scale="   94.876">  5  6 -1 -1</clus>
<clus scale="  112.778">  1  5  2 -1</clus>
<clus scale="  175.205">  2  9  1 -1</clus>
<clus scale="  175.205">  2  5  1 -1</clus>
</clustering>
</event>
<event>
 9    2  0.1751298E-004  0.9578723E+02  0.7546771E-02  0.1295160E+00
         -3   -1    0    0    0  501 -0.00000000000E+00  0.00000000000E+00  0.77366004089E+02  0.77366004089E+02  0.00000000000E+00 0.  1.
         21   -1    0    0  501  502  0.00000000000E+00 -0.00000000000E+00 -0.35881405376E+03  0.35881405376E+03  0.00000000000E+00 0. -1.
         23    2    1    2    0    0 -0.54795481049E+01 -0.47517765435E+02  0.10063867194E+02  0.10302255801E+03  0.90688491861E+02 0.  0.
         24    2    1    2    0    0  0.13494095986E+02 -0.26645895652E+02 -0.13733918205E+03  0.16188662152E+03  0.80331394343E+02 0.  0.
        -11    1    4    4    0    0 -0.24470851428E+02  0.15176738671E+02 -0.38974830626E+02  0.48458161218E+02  0.00000000000E+00 0.  1.
         12    1    4    4    0    0  0.37964947414E+02 -0.41822634323E+02 -0.98364351428E+02  0.11342846030E+03  0.00000000000E+00 0. -1.
        -13    1    3    3    0    0  0.39131866903E+02 -0.30639254809E+02 -0.10965147321E+02  0.50895003668E+02  0.00000000000E+00 0.  1.
         13    1    3    3    0    0 -0.44611415008E+02 -0.16878510625E+02  0.21029014515E+02  0.52127554339E+02  0.00000000000E+00 0. -1.
         -4    1    1    2    0  502 -0.80145478814E+01  0.74163661087E+02 -0.15417273481E+03  0.17127087833E+03  0.00000000000E+00 0.  1.
<scales pt_clust_5="13000.00000" pt_clust_6="13000.00000" pt_clust_7="13000.00000" pt_clust_8="13000.00000" pt_clust_9="74.59545"></scales>
<clustering>
<clus scale="   74.595">  2  9  1 -1</clus>
<clus scale="   80.331">  5  6 -1 -1</clus>
<clus scale="   86.046">  2  5  1 -1</clus>
<clus scale="   90.688">  7  8 -1 -1</clus>
<clus scale="   74.595">  2  5  1 -1</clus>
</clustering>
</event>
<event>
 9    2  0.1751298E-004  0.1068390E+03  0.7546771E-02  0.1271113E+00
          2   -1    0    0  502    0 -0.00000000000E+00  0.00000000000E+00  0.56235593235E+02  0.56235593235E+02  0.00000000000E+00 0. -1.
         21   -1    0    0  501  502  0.00000000000E+00 -0.00000000000E+00 -0.37517073829E+03  0.37517073829E+03  0.00000000000E+00 0.  1.
         24    2    1    2    0    0 -0.46712396841E+02  0.66606954181E+02 -0.77361219985E+02  0.13773592917E+03  0.79799081847E+02 0.  0.
         23    2    1    2    0    0 -0.13484879721E+02 -0.30065973378E+02 -0.14433451916E+03  0.17361017811E+03  0.90676544849E+02 0.  0.
        -11    1    3    3    0    0 -0.67939546763E+02  0.40863573254E+02 -0.44557607819E+02  0.90945005625E+02  0.00000000000E+00 0.  1.
         12    1    3    3    0    0  0.21227149922E+02  0.25743380927E+02 -0.32803612165E+02  0.46790923548E+02  0.00000000000E+00 0. -1.
        -11    1    4    4    0    0 -0.28288528127E+02  0.12974429572E+02 -0.11575609236E+03  0.11986679926E+03  0.00000000000E+00 0. -1.
         11    1    4    4    0    0  0.14803648406E+02 -0.43040402950E+02 -0.28578426809E+02  0.53743378858E+02  0.00000000000E+00 0.  1.
          1    1    1    2  501    0  0.60197276562E+02 -0.36540980803E+02 -0.97239405903E+02  0.12006022424E+03  0.00000000000E+00 0. -1.
<scales pt_clust_5="13000.00000" pt_clust_6="13000.00000" pt_clust_7="13000.00000" pt_clust_8="13000.00000" pt_clust_9="70.41985"></scales>
<clustering>
<clus scale="   70.420">  2  9  1 -1</clus>
<clus scale="   79.799">  5  6 -1 -1</clus>
<clus scale="   90.677">  7  8 -1 -1</clus>
<clus scale="   97.776">  1  5  2 -1</clus>
<clus scale="   70.420">  2  5  1 -1</clus>
</clustering>
</event>
<event>
 9    2  0.1751298E-004  0.9966389E+02  0.7546771E-02  0.1290345E+00
         21   -1    0    0  501  502  0.00000000000E+00  0.00000000000E+00  0.70228006552E+02  0.70228006552E+02  0.00000000000E+00 0.  1.
          4   -1    0    0  502    0 -0.00000000000E+00 -0.00000000000E+00 -0.17627762509E+03  0.17627762509E+03  0.00000000000E+00 0. -1.
         24    2    1    2    0    0  0.17936724770E+02 -0.22703034474E+02 -0.94859699039E+02  0.12759546102E+03  0.80281288616E+02 0.  0.
         23    2    1    2    0    0 -0.54609964227E+01  0.63382378587E+01 -0.13438718348E+02  0.98209748832E+02  0.96925537779E+02 0.  0.
        -13    1    3    3    0    0  0.39071179494E+02  0.13601662529E+02 -0.60666981357E+02  0.73430544855E+02  0.00000000000E+00 0.  1.
         14    1    3    3    0    0 -0.21134454724E+02 -0.36304697003E+02 -0.34192717682E+02  0.54164916168E+02  0.00000000000E+00 0. -1.
        -13    1    4    4    0    0 -0.29495109257E+02 -0.30241092972E+02  0.16316406716E+02  0.45284768989E+02  0.00000000000E+00 0.  1.
         13    1    4    4    0    0  0.24034112834E+02  0.36579330831E+02 -0.29755125064E+02  0.52924979843E+02  0.00000000000E+00 0. -1.
          3    1    1    2  501    0 -0.12475728347E+02  0.16364796615E+02  0.22487988469E+01  0.20700421790E+02  0.00000000000E+00 0. -1.
<scales pt_clust_5="13000.00000" pt_clust_6="13000.00000" pt_clust_7="13000.00000" pt_clust_8="13000.00000" pt_clust_9="20.57791"></scales>
<clustering>
<clus scale="   20.578">  1  9  2 -1</clus>
<clus scale="   80.281">  5  6 -1 -1</clus>
<clus scale="   83.567">  2  5  1 -1</clus>
<clus scale="   96.926">  7  8 -1 -1</clus>
<clus scale="   20.578">  1  5  2 -1</clus>
</clustering>
</event>
<event>
 9    2  0.1751298E-004  0.1180147E+03  0.7546771E-02  0.1253666E+00
         21   -1    0    0  501  502  0.00000000000E+00  0.00000000000E+00  0.88848374090E+02  0.88848374090E+02  0.00000000000E+00 0. -1.
          2   -1    0    0  502    0 -0.00000000000E+00 -0.00000000000E+00 -0.45607341199E+03  0.45607341199E+03  0.00000000000E+00 0. -1.
         24    2    1    2    0    0  0.13613223621E+02  0.60436174873E+02 -0.22826245177E+03  0.25005145051E+03  0.81142651691E+02 0.  0.
         23    2    1    2    0    0  0.11421948455E+02  0.56961072704E+02  0.26296263362E+01  0.10924375285E+03  0.92478418526E+02 0.  0.
        -13    1    3    3    0    0  0.28488845144E+02  0.48890223127E+02 -0.67018771521E+02  0.87711937336E+02  0.00000000000E+00 0.  1.
         14    1    3    3    0    0 -0.14875621524E+02  0.11545951747E+02 -0.16124368024E+03  0.16233951317E+03  0.00000000000E+00 0. -1.
        -13    1    4    4    0    0  0.29281521430E+02 -0.41780759797E+01 -0.26028001746E+02  0.39399501152E+02  0.00000000000E+00 0.  1.
         13    1    4    4    0    0 -0.17859572975E+02  0.61139148684E+02  0.28657628082E+02  0.69844251703E+02  0.00000000000E+00 0. -1.
          1    1    1    2  501    0 -0.25035172075E+02 -0.11739724758E+03 -0.14159221247E+03  0.18562658272E+03  0.00000000000E+00 0. -1.
<scales pt_clust_5="13000.00000" pt_clust_6="13000.00000" pt_clust_7="13000.00000" pt_clust_8="13000.00000" pt_clust_9="73.31589"></scales>
<clustering>
<clus scale="   81.143">  5  6 -1 -1</clus>
<clus scale="   92.478">  7  8 -1 -1</clus>
<clus scale="  102.088">  2  5  1 -1</clus>
<clus scale="   73.316">  1  9  2 -1</clus>
<clus scale="   73.316">  1  5  2 -1</clus>
</clustering>
</event>
<event>
 9    2  0.3344695E-004  0.1468771E+03  0.7546771E-02  0.1222501E+00
         -3   -1    0    0    0  501 -0.00000000000E+00  0.00000000000E+00  0.54576595539E+03  0.54576595539E+03  0.00000000000E+00 0.  1.
         21   -1    0    0  501  502  0.00000000000E+00 -0.00000000000E+00 -0.62488344894E+03  0.62488344894E+03  0.00000000000E+00 0. -1.
         23    2    1    2    0    0  0.37638326379E+02  0.96493833485E+01 -0.48101907986E+03  0.49129049018E+03  0.92071908523E+02 0.  0.
         24    2    1    2    0    0  0.50776889160E+02 -0.11027836278E+03 -0.88443366004E+02  0.17104639798E+03  0.81823172152E+02 0.  0.
        -13    1    4    4    0    0 -0.20925782804E+02 -0.22912804261E+02 -0.72018396104E+01  0.31855164084E+02  0.00000000000E+00 0.  1.
         14    1    4    4    0    0  0.71702671964E+02 -0.87365558517E+02 -0.81241526394E+02  0.13919123389E+03  0.00000000000E+00 0. -1.
        -13    1    3    3    0    0  0.45820320918E+02  0.44555725609E+02 -0.29414868760E+03  0.30101190161E+03  0.00000000000E+00 0. -1.
         13    1    3    3    0    0 -0.81819945391E+01 -0.34906342260E+02 -0.18687039226E+03  0.19027858857E+03  0.00000000000E+00 0.  1.
         -4    1    1    2    0  502 -0.88415215539E+02  0.10062897943E+03  0.49034495232E+03  0.50831251618E+03  0.00000000000E+00 0.  1.
<scales pt_clust_5="13000.00000" pt_clust_6="13000.00000" pt_clust_7="13000.00000" pt_clust_8="13000.00000" pt_clust_9="121.97481"></scales>
<clustering>
<clus scale="   81.823">  5  6 -1 -1</clus>
<clus scale="   92.072">  7  8 -1 -1</clus>
<clus scale="   99.935">  1  7  2 -1</clus>
<clus scale="  121.975">  2  9  1 -1</clus>
<clus scale="  121.975">  2  5  1 -1</clus>
</clustering>
</event>
<event>
 9    2  0.1751298E-004  0.1554277E+03  0.7546771E-02  0.1195372E+00
         21   -1    0    0  501  502  0.00000000000E+00  0.00000000000E+00  0.43371204783E+03  0.43371204783E+03  0.00000000000E+00 0. -1.
         -1   -1    0    0    0  501 -0.00000000000E+00 -0.00000000000E+00 -0.22653150853E+03  0.22653150853E+03  0.00000000000E+00 0.  1.
         23    2    1    2    0    0 -0.11613872644E+03  0.28182154590E+02  0.28534198016E+02  0.15294032634E+03  0.91071978940E+02 0.  0.
         24    2    1    2    0    0  0.93795696013E+02 -0.16493539094E+03  0.27083349230E+03  0.34087267552E+03  0.82716894223E+02 0.  0.
        -11    1    4    4    0    0  0.42433724730E+02 -0.50152270691E+02  0.37070385012E+02  0.75432650059E+02  0.00000000000E+00 0.  1.
         12    1    4    4    0    0  0.51361971283E+02 -0.11478312025E+03  0.23376310729E+03  0.26544002546E+03  0.00000000000E+00 0. -1.
        -11    1    3    3    0    0 -0.91965760236E+02  0.24748612896E+02  0.60415431975E+02  0.11278394973E+03  0.00000000000E+00 0.  1.
         11    1    3    3    0    0 -0.24172966204E+02  0.34335416938E+01 -0.31881233959E+02  0.40156376609E+02  0.00000000000E+00 0. -1.
         -2    1    1    2    0  502  0.22343030426E+02  0.13675323635E+03 -0.92187151014E+02  0.16643055450E+03  0.00000000000E+00 0.  1.
<scales pt_clust_5="13000.00000" pt_clust_6="13000.00000" pt_clust_7="13000.00000" pt_clust_8="13000.00000" pt_clust_9="138.56651"></scales>
<clustering>
<clus scale="   82.717">  5  6 -1 -1</clus>
<clus scale="   91.072">  7  8 -1 -1</clus>
<clus scale="  138.567">  1  9  2 -1</clus>
<clus scale="  150.684">  1  5  2 -1</clus>
<clus scale="  138.567">  1  5  2 -1</clus>
</clustering>
</event>
<event>
 9    2  0.1751298E-004  0.1372013E+03  0.7546771E-02  0.1218526E+00
          2   -1    0    0  502    0 -0.00000000000E+00  0.00000000000E+00  0.15281856789E+03  0.15281856789E+03  0.00000000000E+00 0. -1.
         21   -1    0    0  501  502  0.00000000000E+00 -0.00000000000E+00 -0.16589450246E+03  0.16589450246E+03  0.00000000000E+00 0.  1.
         23    2    1    2    0    0 -0.10715127684E+03 -0.21282280957E+02  0.62345735039E+02  0.15367540398E+03  0.88288207026E+02 0.  0.
         24    2    1    2    0    0  0.96112566460E+02  0.41860930090E+01 -0.65645470293E+02  0.14246097834E+03  0.82040561755E+02 0.  0.
        -11    1    4    4    0    0  0.41426878196E+02  0.42418129263E+02 -0.36680495817E+02  0.69720461133E+02  0.00000000000E+00 0.  1.
         12    1    4    4    0    0  0.54685688264E+02 -0.38232036254E+02 -0.28964974475E+02  0.72740517206E+02  0.00000000000E+00 0. -1.
        -13    1    3    3    0    0 -0.23915387432E+02  0.65248794637E+01 -0.21118136892E+02  0.32565250096E+02  0.00000000000E+00 0.  1.
         13    1    3    3    0    0 -0.83235889408E+02 -0.27807160420E+02  0.83463871931E+02  0.12111015388E+03  0.00000000000E+00 0. -1.
          1    1    1    2  501    0  0.11038710380E+02  0.17096187948E+02 -0.97761993187E+01  0.22576688028E+02  0.00000000000E+00 0. -1.
<scales pt_clust_5="13000.00000" pt_clust_6="13000.00000" pt_clust_7="13000.00000" pt_clust_8="13000.00000" pt_clust_9="20.35025"></scales>
<clustering>
<clus scale="   20.350">  2  9  1 -1</clus>
<clus scale="   82.041">  5  6 -1 -1</clus>
<clus scale="   88.288">  7  8 -1 -1</clus>
<clus scale="  133.267">  2  5  1 -1</clus>
<clus scale="   20.350">  2  5  1 -1</clus>
</clustering>
</event>
<event>
 9    2  0.1751298E-004  0.2499331E+03  0.7546771E-02  0.1113945E+00
          2   -1    0    0  502    0 -0.00000000000E+00  0.00000000000E+00  0.18378089102E+03  0.18378089102E+03  0.00000000000E+00 0. -1.
         21   -1    0    0  501  502  0.00000000000E+00 -0.00000000000E+00 -0.41253724538E+03  0.41253724538E+03  0.00000000000E+00 0. -1.
         23    2    1    2    0    0 -0.20732673366E+03  0.49742198982E+02 -0.82317956395E+02  0.24586224291E+03  0.90627455507E+02 0.  0.
         24    2    1    2    0    0  0.24797648835E+03 -0.63046585124E+02 -0.96813444397E+02  0.28494219062E+03  0.79699424760E+02 0.  0.
        -13    1    4    4    0    0  0.23160364489E+02  0.12324958536E+01  0.13029221922E+02  0.26602296014E+02  0.00000000000E+00 0.  1.
         14    1    4    4    0    0  0.22481612386E+03 -0.64279080977E+02 -0.10984266632E+03  0.25833989460E+03  0.00000000000E+00 0. -1.
        -13    1    3    3    0    0 -0.12794758357E+03  0.74012972468E+02 -0.42511172033E+02  0.15380410912E+03  0.00000000000E+00 0.  1.
         13    1    3    3    0    0 -0.79379150092E+02 -0.24270773486E+02 -0.39806784362E+02  0.92058133786E+02  0.00000000000E+00 0. -1.
          1    1    1    2  501    0 -0.40649754689E+02  0.13304386142E+02 -0.49624953574E+02  0.65513702872E+02  0.00000000000E+00 0. -1.
<scales pt_clust_5="13000.00000" pt_clust_6="13000.00000" pt_clust_7="13000.00000" pt_clust_8="13000.00000" pt_clust_9="42.77159"></scales>
<clustering>
<clus scale="   42.772">  2  9  1 -1</clus>
<clus scale="   79.699">  5  6 -1 -1</clus>
<clus scale="   90.627">  7  8 -1 -1</clus>
<clus scale="  246.181">  2  5  1 -1</clus>
<clus scale="   42.772">  2  5  1 -1</clus>
</clustering>
</event>
<event>
 9    2  0.1751298E-004  0.1700739E+03  0.7546771E-02  0.1208658E+00
          2   -1    0    0  502    0 -0.00000000000E+00  0.00000000000E+00  0.65102606938E+03  0.65102606938E+03  0.00000000000E+00 0. -1.
         21   -1    0    0  501  502  0.00000000000E+00 -0.00000000000E+00 -0.26449073669E+03  0.26449073669E+03  0.00000000000E+00 0. -1.
         24    2    1    2    0    0 -0.27759603188E+02 -0.43025965998E+01  0.49186341478E+03  0.49937131781E+03  0.81565840542E+02 0.  0.
         23    2    1    2    0    0 -0.76853400277E+02  0.10983598518E+03  0.79730832849E+02  0.17881032736E+03  0.87439914745E+02 0.  0.
        -13    1    3    3    0    0 -0.38686909676E+02  0.22597317308E+02  0.15746612500E+03  0.16371590104E+03  0.00000000000E+00 0.  1.
         14    1    3    3    0    0  0.10927306488E+02 -0.26899913908E+02  0.33439728978E+03  0.33565541677E+03  0.00000000000E+00 0. -1.
        -13    1    4    4    0    0 -0.15885960636E+02  0.47818925813E+02 -0.12632189642E+02  0.51947912628E+02  0.00000000000E+00 0.  1.
         13    1    4    4    0    0 -0.60967439641E+02  0.62017059365E+02  0.92363022491E+02  0.12686241474E+03  0.00000000000E+00 0. -1.
          1    1    1    2  501    0  0.10461300347E+03 -0.10553338858E+03 -0.18505891494E+03  0.23733516090E+03  0.00000000000E+00 0. -1.
<scales pt_clust_5="13000.00000" pt_clust_6="13000.00000" pt_clust_7="13000.00000" pt_clust_8="13000.00000" pt_clust_9="145.87456"></scales>
<clustering>
<clus scale="   81.566">  5  6 -1 -1</clus>
<clus scale="   86.268">  1  5  2 -1</clus>
<clus scale="   87.440">  7  8 -1 -1</clus>
<clus scale="  145.875">  2  9  1 -1</clus>
<clus scale="  145.875">  2  5  1 -1</clus>
</clustering>
</event>
<event>
 9    2  0.1751298E-004  0.9925936E+02  0.7546771E-02  0.1289910E+00
         -1   -1    0    0    0  501 -0.00000000000E+00  0.00000000000E+00  0.38883179294E+03  0.38883179294E+03  0.00000000000E+00 0.  1.
         21   -1    0    0  501  502  0.00000000000E+00 -0.00000000000E+00 -0.38242753534E+02  0.38242753534E+02  0.00000000000E+00 0. -1.
         24    2    1    2    0    0  0.88461055901E+01 -0.38123793811E+02  0.22121163751E+03  0.23865825732E+03  0.80569832936E+02 0.  0.
         23    2    1    2    0    0  0.11718296313E+02  0.66908254632E+01  0.11008667512E+03  0.14619001458E+03  0.95238430837E+02 0.  0.
        -11    1    3    3    0    0 -0.33449237298E+02 -0.32088928810E+02  0.12759208215E+03  0.13575083887E+03  0.00000000000E+00 0.  1.
         12    1    3    3    0    0  0.42295342888E+02 -0.60348650013E+01  0.93619555366E+02  0.10290741845E+03  0.00000000000E+00 0. -1.
        -13    1    4    4    0    0 -0.36831231193E+02  0.25015696844E+01  0.82045244560E+02  0.89967880918E+02  0.00000000000E+00 0.  1.
         13    1    4    4    0    0  0.48549527506E+02  0.41892557789E+01  0.28041430564E+02  0.56222133659E+02  0.00000000000E+00 0. -1.
         -2    1    1    2    0  502 -0.20564401904E+02  0.31432968348E+02  0.19290726766E+02  0.42226274569E+02  0.00000000000E+00 0.  1.
<scales pt_clust_5="13000.00000" pt_clust_6="13000.00000" pt_clust_7="13000.00000" pt_clust_8="13000.00000" pt_clust_9="37.56230"></scales>
<clustering>
<clus scale="   37.562">  2  9  1 -1</clus>
<clus scale="   80.570">  5  6 -1 -1</clus>
<clus scale="   85.285">  1  5  2 -1</clus>
<clus scale="   95.238">  7  8 -1 -1</clus>
<clus scale="   37.562">  2  5  1 -1</clus>
</clustering>
</event>
<event>
 9    2  0.1751298E-004  0.1091545E+03  0.7546771E-02  0.1267277E+00
         21   -1    0    0  501  502  0.00000000000E+00  0.00000000000E+00  0.18974710420E+03  0.18974710420E+03  0.00000000000E+00 0.  1.
         -3   -1    0    0    0  501 -0.00000000000E+00 -0.00000000000E+00 -0.19291350506E+03  0.19291350506E+03  0.00000000000E+00 0.  1.
         24    2    1    2    0    0  0.35551083224E+02 -0.52793606211E+02 -0.13450500234E+03  0.16908049661E+03  0.80284334122E+02 0.  0.
         23    2    1    2    0    0 -0.39912705330E+02  0.10902544230E+02  0.33343579971E+02  0.10691751817E+03  0.92777539568E+02 0.  0.
        -13    1    3    3    0    0 -0.24294412281E+02 -0.97841496762E+01 -0.53504406806E+02  0.59570710929E+02  0.00000000000E+00 0.  1.
         14    1    3    3    0    0  0.59845495505E+02 -0.43009456535E+02 -0.81000595529E+02  0.10950978568E+03  0.00000000000E+00 0. -1.
        -11    1    4    4    0    0 -0.52276586842E+02 -0.13648474929E+02  0.50958740540E+02  0.74269210560E+02  0.00000000000E+00 0. -1.
         11    1    4    4    0    0  0.12363881512E+02  0.24551019159E+02 -0.17615160569E+02  0.32648307608E+02  0.00000000000E+00 0.  1.
         -4    1    1    2    0  502  0.43616221057E+01  0.41891061981E+02  0.97995021502E+02  0.10666259448E+03  0.00000000000E+00 0.  1.
<scales pt_clust_5="13000.00000" pt_clust_6="13000.00000" pt_clust_7="13000.00000" pt_clust_8="13000.00000" pt_clust_9="42.11751"></scales>
<clustering>
<clus scale="   42.118">  1  9  2 -1</clus>
<clus scale="   80.284">  5  6 -1 -1</clus>
<clus scale="   92.778">  7  8 -1 -1</clus>
<clus scale="   98.755">  2  5  1 -1</clus>
<clus scale="   42.118">  1  5  2 -1</clus>
</clustering>
</event>
<event>
 9    2  0.1751298E-004  0.1187684E+03  0.7546771E-02  0.1248410E+00
         21   -1    0    0  501  502  0.00000000000E+00  0.00000000000E+00  0.18005494406E+02  0.18005494406E+02  0.00000000000E+00 0. -1.
          2   -1    0    0  502    0 -0.00000000000E+00 -0.00000000000E+00 -0.12215680607E+04  0.12215680607E+04  0.00000000000E+00 0. -1.
         24    2    1    2    0    0  0.60703296288E+02  0.32091831268E+02 -0.70794943525E+03  0.71582343233E+03  0.80597813840E+02 0.  0.
         23    2    1    2    0    0 -0.78240456093E+02 -0.56888383127E+02 -0.44848588809E+03  0.46768410822E+03  0.90724727419E+02 0.  0.
        -13    1    3    3    0    0  0.20455942667E+02  0.54627624040E+02 -0.33616062372E+03  0.34118409669E+03  0.00000000000E+00 0.  1.
         14    1    3    3    0    0  0.40247353621E+02 -0.22535792773E+02 -0.37178881153E+03  0.37463933564E+03  0.00000000000E+00 0. -1.
        -11    1    4    4    0    0  0.52963091287E+01 -0.48347784889E+02 -0.16773911069E+03  0.17464812753E+03  0.00000000000E+00 0.  1.
         11    1    4    4    0    0 -0.83536765222E+02 -0.85405982377E+01 -0.28074677740E+03  0.29303598069E+03  0.00000000000E+00 0. -1.
          1    1    1    2  501    0  0.17537159805E+02  0.24796551859E+02 -0.47127242933E+02  0.56066014524E+02  0.00000000000E+00 0. -1.
<scales pt_clust_5="13000.00000" pt_clust_6="13000.00000" pt_clust_7="13000.00000" pt_clust_8="13000.00000" pt_clust_9="30.37138"></scales>
<clustering>
<clus scale="   30.371">  1  9  2 -1</clus>
<clus scale="   80.598">  5  6 -1 -1</clus>
<clus scale="   90.725">  7  8 -1 -1</clus>
<clus scale="  111.225">  2  5  1 -1</clus>
<clus scale="   30.371">  1  5  2 -1</clus>
</clustering>
</event>
<event>
 9    2  0.1751298E-004  0.1625004E+03  0.7546771E-02  0.1187735E+00
          2   -1    0    0  502    0 -0.00000000000E+00  0.00000000000E+00  0.44176913153E+03  0.44176913153E+03  0.00000000000E+00 0. -1.
         21   -1    0    0  501  502  0.00000000000E+00 -0.00000000000E+00 -0.12311665570E+03  0.12311665570E+03  0.00000000000E+00 0. -1.
         23    2    1    2    0    0  0.48592702555E+02 -0.91623026170E+02  0.16005570105E+03  0.21228607595E+03  0.93228326897E+02 0.  0.
         24    2    1    2    0    0 -0.10847544683E+03  0.15435768848E+03  0.16793590231E+03  0.26537127429E+03  0.81401642318E+02 0.  0.
        -13    1    4    4    0    0 -0.63125050987E+02  0.87596813509E+02  0.14627347604E+03  0.18180732546E+03  0.00000000000E+00 0.  1.
         14    1    4    4    0    0 -0.45350395847E+02  0.66760874974E+02  0.21662426266E+02  0.83563948821E+02  0.00000000000E+00 0. -1.
        -13    1    3    3    0    0  0.95242614573E+01 -0.34106106848E+02 -0.24849393926E+01  0.35498070432E+02  0.00000000000E+00 0.  1.
         13    1    3    3    0    0  0.39068441098E+02 -0.57516919322E+02  0.16254064044E+03  0.17678800551E+03  0.00000000000E+00 0. -1.
          1    1    1    2  501    0  0.59882744280E+02 -0.62734662313E+02 -0.93391275243E+01  0.87228436997E+02  0.00000000000E+00 0. -1.
<scales pt_clust_5="13000.00000" pt_clust_6="13000.00000" pt_clust_7="13000.00000" pt_clust_8="13000.00000" pt_clust_9="86.72705"></scales>
<clustering>
<clus scale="   81.402">  5  6 -1 -1</clus>
<clus scale="   86.727">  2  9  1 -1</clus>
<clus scale="   93.228">  7  8 -1 -1</clus>
<clus scale="  156.016">  2  5  1 -1</clus>
<clus scale="   86.727">  2  5  1 -1</clus>
</clustering>
</event>
<event>
 9    2  0.1751298E-004  0.1400652E+03  0.7546771E-02  0.1225469E+00
         -1   -1    0    0    0  501 -0.00000000000E+00  0.00000000000E+00  0.34207750833E+03  0.34207750833E+03  0.00000000000E+00 0.  1.
         21   -1    0    0  501  502  0.00000000000E+00 -0.00000000000E+00 -0.16043210128E+03  0.16043210128E+03  0.00000000000E+00 0.  1.
         24    2    1    2    0    0 -0.29014668570E+02 -0.65064015851E+02  0.20244432510E+03  0.22960075225E+03  0.81594261546E+02 0.  0.
         23    2    1    2    0    0  0.58325227198E+02 -0.65034228518E+02 -0.43703020738E+02  0.13759714332E+03  0.96910973692E+02 0.  0.
        -13    1    3    3    0    0 -0.36225510447E+02 -0.73119541424E+02  0.20298774836E+03  0.21877564063E+03  0.00000000000E+00 0.  1.
         14    1    3    3    0    0  0.72108418772E+01  0.80555255731E+01 -0.54342326278E+00  0.10825111624E+02  0.00000000000E+00 0. -1.
        -13    1    4    4    0    0 -0.10556574410E+02 -0.29748781457E+02  0.19990922177E+02  0.37363996453E+02  0.00000000000E+00 0. -1.
         13    1    4    4    0    0  0.68881801608E+02 -0.35285447061E+02 -0.63693942915E+02  0.10023314687E+03  0.00000000000E+00 0.  1.
         -2    1    1    2    0  502 -0.29310558628E+02  0.13009824437E+03  0.22904102684E+02  0.13531171403E+03  0.00000000000E+00 0.  1.
<scales pt_clust_5="13000.00000" pt_clust_6="13000.00000" pt_clust_7="13000.00000" pt_clust_8="13000.00000" pt_clust_9="101.12638"></scales>
<clustering>
<clus scale="   81.594">  5  6 -1 -1</clus>
<clus scale="   96.911">  7  8 -1 -1</clus>
<clus scale="  108.318">  1  5  2 -1</clus>
<clus scale="  101.126">  2  9  1 -1</clus>
<clus scale="  101.126">  2  5  1 -1</clus>
</clustering>
</event>
<event>
 9    2  0.1751298E-004  0.1963266E+03  0.7546771E-02  0.1170448E+00
          4   -1    0    0  502    0 -0.00000000000E+00  0.00000000000E+00  0.46367351390E+03  0.46367351390E+03  0.00000000000E+00 0. -1.
         21   -1    0    0  501  502  0.00000000000E+00 -0.00000000000E+00 -0.26781994833E+03  0.26781994833E+03  0.00000000000E+00 0. -1.
         23    2    1    2    0    0 -0.93396417123E+01  0.93781996059E+02  0.46771878575E+02  0.13869182315E+03  0.90363275122E+02 0.  0.
         24    2    1    2    0    0  0.79313680212E+02  0.81411083907E+02  0.31317841177E+03  0.34276820848E+03  0.80566138637E+02 0.  0.
        -11    1    4    4    0    0  0.32362805379E+02  0.16670035679E+02  0.26191999802E+02  0.44847097065E+02  0.00000000000E+00 0.  1.
         12    1    4    4    0    0  0.46950874834E+02  0.64741048228E+02  0.28698641197E+03  0.29792111142E+03  0.00000000000E+00 0. -1.
        -11    1    3    3    0    0  0.21360635564E+01  0.11031854463E+03  0.41490381844E+02  0.11788212690E+03  0.00000000000E+00 0. -1.
         11    1    3    3    0    0 -0.11475705269E+02 -0.16536548574E+02  0.52814967315E+01  0.20809696247E+02  0.00000000000E+00 0.  1.
          3    1    1    2  501    0 -0.69974038500E+02 -0.17519307997E+03 -0.16409672478E+03  0.25003343060E+03  0.00000000000E+00 0. -1.
<scales pt_clust_5="13000.00000" pt_clust_6="13000.00000" pt_clust_7="13000.00000" pt_clust_8="13000.00000" pt_clust_9="179.03411"></scales>
<clustering>
<clus scale="   80.566">  5  6 -1 -1</clus>
<clus scale="   90.363">  7  8 -1 -1</clus>
<clus scale="  130.567">  1  7  2 -1</clus>
<clus scale="  179.034">  2  9  1 -1</clus>
<clus scale="  179.034">  2  5  1 -1</clus>
</clustering>
</event>
<event>
 9    2  0.1751298E-004  0.9621200E+02  0.7546771E-02  0.1295898E+00
         21   -1    0    0  501  502  0.00000000000E+00  0.00000000000E+00  0.37090291463E+03  0.37090291463E+03  0.00000000000E+00 0. -1.
          2   -1    0    0  502    0 -0.00000000000E+00 -0.00000000000E+00 -0.10606724256E+03  0.10606724256E+03  0.00000000000E+00 0. -1.
         23    2    1    2    0    0 -0.15679947232E+02  0.25089360975E+02 -0.73303452790E+02  0.12084848345E+03  0.91409096827E+02 0.  0.
         24    2    1    2    0    0  0.37530058659E+02 -0.16925086302E+02  0.26350911458E+03  0.27793138543E+03  0.78191033320E+02 0.  0.
        -11    1    4    4    0    0 -0.23908985957E+02 -0.10640104997E+02  0.91603261812E+02  0.95268090242E+02  0.00000000000E+00 0.  1.
         12    1    4    4    0    0  0.61439044616E+02 -0.62849813050E+01  0.17190585277E+03  0.18266329519E+03  0.00000000000E+00 0. -1.
        -11    1    3    3    0    0 -0.35848874542E+02 -0.20479972792E+02 -0.52643824809E+02  0.66902491598E+02  0.00000000000E+00 0. -1.
         11    1    3    3    0    0  0.20168927311E+02  0.45569333768E+02 -0.20659627981E+02  0.53945991855E+02  0.00000000000E+00 0.  1.
          1    1    1    2  501    0 -0.21850111427E+02 -0.81642746736E+01  0.74630010283E+02  0.78190288305E+02  0.00000000000E+00 0. -1.
<scales pt_clust_5="13000.00000" pt_clust_6="13000.00000" pt_clust_7="13000.00000" pt_clust_8="13000.00000" pt_clust_9="23.32558"></scales>
<clustering>
<clus scale="   23.326">  1  9  2 -1</clus>
<clus scale="   78.191">  5  6 -1 -1</clus>
<clus scale="   83.755">  1  5  2 -1</clus>
<clus scale="   91.409">  7  8 -1 -1</clus>
<clus scale="   23.326">  1  5  2 -1</clus>
</clustering>
</event>
<event>
 9    2  0.1751298E-004  0.2139281E+03  0.7546771E-02  0.1160544E+00
          2   -1    0    0  502    0 -0.00000000000E+00  0.00000000000E+00  0.20118988134E+03  0.20118988134E+03  0.00000000000E+00 0. -1.
         21   -1    0    0  501  502  0.00000000000E+00 -0.00000000000E+00 -0.50229085001E+03  0.50229085001E+03  0.00000000000E+00 0.  1.
         23    2    1    2    0    0 -0.79817462506E+02  0.40449674439E+01 -0.10986135641E+03  0.16777770422E+03  0.98451263671E+02 0.  0.
         24    2    1    2    0    0  0.57618578376E+02  0.19401480864E+03 -0.24677275789E+03  0.32881079523E+03  0.79108144177E+02 0.  0.
        -11    1    4    4    0    0  0.39782791112E+02  0.19068388125E+03 -0.24077189489E+03  0.30970004586E+03  0.00000000000E+00 0.  1.
         12    1    4    4    0    0  0.17835787264E+02  0.33309273848E+01 -0.60008630062E+01  0.19110749367E+02  0.00000000000E+00 0. -1.
        -13    1    3    3    0    0 -0.13201962327E+02  0.30712996296E+02  0.35022669929E+01  0.33613179333E+02  0.00000000000E+00 0.  1.
         13    1    3    3    0    0 -0.66615500179E+02 -0.26668028853E+02 -0.11336362340E+03  0.13416452489E+03  0.00000000000E+00 0. -1.
          1    1    1    2  501    0  0.22198884130E+02 -0.19805977608E+03  0.55533145637E+02  0.20689223190E+03  0.00000000000E+00 0. -1.
<scales pt_clust_5="13000.00000" pt_clust_6="13000.00000" pt_clust_7="13000.00000" pt_clust_8="13000.00000" pt_clust_9="198.76415"></scales>
<clustering>
<clus scale="   79.108">  5  6 -1 -1</clus>
<clus scale="   98.451">  7  8 -1 -1</clus>
<clus scale="  126.806">  1  7  2 -1</clus>
<clus scale="  198.764">  2  9  1 -1</clus>
<clus scale="  198.764">  2  5  1 -1</clus>
</clustering>
</event>
<event>
 9    2  0.1751298E-004  0.2010333E+03  0.7546771E-02  0.1155327E+00
         21   -1    0    0  501  502  0.00000000000E+00  0.00000000000E+00  0.78624361126E+02  0.78624361126E+02  0.00000000000E+00 0. -1.
          2   -1    0    0  502    0 -0.00000000000E+00 -0.00000000000E+00 -0.22750779756E+04  0.22750779756E+04  0.00000000000E+00 0. -1.
         23    2    1    2    0    0  0.10621833405E+03  0.10694062026E+03 -0.77337496225E+03  0.79240354436E+03  0.84118452888E+02 0.  0.
         24    2    1    2    0    0  0.51559932987E+01 -0.24962366277E+03 -0.13338279293E+04  0.13594860501E+04  0.82260671365E+02 0.  0.
        -13    1    4    4    0    0  0.37410021930E+02 -0.11719954219E+03 -0.52238634238E+03  0.53667749453E+03  0.00000000000E+00 0.  1.
         14    1    4    4    0    0 -0.32254028631E+02 -0.13242412058E+03 -0.81144158693E+03  0.82280855555E+03  0.00000000000E+00 0. -1.
        -13    1    3    3    0    0  0.73909913930E+02  0.10561454555E+03 -0.70598574010E+03  0.71765797761E+03  0.00000000000E+00 0.  1.
         13    1    3    3    0    0  0.32308420124E+02  0.13260747082E+01 -0.67389222156E+02  0.74745566744E+02  0.00000000000E+00 0. -1.
          1    1    1    2  501    0 -0.11137432735E+03  0.14268304251E+03 -0.89250722902E+02  0.20181274229E+03  0.00000000000E+00 0. -1.
<scales pt_clust_5="13000.00000" pt_clust_6="13000.00000" pt_clust_7="13000.00000" pt_clust_8="13000.00000" pt_clust_9="183.43274"></scales>
<clustering>
<clus scale="   82.261">  5  6 -1 -1</clus>
<clus scale="   84.118">  7  8 -1 -1</clus>
<clus scale="  172.611">  2  7  1 -1</clus>
<clus scale="  183.433">  1  9  2 -1</clus>
<clus scale="  183.433">  1  5  2 -1</clus>
</clustering>
</event>
<event>
 9    2  0.1751298E-004  0.1021205E+03  0.7546771E-02  0.1282238E+00
          2   -1    0    0  502    0 -0.00000000000E+00  0.00000000000E+00  0.33964908829E+03  0.33964908829E+03  0.00000000000E+00 0. -1.
         21   -1    0    0  501  502  0.00000000000E+00 -0.00000000000E+00 -0.13070262608E+03  0.13070262608E+03  0.00000000000E+00 0.  1.
         24    2    1    2    0    0 -0.60329796738E+01 -0.36685856339E+02  0.26029552442E+03  0.27488519378E+03  0.80161467218E+02 0.  0.
         23    2    1    2    0    0  0.89780379463E+00  0.85691977276E+02 -0.31868833419E+01  0.12656394159E+03  0.93082512126E+02 0.  0.
        -11    1    3    3    0    0 -0.38915901996E+02 -0.39025961874E+02  0.15200081863E+03  0.16168401898E+03  0.00000000000E+00 0.  1.
         12    1    3    3    0    0  0.32882922322E+02  0.23401055351E+01  0.10829470579E+03  0.11320117480E+03  0.00000000000E+00 0. -1.
        -11    1    4    4    0    0 -0.20798233465E+02 -0.48719314188E+01  0.21410076535E+02  0.30243902001E+02  0.00000000000E+00 0. -1.
         11    1    4    4    0    0  0.21696037260E+02  0.90563908695E+02 -0.24596959877E+02  0.96320039587E+02  0.00000000000E+00 0.  1.
          1    1    1    2  501    0  0.51351758792E+01 -0.49006120937E+02 -0.48162178868E+02  0.68902579008E+02  0.00000000000E+00 0. -1.
<scales pt_clust_5="13000.00000" pt_clust_6="13000.00000" pt_clust_7="13000.00000" pt_clust_8="13000.00000" pt_clust_9="49.27443"></scales>
<clustering>
<clus scale="   49.274">  2  9  1 -1</clus>
<clus scale="   80.161">  5  6 -1 -1</clus>
<clus scale="   90.499">  1  5  2 -1</clus>
<clus scale="   93.083">  7  8 -1 -1</clus>
<clus scale="   49.274">  2  5  1 -1</clus>
</clustering>
</event>
<event>
 9    2  0.1751298E-004  0.9330914E+02  0.7546771E-02  0.1303214E+00
          2   -1    0    0  502    0 -0.00000000000E+00  0.00000000000E+00  0.60217691751E+03  0.60217691751E+03  0.00000000000E+00 0. -1.
         21   -1    0    0  501  502  0.00000000000E+00 -0.00000000000E+00 -0.89611141717E+02  0.89611141717E+02  0.00000000000E+00 0. -1.
         24    2    1    2    0    0  0.25539499765E+02 -0.10516186093E+01  0.45912991878E+03  0.46624163718E+03  0.76990973320E+02 0.  0.
         23    2    1    2    0    0 -0.81210587920E+01  0.14322562975E+02  0.12242948339E+03  0.15316106074E+03  0.90544158941E+02 0.  0.
        -11    1    3    3    0    0 -0.20661324381E+01  0.26994010470E+02  0.68831336893E+02  0.73964169994E+02  0.00000000000E+00 0.  1.
         12    1    3    3    0    0  0.27605632203E+02 -0.28045629079E+02  0.39029858188E+03  0.39227746718E+03  0.00000000000E+00 0. -1.
        -13    1    4    4    0    0 -0.43717532055E+02  0.30095444786E+02  0.72175530230E+02  0.89589427779E+02  0.00000000000E+00 0.  1.
         13    1    4    4    0    0  0.35596473263E+02 -0.15772881811E+02  0.50253953161E+02  0.63571632963E+02  0.00000000000E+00 0. -1.
          1    1    1    2  501    0 -0.17418440973E+02 -0.13270944366E+02 -0.68993626377E+02  0.72385361303E+02  0.00000000000E+00 0. -1.
<scales pt_clust_5="13000.00000" pt_clust_6="13000.00000" pt_clust_7="13000.00000" pt_clust_8="13000.00000" pt_clust_9="21.89795"></scales>
<clustering>
<clus scale="   21.898">  2  9  1 -1</clus>
<clus scale="   76.991">  5  6 -1 -1</clus>
<clus scale="   80.224">  1  5  2 -1</clus>
<clus scale="   90.544">  7  8 -1 -1</clus>
<clus scale="   21.898">  2  5  1 -1</clus>
</clustering>
</event>
<event>
 9    2  0.1751298E-004  0.2439823E+03  0.7546771E-02  0.1140099E+00
          2   -1    0    0  502    0 -0.00000000000E+00  0.00000000000E+00  0.11245142404E+04  0.11245142404E+04  0.00000000000E+00 0. -1.
         21   -1    0    0  501  502  0.00000000000E+00 -0.00000000000E+00 -0.12607287964E+03  0.12607287964E+03  0.00000000000E+00 0. -1.
         24    2    1    2    0    0  0.10149822534E+03  0.48107278881E+02  0.15771239141E+02  0.13961517830E+03  0.81409250076E+02 0.  0.
         23    2    1    2    0    0 -0.66579360950E+02  0.19253535107E+03  0.71644118809E+03  0.75040842792E+03  0.91225873473E+02 0.  0.
        -13    1    3    3    0    0  0.78737628805E+02  0.15989722463E+02  0.43594843624E+02  0.91410042145E+02  0.00000000000E+00 0.  1.
         14    1    3    3    0    0  0.22760596535E+02  0.32117556418E+02 -0.27823604483E+02  0.48205136151E+02  0.00000000000E+00 0. -1.
        -13    1    4    4    0    0  0.19410319896E+02  0.56818498210E+02  0.24860878493E+03  0.25575658389E+03  0.00000000000E+00 0.  1.
         13    1    4    4    0    0 -0.85989680846E+02  0.13571685286E+03  0.46783240316E+03  0.49465184403E+03  0.00000000000E+00 0. -1.
          1    1    1    2  501    0 -0.34918864390E+02 -0.24064262995E+03  0.26622893348E+03  0.36056351377E+03  0.00000000000E+00 0. -1.
<scales pt_clust_5="13000.00000" pt_clust_6="13000.00000" pt_clust_7="13000.00000" pt_clust_8="13000.00000" pt_clust_9="226.28572"></scales>
<clustering>
<clus scale="   81.409">  5  6 -1 -1</clus>
<clus scale="   91.226">  7  8 -1 -1</clus>
<clus scale="  138.722">  1  5  2 -1</clus>
<clus scale="  226.286">  2  9  1 -1</clus>
<clus scale="  226.286">  2  5  1 -1</clus>
</clustering>
</event>
<event>
 9    2  0.1751298E-004  0.2015430E+03  0.7546771E-02  0.1149631E+00
         -1   -1    0    0    0  501 -0.00000000000E+00  0.00000000000E+00  0.96487811941E+02  0.96487811941E+02  0.00000000000E+00 0.  1.
         21   -1    0    0  501  502  0.00000000000E+00 -0.00000000000E+00 -0.10066922543E+04  0.10066922543E+04  0.00000000000E+00 0.  1.
         24    2    1    2    0    0 -0.14647726460E+03  0.11346768049E+03 -0.76664802760E+02  0.21755553466E+03  0.84394402173E+02 0.  0.
         23    2    1    2    0    0  0.57982440091E+02 -0.15904140009E+03 -0.47309304152E+03  0.51168596985E+03  0.96692168790E+02 0.  0.
        -13    1    3    3    0    0 -0.12706402106E+03  0.73473410491E+02 -0.24151720949E+02  0.14875117856E+03  0.00000000000E+00 0.  1.
         14    1    3    3    0    0 -0.19413243541E+02  0.39994269998E+02 -0.52513081811E+02  0.68804356103E+02  0.00000000000E+00 0. -1.
        -11    1    4    4    0    0  0.64770815461E+02 -0.58862406510E+02 -0.15358562904E+03  0.17677269835E+03  0.00000000000E+00 0. -1.
         11    1    4    4    0    0 -0.67883753698E+01 -0.10017899358E+03 -0.31950741248E+03  0.33491327149E+03  0.00000000000E+00 0.  1.
         -2    1    1    2    0  502  0.88494824508E+02  0.45573719604E+02 -0.36044659804E+03  0.37393856170E+03  0.00000000000E+00 0.  1.
<scales pt_clust_5="13000.00000" pt_clust_6="13000.00000" pt_clust_7="13000.00000" pt_clust_8="13000.00000" pt_clust_9="99.54043"></scales>
<clustering>
<clus scale="   84.394">  5  6 -1 -1</clus>
<clus scale="   96.692">  7  8 -1 -1</clus>
<clus scale="   99.540">  2  9  1 -1</clus>
<clus scale="  195.940">  1  5  2 -1</clus>
<clus scale="   99.540">  2  5  1 -1</clus>
</clustering>
</event>
<event>
 9    2  0.1751298E-004  0.3057405E+03  0.7546771E-02  0.1123363E+00
         21   -1    0    0  501  502  0.00000000000E+00  0.00000000000E+00  0.23228415386E+03  0.23228415386E+03  0.00000000000E+00 0. -1.
          2   -1    0    0  502    0 -0.00000000000E+00 -0.00000000000E+00 -0.74104524733E+03  0.74104524733E+03  0.00000000000E+00 0. -1.
         24    2    1    2    0    0 -0.56902185489E+02 -0.32597503747E+02 -0.22471299209E+03  0.24854444966E+03  0.83534176716E+02 0.  0.
         23    2    1    2    0    0  0.21476280581E+02  0.31495923556E+03 -0.29285411891E+03  0.44007336365E+03  0.90777088162E+02 0.  0.
        -11    1    3    3    0    0  0.62694819612E+01 -0.41753112658E+02 -0.95924445248E+02  0.10480519079E+03  0.00000000000E+00 0.  1.
         12    1    3    3    0    0 -0.63171667450E+02  0.91556089105E+01 -0.12878854684E+03  0.14373925887E+03  0.00000000000E+00 0. -1.
        -13    1    4    4    0    0 -0.16198525343E+02  0.25500762736E+03 -0.24903293483E+03  0.35680342609E+03  0.00000000000E+00 0. -1.
         13    1    4    4    0    0  0.37674805925E+02  0.59951608196E+02 -0.43821184078E+02  0.83269937557E+02  0.00000000000E+00 0.  1.
          1    1    1    2  501    0  0.35425904907E+02 -0.28236173181E+03  0.88060175282E+01  0.28471158788E+03  0.00000000000E+00 0. -1.
<scales pt_clust_5="13000.00000" pt_clust_6="13000.00000" pt_clust_7="13000.00000" pt_clust_8="13000.00000" pt_clust_9="291.95334"></scales>
<clustering>
<clus scale="   83.534">  5  6 -1 -1</clus>
<clus scale="   90.777">  7  8 -1 -1</clus>
<clus scale="  106.200">  2  5  1 -1</clus>
<clus scale="  291.953">  1  9  2 -1</clus>
<clus scale="  291.953">  1  5  2 -1</clus>
</clustering>
</event>
<event>
 9    2  0.1751298E-004  0.1844632E+03  0.7546771E-02  0.1187029E+00
          2   -1    0    0  502    0 -0.00000000000E+00  0.00000000000E+00  0.45384524463E+03  0.45384524463E+03  0.00000000000E+00 0. -1.
         21   -1    0    0  501  502  0.00000000000E+00 -0.00000000000E+00 -0.17799853059E+03  0.17799853059E+03  0.00000000000E+00 0.  1.
         23    2    1    2    0    0 -0.44261762171E+02  0.37611716734E+02  0.19426581094E+03  0.22243665332E+03  0.91461000499E+02 0.  0.
         24    2    1    2    0    0  0.40919373202E+02 -0.17397456707E+03 -0.67298165037E+02  0.20748888241E+03  0.81123660026E+02 0.  0.
        -13    1    4    4    0    0  0.42081967043E+02 -0.18215353595E+03 -0.59665960744E+02  0.19624176283E+03  0.00000000000E+00 0.  1.
         14    1    4    4    0    0 -0.11625938401E+01  0.81789688797E+01 -0.76322042933E+01  0.11247119576E+02  0.00000000000E+00 0. -1.
        -11    1    3    3    0    0 -0.18352083931E+02  0.46417490377E+02  0.35305446546E+02  0.61138015615E+02  0.00000000000E+00 0.  1.
         11    1    3    3    0    0 -0.25909678240E+02 -0.88057736433E+01  0.15896036440E+03  0.16129863770E+03  0.00000000000E+00 0. -1.
          1    1    1    2  501    0  0.33423889688E+01  0.13636285033E+03  0.14887906813E+03  0.20191823950E+03  0.00000000000E+00 0. -1.
<scales pt_clust_5="13000.00000" pt_clust_6="13000.00000" pt_clust_7="13000.00000" pt_clust_8="13000.00000" pt_clust_9="165.66730"></scales>
<clustering>
<clus scale="   81.124">  5  6 -1 -1</clus>
<clus scale="   91.461">  7  8 -1 -1</clus>
<clus scale="  108.346">  1  7  2 -1</clus>
<clus scale="  165.667">  2  9  1 -1</clus>
<clus scale="  165.667">  2  5  1 -1</clus>
</clustering>
</event>
<event>
 9    2  0.1751298E-004  0.2736926E+03  0.7546771E-02  0.1099394E+00
         21   -1    0    0  501  502  0.00000000000E+00  0.00000000000E+00  0.48563126209E+02  0.48563126209E+02  0.00000000000E+00 0.  1.
          2   -1    0    0  502    0 -0.00000000000E+00 -0.00000000000E+00 -0.18432480138E+04  0.18432480138E+04  0.00000000000E+00 0. -1.
         24    2    1    2    0    0 -0.26429148859E+03  0.13226517910E+01 -0.11178061186E+04  0.11516081967E+04  0.82820164762E+02 0.  0.
         23    2    1    2    0    0  0.25117680768E+03  0.22404659204E+02 -0.64672518021E+03  0.69965397215E+03  0.87581188391E+02 0.  0.
        -11    1    3    3    0    0 -0.17537289634E+03  0.14111474725E+01 -0.56183219291E+03  0.58856865113E+03  0.00000000000E+00 0.  1.
         12    1    3    3    0    0 -0.88918592246E+02 -0.88495681427E-01 -0.55597392565E+03  0.56303954557E+03  0.00000000000E+00 0. -1.
        -11    1    4    4    0    0  0.20477348210E+03  0.49817904987E+02 -0.54885770811E+03  0.58792753498E+03  0.00000000000E+00 0.  1.
         11    1    4    4    0    0  0.46403325579E+02 -0.27413245782E+02 -0.97867472092E+02  0.11172643717E+03  0.00000000000E+00 0. -1.
          1    1    1    2  501    0  0.13114680912E+02 -0.23727310995E+02 -0.30153588830E+02  0.40548971156E+02  0.00000000000E+00 0. -1.
<scales pt_clust_5="13000.00000" pt_clust_6="13000.00000" pt_clust_7="13000.00000" pt_clust_8="13000.00000" pt_clust_9="27.11052"></scales>
<clustering>
<clus scale="   27.111">  1  9  2 -1</clus>
<clus scale="   82.820">  5  6 -1 -1</clus>
<clus scale="   87.581">  7  8 -1 -1</clus>
<clus scale="  272.206">  2  5  1 -1</clus>
<clus scale="   27.111">  1  5  2 -1</clus>
</clustering>
</event>
<event>
 9    2  0.1751298E-004  0.1037426E+03  0.7546771E-02  0.1277614E+00
         -3   -1    0    0    0  501 -0.00000000000E+00  0.00000000000E+00  0.79853886682E+02  0.79853886682E+02  0.00000000000E+00 0.  1.
         21   -1    0    0  501  502  0.00000000000E+00 -0.00000000000E+00 -0.26183743348E+03  0.26183743348E+03  0.00000000000E+00 0. -1.
         23    2    1    2    0    0 -0.25135865081E+02 -0.48476469738E+02  0.17154164572E+02  0.10828700953E+03  0.91924051467E+02 0.  0.
         24    2    1    2    0    0  0.21126287711E+02  0.23218375381E+02 -0.10744577782E+03  0.13821261605E+03  0.81072307694E+02 0.  0.
        -13    1    4    4    0    0 -0.14410023988E+02  0.42192083273E+02 -0.41351742069E+02  0.60809433926E+02  0.00000000000E+00 0.  1.
         14    1    4    4    0    0  0.35536311699E+02 -0.18973707891E+02 -0.66094035753E+02  0.77403182121E+02  0.00000000000E+00 0. -1.
        -11    1    3    3    0    0  0.33495805357E+02 -0.18263025937E+02  0.18312140186E+02  0.42318336110E+02  0.00000000000E+00 0. -1.
         11    1    3    3    0    0 -0.58631670438E+02 -0.30213443802E+02 -0.11579756138E+01  0.65968673416E+02  0.00000000000E+00 0.  1.
         -4    1    1    2    0  502  0.40095773694E+01  0.25258094357E+02 -0.91691933551E+02  0.95191694593E+02  0.00000000000E+00 0.  1.
<scales pt_clust_5="13000.00000" pt_clust_6="13000.00000" pt_clust_7="13000.00000" pt_clust_8="13000.00000" pt_clust_9="25.57436"></scales>
<clustering>
<clus scale="   25.574">  2  9  1 -1</clus>
<clus scale="   81.072">  5  6 -1 -1</clus>
<clus scale="   91.924">  7  8 -1 -1</clus>
<clus scale="   94.261">  2  5  1 -1</clus>
<clus scale="   25.574">  2  5  1 -1</clus>
</clustering>
</event>
<event>
 9    2  0.1751298E-004  0.1769223E+03  0.7546771E-02  0.1173234E+00
         21   -1    0    0  501  502  0.00000000000E+00  0.00000000000E+00  0.35621721484E+03  0.35621721484E+03  0.00000000000E+00 0. -1.
          2   -1    0    0  502    0 -0.00000000000E+00 -0.00000000000E+00 -0.28480753202E+03  0.28480753202E+03  0.00000000000E+00 0. -1.
         23    2    1    2    0    0  0.28139054554E+00 -0.11322498157E+03  0.87280477576E+02  0.17282114314E+03  0.97104531909E+02 0.  0.
         24    2    1    2    0    0 -0.11166404088E+03  0.18452838407E+03  0.13602440630E+03  0.26680245649E+03  0.78494134351E+02 0.  0.
        -13    1    4    4    0    0 -0.66625601056E+02  0.39633195530E+02  0.39960406117E+02  0.87215795365E+02  0.00000000000E+00 0.  1.
         14    1    4    4    0    0 -0.45038439827E+02  0.14489518854E+03  0.96064000179E+02  0.17958666113E+03  0.00000000000E+00 0. -1.
        -13    1    3    3    0    0  0.24851463871E+02  0.65024983472E+01  0.71196896863E+01  0.26656476183E+02  0.00000000000E+00 0.  1.
         13    1    3    3    0    0 -0.24570073325E+02 -0.11972747992E+03  0.80160787890E+02  0.14616466696E+03  0.00000000000E+00 0. -1.
          1    1    1    2  501    0  0.11138265034E+03 -0.71303402495E+02 -0.15189520105E+03  0.20140114723E+03  0.00000000000E+00 0. -1.
<scales pt_clust_5="13000.00000" pt_clust_6="13000.00000" pt_clust_7="13000.00000" pt_clust_8="13000.00000" pt_clust_9="132.25085"></scales>
<clustering>
<clus scale="   78.494">  5  6 -1 -1</clus>
<clus scale="   97.105">  7  8 -1 -1</clus>
<clus scale="  132.251">  1  9  2 -1</clus>
<clus scale="  167.432">  1  5  2 -1</clus>
<clus scale="  132.251">  1  5  2 -1</clus>
</clustering>
</event>
<event>
 9    2  0.1751298E-004  0.1862332E+03  0.7546771E-02  0.1184765E+00
         21   -1    0    0  501  502  0.00000000000E+00  0.00000000000E+00  0.17499689837E+03  0.17499689837E+03  0.00000000000E+00 0.  1.
         -3   -1    0    0    0  501 -0.00000000000E+00 -0.00000000000E+00 -0.32500787846E+03  0.32500787846E+03  0.00000000000E+00 0.  1.
         23    2    1    2    0    0 -0.44098151003E+02 -0.40113293801E+02 -0.79613962556E+02  0.13637616246E+03  0.93307831352E+02 0.  0.
         24    2    1    2    0    0  0.15040192732E+03 -0.79661288704E+02 -0.11673823282E+02  0.19305646829E+03  0.90376219979E+02 0.  0.
        -13    1    4    4    0    0  0.14936308744E+03 -0.85721210491E+02 -0.29030363945E+02  0.17464312139E+03  0.00000000000E+00 0.  1.
         14    1    4    4    0    0  0.10388398852E+01  0.60599217865E+01  0.17356540663E+02  0.18413346902E+02  0.00000000000E+00 0. -1.
        -11    1    3    3    0    0  0.22479513856E+02 -0.25149446922E+02 -0.53633567153E+02  0.63359156791E+02  0.00000000000E+00 0.  1.
         11    1    3    3    0    0 -0.66577664858E+02 -0.14963846878E+02 -0.25980395403E+02  0.73017005668E+02  0.00000000000E+00 0. -1.
         -4    1    1    2    0  502 -0.10630377632E+03  0.11977458251E+03 -0.58723194253E+02  0.17057214608E+03  0.00000000000E+00 0.  1.
<scales pt_clust_5="13000.00000" pt_clust_6="13000.00000" pt_clust_7="13000.00000" pt_clust_8="13000.00000" pt_clust_9="162.83413"></scales>
<clustering>
<clus scale="   90.376">  5  6 -1 -1</clus>
<clus scale="   93.308">  7  8 -1 -1</clus>
<clus scale="  110.725">  2  7  1 -1</clus>
<clus scale="  162.834">  1  9  2 -1</clus>
<clus scale="  162.834">  1  5  2 -1</clus>
</clustering>
</event>
<event>
 9    2  0.1751298E-004  0.1029225E+03  0.7546771E-02  0.1280134E+00
         21   -1    0    0  501  502  0.00000000000E+00  0.00000000000E+00  0.28278758590E+03  0.28278758590E+03  0.00000000000E+00 0. -1.
          4   -1    0    0  502    0 -0.00000000000E+00 -0.00000000000E+00 -0.12284167268E+03  0.12284167268E+03  0.00000000000E+00 0. -1.
         23    2    1    2    0    0  0.12108092849E+02  0.52898263874E+02 -0.58055151121E+02  0.12128693055E+03  0.91625797220E+02 0.  0.
         24    2    1    2    0    0 -0.48992478761E+02  0.11805991715E+02  0.17438506437E+03  0.19803210807E+03  0.79163885299E+02 0.  0.
        -13    1    4    4    0    0  0.18606344272E+02  0.12159028279E+02  0.21753790773E+02  0.31100891127E+02  0.00000000000E+00 0.  1.
         14    1    4    4    0    0 -0.67598823033E+02 -0.35303656358E+00  0.15263127360E+03  0.16693121694E+03  0.00000000000E+00 0. -1.
        -13    1    3    3    0    0  0.19901832264E+02 -0.22707558566E+02 -0.12544092434E+02  0.32696642006E+02  0.00000000000E+00 0.  1.
         13    1    3    3    0    0 -0.77937394147E+01  0.75605822439E+02 -0.45511058687E+02  0.88590288540E+02  0.00000000000E+00 0. -1.
          3    1    1    2  501    0  0.36884385912E+02 -0.64704255589E+02  0.43615999974E+02  0.86310219958E+02  0.00000000000E+00 0. -1.
<scales pt_clust_5="13000.00000" pt_clust_6="13000.00000" pt_clust_7="13000.00000" pt_clust_8="13000.00000" pt_clust_9="74.47885"></scales>
<clustering>
<clus scale="   74.479">  1  9  2 -1</clus>
<clus scale="   79.164">  5  6 -1 -1</clus>
<clus scale="   91.626">  7  8 -1 -1</clus>
<clus scale="   92.004">  1  5  2 -1</clus>
<clus scale="   74.479">  1  5  2 -1</clus>
</clustering>
</event>
<event>
 9    2  0.1751298E-004  0.1048752E+03  0.7546771E-02  0.1276719E+00
         21   -1    0    0  501  502  0.00000000000E+00  0.00000000000E+00  0.13547423546E+03  0.13547423546E+03  0.00000000000E+00 0. -1.
         -1   -1    0    0    0  501 -0.00000000000E+00 -0.00000000000E+00 -0.35638240318E+03  0.35638240318E+03  0.00000000000E+00 0.  1.
         24    2    1    2    0    0 -0.41780848513E+02 -0.37383693975E+02 -0.31147967611E+03  0.32534871214E+03  0.75425565888E+02 0.  0.
         23    2    1    2    0    0  0.29356151800E+02  0.18318045714E+01  0.87334578040E+02  0.12870861901E+03  0.89852328455E+02 0.  0.
        -13    1    3    3    0    0 -0.31744789119E+02 -0.60561651311E+02 -0.23930867877E+03  0.24888569461E+03  0.00000000000E+00 0.  1.
         14    1    3    3    0    0 -0.10036059394E+02  0.23177957336E+02 -0.72170997334E+02  0.76463017536E+02  0.00000000000E+00 0. -1.
        -11    1    4    4    0    0 -0.17966926474E+02 -0.27641116334E+02  0.55379237940E+02  0.64449218412E+02  0.00000000000E+00 0. -1.
         11    1    4    4    0    0  0.47323078274E+02  0.29472920905E+02  0.31955340100E+02  0.64259400595E+02  0.00000000000E+00 0.  1.
         -2    1    1    2    0  502  0.12424696713E+02  0.35551889404E+02  0.32369303466E+01  0.37799307489E+02  0.00000000000E+00 0.  1.
<scales pt_clust_5="13000.00000" pt_clust_6="13000.00000" pt_clust_7="13000.00000" pt_clust_8="13000.00000" pt_clust_9="37.66046"></scales>
<clustering>
<clus scale="   37.660">  1  9  2 -1</clus>
<clus scale="   75.426">  5  6 -1 -1</clus>
<clus scale="   89.852">  7  8 -1 -1</clus>
<clus scale="   92.814">  2  5  1 -1</clus>
<clus scale="   37.660">  1  5  2 -1</clus>
</clustering>
</event>
<event>
 9    2  0.1751298E-004  0.1129275E+03  0.7546771E-02  0.1259210E+00
          2   -1    0    0  502    0 -0.00000000000E+00  0.00000000000E+00  0.77049150439E+03  0.77049150439E+03  0.00000000000E+00 0. -1.
         21   -1    0    0  501  502  0.00000000000E+00 -0.00000000000E+00 -0.31697178627E+02  0.31697178627E+02  0.00000000000E+00 0. -1.
         23    2    1    2    0    0 -0.54693342678E+02  0.18384826230E+02  0.23912919106E+03  0.26237896297E+03  0.91272047315E+02 0.  0.
         24    2    1    2    0    0  0.83816084760E+02  0.33609494581E+02  0.19583503376E+03  0.23019015714E+03  0.80507228266E+02 0.  0.
        -13    1    4    4    0    0  0.26350619836E+02  0.18904751098E+02  0.15456015074E+03  0.15792588444E+03  0.00000000000E+00 0.  1.
         14    1    4    4    0    0  0.57465464923E+02  0.14704743484E+02  0.41274883026E+02  0.72264272698E+02  0.00000000000E+00 0. -1.
        -11    1    3    3    0    0 -0.44019583917E+02  0.40228639343E+02  0.22794766705E+03  0.23561877282E+03  0.00000000000E+00 0.  1.
         11    1    3    3    0    0 -0.10673758761E+02 -0.21843813112E+02  0.11181524007E+02  0.26760190143E+02  0.00000000000E+00 0. -1.
          1    1    1    2  501    0 -0.29122742082E+02 -0.51994320812E+02  0.30383010094E+03  0.30961956292E+03  0.00000000000E+00 0. -1.
<scales pt_clust_5="13000.00000" pt_clust_6="13000.00000" pt_clust_7="13000.00000" pt_clust_8="13000.00000" pt_clust_9="59.59486"></scales>
<clustering>
<clus scale="   59.595">  2  9  1 -1</clus>
<clus scale="   80.507">  5  6 -1 -1</clus>
<clus scale="   91.272">  7  8 -1 -1</clus>
<clus scale="  104.420">  2  5  1 -1</clus>
<clus scale="   59.595">  2  5  1 -1</clus>
</clustering>
</event>
<event>
 9    2  0.1751298E-004  0.1171847E+03  0.7546771E-02  0.1252349E+00
         21   -1    0    0  501  502  0.00000000000E+00  0.00000000000E+00  0.10216606546E+03  0.10216606546E+03  0.00000000000E+00 0. -1.
          2   -1    0    0  502    0 -0.00000000000E+00 -0.00000000000E+00 -0.51240148934E+03  0.51240148934E+03  0.00000000000E+00 0. -1.
         23    2    1    2    0    0 -0.15699074910E+02 -0.73678149774E+02 -0.34741273668E+03  0.36776505196E+03  0.94236898987E+02 0.  0.
         24    2    1    2    0    0  0.17947466560E+02  0.18066769988E+02  0.65162985763E+02  0.10723884958E+03  0.81273835962E+02 0.  0.
        -13    1    4    4    0    0 -0.13521552510E+02  0.32089990775E+02  0.15037995717E+01  0.34854860542E+02  0.00000000000E+00 0.  1.
         14    1    4    4    0    0  0.31469019071E+02 -0.14023220787E+02  0.63659186191E+02  0.72383989038E+02  0.00000000000E+00 0. -1.
        -13    1    3    3    0    0 -0.59101622387E+00  0.20914135375E+02 -0.32909128566E+02  0.38996937080E+02  0.00000000000E+00 0.  1.
         13    1    3    3    0    0 -0.15108058686E+02 -0.94592285149E+02 -0.31450360812E+03  0.32876811488E+03  0.00000000000E+00 0. -1.
          1    1    1    2  501    0 -0.22483916508E+01  0.55611379786E+02 -0.12798567296E+03  0.13956365326E+03  0.00000000000E+00 0. -1.
<scales pt_clust_5="13000.00000" pt_clust_6="13000.00000" pt_clust_7="13000.00000" pt_clust_8="13000.00000" pt_clust_9="55.65684"></scales>
<clustering>
<clus scale="   55.657">  1  9  2 -1</clus>
<clus scale="   81.274">  5  6 -1 -1</clus>
<clus scale="   94.237">  7  8 -1 -1</clus>
<clus scale="  107.038">  1  5  2 -1</clus>
<clus scale="   55.657">  1  5  2 -1</clus>
</clustering>
</event>
<event>
 9    2  0.1751298E-004  0.1011123E+03  0.7546771E-02  0.1281294E+00
          2   -1    0    0  502    0 -0.00000000000E+00  0.00000000000E+00  0.27762751392E+03  0.27762751392E+03  0.00000000000E+00 0. -1.
         21   -1    0    0  501  502  0.00000000000E+00 -0.00000000000E+00 -0.10667299713E+03  0.10667299713E+03  0.00000000000E+00 0. -1.
         24    2    1    2    0    0 -0.47369293540E+02  0.15240358017E+02  0.12085405065E+03  0.15331972830E+03  0.80156840285E+02 0.  0.
         23    2    1    2    0    0  0.62100872438E+02  0.76247210545E+02  0.17382288629E+02  0.13270833616E+03  0.87402534601E+02 0.  0.
        -11    1    3    3    0    0 -0.38618817737E+02 -0.25661186746E+02  0.35947490598E+02  0.58669682707E+02  0.00000000000E+00 0.  1.
         12    1    3    3    0    0 -0.87504758032E+01  0.40901544763E+02  0.84906560057E+02  0.94650045597E+02  0.00000000000E+00 0. -1.
        -11    1    4    4    0    0  0.28385448541E+02  0.36555865167E+02  0.52429744447E+02  0.69935277720E+02  0.00000000000E+00 0.  1.
         11    1    4    4    0    0  0.33715423897E+02  0.39691345377E+02 -0.35047455818E+02  0.62773058439E+02  0.00000000000E+00 0. -1.
          1    1    1    2  501    0 -0.14731578898E+02 -0.91487568562E+02  0.32718177506E+02  0.98272446583E+02  0.00000000000E+00 0. -1.
<scales pt_clust_5="13000.00000" pt_clust_6="13000.00000" pt_clust_7="13000.00000" pt_clust_8="13000.00000" pt_clust_9="92.66604"></scales>
<clustering>
<clus scale="   80.157">  5  6 -1 -1</clus>
<clus scale="   87.403">  7  8 -1 -1</clus>
<clus scale="   92.666">  2  9  1 -1</clus>
<clus scale="   94.919">  1  5  2 -1</clus>
<clus scale="   92.666">  2  5  1 -1</clus>
</clustering>
</event>
<event>
 9    2  0.1751298E-004  0.1522375E+03  0.7546771E-02  0.1205606E+00
         21   -1    0    0  501  502  0.00000000000E+00  0.00000000000E+00  0.67000464133E+02  0.67000464133E+02  0.00000000000E+00 0.  1.
         -1   -1    0    0    0  501 -0.00000000000E+00 -0.00000000000E+00 -0.79899098279E+03  0.79899098279E+03  0.00000000000E+00 0.  1.
         23    2    1    2    0    0 -0.70849154381E+02  0.57173502377E+02 -0.23764613419E+03  0.27012499758E+03  0.90572717595E+02 0.  0.
         24    2    1    2    0    0  0.99731909138E+02  0.80161075095E+02 -0.39984519277E+03  0.42667691975E+03  0.76189001869E+02 0.  0.
        -13    1    4    4    0    0  0.89249274193E+02  0.94551555960E+02 -0.36644087399E+03  0.38882430970E+03  0.00000000000E+00 0.  1.
         14    1    4    4    0    0  0.10482634945E+02 -0.14390480865E+02 -0.33404318778E+02  0.37852610054E+02  0.00000000000E+00 0. -1.
        -11    1    3    3    0    0 -0.45628900641E+02  0.21910769595E+02 -0.21564992388E+03  0.22151065001E+03  0.00000000000E+00 0. -1.
         11    1    3    3    0    0 -0.25220253739E+02  0.35262732782E+02 -0.21996210310E+02  0.48614347573E+02  0.00000000000E+00 0.  1.
         -2    1    1    2    0  502 -0.28882754757E+02 -0.13733457747E+03 -0.94499191698E+02  0.16918952959E+03  0.00000000000E+00 0.  1.
<scales pt_clust_5="13000.00000" pt_clust_6="13000.00000" pt_clust_7="13000.00000" pt_clust_8="13000.00000" pt_clust_9="131.80096"></scales>
<clustering>
<clus scale="   76.189">  5  6 -1 -1</clus>
<clus scale="   90.573">  7  8 -1 -1</clus>
<clus scale="  128.421">  2  7  1 -1</clus>
<clus scale="  131.801">  1  9  2 -1</clus>
<clus scale="  131.801">  1  5  2 -1</clus>
</clustering>
</event>
<event>
 9    2  0.1751298E-004  0.1211767E+03  0.7546771E-02  0.1245897E+00
          2   -1    0    0  502    0 -0.00000000000E+00  0.00000000000E+00  0.53302225506E+03  0.53302225506E+03  0.00000000000E+00 0. -1.
         21   -1    0    0  501  502  0.00000000000E+00 -0.00000000000E+00 -0.48428705703E+02  0.48428705703E+02  0.00000000000E+00 0. -1.
         24    2    1    2    0    0 -0.37827032843E+01  0.73836801126E+02  0.30756207686E+03  0.32576126802E+03  0.77844656667E+02 0.  0.
         23    2    1    2    0    0 -0.31155145705E+02 -0.86759000458E+02  0.17486611617E+03  0.21837581737E+03  0.92801248709E+02 0.  0.
        -13    1    3    3    0    0 -0.10717421151E+02  0.76312904458E+02  0.15575907769E+03  0.17377978244E+03  0.00000000000E+00 0.  1.
         14    1    3    3    0    0  0.69347178670E+01 -0.24761033324E+01  0.15180299918E+03  0.15198148558E+03  0.00000000000E+00 0. -1.
        -11    1    4    4    0    0 -0.50209090596E+02 -0.93017513856E+02  0.11977375973E+03  0.15974656235E+03  0.00000000000E+00 0. -1.
         11    1    4    4    0    0  0.19053944890E+02  0.62585133980E+01  0.55092356442E+02  0.58629255019E+02  0.00000000000E+00 0.  1.
          1    1    1    2  501    0  0.34937848990E+02  0.12922199333E+02  0.21653563232E+01  0.37313875377E+02  0.00000000000E+00 0. -1.
<scales pt_clust_5="13000.00000" pt_clust_6="13000.00000" pt_clust_7="13000.00000" pt_clust_8="13000.00000" pt_clust_9="37.25099"></scales>
<clustering>
<clus scale="   37.251">  2  9  1 -1</clus>
<clus scale="   77.845">  5  6 -1 -1</clus>
<clus scale="   92.801">  7  8 -1 -1</clus>
<clus scale="  110.143">  1  5  2 -1</clus>
<clus scale="   37.251">  2  5  1 -1</clus>
</clustering>
</event>
<event>
 9    2  0.1751298E-004  0.1739770E+03  0.7546771E-02  0.1200932E+00
         21   -1    0    0  501  502  0.00000000000E+00  0.00000000000E+00  0.16615311777E+03  0.16615311777E+03  0.00000000000E+00 0. -1.
          2   -1    0    0  502    0 -0.00000000000E+00 -0.00000000000E+00 -0.34075622539E+03  0.34075622539E+03  0.00000000000E+00 0. -1.
         24    2    1    2    0    0  0.52245524910E+02  0.83868021357E+01 -0.10358692572E+03  0.14067735224E+03  0.79119737926E+02 0.  0.
         23    2    1    2    0    0 -0.59542885199E+02 -0.14245425383E+03  0.47604679943E+02  0.18707216861E+03  0.94293271777E+02 0.  0.
        -11    1    3    3    0    0  0.72440884538E+02  0.71159269343E+01 -0.67323710297E+02  0.99150391512E+02  0.00000000000E+00 0.  1.
         12    1    3    3    0    0 -0.20195359628E+02  0.12708752014E+01 -0.36263215428E+02  0.41526960730E+02  0.00000000000E+00 0. -1.
        -13    1    4    4    0    0 -0.52483800852E+02 -0.16898360032E+02  0.15869252087E+02  0.57375404882E+02  0.00000000000E+00 0.  1.
         13    1    4    4    0    0 -0.70590843477E+01 -0.12555589380E+03  0.31735427856E+02  0.12969676372E+03  0.00000000000E+00 0. -1.
          1    1    1    2  501    0  0.72973602898E+01  0.13406745169E+03 -0.11862086183E+03  0.17915982232E+03  0.00000000000E+00 0. -1.
<scales pt_clust_5="13000.00000" pt_clust_6="13000.00000" pt_clust_7="13000.00000" pt_clust_8="13000.00000" pt_clust_9="146.20801"></scales>
<clustering>
<clus scale="   79.120">  5  6 -1 -1</clus>
<clus scale="   94.293">  7  8 -1 -1</clus>
<clus scale="   95.183">  2  5  1 -1</clus>
<clus scale="  146.208">  1  9  2 -1</clus>
<clus scale="  146.208">  1  5  2 -1</clus>
</clustering>
</event>
<event>
 9    2  0.1751298E-004  0.4690770E+03  0.7546771E-02  0.1058087E+00
         21   -1    0    0  501  502  0.00000000000E+00  0.00000000000E+00  0.18159717143E+03  0.18159717143E+03  0.00000000000E+00 0. -1.
          2   -1    0    0  502    0 -0.00000000000E+00 -0.00000000000E+00 -0.17935655243E+04  0.17935655243E+04  0.00000000000E+00 0. -1.
         23    2    1    2    0    0 -0.11836307030E+03  0.17197680349E+02 -0.16077066155E+03  0.23038864521E+03  0.11369320828E+03 0.  0.
         24    2    1    2    0    0  0.48369368321E+03 -0.14923828460E+03 -0.49616478807E+03  0.71376045983E+03  0.83921703515E+02 0.  0.
        -11    1    4    4    0    0  0.39054628083E+02 -0.32780678160E+02 -0.72638094025E+02  0.88747560749E+02  0.00000000000E+00 0.  1.
         12    1    4    4    0    0  0.44463905513E+03 -0.11645760644E+03 -0.42352669405E+03  0.62501289908E+03  0.00000000000E+00 0. -1.
        -13    1    3    3    0    0 -0.10154385579E+02 -0.40219684931E+02 -0.52419002603E+02  0.66846738412E+02  0.00000000000E+00 0.  1.
         13    1    3    3    0    0 -0.10820868472E+03  0.57417365280E+02 -0.10835165895E+03  0.16354190680E+03  0.00000000000E+00 0. -1.
          1    1    1    2  501    0 -0.36533061291E+03  0.13204060425E+03 -0.95503290328E+03  0.10310135907E+04  0.00000000000E+00 0. -1.
<scales pt_clust_5="13000.00000" pt_clust_6="13000.00000" pt_clust_7="13000.00000" pt_clust_8="13000.00000" pt_clust_9="461.50900"></scales>
<clustering>
<clus scale="   83.922">  5  6 -1 -1</clus>
<clus scale="  113.693">  7  8 -1 -1</clus>
<clus scale="  165.020">  2  7  1 -1</clus>
<clus scale="  461.509">  1  9  2 -1</clus>
<clus scale="  461.509">  1  5  2 -1</clus>
</clustering>
</event>
<event>
 9    2  0.1751298E-004  0.1438048E+03  0.7546771E-02  0.1210644E+00
          2   -1    0    0  502    0 -0.00000000000E+00  0.00000000000E+00  0.65557903549E+03  0.65557903549E+03  0.00000000000E+00 0. -1.
         21   -1    0    0  501  502  0.00000000000E+00 -0.00000000000E+00 -0.50174918183E+02  0.50174918183E+02  0.00000000000E+00 0. -1.
         23    2    1    2    0    0 -0.10727958067E+03 -0.43437911355E+02  0.50142510392E+03  0.52275832762E+03  0.91942230145E+02 0.  0.
         24    2    1    2    0    0  0.91951131813E+02  0.23029195162E+02  0.79324445732E+02  0.14750866017E+03  0.80505171654E+02 0.  0.
        -11    1    4    4    0    0  0.36168169446E+02 -0.56794645068E+01  0.76381660904E+02  0.84702720858E+02  0.00000000000E+00 0.  1.
         12    1    4    4    0    0  0.55782962367E+02  0.28708659669E+02  0.29427848277E+01  0.62805939313E+02  0.00000000000E+00 0. -1.
        -13    1    3    3    0    0 -0.77280857096E+02 -0.72550311939E+02  0.35652470523E+03  0.37194857719E+03  0.00000000000E+00 0. -1.
         13    1    3    3    0    0 -0.29998723578E+02  0.29112400584E+02  0.14490039869E+03  0.15080975043E+03  0.00000000000E+00 0.  1.
          1    1    1    2  501    0  0.15328448861E+02  0.20408716193E+02  0.24654567652E+02  0.35486965878E+02  0.00000000000E+00 0. -1.
<scales pt_clust_5="13000.00000" pt_clust_6="13000.00000" pt_clust_7="13000.00000" pt_clust_8="13000.00000" pt_clust_9="25.52405"></scales>
<clustering>
<clus scale="   25.524">  2  9  1 -1</clus>
<clus scale="   80.505">  5  6 -1 -1</clus>
<clus scale="   91.942">  7  8 -1 -1</clus>
<clus scale="  136.775">  2  5  1 -1</clus>
<clus scale="   25.524">  2  5  1 -1</clus>
</clustering>
</event>
<event>
 9    2  0.1751298E-004  0.1271920E+03  0.7546771E-02  0.1234124E+00
         21   -1    0    0  501  502  0.00000000000E+00  0.00000000000E+00  0.51924680446E+02  0.51924680446E+02  0.00000000000E+00 0.  1.
          2   -1    0    0  502    0 -0.00000000000E+00 -0.00000000000E+00 -0.63861699935E+03  0.63861699935E+03  0.00000000000E+00 0. -1.
         24    2    1    2    0    0 -0.26024781181E+02  0.96155943266E+02 -0.48914324396E+03  0.50613040017E+03  0.83568021408E+02 0.  0.
         23    2    1    2    0    0  0.15557276978E+02 -0.47380389797E+02 -0.78296419910E+02  0.13093896917E+03  0.92345839490E+02 0.  0.
        -11    1    3    3    0    0  0.30633894751E+02  0.29563859884E+02 -0.16430760321E+03  0.16973345513E+03  0.00000000000E+00 0.  1.
         12    1    3    3    0    0 -0.56658675932E+02  0.66592083382E+02 -0.32483564075E+03  0.33639694504E+03  0.00000000000E+00 0. -1.
        -13    1    4    4    0    0 -0.16320751209E+00 -0.21687018154E+02 -0.94347474816E+02  0.96808054403E+02  0.00000000000E+00 0. -1.
         13    1    4    4    0    0  0.15720484490E+02 -0.25693371643E+02  0.16051054905E+02  0.34130914763E+02  0.00000000000E+00 0.  1.
          1    1    1    2  501    0  0.10467504203E+02 -0.48775553469E+02 -0.19252655035E+02  0.53472310464E+02  0.00000000000E+00 0. -1.
<scales pt_clust_5="13000.00000" pt_clust_6="13000.00000" pt_clust_7="13000.00000" pt_clust_8="13000.00000" pt_clust_9="49.88610"></scales>
<clustering>
<clus scale="   49.886">  1  9  2 -1</clus>
<clus scale="   83.568">  5  6 -1 -1</clus>
<clus scale="   92.346">  7  8 -1 -1</clus>
<clus scale="  120.970">  2  5  1 -1</clus>
<clus scale="   49.886">  1  5  2 -1</clus>
</clustering>
</event>
<event>
 9    2  0.1751298E-004  0.1463898E+03  0.7546771E-02  0.1207146E+00
         21   -1    0    0  501  502  0.00000000000E+00  0.00000000000E+00  0.12477145813E+03  0.12477145813E+03  0.00000000000E+00 0.  1.
         -3   -1    0    0    0  501 -0.00000000000E+00 -0.00000000000E+00 -0.33849488703E+03  0.33849488703E+03  0.00000000000E+00 0.  1.
         23    2    1    2    0    0 -0.35574527963E+02 -0.11048689618E+03 -0.23490880698E+03  0.27757254979E+03  0.91604975472E+02 0.  0.
         24    2    1    2    0    0  0.13541029822E+01  0.11232668550E+03 -0.11025280556E+02  0.13866243520E+03  0.80539408079E+02 0.  0.
        -13    1    4    4    0    0 -0.97595168745E+01  0.22250060138E+02  0.30382986936E+02  0.38902946430E+02  0.00000000000E+00 0.  1.
         14    1    4    4    0    0  0.11113619857E+02  0.90076625357E+02 -0.41408267492E+02  0.99759488765E+02  0.00000000000E+00 0. -1.
        -13    1    3    3    0    0  0.14474900812E+02 -0.15809673322E+02 -0.23787663242E+01  0.21566804429E+02  0.00000000000E+00 0. -1.
         13    1    3    3    0    0 -0.50049428775E+02 -0.94677222863E+02 -0.23253004065E+03  0.25600574536E+03  0.00000000000E+00 0.  1.
         -4    1    1    2    0  502  0.34220424981E+02 -0.18397893105E+01  0.32210658629E+02  0.47031360175E+02  0.00000000000E+00 0.  1.
<scales pt_clust_5="13000.00000" pt_clust_6="13000.00000" pt_clust_7="13000.00000" pt_clust_8="13000.00000" pt_clust_9="34.26985"></scales>
<clustering>
<clus scale="   34.270">  1  9  2 -1</clus>
<clus scale="   80.539">  5  6 -1 -1</clus>
<clus scale="   91.605">  7  8 -1 -1</clus>
<clus scale="  139.732">  1  5  2 -1</clus>
<clus scale="   34.270">  1  5  2 -1</clus>
</clustering>
</event>
<event>
 9    2  0.2162554E-004  0.9345117E+02  0.7546771E-02  0.1299157E+00
         -1   -1    0    0    0  501 -0.00000000000E+00  0.00000000000E+00  0.47220105809E+03  0.47220105809E+03  0.00000000000E+00 0.  1.
         21   -1    0    0  501  502  0.00000000000E+00 -0.00000000000E+00 -0.10710077900E+03  0.10710077900E+03  0.00000000000E+00 0.  1.
         23    2    1    2    0    0  0.19808993105E+02  0.10533852760E+02  0.21537991492E+03  0.23501016045E+03  0.91312154186E+02 0.  0.
         24    2    1    2    0    0  0.75224816104E+01 -0.28422368569E+01 -0.78059586139E+02  0.11474892195E+03  0.83721861302E+02 0.  0.
        -13    1    4    4    0    0  0.40929650485E+02 -0.10116774206E+02 -0.66344057294E+02  0.78607374637E+02  0.00000000000E+00 0.  1.
         14    1    4    4    0    0 -0.33407168874E+02  0.72745373489E+01 -0.11715528845E+02  0.36141547310E+02  0.00000000000E+00 0. -1.
        -11    1    3    3    0    0  0.44996872979E+02  0.19285079739E+01  0.19837772713E+03  0.20342605621E+03  0.00000000000E+00 0.  1.
         11    1    3    3    0    0 -0.25187879874E+02  0.86053447861E+01  0.17002187788E+02  0.31584104246E+02  0.00000000000E+00 0. -1.
         -2    1    1    2    0  502 -0.27331474715E+02 -0.76916159031E+01  0.22777995031E+03  0.22954275469E+03  0.00000000000E+00 0.  1.
<scales pt_clust_5="13000.00000" pt_clust_6="13000.00000" pt_clust_7="13000.00000" pt_clust_8="13000.00000" pt_clust_9="28.39316"></scales>
<clustering>
<clus scale="   28.393">  2  9  1 -1</clus>
<clus scale="   83.722">  5  6 -1 -1</clus>
<clus scale="   86.050">  2  5  1 -1</clus>
<clus scale="   91.312">  7  8 -1 -1</clus>
<clus scale="   28.393">  2  5  1 -1</clus>
</clustering>
</event>
<event>
 9    2  0.1751298E-004  0.2135722E+03  0.7546771E-02  0.1138798E+00
         21   -1    0    0  501  502  0.00000000000E+00  0.00000000000E+00  0.78529547483E+03  0.78529547483E+03  0.00000000000E+00 0. -1.
         -1   -1    0    0    0  501 -0.00000000000E+00 -0.00000000000E+00 -0.24428065451E+03  0.24428065451E+03  0.00000000000E+00 0.  1.
         24    2    1    2    0    0  0.19374701077E+03  0.48994603457E+02 -0.12074033606E+03  0.24684058612E+03  0.80085397241E+02 0.  0.
         23    2    1    2    0    0 -0.13350884993E+03 -0.18977711562E+03  0.51588909264E+03  0.57125206797E+03  0.79670588280E+02 0.  0.
        -13    1    3    3    0    0  0.17988797205E+03  0.62046384298E+02 -0.89565595283E+02  0.21031270088E+03  0.00000000000E+00 0.  1.
         14    1    3    3    0    0  0.13859038724E+02 -0.13051780841E+02 -0.31174740777E+02  0.36527885238E+02  0.00000000000E+00 0. -1.
        -11    1    4    4    0    0 -0.99497440351E+02 -0.16815455082E+03  0.47603087184E+03  0.51456883363E+03  0.00000000000E+00 0. -1.
         11    1    4    4    0    0 -0.34011409582E+02 -0.21622564805E+02  0.39858220793E+02  0.56683234340E+02  0.00000000000E+00 0.  1.
         -2    1    1    2    0  502 -0.60238160841E+02  0.14078251217E+03  0.14586606374E+03  0.21148347525E+03  0.00000000000E+00 0.  1.
<scales pt_clust_5="13000.00000" pt_clust_6="13000.00000" pt_clust_7="13000.00000" pt_clust_8="13000.00000" pt_clust_9="153.12855"></scales>
<clustering>
<clus scale="   79.671">  7  8 -1 -1</clus>
<clus scale="   80.085">  5  6 -1 -1</clus>
<clus scale="  153.129">  1  9  2 -1</clus>
<clus scale="  213.417">  1  7  2 -1</clus>
<clus scale="  153.129">  1  5  2 -1</clus>
</clustering>
</event>
<event>
 9    2  0.1751298E-004  0.1843665E+03  0.7546771E-02  0.1164469E+00
          2   -1    0    0  502    0 -0.00000000000E+00  0.00000000000E+00  0.61556909923E+03  0.61556909923E+03  0.00000000000E+00 0. -1.
         21   -1    0    0  501  502  0.00000000000E+00 -0.00000000000E+00 -0.70247646481E+02  0.70247646481E+02  0.00000000000E+00 0. -1.
         24    2    1    2    0    0 -0.82615290323E+02 -0.14914750601E+03  0.32238606158E+03  0.37436166526E+03  0.84519932403E+02 0.  0.
         23    2    1    2    0    0  0.86950410891E+02  0.11501785371E+03  0.13748490048E+03  0.21933878007E+03  0.91749234096E+02 0.  0.
        -11    1    3    3    0    0 -0.62380627599E+01 -0.23984867707E+02  0.57752626725E+01  0.25446826224E+02  0.00000000000E+00 0.  1.
         12    1    3    3    0    0 -0.76377227563E+02 -0.12516263830E+03  0.31661079890E+03  0.34891483903E+03  0.00000000000E+00 0. -1.
        -13    1    4    4    0    0  0.20564239751E+02  0.48858641044E+02  0.10928720731E+03  0.12146500913E+03  0.00000000000E+00 0.  1.
         13    1    4    4    0    0  0.66386171140E+02  0.66159212666E+02  0.28197693178E+02  0.97873770949E+02  0.00000000000E+00 0. -1.
          1    1    1    2  501    0 -0.43351205686E+01  0.34129652296E+02  0.85450490687E+02  0.92116300375E+02  0.00000000000E+00 0. -1.
<scales pt_clust_5="13000.00000" pt_clust_6="13000.00000" pt_clust_7="13000.00000" pt_clust_8="13000.00000" pt_clust_9="34.40389"></scales>
<clustering>
<clus scale="   34.404">  2  9  1 -1</clus>
<clus scale="   84.520">  5  6 -1 -1</clus>
<clus scale="   91.749">  7  8 -1 -1</clus>
<clus scale="  180.878">  1  5  2 -1</clus>
<clus scale="   34.404">  2  5  1 -1</clus>
</clustering>
</event>
<event>
 9    2  0.1751298E-004  0.1030665E+03  0.7546771E-02  0.1289491E+00
         21   -1    0    0  501  502  0.00000000000E+00  0.00000000000E+00  0.13621286696E+03  0.13621286696E+03  0.00000000000E+00 0. -1.
          2   -1    0    0  502    0 -0.00000000000E+00 -0.00000000000E+00 -0.11632434483E+03  0.11632434483E+03  0.00000000000E+00 0. -1.
         24    2    1    2    0    0  0.15167542820E+02 -0.14253374204E+02 -0.17625823588E+02  0.79859283881E+02  0.75057461544E+02 0.  0.
         23    2    1    2    0    0  0.41223400579E+02  0.20232951853E+02  0.28605936029E+02  0.11527537039E+03  0.10179081661E+03 0.  0.
        -11    1    3    3    0    0  0.12058875037E+02 -0.26643310182E+02  0.23042339720E+02  0.37232134835E+02  0.00000000000E+00 0.  1.
         12    1    3    3    0    0  0.31086677836E+01  0.12389935978E+02 -0.40668163308E+02  0.42627149046E+02  0.00000000000E+00 0. -1.
        -11    1    4    4    0    0  0.45571761467E+02 -0.12216617541E+02  0.55544132768E+02  0.72877855843E+02  0.00000000000E+00 0. -1.
         11    1    4    4    0    0 -0.43483608881E+01  0.32449569395E+02 -0.26938196739E+02  0.42397514548E+02  0.00000000000E+00 0.  1.
          1    1    1    2  501    0 -0.56390943399E+02 -0.59795776498E+01  0.89084096887E+01  0.57402557517E+02  0.00000000000E+00 0. -1.
<scales pt_clust_5="13000.00000" pt_clust_6="13000.00000" pt_clust_7="13000.00000" pt_clust_8="13000.00000" pt_clust_9="56.70709"></scales>
<clustering>
<clus scale="   56.707">  1  9  2 -1</clus>
<clus scale="   75.057">  5  6 -1 -1</clus>
<clus scale="   76.779">  2  5  1 -1</clus>
<clus scale="  101.791">  7  8 -1 -1</clus>
<clus scale="   56.707">  1  5  2 -1</clus>
</clustering>
</event>
<event>
 9    2  0.1751298E-004  0.9763795E+02  0.7546771E-02  0.1293391E+00
          2   -1    0    0  502    0 -0.00000000000E+00  0.00000000000E+00  0.17939461129E+03  0.17939461129E+03  0.00000000000E+00 0. -1.
         21   -1    0    0  501  502  0.00000000000E+00 -0.00000000000E+00 -0.22483930295E+03  0.22483930295E+03  0.00000000000E+00 0. -1.
         23    2    1    2    0    0  0.29758975406E+02  0.15360657010E+02  0.11740086274E+03  0.15237033606E+03  0.91171324098E+02 0.  0.
         24    2    1    2    0    0 -0.60384021277E+02  0.51525511284E+02 -0.60006472405E+02  0.12542177446E+03  0.76346161916E+02 0.  0.
        -13    1    4    4    0    0 -0.61791096821E+02  0.14967077422E+02 -0.61970728040E+02  0.88783580614E+02  0.00000000000E+00 0.  1.
         14    1    4    4    0    0  0.14070755431E+01  0.36558433862E+02  0.19642556348E+01  0.36638193845E+02  0.00000000000E+00 0. -1.
        -11    1    3    3    0    0  0.45267873964E+02 -0.88527950647E+01  0.19053825322E+02  0.49905918016E+02  0.00000000000E+00 0.  1.
         11    1    3    3    0    0 -0.15508898558E+02  0.24213452075E+02  0.98347037420E+02  0.10246441804E+03  0.00000000000E+00 0. -1.
          1    1    1    2  501    0  0.30625045872E+02 -0.66886168295E+02 -0.10283908199E+03  0.12644180372E+03  0.00000000000E+00 0. -1.
<scales pt_clust_5="13000.00000" pt_clust_6="13000.00000" pt_clust_7="13000.00000" pt_clust_8="13000.00000" pt_clust_9="73.56394"></scales>
<clustering>
<clus scale="   73.564">  2  9  1 -1</clus>
<clus scale="   76.346">  5  6 -1 -1</clus>
<clus scale="   83.962">  2  5  1 -1</clus>
<clus scale="   91.171">  7  8 -1 -1</clus>
<clus scale="   73.564">  2  5  1 -1</clus>
</clustering>
</event>
<event>
 9    2  0.1751298E-004  0.1908344E+03  0.7546771E-02  0.1170618E+00
         -1   -1    0    0    0  501 -0.00000000000E+00  0.00000000000E+00  0.18988090133E+03  0.18988090133E+03  0.00000000000E+00 0.  1.
         21   -1    0    0  501  502  0.00000000000E+00 -0.00000000000E+00 -0.70234107656E+03  0.70234107656E+03  0.00000000000E+00 0.  1.
         24    2    1    2    0    0 -0.69034227635E+02  0.94623562465E+02  0.75541802518E+02  0.16050604404E+03  0.79600773161E+02 0.  0.
         23    2    1    2    0    0 -0.11326854822E+03 -0.97796689693E+02 -0.79305419968E+02  0.19133036899E+03  0.89016874416E+02 0.  0.
        -13    1    3    3    0    0 -0.32247844594E+02  0.56586625781E+02  0.84656323419E+02  0.10681134206E+03  0.00000000000E+00 0.  1.
         14    1    3    3    0    0 -0.36786383041E+02  0.38036936684E+02 -0.91145209013E+01  0.53694701981E+02  0.00000000000E+00 0. -1.
        -13    1    4    4    0    0 -0.15482472702E+02 -0.39253212604E+02 -0.63538550989E+02  0.76273646317E+02  0.00000000000E+00 0. -1.
         13    1    4    4    0    0 -0.97786075517E+02 -0.58543477089E+02 -0.15766868979E+02  0.11505672267E+03  0.00000000000E+00 0.  1.
         -2    1    1    2    0  502  0.18230277585E+03  0.31731272278E+01 -0.50869655778E+03  0.54038556487E+03  0.00000000000E+00 0.  1.
<scales pt_clust_5="13000.00000" pt_clust_6="13000.00000" pt_clust_7="13000.00000" pt_clust_8="13000.00000" pt_clust_9="168.80097"></scales>
<clustering>
<clus scale="   79.601">  5  6 -1 -1</clus>
<clus scale="   89.017">  7  8 -1 -1</clus>
<clus scale="  141.618">  1  5  2 -1</clus>
<clus scale="  168.801">  2  9  1 -1</clus>
<clus scale="  168.801">  2  5  1 -1</clus>
</clustering>
</event>
<event>
 9    2  0.1751298E-004  0.1435133E+03  0.7546771E-02  0.1210800E+00
         21   -1    0    0  501  502  0.00000000000E+00  0.00000000000E+00  0.52727590189E+02  0.52727590189E+02  0.00000000000E+00 0. -1.
          2   -1    0    0  502    0 -0.00000000000E+00 -0.00000000000E+00 -0.84666906528E+03  0.84666906528E+03  0.00000000000E+00 0. -1.
         23    2    1    2    0    0  0.44626519817E+02 -0.65458350758E+02 -0.14614392823E+03  0.18935500657E+03  0.90669447990E+02 0.  0.
         24    2    1    2    0    0 -0.26690863586E+02  0.15273809612E+03 -0.26736848306E+03  0.31931704730E+03  0.80225574191E+02 0.  0.
        -11    1    4    4    0    0  0.20243206070E+02  0.37876817808E+02 -0.33116451685E+02  0.54232279054E+02  0.00000000000E+00 0.  1.
         12    1    4    4    0    0 -0.46934069656E+02  0.11486127831E+03 -0.23425203137E+03  0.26508476824E+03  0.00000000000E+00 0. -1.
        -11    1    3    3    0    0 -0.23102324634E+02  0.38605980687E+01 -0.31016267373E+02  0.38866829851E+02  0.00000000000E+00 0.  1.
         11    1    3    3    0    0  0.67728844451E+02 -0.69318948826E+02 -0.11512766086E+03  0.15048817672E+03  0.00000000000E+00 0. -1.
          1    1    1    2  501    0 -0.17935656231E+02 -0.87279745365E+02 -0.38042906380E+03  0.39072460160E+03  0.00000000000E+00 0. -1.
<scales pt_clust_5="13000.00000" pt_clust_6="13000.00000" pt_clust_7="13000.00000" pt_clust_8="13000.00000" pt_clust_9="89.10359"></scales>
<clustering>
<clus scale="   80.226">  5  6 -1 -1</clus>
<clus scale="   89.104">  1  9  2 -1</clus>
<clus scale="   90.669">  7  8 -1 -1</clus>
<clus scale="  137.154">  1  5  2 -1</clus>
<clus scale="   89.104">  1  5  2 -1</clus>
</clustering>
</event>
<event>
 9    2  0.1751298E-004  0.9952521E+02  0.7546771E-02  0.1287112E+00
         21   -1    0    0  501  502  0.00000000000E+00  0.00000000000E+00  0.15818009320E+03  0.15818009320E+03  0.00000000000E+00 0. -1.
          2   -1    0    0  502    0 -0.00000000000E+00 -0.00000000000E+00 -0.52550582567E+03  0.52550582567E+03  0.00000000000E+00 0. -1.
         24    2    1    2    0    0 -0.34094593672E+01 -0.42959268077E+02 -0.45619291531E+03  0.46503504066E+03  0.79299999605E+02 0.  0.
         23    2    1    2    0    0  0.40349033217E+02  0.13726137471E+02 -0.17964019597E+02  0.10189466273E+03  0.90792978586E+02 0.  0.
        -13    1    3    3    0    0 -0.35013424361E+02 -0.78405636287E+01 -0.11180086103E+03  0.11741740438E+03  0.00000000000E+00 0.  1.
         14    1    3    3    0    0  0.31603964993E+02 -0.35118704449E+02 -0.34439205427E+03  0.34761763628E+03  0.00000000000E+00 0. -1.
        -13    1    4    4    0    0 -0.18222435299E+01  0.28969130980E+02  0.26093715848E+02  0.39030925277E+02  0.00000000000E+00 0.  1.
         13    1    4    4    0    0  0.42171276746E+02 -0.15242993509E+02 -0.44057735444E+02  0.62863737449E+02  0.00000000000E+00 0. -1.
          1    1    1    2  501    0 -0.36939573849E+02  0.29233130606E+02  0.10683120243E+03  0.11675621549E+03  0.00000000000E+00 0. -1.
<scales pt_clust_5="13000.00000" pt_clust_6="13000.00000" pt_clust_7="13000.00000" pt_clust_8="13000.00000" pt_clust_9="47.10741"></scales>
<clustering>
<clus scale="   47.107">  1  9  2 -1</clus>
<clus scale="   79.300">  5  6 -1 -1</clus>
<clus scale="   89.165">  2  5  1 -1</clus>
<clus scale="   90.793">  7  8 -1 -1</clus>
<clus scale="   47.107">  1  5  2 -1</clus>
</clustering>
</event>
<event>
 9    2  0.1751298E-004  0.2385616E+03  0.7546771E-02  0.1121388E+00
          2   -1    0    0  502    0 -0.00000000000E+00  0.00000000000E+00  0.12737677374E+03  0.12737677374E+03  0.00000000000E+00 0. -1.
         21   -1    0    0  501  502  0.00000000000E+00 -0.00000000000E+00 -0.59525763078E+03  0.59525763078E+03  0.00000000000E+00 0.  1.
         24    2    1    2    0    0  0.15869315757E+03  0.15669627208E+03 -0.91171174010E+02  0.25428950552E+03  0.81324840620E+02 0.  0.
         23    2    1    2    0    0 -0.13440443435E+03 -0.16956717828E+03 -0.26890092692E+03  0.35708695458E+03  0.91574039493E+02 0.  0.
        -13    1    3    3    0    0  0.13194437676E+03  0.15491978254E+03 -0.57915497226E+02  0.21157424795E+03  0.00000000000E+00 0.  1.
         14    1    3    3    0    0  0.26748780816E+02  0.17764895434E+01 -0.33255676785E+02  0.42715257563E+02  0.00000000000E+00 0. -1.
        -13    1    4    4    0    0 -0.38046258574E+02 -0.17604839983E+02 -0.12309730569E+02  0.43691848771E+02  0.00000000000E+00 0.  1.
         13    1    4    4    0    0 -0.96358175776E+02 -0.15196233830E+03 -0.25659119635E+03  0.31339510581E+03  0.00000000000E+00 0. -1.
          1    1    1    2  501    0 -0.24288723223E+02  0.12870906202E+02 -0.10780875611E+03  0.11125794442E+03  0.00000000000E+00 0. -1.
<scales pt_clust_5="13000.00000" pt_clust_6="13000.00000" pt_clust_7="13000.00000" pt_clust_8="13000.00000" pt_clust_9="27.48822"></scales>
<clustering>
<clus scale="   27.488">  2  9  1 -1</clus>
<clus scale="   81.325">  5  6 -1 -1</clus>
<clus scale="   91.574">  7  8 -1 -1</clus>
<clus scale="  234.818">  1  5  2 -1</clus>
<clus scale="   27.488">  2  5  1 -1</clus>
</clustering>
</event>
<event>
 9    2  0.1751298E-004  0.9402078E+02  0.7546771E-02  0.1298873E+00
         21   -1    0    0  501  502  0.00000000000E+00  0.00000000000E+00  0.57025594084E+02  0.57025594084E+02  0.00000000000E+00 0. -1.
          2   -1    0    0  502    0 -0.00000000000E+00 -0.00000000000E+00 -0.24895673977E+03  0.24895673977E+03  0.00000000000E+00 0. -1.
         24    2    1    2    0    0 -0.13431813522E+01  0.41956663901E+02 -0.10835611106E+03  0.14153361956E+03  0.80799460878E+02 0.  0.
         23    2    1    2    0    0 -0.32094721595E+01  0.37482496668E+01 -0.33342706960E+02  0.96382918771E+02  0.90297180666E+02 0.  0.
        -11    1    3    3    0    0  0.17307779728E+02  0.17529436001E+02  0.40827245540E+01  0.24970162302E+02  0.00000000000E+00 0.  1.
         12    1    3    3    0    0 -0.18650961080E+02  0.24427227900E+02 -0.11243883562E+03  0.11656345726E+03  0.00000000000E+00 0. -1.
        -13    1    4    4    0    0 -0.19985410237E+02  0.22680549529E+02 -0.55211050804E+02  0.62945087816E+02  0.00000000000E+00 0.  1.
         13    1    4    4    0    0  0.16775938077E+02 -0.18932299863E+02  0.21868343844E+02  0.33437830954E+02  0.00000000000E+00 0. -1.
          1    1    1    2  501    0  0.45526535117E+01 -0.45704913568E+02 -0.50232327659E+02  0.68065795523E+02  0.00000000000E+00 0. -1.
<scales pt_clust_5="13000.00000" pt_clust_6="13000.00000" pt_clust_7="13000.00000" pt_clust_8="13000.00000" pt_clust_9="45.93112"></scales>
<clustering>
<clus scale="   45.931">  1  9  2 -1</clus>
<clus scale="   80.799">  5  6 -1 -1</clus>
<clus scale="   84.940">  2  5  1 -1</clus>
<clus scale="   90.297">  7  8 -1 -1</clus>
<clus scale="   45.931">  1  5  2 -1</clus>
</clustering>
</event>
<event>
 9    2  0.1751298E-004  0.3000896E+03  0.7546771E-02  0.1093316E+00
         21   -1    0    0  501  502  0.00000000000E+00  0.00000000000E+00  0.54031238428E+03  0.54031238428E+03  0.00000000000E+00 0.  1.
         -1   -1    0    0    0  501 -0.00000000000E+00 -0.00000000000E+00 -0.49635257156E+03  0.49635257156E+03  0.00000000000E+00 0.  1.
         23    2    1    2    0    0 -0.21650895264E+03 -0.58172997463E+02  0.12256561231E+03  0.27130815096E+03  0.91244502572E+02 0.  0.
         24    2    1    2    0    0  0.45879946886E+03  0.22328244110E+01 -0.17651980101E+03  0.49810944964E+03  0.80323381031E+02 0.  0.
        -11    1    4    4    0    0  0.21390050109E+03 -0.39029592062E+02 -0.82237420053E+02  0.23246446327E+03  0.00000000000E+00 0.  1.
         12    1    4    4    0    0  0.24489896777E+03  0.41262416473E+02 -0.94282380955E+02  0.26564498637E+03  0.00000000000E+00 0. -1.
        -13    1    3    3    0    0 -0.69636993410E+02  0.24385182167E+00 -0.26044632726E+01  0.69686107252E+02  0.00000000000E+00 0. -1.
         13    1    3    3    0    0 -0.14687195923E+03 -0.58416849285E+02  0.12517007558E+03  0.20162204371E+03  0.00000000000E+00 0.  1.
         -2    1    1    2    0  502 -0.24229051622E+03  0.55940173052E+02  0.97914001419E+02  0.26724735525E+03  0.00000000000E+00 0.  1.
<scales pt_clust_5="13000.00000" pt_clust_6="13000.00000" pt_clust_7="13000.00000" pt_clust_8="13000.00000" pt_clust_9="289.13996"></scales>
<clustering>
<clus scale="   80.323">  5  6 -1 -1</clus>
<clus scale="   91.245">  7  8 -1 -1</clus>
<clus scale="  242.045">  2  7  1 -1</clus>
<clus scale="  289.140">  1  9  2 -1</clus>
<clus scale="  289.140">  1  5  2 -1</clus>
</clustering>
</event>
<event>
 9    2  0.1751298E-004  0.8519346E+03  0.7546771E-02  0.9778675E-01
          4   -1    0    0  502    0 -0.00000000000E+00  0.00000000000E+00  0.64806465297E+03  0.64806465297E+03  0.00000000000E+00 0. -1.
         21   -1    0    0  501  502  0.00000000000E+00 -0.00000000000E+00 -0.22878922761E+04  0.22878922761E+04  0.00000000000E+00 0. -1.
         23    2    1    2    0    0  0.26048072557E+03  0.15778411768E+03 -0.60793642198E+03  0.68545925206E+03  0.86727486327E+02 0.  0.
         24    2    1    2    0    0 -0.89708399975E+03 -0.59735007182E+03 -0.17342299184E+03  0.10948811216E+04  0.84275295516E+02 0.  0.
        -11    1    4    4    0    0 -0.29581273251E+02 -0.12324062260E+02  0.77684919994E+01  0.32973985287E+02  0.00000000000E+00 0.  1.
         12    1    4    4    0    0 -0.86750272650E+03 -0.58502600956E+03 -0.18119148384E+03  0.10619071363E+04  0.00000000000E+00 0. -1.
        -13    1    3    3    0    0  0.23427877487E+03  0.11751997254E+03 -0.55617923280E+03  0.61484374218E+03  0.00000000000E+00 0.  1.
         13    1    3    3    0    0  0.26201950700E+02  0.40264145139E+02 -0.51757189178E+02  0.70615509882E+02  0.00000000000E+00 0. -1.
          3    1    1    2  501    0  0.63660327418E+03  0.43956595414E+03 -0.85846820933E+03  0.11556165554E+04  0.00000000000E+00 0. -1.
<scales pt_clust_5="13000.00000" pt_clust_6="13000.00000" pt_clust_7="13000.00000" pt_clust_8="13000.00000" pt_clust_9="847.75595"></scales>
<clustering>
<clus scale="   84.275">  5  6 -1 -1</clus>
<clus scale="   86.727">  7  8 -1 -1</clus>
<clus scale="  316.651">  1  7  2 -1</clus>
<clus scale="  847.756">  2  9  1 -1</clus>
<clus scale="  847.756">  2  5  1 -1</clus>
</clustering>
</event>
<event>
 9    2  0.2192668E-004  0.9635638E+02  0.7546771E-02  0.1295051E+00
          4   -1    0    0  502    0 -0.00000000000E+00  0.00000000000E+00  0.28208234275E+03  0.28208234275E+03  0.00000000000E+00 0. -1.
         21   -1    0    0  501  502  0.00000000000E+00 -0.00000000000E+00 -0.19644055247E+03  0.19644055247E+03  0.00000000000E+00 0.  1.
         23    2    1    2    0    0 -0.18757102832E+02  0.22251766532E+02  0.14447798972E+03  0.17390224326E+03  0.92309970625E+02 0.  0.
         24    2    1    2    0    0 -0.59808566569E+01 -0.17135205943E+02 -0.17097867283E+03  0.18966813930E+03  0.80068162048E+02 0.  0.
        -11    1    4    4    0    0 -0.86864952054E+01 -0.46330568950E+02 -0.13649019633E+03  0.14440065966E+03  0.00000000000E+00 0.  1.
         12    1    4    4    0    0  0.27056385485E+01  0.29195363006E+02 -0.34488476500E+02  0.45267479633E+02  0.00000000000E+00 0. -1.
        -13    1    3    3    0    0 -0.10415990121E+01  0.56971452890E+02  0.96723645493E+02  0.11225994375E+03  0.00000000000E+00 0. -1.
         13    1    3    3    0    0 -0.17715503820E+02 -0.34719686359E+02  0.47754344224E+02  0.61642299509E+02  0.00000000000E+00 0.  1.
          3    1    1    2  501    0  0.24737959489E+02 -0.51165605883E+01  0.11214247338E+03  0.11495251267E+03  0.00000000000E+00 0. -1.
<scales pt_clust_5="13000.00000" pt_clust_6="13000.00000" pt_clust_7="13000.00000" pt_clust_8="13000.00000" pt_clust_9="25.26156"></scales>
<clustering>
<clus scale="   25.262">  2  9  1 -1</clus>
<clus scale="   80.068">  5  6 -1 -1</clus>
<clus scale="   84.701">  2  5  1 -1</clus>
<clus scale="   92.310">  7  8 -1 -1</clus>
<clus scale="   25.262">  2  5  1 -1</clus>
</clustering>
</event>
<event>
 9    2  0.1751298E-004  0.1498319E+03  0.7546771E-02  0.1217006E+00
         21   -1    0    0  501  502  0.00000000000E+00  0.00000000000E+00  0.10532495199E+03  0.10532495199E+03  0.00000000000E+00 0. -1.
          2   -1    0    0  502    0 -0.00000000000E+00 -0.00000000000E+00 -0.40132245293E+03  0.40132245293E+03  0.00000000000E+00 0. -1.
         23    2    1    2    0    0  0.54135226729E+02 -0.16134617716E+01 -0.15662159338E+03  0.18892796547E+03  0.90720596292E+02 0.  0.
         24    2    1    2    0    0 -0.11815608774E+02 -0.12548407548E+03 -0.52558124214E+02  0.15808842258E+03  0.79647543108E+02 0.  0.
        -13    1    4    4    0    0 -0.32099463922E+02 -0.63656438892E+02  0.46541542646E+01  0.71443536786E+02  0.00000000000E+00 0.  1.
         14    1    4    4    0    0  0.20283855148E+02 -0.61827636593E+02 -0.57212278478E+02  0.86644885798E+02  0.00000000000E+00 0. -1.
        -13    1    3    3    0    0 -0.22397794825E+02 -0.88062502103E+01 -0.16739796145E+02  0.29316071203E+02  0.00000000000E+00 0. -1.
         13    1    3    3    0    0  0.76533021554E+02  0.71927884387E+01 -0.13988179724E+03  0.15961189427E+03  0.00000000000E+00 0.  1.
          1    1    1    2  501    0 -0.42319617954E+02  0.12709753726E+03 -0.86817783344E+02  0.15963101686E+03  0.00000000000E+00 0. -1.
<scales pt_clust_5="13000.00000" pt_clust_6="13000.00000" pt_clust_7="13000.00000" pt_clust_8="13000.00000" pt_clust_9="126.90892"></scales>
<clustering>
<clus scale="   79.648">  5  6 -1 -1</clus>
<clus scale="   90.721">  7  8 -1 -1</clus>
<clus scale="  105.657">  2  7  1 -1</clus>
<clus scale="  126.909">  1  9  2 -1</clus>
<clus scale="  126.909">  1  5  2 -1</clus>
</clustering>
</event>
<event>
 9    2  0.1751298E-004  0.1135382E+03  0.7546771E-02  0.1257244E+00
          2   -1    0    0  502    0 -0.00000000000E+00  0.00000000000E+00  0.16552701470E+03  0.16552701470E+03  0.00000000000E+00 0. -1.
         21   -1    0    0  501  502  0.00000000000E+00 -0.00000000000E+00 -0.19790144106E+03  0.19790144106E+03  0.00000000000E+00 0. -1.
         23    2    1    2    0    0 -0.43960243926E+02 -0.45621474949E+02  0.11140975076E+03  0.15772468289E+03  0.91929978820E+02 0.  0.
         24    2    1    2    0    0  0.68994432426E+02  0.53368686289E+02 -0.11422349368E+03  0.16619979987E+03  0.83468069253E+02 0.  0.
        -13    1    4    4    0    0  0.14943905122E+01  0.52528706992E+02 -0.41380107519E+02  0.66886557390E+02  0.00000000000E+00 0.  1.
         14    1    4    4    0    0  0.67500041914E+02  0.83997929757E+00 -0.72843386165E+02  0.99313242478E+02  0.00000000000E+00 0. -1.
        -13    1    3    3    0    0 -0.63581790014E+02 -0.23880352986E+02  0.36090021042E+02  0.76911669459E+02  0.00000000000E+00 0. -1.
         13    1    3    3    0    0  0.19621546088E+02 -0.21741121962E+02  0.75319729717E+02  0.80813013431E+02  0.00000000000E+00 0.  1.
          1    1    1    2  501    0 -0.25034188500E+02 -0.77472113405E+01 -0.29560683435E+02  0.39503972997E+02  0.00000000000E+00 0. -1.
<scales pt_clust_5="13000.00000" pt_clust_6="13000.00000" pt_clust_7="13000.00000" pt_clust_8="13000.00000" pt_clust_9="26.20553"></scales>
<clustering>
<clus scale="   26.206">  2  9  1 -1</clus>
<clus scale="   83.468">  5  6 -1 -1</clus>
<clus scale="   91.930">  7  8 -1 -1</clus>
<clus scale="  106.802">  2  5  1 -1</clus>
<clus scale="   26.206">  2  5  1 -1</clus>
</clustering>
</event>
<event>
 9    2  0.1751298E-004  0.1260910E+03  0.7546771E-02  0.1237434E+00
         21   -1    0    0  501  502  0.00000000000E+00  0.00000000000E+00  0.28115262623E+03  0.28115262623E+03  0.00000000000E+00 0. -1.
         -3   -1    0    0    0  501 -0.00000000000E+00 -0.00000000000E+00 -0.98406451823E+02  0.98406451823E+02  0.00000000000E+00 0.  1.
         24    2    1    2    0    0 -0.75197108717E+02 -0.47791337136E+02 -0.10400961670E+02  0.11827370422E+03  0.77083539362E+02 0.  0.
         23    2    1    2    0    0  0.54436550025E+02  0.57326241785E+02  0.20308966686E+03  0.23637013508E+03  0.91519353108E+02 0.  0.
        -13    1    3    3    0    0 -0.20047079697E+02 -0.39337786674E+02  0.26393965444E+02  0.51439170645E+02  0.00000000000E+00 0.  1.
         14    1    3    3    0    0 -0.55150029020E+02 -0.84535504627E+01 -0.36794927114E+02  0.66834533571E+02  0.00000000000E+00 0. -1.
        -13    1    4    4    0    0  0.12431328960E+02 -0.24094135360E+02  0.29361964459E+02  0.39964862759E+02  0.00000000000E+00 0.  1.
         13    1    4    4    0    0  0.42005221065E+02  0.81420377145E+02  0.17372770240E+03  0.19640527232E+03  0.00000000000E+00 0. -1.
         -4    1    1    2    0  502  0.20760558692E+02 -0.95349046488E+01 -0.99425307899E+01  0.24915238758E+02  0.00000000000E+00 0.  1.
<scales pt_clust_5="13000.00000" pt_clust_6="13000.00000" pt_clust_7="13000.00000" pt_clust_8="13000.00000" pt_clust_9="22.84547"></scales>
<clustering>
<clus scale="   22.845">  1  9  2 -1</clus>
<clus scale="   77.084">  5  6 -1 -1</clus>
<clus scale="   91.519">  7  8 -1 -1</clus>
<clus scale="  116.039">  2  5  1 -1</clus>
<clus scale="   22.845">  1  5  2 -1</clus>
</clustering>
</event>
<event>
 9    2  0.1751298E-004  0.1758225E+03  0.7546771E-02  0.1186501E+00
         21   -1    0    0  501  502  0.00000000000E+00  0.00000000000E+00  0.57900865034E+03  0.57900865034E+03  0.00000000000E+00 0. -1.
          4   -1    0    0  502    0 -0.00000000000E+00 -0.00000000000E+00 -0.97166866688E+02  0.97166866688E+02  0.00000000000E+00 0. -1.
         24    2    1    2    0    0 -0.94143406705E+02 -0.98706906645E+01  0.81418004767E+02  0.15051452506E+03  0.84055453082E+02 0.  0.
         23    2    1    2    0    0  0.12122296791E+03 -0.12737306706E+03  0.26884046906E+03  0.33361068842E+03  0.90011040789E+02 0.  0.
        -11    1    3    3    0    0 -0.10270933972E+03 -0.16493300454E+02  0.89319734054E+02  0.13711036546E+03  0.00000000000E+00 0.  1.
         12    1    3    3    0    0  0.85659330122E+01  0.66226097895E+01 -0.79017292873E+01  0.13404159598E+02  0.00000000000E+00 0. -1.
        -13    1    4    4    0    0  0.86878020814E+02 -0.72156246919E+02  0.93554753839E+02  0.14665199090E+03  0.00000000000E+00 0.  1.
         13    1    4    4    0    0  0.34344947097E+02 -0.55216820139E+02  0.17528571522E+03  0.18695869752E+03  0.00000000000E+00 0. -1.
          3    1    1    2  501    0 -0.27079561207E+02  0.13724375772E+03  0.13158330983E+03  0.19205030355E+03  0.00000000000E+00 0. -1.
<scales pt_clust_5="13000.00000" pt_clust_6="13000.00000" pt_clust_7="13000.00000" pt_clust_8="13000.00000" pt_clust_9="151.03510"></scales>
<clustering>
<clus scale="   84.055">  5  6 -1 -1</clus>
<clus scale="   90.011">  7  8 -1 -1</clus>
<clus scale="  126.593">  2  5  1 -1</clus>
<clus scale="  151.035">  1  9  2 -1</clus>
<clus scale="  151.035">  1  5  2 -1</clus>
</clustering>
</event>
<event>
 9    2  0.1751298E-004  0.1575744E+03  0.7546771E-02  0.1215727E+00
         21   -1    0    0  501  502  0.00000000000E+00  0.00000000000E+00  0.10642868768E+03  0.10642868768E+03  0.00000000000E+00 0.  1.
          2   -1    0    0  502    0 -0.00000000000E+00 -0.00000000000E+00 -0.69187956661E+03  0.69187956661E+03  0.00000000000E+00 0. -1.
         24    2    1    2    0    0 -0.94824663104E+00 -0.47109155241E+02  0.39975486516E+02  0.10152385198E+03  0.80553592846E+02 0.  0.
         23    2    1    2    0    0  0.12941873015E+03  0.22919426626E+02 -0.22657500529E+03  0.27705566180E+03  0.90272359487E+02 0.  0.
        -11    1    3    3    0    0  0.25234538099E+02 -0.57742328463E+02  0.17454996554E+02  0.65388342342E+02  0.00000000000E+00 0.  1.
         12    1    3    3    0    0 -0.26182784730E+02  0.10633173223E+02  0.22520489962E+02  0.36135509643E+02  0.00000000000E+00 0. -1.
        -11    1    4    4    0    0  0.10109112544E+03  0.46832955085E+02 -0.11781672234E+03  0.16215277176E+03  0.00000000000E+00 0.  1.
         11    1    4    4    0    0  0.28327604702E+02 -0.23913528460E+02 -0.10875828295E+03  0.11490289005E+03  0.00000000000E+00 0. -1.
          1    1    1    2  501    0 -0.12847048352E+03  0.24189728615E+02 -0.39885136015E+03  0.41972874050E+03  0.00000000000E+00 0. -1.
<scales pt_clust_5="13000.00000" pt_clust_6="13000.00000" pt_clust_7="13000.00000" pt_clust_8="13000.00000" pt_clust_9="129.15348"></scales>
<clustering>
<clus scale="   80.554">  5  6 -1 -1</clus>
<clus scale="   90.272">  7  8 -1 -1</clus>
<clus scale="   93.322">  2  5  1 -1</clus>
<clus scale="  129.153">  1  9  2 -1</clus>
<clus scale="  129.153">  1  5  2 -1</clus>
</clustering>
</event>
<event>
 9    2  0.1751298E-004  0.1010685E+03  0.7546771E-02  0.1282661E+00
         -1   -1    0    0    0  501 -0.00000000000E+00  0.00000000000E+00  0.26580727148E+02  0.26580727148E+02  0.00000000000E+00 0.  1.
         21   -1    0    0  501  502  0.00000000000E+00 -0.00000000000E+00 -0.60940114453E+03  0.60940114453E+03  0.00000000000E+00 0.  1.
         24    2    1    2    0    0  0.24771714060E+02 -0.34283070669E+02 -0.22776941868E+03  0.24548455163E+03  0.81208313934E+02 0.  0.
         23    2    1    2    0    0 -0.54552345620E+02  0.10861518181E+02 -0.32547164068E+03  0.34243076662E+03  0.90736486895E+02 0.  0.
        -11    1    3    3    0    0 -0.13897386302E+02  0.19754874556E+02 -0.46100992925E+02  0.52045114693E+02  0.00000000000E+00 0.  1.
         12    1    3    3    0    0  0.38669100362E+02 -0.54037945225E+02 -0.18166842575E+03  0.19343943694E+03  0.00000000000E+00 0. -1.
        -13    1    4    4    0    0  0.47296706759E+01  0.39768291254E+02 -0.10844296177E+03  0.11560174190E+03  0.00000000000E+00 0. -1.
         13    1    4    4    0    0 -0.59282016296E+02 -0.28906773073E+02 -0.21702867891E+03  0.22682902472E+03  0.00000000000E+00 0.  1.
         -2    1    1    2    0  502  0.29780631560E+02  0.23421552488E+02 -0.29579358024E+02  0.48066553425E+02  0.00000000000E+00 0.  1.
<scales pt_clust_5="13000.00000" pt_clust_6="13000.00000" pt_clust_7="13000.00000" pt_clust_8="13000.00000" pt_clust_9="37.88742"></scales>
<clustering>
<clus scale="   37.887">  2  9  1 -1</clus>
<clus scale="   81.208">  5  6 -1 -1</clus>
<clus scale="   90.736">  7  8 -1 -1</clus>
<clus scale="   92.610">  1  5  2 -1</clus>
<clus scale="   37.887">  2  5  1 -1</clus>
</clustering>
</event>
<event>
 9    2  0.1751298E-004  0.1026362E+03  0.7546771E-02  0.1285768E+00
         -3   -1    0    0    0  501 -0.00000000000E+00  0.00000000000E+00  0.34364413864E+02  0.34364413864E+02  0.00000000000E+00 0.  1.
         21   -1    0    0  501  502  0.00000000000E+00 -0.00000000000E+00 -0.82030851595E+03  0.82030851595E+03  0.00000000000E+00 0. -1.
         23    2    1    2    0    0  0.20158557587E+01  0.22989243103E+02 -0.98771736868E+02  0.14219035804E+03  0.99647744289E+02 0.  0.
         24    2    1    2    0    0  0.31924119186E+02 -0.32090486558E+02 -0.66422001448E+03  0.67051157064E+03  0.79678039765E+02 0.  0.
        -11    1    4    4    0    0  0.11889515501E+02 -0.55243342859E+02 -0.32165075773E+03  0.32657678647E+03  0.00000000000E+00 0.  1.
         12    1    4    4    0    0  0.20034603684E+02  0.23152856301E+02 -0.34256925674E+03  0.34393478417E+03  0.00000000000E+00 0. -1.
        -11    1    3    3    0    0 -0.16995583847E+02  0.51086617334E+02 -0.21821247345E+02  0.58093538166E+02  0.00000000000E+00 0. -1.
         11    1    3    3    0    0  0.19011439606E+02 -0.28097374231E+02 -0.76950489523E+02  0.84096819871E+02  0.00000000000E+00 0.  1.
         -4    1    1    2    0  502 -0.33939974944E+02  0.91012434545E+01 -0.22952350741E+02  0.41971001134E+02  0.00000000000E+00 0.  1.
<scales pt_clust_5="13000.00000" pt_clust_6="13000.00000" pt_clust_7="13000.00000" pt_clust_8="13000.00000" pt_clust_9="35.13909"></scales>
<clustering>
<clus scale="   35.139">  2  9  1 -1</clus>
<clus scale="   79.678">  5  6 -1 -1</clus>
<clus scale="   83.385">  2  5  1 -1</clus>
<clus scale="   99.648">  7  8 -1 -1</clus>
<clus scale="   35.139">  2  5  1 -1</clus>
</clustering>
</event>
<event>
 9    2  0.1751298E-004  0.2634395E+03  0.7546771E-02  0.1119012E+00
         21   -1    0    0  501  502  0.00000000000E+00  0.00000000000E+00  0.52016502611E+02  0.52016502611E+02  0.00000000000E+00 0.  1.
          2   -1    0    0  502    0 -0.00000000000E+00 -0.00000000000E+00 -0.30049579622E+04  0.30049579622E+04  0.00000000000E+00 0. -1.
         23    2    1    2    0    0  0.14377823580E+03  0.66837865830E+02 -0.33146210115E+03  0.37961994710E+03  0.95418542955E+02 0.  0.
         24    2    1    2    0    0 -0.10399315999E+03  0.21828181773E+03 -0.11372024288E+04  0.11654173199E+04  0.80663723080E+02 0.  0.
        -11    1    4    4    0    0 -0.95547439019E+02  0.22287254648E+03 -0.11173480551E+04  0.11433582821E+04  0.00000000000E+00 0.  1.
         12    1    4    4    0    0 -0.84457209680E+01 -0.45907287558E+01 -0.19854373720E+02  0.22059037807E+02  0.00000000000E+00 0. -1.
        -11    1    3    3    0    0  0.12882462607E+03  0.90018326140E+02 -0.27377906095E+03  0.31568030907E+03  0.00000000000E+00 0.  1.
         11    1    3    3    0    0  0.14953609727E+02 -0.23180460309E+02 -0.57683040202E+02  0.63939638027E+02  0.00000000000E+00 0. -1.
          1    1    1    2  501    0 -0.39785075812E+02 -0.28511968356E+03 -0.14842769297E+04  0.15119371978E+04  0.00000000000E+00 0. -1.
<scales pt_clust_5="13000.00000" pt_clust_6="13000.00000" pt_clust_7="13000.00000" pt_clust_8="13000.00000" pt_clust_9="250.78637"></scales>
<clustering>
<clus scale="   80.664">  5  6 -1 -1</clus>
<clus scale="   95.419">  7  8 -1 -1</clus>
<clus scale="  185.052">  2  7  1 -1</clus>
<clus scale="  250.786">  1  9  2 -1</clus>
<clus scale="  250.786">  1  5  2 -1</clus>
</clustering>
</event>
<event>
 9    2  0.1751298E-004  0.1064368E+03  0.7546771E-02  0.1275343E+00
         21   -1    0    0  501  502  0.00000000000E+00  0.00000000000E+00  0.26409211716E+03  0.26409211716E+03  0.00000000000E+00 0. -1.
          2   -1    0    0  502    0 -0.00000000000E+00 -0.00000000000E+00 -0.93213647127E+02  0.93213647127E+02  0.00000000000E+00 0. -1.
         24    2    1    2    0    0  0.14773139528E+02 -0.53670849164E+02 -0.27676450431E+02  0.10101488790E+03  0.79619193464E+02 0.  0.
         23    2    1    2    0    0 -0.33805994979E+01 -0.65544655867E+01  0.14736344787E+03  0.17643196723E+03  0.96736052324E+02 0.  0.
        -11    1    3    3    0    0  0.56917358830E+01  0.21004494944E+02 -0.38013575072E+01  0.22091513849E+02  0.00000000000E+00 0.  1.
         12    1    3    3    0    0  0.90814036447E+01 -0.74675344108E+02 -0.23875092924E+02  0.78923374053E+02  0.00000000000E+00 0. -1.
        -13    1    4    4    0    0  0.36470229309E+02 -0.26216590166E+02  0.39651508728E+02  0.59913515755E+02  0.00000000000E+00 0. -1.
         13    1    4    4    0    0 -0.39850828807E+02  0.19662124579E+02  0.10771193915E+03  0.11651845148E+03  0.00000000000E+00 0.  1.
          1    1    1    2  501    0 -0.11392540030E+02  0.60225314750E+02  0.51191472585E+02  0.79858909149E+02  0.00000000000E+00 0. -1.
<scales pt_clust_5="13000.00000" pt_clust_6="13000.00000" pt_clust_7="13000.00000" pt_clust_8="13000.00000" pt_clust_9="61.29338"></scales>
<clustering>
<clus scale="   61.293">  1  9  2 -1</clus>
<clus scale="   79.619">  5  6 -1 -1</clus>
<clus scale="   91.160">  2  5  1 -1</clus>
<clus scale="   96.736">  7  8 -1 -1</clus>
<clus scale="   61.293">  1  5  2 -1</clus>
</clustering>
</event>
<event>
 9    2  0.1751298E-004  0.1039978E+03  0.7546771E-02  0.1276429E+00
          2   -1    0    0  502    0 -0.00000000000E+00  0.00000000000E+00  0.91324788454E+02  0.91324788454E+02  0.00000000000E+00 0. -1.
         21   -1    0    0  501  502  0.00000000000E+00 -0.00000000000E+00 -0.35211354028E+03  0.35211354028E+03  0.00000000000E+00 0.  1.
         24    2    1    2    0    0 -0.29946884112E+02  0.38019175397E+02 -0.28090217551E+02  0.99669566947E+02  0.82478413463E+02 0.  0.
         23    2    1    2    0    0  0.88121959113E+01 -0.54111120968E+02 -0.27427481856E+03  0.29443101586E+03  0.91963464430E+02 0.  0.
        -13    1    3    3    0    0 -0.38689401163E+02 -0.75854986446E+01  0.87621266818E+01  0.40387924137E+02  0.00000000000E+00 0.  1.
         14    1    3    3    0    0  0.87425170513E+01  0.45604674042E+02 -0.36852344233E+02  0.59281642810E+02  0.00000000000E+00 0. -1.
        -11    1    4    4    0    0  0.16936091480E+02 -0.78730594145E+02 -0.22016390523E+03  0.23443012353E+03  0.00000000000E+00 0.  1.
         11    1    4    4    0    0 -0.81238955687E+01  0.24619473178E+02 -0.54110913332E+02  0.60000892330E+02  0.00000000000E+00 0. -1.
          1    1    1    2  501    0  0.21134688201E+02  0.16091945570E+02  0.41576284293E+02  0.49337745928E+02  0.00000000000E+00 0. -1.
<scales pt_clust_5="13000.00000" pt_clust_6="13000.00000" pt_clust_7="13000.00000" pt_clust_8="13000.00000" pt_clust_9="26.56363"></scales>
<clustering>
<clus scale="   26.564">  2  9  1 -1</clus>
<clus scale="   82.478">  5  6 -1 -1</clus>
<clus scale="   91.963">  7  8 -1 -1</clus>
<clus scale="   95.713">  1  5  2 -1</clus>
<clus scale="   26.564">  2  5  1 -1</clus>
</clustering>
</event>
<event>
 9    2  0.1751298E-004  0.1287452E+03  0.7546771E-02  0.1251302E+00
         -1   -1    0    0    0  501 -0.00000000000E+00  0.00000000000E+00  0.19696064165E+03  0.19696064165E+03  0.00000000000E+00 0.  1.
         21   -1    0    0  501  502  0.00000000000E+00 -0.00000000000E+00 -0.13615828019E+03  0.13615828019E+03  0.00000000000E+00 0. -1.
         24    2    1    2    0    0 -0.11910312815E+02  0.11856998512E+02  0.55278982809E+02  0.99238402208E+02  0.80684884379E+02 0.  0.
         23    2    1    2    0    0 -0.35972664250E+02  0.70777976670E+02  0.47411532850E+02  0.12959276350E+03  0.90790287750E+02 0.  0.
        -11    1    3    3    0    0  0.30759747100E+02  0.21378323988E+02  0.34114538446E+02  0.50665535737E+02  0.00000000000E+00 0.  1.
         12    1    3    3    0    0 -0.42670059915E+02 -0.95213254752E+01  0.21164444363E+02  0.48572866470E+02  0.00000000000E+00 0. -1.
        -13    1    4    4    0    0 -0.18033508678E+02  0.17761590833E+02 -0.26654437815E+02  0.36757864457E+02  0.00000000000E+00 0.  1.
         13    1    4    4    0    0 -0.17939155572E+02  0.53016385837E+02  0.74065970665E+02  0.92834899044E+02  0.00000000000E+00 0. -1.
         -2    1    1    2    0  502  0.47882977065E+02 -0.82634975183E+02 -0.41888154197E+02  0.10428775613E+03  0.00000000000E+00 0.  1.
<scales pt_clust_5="13000.00000" pt_clust_6="13000.00000" pt_clust_7="13000.00000" pt_clust_8="13000.00000" pt_clust_9="91.28226"></scales>
<clustering>
<clus scale="   80.685">  5  6 -1 -1</clus>
<clus scale="   82.417">  1  5  2 -1</clus>
<clus scale="   90.790">  7  8 -1 -1</clus>
<clus scale="   91.282">  2  9  1 -1</clus>
<clus scale="   91.282">  2  5  1 -1</clus>
</clustering>
</event>
<event>
 9    2  0.1751298E-004  0.1157169E+03  0.7546771E-02  0.1265097E+00
         21   -1    0    0  501  502  0.00000000000E+00  0.00000000000E+00  0.78507087317E+03  0.78507087317E+03  0.00000000000E+00 0.  1.
         -1   -1    0    0    0  501 -0.00000000000E+00 -0.00000000000E+00 -0.31700771669E+02  0.31700771669E+02  0.00000000000E+00 0.  1.
         23    2    1    2    0    0 -0.23385041588E+01 -0.19184510273E+02  0.18367461135E+03  0.20301466993E+03  0.84291632539E+02 0.  0.
         24    2    1    2    0    0  0.53772771298E+02  0.10073069605E+03  0.25508883318E+03  0.28470893456E+03  0.54320167000E+02 0.  0.
        -13    1    4    4    0    0  0.19993669943E+02  0.85006790630E+02  0.15495675940E+03  0.17786933006E+03  0.00000000000E+00 0.  1.
         14    1    4    4    0    0  0.33779101355E+02  0.15723905418E+02  0.10013207378E+03  0.10683960450E+03  0.00000000000E+00 0. -1.
        -13    1    3    3    0    0 -0.72514948648E+01  0.33110565366E+02  0.68430968879E+02  0.76365510660E+02  0.00000000000E+00 0. -1.
         13    1    3    3    0    0  0.49129907059E+01 -0.52295075639E+02  0.11524364247E+03  0.12664915927E+03  0.00000000000E+00 0.  1.
         -2    1    1    2    0  502 -0.51434267139E+02 -0.81546185776E+02  0.31460665697E+03  0.32904804036E+03  0.00000000000E+00 0.  1.
<scales pt_clust_5="13000.00000" pt_clust_6="13000.00000" pt_clust_7="13000.00000" pt_clust_8="13000.00000" pt_clust_9="102.17499"></scales>
<clustering>
<clus scale="   54.320">  5  6 -1 -1</clus>
<clus scale="   84.292">  7  8 -1 -1</clus>
<clus scale="   86.479">  2  7  1 -1</clus>
<clus scale="  102.175">  1  9  2 -1</clus>
<clus scale="  102.175">  1  5  2 -1</clus>
</clustering>
</event>
<event>
 9    2  0.1751298E-004  0.9478062E+02  0.7546771E-02  0.1313459E+00
         21   -1    0    0  501  502  0.00000000000E+00  0.00000000000E+00  0.20714961711E+03  0.20714961711E+03  0.00000000000E+00 0.  1.
         -3   -1    0    0    0  501 -0.00000000000E+00 -0.00000000000E+00 -0.17720476570E+03  0.17720476570E+03  0.00000000000E+00 0.  1.
         23    2    1    2    0    0 -0.21590684553E+02  0.14711402152E+02 -0.14459782827E+03  0.17324728385E+03  0.91779662275E+02 0.  0.
         24    2    1    2    0    0 -0.21143869994E+02 -0.24508839439E+02  0.13990504053E+03  0.15523225690E+03  0.58956651604E+02 0.  0.
        -11    1    4    4    0    0 -0.41323131347E+02 -0.17410712719E+02  0.81315290928E+02  0.92859628690E+02  0.00000000000E+00 0.  1.
         12    1    4    4    0    0  0.20179261353E+02 -0.70981267198E+01  0.58589749604E+02  0.62372628214E+02  0.00000000000E+00 0. -1.
        -11    1    3    3    0    0  0.10539564440E+02  0.47580330393E+02 -0.63707182448E+02  0.80209571463E+02  0.00000000000E+00 0.  1.
         11    1    3    3    0    0 -0.32130248993E+02 -0.32868928241E+02 -0.80890645825E+02  0.93037712386E+02  0.00000000000E+00 0. -1.
         -4    1    1    2    0  502  0.42734554547E+02  0.97974372873E+01  0.34637639145E+02  0.55874842060E+02  0.00000000000E+00 0.  1.
<scales pt_clust_5="13000.00000" pt_clust_6="13000.00000" pt_clust_7="13000.00000" pt_clust_8="13000.00000" pt_clust_9="43.84327"></scales>
<clustering>
<clus scale="   43.843">  1  9  2 -1</clus>
<clus scale="   58.957">  5  6 -1 -1</clus>
<clus scale="   63.528">  1  5  2 -1</clus>
<clus scale="   91.780">  7  8 -1 -1</clus>
<clus scale="   43.843">  1  5  2 -1</clus>
</clustering>
</event>
<event>
 9    2  0.1751298E-004  0.9446202E+02  0.7546771E-02  0.1299744E+00
         21   -1    0    0  501  502  0.00000000000E+00  0.00000000000E+00  0.60164228403E+02  0.60164228403E+02  0.00000000000E+00 0.  1.
          2   -1    0    0  502    0 -0.00000000000E+00 -0.00000000000E+00 -0.19866092943E+03  0.19866092943E+03  0.00000000000E+00 0. -1.
         24    2    1    2    0    0  0.15114736727E+02  0.53971983053E+01 -0.52521761192E+02  0.96668019172E+02  0.79552407355E+02 0.  0.
         23    2    1    2    0    0 -0.32048188854E+02  0.84092049194E+01 -0.30295146348E+02  0.10234411354E+03  0.91971302854E+02 0.  0.
        -11    1    3    3    0    0 -0.54163059875E+01  0.37459471409E+02 -0.43269639923E+02  0.57487477835E+02  0.00000000000E+00 0.  1.
         12    1    3    3    0    0  0.20531042714E+02 -0.32062273103E+02 -0.92521212688E+01  0.39180541337E+02  0.00000000000E+00 0. -1.
        -11    1    4    4    0    0 -0.44509732150E+02 -0.32061263444E+02 -0.22485533757E+02  0.59284400124E+02  0.00000000000E+00 0. -1.
         11    1    4    4    0    0  0.12461543297E+02  0.40470468364E+02 -0.78096125908E+01  0.43059713419E+02  0.00000000000E+00 0.  1.
          1    1    1    2  501    0  0.16933452127E+02 -0.13806403225E+02 -0.55679793483E+02  0.59813025114E+02  0.00000000000E+00 0. -1.
<scales pt_clust_5="13000.00000" pt_clust_6="13000.00000" pt_clust_7="13000.00000" pt_clust_8="13000.00000" pt_clust_9="21.84855"></scales>
<clustering>
<clus scale="   21.849">  1  9  2 -1</clus>
<clus scale="   79.552">  5  6 -1 -1</clus>
<clus scale="   82.419">  2  5  1 -1</clus>
<clus scale="   91.971">  7  8 -1 -1</clus>
<clus scale="   21.849">  1  5  2 -1</clus>
</clustering>
</event>
<event>
 9    2  0.1751298E-004  0.1344698E+03  0.7546771E-02  0.1239999E+00
          2   -1    0    0  502    0 -0.00000000000E+00  0.00000000000E+00  0.54227523361E+03  0.54227523361E+03  0.00000000000E+00 0. -1.
         21   -1    0    0  501  502  0.00000000000E+00 -0.00000000000E+00 -0.10893273703E+03  0.10893273703E+03  0.00000000000E+00 0. -1.
         24    2    1    2    0    0  0.87208510372E+01 -0.36695009118E+02  0.74966695488E+02  0.11775177795E+03  0.82600840433E+02 0.  0.
         23    2    1    2    0    0 -0.80933584252E+02 -0.29801289357E+02  0.40524290786E+03  0.42467677255E+03  0.93221161056E+02 0.  0.
        -11    1    3    3    0    0 -0.35270008208E+02 -0.71030864718E+01  0.42074620521E+02  0.55359741767E+02  0.00000000000E+00 0.  1.
         12    1    3    3    0    0  0.43990859246E+02 -0.29591922646E+02  0.32892074967E+02  0.62392036180E+02  0.00000000000E+00 0. -1.
        -11    1    4    4    0    0  0.74082381428E+01  0.18715300795E+02  0.29945744389E+02  0.36081741688E+02  0.00000000000E+00 0.  1.
         11    1    4    4    0    0 -0.88341822395E+02 -0.48516590152E+02  0.37529716347E+03  0.38859503086E+03  0.00000000000E+00 0. -1.
          1    1    1    2  501    0  0.72212733215E+02  0.66496298474E+02 -0.46867106762E+02  0.10877942014E+03  0.00000000000E+00 0. -1.
<scales pt_clust_5="13000.00000" pt_clust_6="13000.00000" pt_clust_7="13000.00000" pt_clust_8="13000.00000" pt_clust_9="96.91203"></scales>
<clustering>
<clus scale="   82.601">  5  6 -1 -1</clus>
<clus scale="   90.805">  1  5  2 -1</clus>
<clus scale="   93.221">  7  8 -1 -1</clus>
<clus scale="   96.912">  2  9  1 -1</clus>
<clus scale="   96.912">  2  5  1 -1</clus>
</clustering>
</event>
<event>
 9    2  0.1751298E-004  0.1068753E+03  0.7546771E-02  0.1274205E+00
          2   -1    0    0  502    0 -0.00000000000E+00  0.00000000000E+00  0.24650767842E+03  0.24650767842E+03  0.00000000000E+00 0. -1.
         21   -1    0    0  501  502  0.00000000000E+00 -0.00000000000E+00 -0.97789749283E+02  0.97789749283E+02  0.00000000000E+00 0. -1.
         24    2    1    2    0    0 -0.45267248186E+02 -0.18824152999E+02  0.16125629167E+03  0.18799116491E+03  0.83268325242E+02 0.  0.
         23    2    1    2    0    0  0.85036509505E+01 -0.19749672295E+02 -0.75339527298E+00  0.10173165759E+03  0.99430382263E+02 0.  0.
        -11    1    3    3    0    0  0.21768681446E+02  0.42646866568E+01  0.63255368205E+02  0.67032116563E+02  0.00000000000E+00 0.  1.
         12    1    3    3    0    0 -0.67035929632E+02 -0.23088839656E+02  0.98000923461E+02  0.12095904835E+03  0.00000000000E+00 0. -1.
        -11    1    4    4    0    0  0.25462901627E+02  0.33779659700E+02  0.12357635058E+02  0.44069671123E+02  0.00000000000E+00 0.  1.
         11    1    4    4    0    0 -0.16959250677E+02 -0.53529331994E+02 -0.13111030331E+02  0.57661986469E+02  0.00000000000E+00 0. -1.
          1    1    1    2  501    0  0.36763597236E+02  0.38573825294E+02 -0.11784967255E+02  0.54574605200E+02  0.00000000000E+00 0. -1.
<scales pt_clust_5="13000.00000" pt_clust_6="13000.00000" pt_clust_7="13000.00000" pt_clust_8="13000.00000" pt_clust_9="53.28698"></scales>
<clustering>
<clus scale="   53.287">  2  9  1 -1</clus>
<clus scale="   83.268">  5  6 -1 -1</clus>
<clus scale="   92.030">  1  5  2 -1</clus>
<clus scale="   99.430">  7  8 -1 -1</clus>
<clus scale="   53.287">  2  5  1 -1</clus>
</clustering>
</event>
<event>
 9    2  0.1751298E-004  0.9912697E+02  0.7546771E-02  0.1285307E+00
         21   -1    0    0  501  502  0.00000000000E+00  0.00000000000E+00  0.29098910980E+02  0.29098910980E+02  0.00000000000E+00 0.  1.
          2   -1    0    0  502    0 -0.00000000000E+00 -0.00000000000E+00 -0.43870823250E+03  0.43870823250E+03  0.00000000000E+00 0. -1.
         23    2    1    2    0    0  0.53333645275E+01  0.45466338853E+02 -0.23678034519E+03  0.25704242358E+03  0.88939546351E+02 0.  0.
         24    2    1    2    0    0 -0.25157197125E+02 -0.36369290227E+02 -0.16028745345E+03  0.18560462394E+03  0.82470593887E+02 0.  0.
        -13    1    4    4    0    0 -0.52580921012E+02 -0.10135032333E+02 -0.74024914899E+02  0.91362794182E+02  0.00000000000E+00 0.  1.
         14    1    4    4    0    0  0.27423723887E+02 -0.26234257895E+02 -0.86262538554E+02  0.94241829762E+02  0.00000000000E+00 0. -1.
        -13    1    3    3    0    0 -0.29587078825E+02  0.19846095519E+02 -0.18991864462E+03  0.19323134921E+03  0.00000000000E+00 0. -1.
         13    1    3    3    0    0  0.34920443353E+02  0.25620243334E+02 -0.46861700564E+02  0.63811074370E+02  0.00000000000E+00 0.  1.
          1    1    1    2  501    0  0.19823832598E+02 -0.90970486254E+01 -0.12541522878E+02  0.25160095959E+02  0.00000000000E+00 0. -1.
<scales pt_clust_5="13000.00000" pt_clust_6="13000.00000" pt_clust_7="13000.00000" pt_clust_8="13000.00000" pt_clust_9="21.81148"></scales>
<clustering>
<clus scale="   21.811">  1  9  2 -1</clus>
<clus scale="   82.471">  5  6 -1 -1</clus>
<clus scale="   88.940">  7  8 -1 -1</clus>
<clus scale="   93.367">  1  5  2 -1</clus>
<clus scale="   21.811">  1  5  2 -1</clus>
</clustering>
</event>
<event>
 9    2  0.1751298E-004  0.1560233E+03  0.7546771E-02  0.1217428E+00
          2   -1    0    0  502    0 -0.00000000000E+00  0.00000000000E+00  0.87111959122E+03  0.87111959122E+03  0.00000000000E+00 0. -1.
         21   -1    0    0  501  502  0.00000000000E+00 -0.00000000000E+00 -0.12491105303E+03  0.12491105303E+03  0.00000000000E+00 0.  1.
         24    2    1    2    0    0 -0.29787793687E+02  0.36313656410E+02  0.69454185409E+03  0.70070645921E+03  0.79969748021E+02 0.  0.
         23    2    1    2    0    0 -0.97652736488E+02 -0.72767194054E+02  0.57745329021E+02  0.16263319416E+03  0.91015994989E+02 0.  0.
        -11    1    3    3    0    0  0.15901196156E+02  0.33466398797E+02  0.16119008076E+03  0.16539374240E+03  0.00000000000E+00 0.  1.
         12    1    3    3    0    0 -0.45688989844E+02  0.28472576135E+01  0.53335177333E+03  0.53531271681E+03  0.00000000000E+00 0. -1.
        -13    1    4    4    0    0 -0.22696350995E+02 -0.69400319245E+02  0.46998745182E+02  0.86835538280E+02  0.00000000000E+00 0. -1.
         13    1    4    4    0    0 -0.74956385493E+02 -0.33668748089E+01  0.10746583839E+02  0.75797655877E+02  0.00000000000E+00 0.  1.
          1    1    1    2  501    0  0.12744053018E+03  0.36453537643E+02 -0.60786449207E+01  0.13269099089E+03  0.00000000000E+00 0. -1.
<scales pt_clust_5="13000.00000" pt_clust_6="13000.00000" pt_clust_7="13000.00000" pt_clust_8="13000.00000" pt_clust_9="126.72553"></scales>
<clustering>
<clus scale="   79.970">  5  6 -1 -1</clus>
<clus scale="   91.016">  7  8 -1 -1</clus>
<clus scale="   92.742">  1  5  2 -1</clus>
<clus scale="  126.726">  2  9  1 -1</clus>
<clus scale="  126.726">  2  5  1 -1</clus>
</clustering>
</event>
<event>
 9    2  0.1751298E-004  0.9911114E+02  0.7546771E-02  0.1288256E+00
          2   -1    0    0  502    0 -0.00000000000E+00  0.00000000000E+00  0.22748787336E+03  0.22748787336E+03  0.00000000000E+00 0. -1.
         21   -1    0    0  501  502  0.00000000000E+00 -0.00000000000E+00 -0.12680810695E+03  0.12680810695E+03  0.00000000000E+00 0.  1.
         23    2    1    2    0    0 -0.24425571976E+02 -0.11238045642E+02  0.16034778310E+03  0.18747017909E+03  0.93331421651E+02 0.  0.
         24    2    1    2    0    0  0.53250673657E+02  0.20882789438E+02  0.23168587663E-01  0.99841137537E+02  0.81832310662E+02 0.  0.
        -13    1    4    4    0    0  0.46799845687E+02  0.12025334279E+02 -0.37236781486E+02  0.61003377909E+02  0.00000000000E+00 0.  1.
         14    1    4    4    0    0  0.64508279696E+01  0.88574551592E+01  0.37259950074E+02  0.38837759628E+02  0.00000000000E+00 0. -1.
        -11    1    3    3    0    0  0.26150889899E+02  0.20636859851E+02  0.84944252780E+02  0.91242945521E+02  0.00000000000E+00 0.  1.
         11    1    3    3    0    0 -0.50576461875E+02 -0.31874905493E+02  0.75403530319E+02  0.96227233570E+02  0.00000000000E+00 0. -1.
          1    1    1    2  501    0 -0.28825101680E+02 -0.96447437959E+01 -0.59691185271E+02  0.66984663684E+02  0.00000000000E+00 0. -1.
<scales pt_clust_5="13000.00000" pt_clust_6="13000.00000" pt_clust_7="13000.00000" pt_clust_8="13000.00000" pt_clust_9="30.39585"></scales>
<clustering>
<clus scale="   30.396">  2  9  1 -1</clus>
<clus scale="   81.832">  5  6 -1 -1</clus>
<clus scale="   88.367">  2  5  1 -1</clus>
<clus scale="   93.331">  7  8 -1 -1</clus>
<clus scale="   30.396">  2  5  1 -1</clus>
</clustering>
</event>
<event>
 9    2  0.1751298E-004  0.9794709E+02  0.7546771E-02  0.1292257E+00
          2   -1    0    0  502    0 -0.00000000000E+00  0.00000000000E+00  0.20904193607E+03  0.20904193607E+03  0.00000000000E+00 0. -1.
         21   -1    0    0  501  502  0.00000000000E+00 -0.00000000000E+00 -0.12049899241E+03  0.12049899241E+03  0.00000000000E+00 0. -1.
         24    2    1    2    0    0 -0.57287008209E+02  0.23224782153E+02  0.81511020118E+02  0.13001810141E+03  0.80246298851E+02 0.  0.
         23    2    1    2    0    0 -0.37240635834E+02  0.24298027105E+01  0.12244197459E+02  0.10143714507E+03  0.93524355815E+02 0.  0.
        -11    1    3    3    0    0 -0.19538501471E+02  0.12810728338E+02 -0.13689245348E+02  0.27078833772E+02  0.00000000000E+00 0.  1.
         12    1    3    3    0    0 -0.37748506738E+02  0.10414053815E+02  0.95200265467E+02  0.10293926764E+03  0.00000000000E+00 0. -1.
        -13    1    4    4    0    0  0.87892162381E+01  0.38208338332E+02 -0.74363936308E+01  0.39905230114E+02  0.00000000000E+00 0.  1.
         13    1    4    4    0    0 -0.46029852072E+02 -0.35778535622E+02  0.19680591090E+02  0.61531914960E+02  0.00000000000E+00 0. -1.
          1    1    1    2  501    0  0.94527644042E+02 -0.25654584863E+02 -0.52122739148E+01  0.98085681993E+02  0.00000000000E+00 0. -1.
<scales pt_clust_5="13000.00000" pt_clust_6="13000.00000" pt_clust_7="13000.00000" pt_clust_8="13000.00000" pt_clust_9="97.94709"></scales>
<clustering>
<clus scale="   80.246">  5  6 -1 -1</clus>
<clus scale="   93.524">  7  8 -1 -1</clus>
<clus scale="   97.947">  2  9  1 -1</clus>
<clus scale="   84.948">  1  5  2 -1</clus>
<clus scale="   97.947">  2  5  1 -1</clus>
</clustering>
</event>
<event>
 9    2  0.1751298E-004  0.1515000E+03  0.7546771E-02  0.1200734E+00
         21   -1    0    0  501  502  0.00000000000E+00  0.00000000000E+00  0.29347226197E+02  0.29347226197E+02  0.00000000000E+00 0.  1.
          2   -1    0    0  502    0 -0.00000000000E+00 -0.00000000000E+00 -0.14082198225E+04  0.14082198225E+04  0.00000000000E+00 0. -1.
         23    2    1    2    0    0  0.88649855402E+02  0.71770369609E+02 -0.60652648049E+03  0.62399130197E+03  0.92092293856E+02 0.  0.
         24    2    1    2    0    0 -0.14444141479E+03 -0.45057185496E+01 -0.56068509745E+03  0.58458313095E+03  0.80535921742E+02 0.  0.
        -13    1    4    4    0    0 -0.11739171518E+03 -0.33642621639E+02 -0.36457173550E+03  0.38448041707E+03  0.00000000000E+00 0.  1.
         14    1    4    4    0    0 -0.27049699615E+02  0.29136903089E+02 -0.19611336195E+03  0.20010271389E+03  0.00000000000E+00 0. -1.
        -11    1    3    3    0    0  0.64441510947E+02  0.72799432438E+02 -0.57988659497E+03  0.58798038124E+03  0.00000000000E+00 0.  1.
         11    1    3    3    0    0  0.24208344455E+02 -0.10290628288E+01 -0.26639885514E+02  0.36010920729E+02  0.00000000000E+00 0. -1.
          1    1    1    2  501    0  0.55791559388E+02 -0.67264651060E+02 -0.21166101837E+03  0.22899261577E+03  0.00000000000E+00 0. -1.
<scales pt_clust_5="13000.00000" pt_clust_6="13000.00000" pt_clust_7="13000.00000" pt_clust_8="13000.00000" pt_clust_9="87.39125"></scales>
<clustering>
<clus scale="   80.536">  5  6 -1 -1</clus>
<clus scale="   87.391">  1  9  2 -1</clus>
<clus scale="   92.092">  7  8 -1 -1</clus>
<clus scale="  144.766">  1  5  2 -1</clus>
<clus scale="   87.391">  1  5  2 -1</clus>
</clustering>
</event>
<event>
 9    2  0.1751298E-004  0.1009666E+03  0.7546771E-02  0.1288170E+00
         21   -1    0    0  501  502  0.00000000000E+00  0.00000000000E+00  0.43795509870E+02  0.43795509870E+02  0.00000000000E+00 0.  1.
          2   -1    0    0  502    0 -0.00000000000E+00 -0.00000000000E+00 -0.89921529309E+03  0.89921529309E+03  0.00000000000E+00 0. -1.
         24    2    1    2    0    0  0.27985987531E+02  0.73668085920E+00 -0.51467303757E+03  0.52158264454E+03  0.79852121395E+02 0.  0.
         23    2    1    2    0    0  0.99361439097E+01 -0.41190631568E+02 -0.37225733803E+02  0.11288381020E+03  0.97783455984E+02 0.  0.
        -11    1    3    3    0    0  0.42720801656E+02  0.73213633123E+01 -0.13985997057E+03  0.14642226819E+03  0.00000000000E+00 0.  1.
         12    1    3    3    0    0 -0.14734814124E+02 -0.65846824531E+01 -0.37481306700E+03  0.37516037635E+03  0.00000000000E+00 0. -1.
        -13    1    4    4    0    0  0.34186702334E+02 -0.15756081315E+02 -0.60126596491E+02  0.70937946971E+02  0.00000000000E+00 0. -1.
         13    1    4    4    0    0 -0.24250558424E+02 -0.25434550254E+02  0.22900862688E+02  0.41945863233E+02  0.00000000000E+00 0.  1.
          1    1    1    2  501    0 -0.37922131441E+02  0.40453950709E+02 -0.30352101185E+03  0.30854434822E+03  0.00000000000E+00 0. -1.
<scales pt_clust_5="13000.00000" pt_clust_6="13000.00000" pt_clust_7="13000.00000" pt_clust_8="13000.00000" pt_clust_9="55.44920"></scales>
<clustering>
<clus scale="   55.449">  1  9  2 -1</clus>
<clus scale="   79.852">  5  6 -1 -1</clus>
<clus scale="   83.720">  2  5  1 -1</clus>
<clus scale="   97.783">  7  8 -1 -1</clus>
<clus scale="   55.449">  1  5  2 -1</clus>
</clustering>
</event>
<event>
 9    2  0.1751298E-004  0.9455362E+02  0.7546771E-02  0.1294184E+00
         21   -1    0    0  501  502  0.00000000000E+00  0.00000000000E+00  0.14206192029E+03  0.14206192029E+03  0.00000000000E+00 0. -1.
         -1   -1    0    0    0  501 -0.00000000000E+00 -0.00000000000E+00 -0.19600860181E+03  0.19600860181E+03  0.00000000000E+00 0.  1.
         23    2    1    2    0    0 -0.12092905705E+02  0.37395163148E+02 -0.15707742272E+03  0.18387613186E+03  0.87134829671E+02 0.  0.
         24    2    1    2    0    0 -0.67751411489E+01 -0.18642808685E+02  0.90863912423E+02  0.12490054996E+03  0.83369298576E+02 0.  0.
        -13    1    4    4    0    0  0.32880264612E+01  0.28841596362E+02  0.61920757713E+02  0.68387345573E+02  0.00000000000E+00 0.  1.
         14    1    4    4    0    0 -0.10063167610E+02 -0.47484405047E+02  0.28943154710E+02  0.56513204383E+02  0.00000000000E+00 0. -1.
        -13    1    3    3    0    0 -0.29638600109E+02  0.13394692606E+02 -0.14977038151E+03  0.15326131796E+03  0.00000000000E+00 0.  1.
         13    1    3    3    0    0  0.17545694404E+02  0.24000470542E+02 -0.73070412122E+01  0.30614813891E+02  0.00000000000E+00 0. -1.
         -2    1    1    2    0  502  0.18868046854E+02 -0.18752354463E+02  0.12266828779E+02  0.29293840279E+02  0.00000000000E+00 0.  1.
<scales pt_clust_5="13000.00000" pt_clust_6="13000.00000" pt_clust_7="13000.00000" pt_clust_8="13000.00000" pt_clust_9="26.60177"></scales>
<clustering>
<clus scale="   26.602">  1  9  2 -1</clus>
<clus scale="   83.369">  5  6 -1 -1</clus>
<clus scale="   87.135">  7  8 -1 -1</clus>
<clus scale="   91.095">  1  5  2 -1</clus>
<clus scale="   26.602">  1  5  2 -1</clus>
</clustering>
</event>
<event>
 9    2  0.1751298E-004  0.1154177E+03  0.7546771E-02  0.1253579E+00
          2   -1    0    0  502    0 -0.00000000000E+00  0.00000000000E+00  0.52703065350E+03  0.52703065350E+03  0.00000000000E+00 0. -1.
         21   -1    0    0  501  502  0.00000000000E+00 -0.00000000000E+00 -0.10704902845E+03  0.10704902845E+03  0.00000000000E+00 0.  1.
         23    2    1    2    0    0 -0.71828195446E+02  0.22968213160E+02  0.19419889216E+03  0.22687678594E+03  0.89850085193E+02 0.  0.
         24    2    1    2    0    0  0.34434842668E+02 -0.67536018877E+02 -0.52208030767E+02  0.12318983853E+03  0.81872984584E+02 0.  0.
        -11    1    4    4    0    0  0.14873517013E+01 -0.66274370786E+02 -0.59886557789E+02  0.89335906790E+02  0.00000000000E+00 0.  1.
         12    1    4    4    0    0  0.32947490967E+02 -0.12616480915E+01  0.76785270222E+01  0.33853931738E+02  0.00000000000E+00 0. -1.
        -13    1    3    3    0    0 -0.79399618893E+02  0.42747073104E+02  0.18016005752E+03  0.20146775937E+03  0.00000000000E+00 0.  1.
         13    1    3    3    0    0  0.75714234466E+01 -0.19778859944E+02  0.14038834639E+02  0.25409026579E+02  0.00000000000E+00 0. -1.
          1    1    1    2  501    0  0.37393352778E+02  0.44567805717E+02  0.27799076366E+03  0.28401305748E+03  0.00000000000E+00 0. -1.
<scales pt_clust_5="13000.00000" pt_clust_6="13000.00000" pt_clust_7="13000.00000" pt_clust_8="13000.00000" pt_clust_9="58.17693"></scales>
<clustering>
<clus scale="   58.177">  2  9  1 -1</clus>
<clus scale="   81.873">  5  6 -1 -1</clus>
<clus scale="   89.850">  7  8 -1 -1</clus>
<clus scale="  109.322">  2  5  1 -1</clus>
<clus scale="   58.177">  2  5  1 -1</clus>
</clustering>
</event>
<event>
 9    2  0.1751298E-004  0.8733827E+02  0.7546771E-02  0.1312398E+00
          2   -1    0    0  502    0 -0.00000000000E+00  0.00000000000E+00  0.94648141180E+03  0.94648141180E+03  0.00000000000E+00 0. -1.
         21   -1    0    0  501  502  0.00000000000E+00 -0.00000000000E+00 -0.16301093380E+02  0.16301093380E+02  0.00000000000E+00 0. -1.
         24    2    1    2    0    0 -0.24898920935E+02 -0.26030467826E+02  0.41072186229E+03  0.42018533702E+03  0.81029178513E+02 0.  0.
         23    2    1    2    0    0 -0.26198810085E+02  0.42745320117E+02  0.21625264256E+03  0.23466189933E+03  0.76075367506E+02 0.  0.
        -11    1    3    3    0    0  0.25175667269E+02 -0.28246900719E+02  0.20348117233E+03  0.20696929510E+03  0.00000000000E+00 0.  1.
         12    1    3    3    0    0 -0.50074588204E+02  0.22164328934E+01  0.20724068995E+03  0.21321604192E+03  0.00000000000E+00 0. -1.
        -13    1    4    4    0    0 -0.44722141524E+02  0.39364455890E+01  0.14116550075E+03  0.14813258976E+03  0.00000000000E+00 0.  1.
         13    1    4    4    0    0  0.18523331439E+02  0.38808874528E+02  0.75087141804E+02  0.86529309566E+02  0.00000000000E+00 0. -1.
          1    1    1    2  501    0  0.51097731020E+02 -0.16714852291E+02  0.30320581358E+03  0.30793526883E+03  0.00000000000E+00 0. -1.
<scales pt_clust_5="13000.00000" pt_clust_6="13000.00000" pt_clust_7="13000.00000" pt_clust_8="13000.00000" pt_clust_9="53.76214"></scales>
<clustering>
<clus scale="   53.762">  2  9  1 -1</clus>
<clus scale="   76.075">  7  8 -1 -1</clus>
<clus scale="   81.029">  5  6 -1 -1</clus>
<clus scale="   82.763">  2  7  1 -1</clus>
<clus scale="   53.762">  2  5  1 -1</clus>
</clustering>
</event>
<event>
 9    2  0.1751298E-004  0.1620431E+03  0.7546771E-02  0.1187415E+00
         21   -1    0    0  501  502  0.00000000000E+00  0.00000000000E+00  0.42672248439E+03  0.42672248439E+03  0.00000000000E+00 0. -1.
          2   -1    0    0  502    0 -0.00000000000E+00 -0.00000000000E+00 -0.15752701113E+03  0.15752701113E+03  0.00000000000E+00 0. -1.
         23    2    1    2    0    0  0.99692690869E+02 -0.62867619352E+02  0.48518408598E+02  0.15373814231E+03  0.85967495317E+02 0.  0.
         24    2    1    2    0    0 -0.19082586062E+03 -0.50110213882E+02  0.76375691873E+02  0.22583567898E+03  0.79012435569E+02 0.  0.
        -11    1    4    4    0    0 -0.36586295851E+02 -0.44535579391E+02  0.28099284794E+02  0.64121327822E+02  0.00000000000E+00 0.  1.
         12    1    4    4    0    0 -0.15423956477E+03 -0.55746344912E+01  0.48276407079E+02  0.16171435116E+03  0.00000000000E+00 0. -1.
        -11    1    3    3    0    0  0.35188456430E+02  0.50076214853E+01 -0.17055974299E+02  0.39423470143E+02  0.00000000000E+00 0. -1.
         11    1    3    3    0    0  0.64504234439E+02 -0.67875240837E+02  0.65574382896E+02  0.11431467216E+03  0.00000000000E+00 0.  1.
          1    1    1    2  501    0  0.91133169754E+02  0.11297783323E+03  0.14430137280E+03  0.20467567423E+03  0.00000000000E+00 0. -1.
<scales pt_clust_5="13000.00000" pt_clust_6="13000.00000" pt_clust_7="13000.00000" pt_clust_8="13000.00000" pt_clust_9="145.15249"></scales>
<clustering>
<clus scale="   79.012">  5  6 -1 -1</clus>
<clus scale="   85.967">  7  8 -1 -1</clus>
<clus scale="  145.152">  1  9  2 -1</clus>
<clus scale="  158.463">  1  5  2 -1</clus>
<clus scale="  145.152">  1  5  2 -1</clus>
</clustering>
</event>
<event>
 9    2  0.1751298E-004  0.1012853E+03  0.7546771E-02  0.1282070E+00
          2   -1    0    0  502    0 -0.00000000000E+00  0.00000000000E+00  0.15462736293E+03  0.15462736293E+03  0.00000000000E+00 0. -1.
         21   -1    0    0  501  502  0.00000000000E+00 -0.00000000000E+00 -0.17673454520E+03  0.17673454520E+03  0.00000000000E+00 0. -1.
         23    2    1    2    0    0  0.34972123250E+02 -0.83036600683E+01  0.49294192480E+02  0.10911702239E+03  0.90468817768E+02 0.  0.
         24    2    1    2    0    0 -0.57130402899E+02 -0.34038093678E+01  0.40745336368E+02  0.10733214053E+03  0.81145160674E+02 0.  0.
        -13    1    4    4    0    0 -0.13305495634E+02  0.32527904976E+02 -0.36617144820E+01  0.35334246407E+02  0.00000000000E+00 0.  1.
         14    1    4    4    0    0 -0.43824907265E+02 -0.35931714344E+02  0.44407050850E+02  0.71997894120E+02  0.00000000000E+00 0. -1.
        -11    1    3    3    0    0  0.59883190409E+02  0.64543341396E+01  0.52612171697E+02  0.79973092559E+02  0.00000000000E+00 0.  1.
         11    1    3    3    0    0 -0.24911067159E+02 -0.14757994208E+02 -0.33179792161E+01  0.29143929833E+02  0.00000000000E+00 0. -1.
          1    1    1    2  501    0  0.22158279649E+02  0.11707469436E+02 -0.11214671112E+03  0.11491274521E+03  0.00000000000E+00 0. -1.
<scales pt_clust_5="13000.00000" pt_clust_6="13000.00000" pt_clust_7="13000.00000" pt_clust_8="13000.00000" pt_clust_9="25.06101"></scales>
<clustering>
<clus scale="   25.061">  2  9  1 -1</clus>
<clus scale="   81.145">  5  6 -1 -1</clus>
<clus scale="   90.469">  7  8 -1 -1</clus>
<clus scale="   93.052">  2  5  1 -1</clus>
<clus scale="   25.061">  2  5  1 -1</clus>
</clustering>
</event>
<event>
 9    2  0.1751298E-004  0.1219822E+03  0.7546771E-02  0.1244045E+00
          2   -1    0    0  502    0 -0.00000000000E+00  0.00000000000E+00  0.41751860730E+02  0.41751860730E+02  0.00000000000E+00 0. -1.
         21   -1    0    0  501  502  0.00000000000E+00 -0.00000000000E+00 -0.50199346444E+03  0.50199346444E+03  0.00000000000E+00 0. -1.
         23    2    1    2    0    0 -0.43748137245E+02 -0.60726941031E+02 -0.13416890068E+03  0.17866002335E+03  0.91194567572E+02 0.  0.
         24    2    1    2    0    0  0.80757268933E+02  0.48474449561E+02 -0.21242783566E+03  0.24493974321E+03  0.77449233002E+02 0.  0.
        -11    1    4    4    0    0 -0.96928066124E+01  0.26297018624E+02 -0.38131821486E+02  0.47323561767E+02  0.00000000000E+00 0.  1.
         12    1    4    4    0    0  0.90450075545E+02  0.22177430937E+02 -0.17429601418E+03  0.19761618144E+03  0.00000000000E+00 0. -1.
        -13    1    3    3    0    0 -0.64852152379E+01  0.23327079905E+02 -0.16367114386E+02  0.29224871375E+02  0.00000000000E+00 0.  1.
         13    1    3    3    0    0 -0.37262922007E+02 -0.84054020935E+02 -0.11780178630E+03  0.14943515198E+03  0.00000000000E+00 0. -1.
          1    1    1    2  501    0 -0.37009131688E+02  0.12252491469E+02 -0.11364486736E+03  0.12014555861E+03  0.00000000000E+00 0. -1.
<scales pt_clust_5="13000.00000" pt_clust_6="13000.00000" pt_clust_7="13000.00000" pt_clust_8="13000.00000" pt_clust_9="38.98460"></scales>
<clustering>
<clus scale="   38.985">  2  9  1 -1</clus>
<clus scale="   77.449">  5  6 -1 -1</clus>
<clus scale="   91.195">  7  8 -1 -1</clus>
<clus scale="  112.078">  2  5  1 -1</clus>
<clus scale="   38.985">  2  5  1 -1</clus>
</clustering>
</event>
<event>
 9    2  0.1751298E-004  0.2197656E+03  0.7546771E-02  0.1134984E+00
         -1   -1    0    0    0  501 -0.00000000000E+00  0.00000000000E+00  0.17493662930E+03  0.17493662930E+03  0.00000000000E+00 0.  1.
         21   -1    0    0  501  502  0.00000000000E+00 -0.00000000000E+00 -0.12343535601E+04  0.12343535601E+04  0.00000000000E+00 0.  1.
         24    2    1    2    0    0 -0.33181561464E+02 -0.22227942945E+03  0.47539173235E+02  0.24320105996E+03  0.79860013755E+02 0.  0.
         23    2    1    2    0    0 -0.80970343951E+02  0.12122397211E+03 -0.31078828712E+03  0.35545600919E+03  0.92239725954E+02 0.  0.
        -13    1    3    3    0    0 -0.42459080654E+02 -0.21543438098E+03  0.29161916545E+02  0.22150657646E+03  0.00000000000E+00 0.  1.
         14    1    3    3    0    0  0.92775191902E+01 -0.68450484658E+01  0.18377256690E+02  0.21694483498E+02  0.00000000000E+00 0. -1.
        -13    1    4    4    0    0 -0.48588720752E+02  0.11414635494E+03 -0.16781884987E+03  0.20869456270E+03  0.00000000000E+00 0. -1.
         13    1    4    4    0    0 -0.32381623199E+02  0.70776171614E+01 -0.14296943725E+03  0.14676144648E+03  0.00000000000E+00 0.  1.
         -2    1    1    2    0  502  0.11415190541E+03  0.10105545734E+03 -0.79616781695E+03  0.81063312029E+03  0.00000000000E+00 0.  1.
<scales pt_clust_5="13000.00000" pt_clust_6="13000.00000" pt_clust_7="13000.00000" pt_clust_8="13000.00000" pt_clust_9="152.45610"></scales>
<clustering>
<clus scale="   79.860">  5  6 -1 -1</clus>
<clus scale="   92.240">  7  8 -1 -1</clus>
<clus scale="  152.456">  2  9  1 -1</clus>
<clus scale="  214.864">  1  5  2 -1</clus>
<clus scale="  152.456">  2  5  1 -1</clus>
</clustering>
</event>
<event>
 9    2  0.1751298E-004  0.1874080E+03  0.7546771E-02  0.1185745E+00
          4   -1    0    0  502    0 -0.00000000000E+00  0.00000000000E+00  0.90684536696E+02  0.90684536696E+02  0.00000000000E+00 0. -1.
         21   -1    0    0  501  502  0.00000000000E+00 -0.00000000000E+00 -0.10123969113E+04  0.10123969113E+04  0.00000000000E+00 0. -1.
         23    2    1    2    0    0 -0.68252046215E+01  0.49979250116E+02 -0.36954987044E+03  0.38453747264E+03  0.93581260192E+02 0.  0.
         24    2    1    2    0    0  0.16951651333E+03 -0.66856505595E+02 -0.77499757180E+02  0.21649016644E+03  0.87499366684E+02 0.  0.
        -13    1    4    4    0    0  0.43841913940E+02  0.14195053176E+02 -0.42976759739E+02  0.63012814810E+02  0.00000000000E+00 0.  1.
         14    1    4    4    0    0  0.12567459939E+03 -0.81051558771E+02 -0.34522997442E+02  0.15347735163E+03  0.00000000000E+00 0. -1.
        -11    1    3    3    0    0  0.17025382469E+02  0.62113088926E+02 -0.33338456125E+03  0.33954847246E+03  0.00000000000E+00 0. -1.
         11    1    3    3    0    0 -0.23850587090E+02 -0.12133838810E+02 -0.36165309187E+02  0.44989000182E+02  0.00000000000E+00 0.  1.
          3    1    1    2  501    0 -0.16269130871E+03  0.16877255479E+02 -0.47466274700E+03  0.50205380894E+03  0.00000000000E+00 0. -1.
<scales pt_clust_5="13000.00000" pt_clust_6="13000.00000" pt_clust_7="13000.00000" pt_clust_8="13000.00000" pt_clust_9="165.72750"></scales>
<clustering>
<clus scale="   87.499">  5  6 -1 -1</clus>
<clus scale="   93.581">  7  8 -1 -1</clus>
<clus scale="  106.311">  1  7  2 -1</clus>
<clus scale="  165.727">  2  9  1 -1</clus>
<clus scale="  165.727">  2  5  1 -1</clus>
</clustering>
</event>
<event>
 9    2  0.1751298E-004  0.1450149E+03  0.7546771E-02  0.1207865E+00
          2   -1    0    0  502    0 -0.00000000000E+00  0.00000000000E+00  0.82248013972E+02  0.82248013972E+02  0.00000000000E+00 0. -1.
         21   -1    0    0  501  502  0.00000000000E+00 -0.00000000000E+00 -0.47667513225E+03  0.47667513225E+03  0.00000000000E+00 0.  1.
         24    2    1    2    0    0 -0.11840963205E+03 -0.19654960820E+02 -0.18079010937E+02  0.14892497404E+03  0.86282320382E+02 0.  0.
         23    2    1    2    0    0  0.81982162570E+02  0.86174841992E+01 -0.30715955325E+03  0.33103082171E+03  0.91864453164E+02 0.  0.
        -13    1    3    3    0    0 -0.56704066341E+02 -0.18779133841E+02 -0.51389948441E+02  0.78796788057E+02  0.00000000000E+00 0.  1.
         14    1    3    3    0    0 -0.61705565709E+02 -0.87582697878E+00  0.33310937504E+02  0.70128185987E+02  0.00000000000E+00 0. -1.
        -13    1    4    4    0    0 -0.20131854823E+02  0.27232053045E+01 -0.66586090577E+02  0.69616196995E+02  0.00000000000E+00 0. -1.
         13    1    4    4    0    0  0.10211401739E+03  0.58942788947E+01 -0.24057346268E+03  0.26141462472E+03  0.00000000000E+00 0.  1.
          1    1    1    2  501    0  0.36427469480E+02  0.11037476620E+02 -0.69188554087E+02  0.78967350465E+02  0.00000000000E+00 0. -1.
<scales pt_clust_5="13000.00000" pt_clust_6="13000.00000" pt_clust_7="13000.00000" pt_clust_8="13000.00000" pt_clust_9="38.06293"></scales>
<clustering>
<clus scale="   38.063">  2  9  1 -1</clus>
<clus scale="   86.282">  5  6 -1 -1</clus>
<clus scale="   91.864">  7  8 -1 -1</clus>
<clus scale="  141.545">  1  5  2 -1</clus>
<clus scale="   38.063">  2  5  1 -1</clus>
</clustering>
</event>
<event>
 9    2  0.1751298E-004  0.1403230E+03  0.7546771E-02  0.1215835E+00
          2   -1    0    0  502    0 -0.00000000000E+00  0.00000000000E+00  0.69454412303E+03  0.69454412303E+03  0.00000000000E+00 0. -1.
         21   -1    0    0  501  502  0.00000000000E+00 -0.00000000000E+00 -0.88116476874E+02  0.88116476874E+02  0.00000000000E+00 0. -1.
         24    2    1    2    0    0 -0.10161149492E+03 -0.16960917550E+02  0.54146606406E+03  0.55681122998E+03  0.78997966295E+02 0.  0.
         23    2    1    2    0    0  0.11210375280E+03  0.53789086198E+02  0.90859243500E+02  0.17962069541E+03  0.92453636503E+02 0.  0.
        -13    1    3    3    0    0 -0.61447099835E+02 -0.47653592570E+02  0.36823071425E+03  0.37635152435E+03  0.00000000000E+00 0.  1.
         14    1    3    3    0    0 -0.40164395084E+02  0.30692675020E+02  0.17323534981E+03  0.18045970563E+03  0.00000000000E+00 0. -1.
        -13    1    4    4    0    0 -0.10454663803E+01  0.38434496168E+02  0.37035630120E+02  0.53384842362E+02  0.00000000000E+00 0. -1.
         13    1    4    4    0    0  0.11314921918E+03  0.15354590030E+02  0.53823613380E+02  0.12623585304E+03  0.00000000000E+00 0.  1.
          1    1    1    2  501    0 -0.10492257883E+02 -0.36828168647E+02 -0.25897661405E+02  0.46228674517E+02  0.00000000000E+00 0. -1.
<scales pt_clust_5="13000.00000" pt_clust_6="13000.00000" pt_clust_7="13000.00000" pt_clust_8="13000.00000" pt_clust_9="38.29362"></scales>
<clustering>
<clus scale="   38.294">  2  9  1 -1</clus>
<clus scale="   78.998">  5  6 -1 -1</clus>
<clus scale="   92.454">  7  8 -1 -1</clus>
<clus scale="  131.847">  1  5  2 -1</clus>
<clus scale="   38.294">  2  5  1 -1</clus>
</clustering>
</event>
<event>
 9    2  0.1751298E-004  0.9215717E+02  0.7546771E-02  0.1306255E+00
          2   -1    0    0  502    0 -0.00000000000E+00  0.00000000000E+00  0.57173731322E+02  0.57173731322E+02  0.00000000000E+00 0. -1.
         21   -1    0    0  501  502  0.00000000000E+00 -0.00000000000E+00 -0.27785017819E+03  0.27785017819E+03  0.00000000000E+00 0.  1.
         24    2    1    2    0    0 -0.13934604862E+02  0.13487652798E+02  0.13116913922E+01  0.79126936644E+02  0.76702422242E+02 0.  0.
         23    2    1    2    0    0  0.24336247373E+02  0.15492503299E+02 -0.18372400546E+03  0.20678294765E+03  0.90401364268E+02 0.  0.
        -13    1    3    3    0    0 -0.12865880666E+02  0.44855709508E+02 -0.55683721788E+01  0.46995450094E+02  0.00000000000E+00 0.  1.
         14    1    3    3    0    0 -0.10687241962E+01 -0.31368056710E+02  0.68800635710E+01  0.32131486550E+02  0.00000000000E+00 0. -1.
        -13    1    4    4    0    0  0.22436823596E+02 -0.14402268793E+02 -0.70368207944E+01  0.27574503556E+02  0.00000000000E+00 0. -1.
         13    1    4    4    0    0  0.18994237770E+01  0.29894772093E+02 -0.17668718467E+03  0.17920844410E+03  0.00000000000E+00 0.  1.
          1    1    1    2  501    0 -0.10401642511E+02 -0.28980156097E+02 -0.38264132800E+02  0.49114025219E+02  0.00000000000E+00 0. -1.
<scales pt_clust_5="13000.00000" pt_clust_6="13000.00000" pt_clust_7="13000.00000" pt_clust_8="13000.00000" pt_clust_9="30.79032"></scales>
<clustering>
<clus scale="   30.790">  2  9  1 -1</clus>
<clus scale="   76.702">  5  6 -1 -1</clus>
<clus scale="   78.764">  1  5  2 -1</clus>
<clus scale="   90.401">  7  8 -1 -1</clus>
<clus scale="   30.790">  2  5  1 -1</clus>
</clustering>
</event>
<event>
 9    2  0.1751298E-004  0.9832878E+02  0.7546771E-02  0.1292790E+00
         21   -1    0    0  501  502  0.00000000000E+00  0.00000000000E+00  0.19758753682E+02  0.19758753682E+02  0.00000000000E+00 0.  1.
          2   -1    0    0  502    0 -0.00000000000E+00 -0.00000000000E+00 -0.66871447944E+03  0.66871447944E+03  0.00000000000E+00 0. -1.
         24    2    1    2    0    0  0.28011220475E+02 -0.21674234162E+02 -0.32627189571E+03  0.33703136027E+03  0.76696720743E+02 0.  0.
         23    2    1    2    0    0 -0.39625365268E+01  0.33244631489E+02 -0.30178464150E+03  0.31754512705E+03  0.92951765189E+02 0.  0.
        -11    1    3    3    0    0  0.26119131406E+02  0.25026213690E+02 -0.11105644514E+03  0.11679920549E+03  0.00000000000E+00 0.  1.
         12    1    3    3    0    0  0.18920890686E+01 -0.46700447852E+02 -0.21521545057E+03  0.22023215477E+03  0.00000000000E+00 0. -1.
        -13    1    4    4    0    0  0.31788342204E+02  0.37427652267E+02 -0.88197021619E+02  0.10094574026E+03  0.00000000000E+00 0. -1.
         13    1    4    4    0    0 -0.35750878730E+02 -0.41830207776E+01 -0.21358761988E+03  0.21659938679E+03  0.00000000000E+00 0.  1.
          1    1    1    2  501    0 -0.24048683948E+02 -0.11570397327E+02 -0.20899188543E+02  0.33896745798E+02  0.00000000000E+00 0. -1.
<scales pt_clust_5="13000.00000" pt_clust_6="13000.00000" pt_clust_7="13000.00000" pt_clust_8="13000.00000" pt_clust_9="26.68732"></scales>
<clustering>
<clus scale="   26.687">  1  9  2 -1</clus>
<clus scale="   76.697">  5  6 -1 -1</clus>
<clus scale="   83.132">  2  5  1 -1</clus>
<clus scale="   92.952">  7  8 -1 -1</clus>
<clus scale="   26.687">  1  5  2 -1</clus>
</clustering>
</event>
<event>
 9    2  0.1751298E-004  0.1078564E+03  0.7546771E-02  0.1267378E+00
         21   -1    0    0  501  502  0.00000000000E+00  0.00000000000E+00  0.16578583545E+03  0.16578583545E+03  0.00000000000E+00 0.  1.
          2   -1    0    0  502    0 -0.00000000000E+00 -0.00000000000E+00 -0.12801382488E+03  0.12801382488E+03  0.00000000000E+00 0. -1.
         23    2    1    2    0    0 -0.38981586907E+01  0.63969289358E+02 -0.54712246032E+02  0.12436285200E+03  0.91462688947E+02 0.  0.
         24    2    1    2    0    0  0.29987927236E+02 -0.38743648046E+02  0.40134687112E+02  0.10573840624E+03  0.84672731151E+02 0.  0.
        -13    1    4    4    0    0  0.16285085846E+02 -0.48723739471E+02  0.60416217880E+02  0.79305272158E+02  0.00000000000E+00 0.  1.
         14    1    4    4    0    0  0.13702841390E+02  0.99800914252E+01 -0.20281530769E+02  0.26433134081E+02  0.00000000000E+00 0. -1.
        -13    1    3    3    0    0 -0.15637369078E+02 -0.20153522692E+02 -0.20766327242E+02  0.32892736823E+02  0.00000000000E+00 0.  1.
         13    1    3    3    0    0  0.11739210387E+02  0.84122812050E+02 -0.33945918790E+02  0.91470115176E+02  0.00000000000E+00 0. -1.
          1    1    1    2  501    0 -0.26089768545E+02 -0.25225641312E+02  0.52349569493E+02  0.63698402087E+02  0.00000000000E+00 0. -1.
<scales pt_clust_5="13000.00000" pt_clust_6="13000.00000" pt_clust_7="13000.00000" pt_clust_8="13000.00000" pt_clust_9="36.29062"></scales>
<clustering>
<clus scale="   36.291">  1  9  2 -1</clus>
<clus scale="   84.673">  5  6 -1 -1</clus>
<clus scale="   91.463">  7  8 -1 -1</clus>
<clus scale="  102.162">  1  5  2 -1</clus>
<clus scale="   36.291">  1  5  2 -1</clus>
</clustering>
</event>
<event>
 9    2  0.1751298E-004  0.1450150E+03  0.7546771E-02  0.1208979E+00
         21   -1    0    0  501  502  0.00000000000E+00  0.00000000000E+00  0.41656029968E+02  0.41656029968E+02  0.00000000000E+00 0. -1.
          2   -1    0    0  502    0 -0.00000000000E+00 -0.00000000000E+00 -0.12256826072E+04  0.12256826072E+04  0.00000000000E+00 0. -1.
         23    2    1    2    0    0 -0.19110804567E+02 -0.13409746090E+03 -0.82407125252E+03  0.84014765480E+03  0.91691334205E+02 0.  0.
         24    2    1    2    0    0  0.42410924173E+02  0.76418811932E+02 -0.34258376517E+03  0.36260388457E+03  0.80494842335E+02 0.  0.
        -13    1    4    4    0    0 -0.50648126748E+01  0.43657992658E+02 -0.24765151211E+03  0.25152125974E+03  0.00000000000E+00 0.  1.
         14    1    4    4    0    0  0.47475736847E+02  0.32760819274E+02 -0.94932253056E+02  0.11108262483E+03  0.00000000000E+00 0. -1.
        -13    1    3    3    0    0 -0.24737199419E+02  0.42405683728E+01 -0.12202278769E+03  0.12457717356E+03  0.00000000000E+00 0.  1.
         13    1    3    3    0    0  0.56263948515E+01 -0.13833802928E+03 -0.70204846483E+03  0.71557048125E+03  0.00000000000E+00 0. -1.
          1    1    1    2  501    0 -0.23300119605E+02  0.57678648973E+02 -0.17371559547E+02  0.64587097798E+02  0.00000000000E+00 0. -1.
<scales pt_clust_5="13000.00000" pt_clust_6="13000.00000" pt_clust_7="13000.00000" pt_clust_8="13000.00000" pt_clust_9="62.20709"></scales>
<clustering>
<clus scale="   62.207">  1  9  2 -1</clus>
<clus scale="   80.495">  5  6 -1 -1</clus>
<clus scale="   91.691">  7  8 -1 -1</clus>
<clus scale="  138.208">  1  5  2 -1</clus>
<clus scale="   62.207">  1  5  2 -1</clus>
</clustering>
</event>
<event>
 9    2  0.1751298E-004  0.1551026E+03  0.7546771E-02  0.1195679E+00
         21   -1    0    0  501  502  0.00000000000E+00  0.00000000000E+00  0.24276304858E+03  0.24276304858E+03  0.00000000000E+00 0.  1.
         -1   -1    0    0    0  501 -0.00000000000E+00 -0.00000000000E+00 -0.39933501631E+03  0.39933501631E+03  0.00000000000E+00 0.  1.
         24    2    1    2    0    0  0.12676340570E+03 -0.39589977646E+02 -0.32326410394E+03  0.35852780899E+03  0.80038625455E+02 0.  0.
         23    2    1    2    0    0 -0.95808185342E+02  0.40014533953E+02  0.24956171394E+02  0.13849272615E+03  0.88187603439E+02 0.  0.
        -13    1    3    3    0    0  0.13671635929E+03 -0.28853023876E+02 -0.30141480404E+03  0.33222694650E+03  0.00000000000E+00 0.  1.
         14    1    3    3    0    0 -0.99529535912E+01 -0.10736953771E+02 -0.21849299902E+02  0.26300862489E+02  0.00000000000E+00 0. -1.
        -13    1    4    4    0    0 -0.48816393785E+02  0.49344665120E+02  0.48926234619E+02  0.84921803513E+02  0.00000000000E+00 0. -1.
         13    1    4    4    0    0 -0.46991791557E+02 -0.93301311667E+01 -0.23970063225E+02  0.53570922639E+02  0.00000000000E+00 0.  1.
         -2    1    1    2    0  502 -0.30955220358E+02 -0.42455630668E+00  0.14173596482E+03  0.14507752975E+03  0.00000000000E+00 0.  1.
<scales pt_clust_5="13000.00000" pt_clust_6="13000.00000" pt_clust_7="13000.00000" pt_clust_8="13000.00000" pt_clust_9="30.95813"></scales>
<clustering>
<clus scale="   30.958">  1  9  2 -1</clus>
<clus scale="   80.039">  5  6 -1 -1</clus>
<clus scale="   88.188">  7  8 -1 -1</clus>
<clus scale="  150.619">  2  5  1 -1</clus>
<clus scale="   30.958">  1  5  2 -1</clus>
</clustering>
</event>
<event>
 9    2  0.1751298E-004  0.9145095E+02  0.7546771E-02  0.1307425E+00
         21   -1    0    0  501  502  0.00000000000E+00  0.00000000000E+00  0.13860296169E+02  0.13860296169E+02  0.00000000000E+00 0.  1.
          2   -1    0    0  502    0 -0.00000000000E+00 -0.00000000000E+00 -0.86208995078E+03  0.86208995078E+03  0.00000000000E+00 0. -1.
         24    2    1    2    0    0  0.21569665185E+02  0.35516020541E+01 -0.47668217653E+03  0.48330454623E+03  0.76678045453E+02 0.  0.
         23    2    1    2    0    0 -0.76113888016E+00 -0.25935396549E+02 -0.23710331765E+03  0.25477162303E+03  0.89539781863E+02 0.  0.
        -13    1    3    3    0    0  0.38327707587E+02  0.27203428161E+02 -0.21835194101E+03  0.22335310568E+03  0.00000000000E+00 0.  1.
         14    1    3    3    0    0 -0.16758042403E+02 -0.23651826107E+02 -0.25833023551E+03  0.25995144055E+03  0.00000000000E+00 0. -1.
        -11    1    4    4    0    0 -0.26113722504E+02  0.21209810706E+02 -0.13901209636E+03  0.14302498211E+03  0.00000000000E+00 0. -1.
         11    1    4    4    0    0  0.25352583623E+02 -0.47145207255E+02 -0.98091221286E+02  0.11174664092E+03  0.00000000000E+00 0.  1.
          1    1    1    2  501    0 -0.20808526305E+02  0.22383794495E+02 -0.13444416044E+03  0.13787407769E+03  0.00000000000E+00 0. -1.
<scales pt_clust_5="13000.00000" pt_clust_6="13000.00000" pt_clust_7="13000.00000" pt_clust_8="13000.00000" pt_clust_9="30.56190"></scales>
<clustering>
<clus scale="   30.562">  1  9  2 -1</clus>
<clus scale="   76.678">  5  6 -1 -1</clus>
<clus scale="   78.901">  2  5  1 -1</clus>
<clus scale="   89.540">  7  8 -1 -1</clus>
<clus scale="   30.562">  1  5  2 -1</clus>
</clustering>
</event>
<event>
 9    2  0.1751298E-004  0.2368512E+03  0.7546771E-02  0.1157306E+00
         21   -1    0    0  501  502  0.00000000000E+00  0.00000000000E+00  0.20644894227E+03  0.20644894227E+03  0.00000000000E+00 0. -1.
          2   -1    0    0  502    0 -0.00000000000E+00 -0.00000000000E+00 -0.53806010928E+03  0.53806010928E+03  0.00000000000E+00 0. -1.
         24    2    1    2    0    0  0.59868013971E+02  0.12959233631E+02 -0.21625983662E+03  0.23858285227E+03  0.80008372259E+02 0.  0.
         23    2    1    2    0    0  0.18843793482E+03  0.60391828019E+02  0.98188090508E+01  0.21834353940E+03  0.91768534995E+02 0.  0.
        -11    1    3    3    0    0 -0.17707001332E+02  0.13751395940E+02 -0.37104501957E+02  0.43351849464E+02  0.00000000000E+00 0.  1.
         12    1    3    3    0    0  0.77575015303E+02 -0.79216230922E+00 -0.17915533466E+03  0.19523100281E+03  0.00000000000E+00 0. -1.
        -11    1    4    4    0    0  0.31522608103E+02 -0.24105631244E+02 -0.19903264312E+01  0.39733080406E+02  0.00000000000E+00 0.  1.
         11    1    4    4    0    0  0.15691532672E+03  0.84497459263E+02  0.11809135482E+02  0.17861045899E+03  0.00000000000E+00 0. -1.
          1    1    1    2  501    0 -0.24830594879E+03 -0.73351061650E+02 -0.12517013944E+03  0.28758265987E+03  0.00000000000E+00 0. -1.
<scales pt_clust_5="13000.00000" pt_clust_6="13000.00000" pt_clust_7="13000.00000" pt_clust_8="13000.00000" pt_clust_9="218.35081"></scales>
<clustering>
<clus scale="   80.008">  5  6 -1 -1</clus>
<clus scale="   91.769">  7  8 -1 -1</clus>
<clus scale="  100.764">  2  5  1 -1</clus>
<clus scale="  218.351">  1  9  2 -1</clus>
<clus scale="  218.351">  1  5  2 -1</clus>
</clustering>
</event>
<event>
 9    2  0.1751298E-004  0.2451565E+03  0.7546771E-02  0.1160470E+00
          2   -1    0    0  502    0 -0.00000000000E+00  0.00000000000E+00  0.14139189781E+04  0.14139189781E+04  0.00000000000E+00 0. -1.
         21   -1    0    0  501  502  0.00000000000E+00 -0.00000000000E+00 -0.67065693737E+02  0.67065693737E+02  0.00000000000E+00 0. -1.
         24    2    1    2    0    0  0.93008119509E+01 -0.64196710172E+02  0.51236724504E+03  0.51927254282E+03  0.54000529978E+02 0.  0.
         23    2    1    2    0    0  0.18913605499E+03 -0.83664418663E+02  0.46550981593E+03  0.51743343606E+03  0.90916388940E+02 0.  0.
        -13    1    3    3    0    0 -0.61639086385E+01 -0.25306004531E+02  0.66090865904E+02  0.71037948950E+02  0.00000000000E+00 0.  1.
         14    1    3    3    0    0  0.15464720589E+02 -0.38890705641E+02  0.44627637914E+03  0.44823459387E+03  0.00000000000E+00 0. -1.
        -13    1    4    4    0    0  0.63490982959E+02 -0.40611630422E+02  0.81045357884E+02  0.11067411385E+03  0.00000000000E+00 0.  1.
         13    1    4    4    0    0  0.12564507203E+03 -0.43052788241E+02  0.38446445805E+03  0.40675932221E+03  0.00000000000E+00 0. -1.
          1    1    1    2  501    0 -0.19843686694E+03  0.14786112884E+03  0.36897622334E+03  0.44427869291E+03  0.00000000000E+00 0. -1.
<scales pt_clust_5="13000.00000" pt_clust_6="13000.00000" pt_clust_7="13000.00000" pt_clust_8="13000.00000" pt_clust_9="227.67508"></scales>
<clustering>
<clus scale="   54.001">  5  6 -1 -1</clus>
<clus scale="   84.402">  1  5  2 -1</clus>
<clus scale="   90.916">  7  8 -1 -1</clus>
<clus scale="  227.675">  2  9  1 -1</clus>
<clus scale="  227.675">  2  5  1 -1</clus>
</clustering>
</event>
<event>
 9    2  0.1751298E-004  0.1293782E+03  0.7546771E-02  0.1236027E+00
         21   -1    0    0  501  502  0.00000000000E+00  0.00000000000E+00  0.78332568992E+02  0.78332568992E+02  0.00000000000E+00 0. -1.
          2   -1    0    0  502    0 -0.00000000000E+00 -0.00000000000E+00 -0.43861479518E+03  0.43861479518E+03  0.00000000000E+00 0. -1.
         23    2    1    2    0    0 -0.65797308190E+01  0.52873978348E+02 -0.80851808913E+02  0.13695905229E+03  0.96859777798E+02 0.  0.
         24    2    1    2    0    0 -0.69669492499E+02  0.27253399223E+02 -0.23692426073E+03  0.26149310507E+03  0.81541110640E+02 0.  0.
        -11    1    4    4    0    0 -0.33733459406E+02  0.92646882070E+01 -0.18832371757E+02  0.39729572828E+02  0.00000000000E+00 0.  1.
         12    1    4    4    0    0 -0.35936033092E+02  0.17988711016E+02 -0.21809188897E+03  0.22176353224E+03  0.00000000000E+00 0. -1.
        -11    1    3    3    0    0 -0.21678320694E+02 -0.55691366241E+01  0.12617169132E+02  0.25693536692E+02  0.00000000000E+00 0.  1.
         11    1    3    3    0    0  0.15098589875E+02  0.58443114972E+02 -0.93468978045E+02  0.11126551560E+03  0.00000000000E+00 0. -1.
          1    1    1    2  501    0  0.76249223318E+02 -0.80127377571E+02 -0.42506156545E+02  0.11849520681E+03  0.00000000000E+00 0. -1.
<scales pt_clust_5="13000.00000" pt_clust_6="13000.00000" pt_clust_7="13000.00000" pt_clust_8="13000.00000" pt_clust_9="100.44789"></scales>
<clustering>
<clus scale="   81.541">  5  6 -1 -1</clus>
<clus scale="   96.860">  7  8 -1 -1</clus>
<clus scale="  110.548">  2  7  1 -1</clus>
<clus scale="  100.448">  1  9  2 -1</clus>
<clus scale="  100.448">  1  5  2 -1</clus>
</clustering>
</event>
<event>
 9    2  0.1751298E-004  0.9384303E+02  0.7546771E-02  0.1300827E+00
         21   -1    0    0  501  502  0.00000000000E+00  0.00000000000E+00  0.49262391557E+02  0.49262391557E+02  0.00000000000E+00 0. -1.
         -1   -1    0    0    0  501 -0.00000000000E+00 -0.00000000000E+00 -0.44045190970E+03  0.44045190970E+03  0.00000000000E+00 0.  1.
         23    2    1    2    0    0 -0.17994510812E+01  0.44290623799E+01 -0.13250545522E+03  0.16169154099E+03  0.92539743603E+02 0.  0.
         24    2    1    2    0    0 -0.44868750373E+02 -0.18620058612E+02 -0.37548626825E+02  0.10157147081E+03  0.80913243432E+02 0.  0.
        -13    1    4    4    0    0 -0.21288683741E+02  0.20138941518E+02 -0.46849214395E+02  0.55259695171E+02  0.00000000000E+00 0.  1.
         14    1    4    4    0    0 -0.23580066632E+02 -0.38759000130E+02  0.93005875701E+01  0.46311775636E+02  0.00000000000E+00 0. -1.
        -13    1    3    3    0    0  0.40647671122E+02  0.22338964774E+02 -0.71921959434E+02  0.85580551317E+02  0.00000000000E+00 0.  1.
         13    1    3    3    0    0 -0.42447122203E+02 -0.17909902394E+02 -0.60583495789E+02  0.76110989674E+02  0.00000000000E+00 0. -1.
         -2    1    1    2    0  502  0.46668201454E+02  0.14190996232E+02 -0.22113543609E+03  0.22645128946E+03  0.00000000000E+00 0.  1.
<scales pt_clust_5="13000.00000" pt_clust_6="13000.00000" pt_clust_7="13000.00000" pt_clust_8="13000.00000" pt_clust_9="48.77815"></scales>
<clustering>
<clus scale="   48.778">  1  9  2 -1</clus>
<clus scale="   80.913">  5  6 -1 -1</clus>
<clus scale="   82.401">  1  5  2 -1</clus>
<clus scale="   92.540">  7  8 -1 -1</clus>
<clus scale="   48.778">  1  5  2 -1</clus>
</clustering>
</event>
<event>
 9    2  0.1751298E-004  0.1162648E+03  0.7546771E-02  0.1253839E+00
         21   -1    0    0  501  502  0.00000000000E+00  0.00000000000E+00  0.38152191109E+03  0.38152191109E+03  0.00000000000E+00 0.  1.
         -3   -1    0    0    0  501 -0.00000000000E+00 -0.00000000000E+00 -0.50712494792E+02  0.50712494792E+02  0.00000000000E+00 0.  1.
         23    2    1    2    0    0  0.40894657707E+02 -0.39180664959E+02  0.10916633564E+03  0.15320019245E+03  0.91353777126E+02 0.  0.
         24    2    1    2    0    0 -0.44374853921E+02  0.78202401806E+02  0.11617259998E+03  0.16652274731E+03  0.78415617567E+02 0.  0.
        -13    1    4    4    0    0 -0.29447377908E+02  0.42212736413E+02  0.86918840892E+01  0.52197816335E+02  0.00000000000E+00 0.  1.
         14    1    4    4    0    0 -0.14927476013E+02  0.35989665393E+02  0.10748071589E+03  0.11432493098E+03  0.00000000000E+00 0. -1.
        -11    1    3    3    0    0  0.46204506949E+02  0.18326846272E+02  0.52190165666E+02  0.72073179123E+02  0.00000000000E+00 0.  1.
         11    1    3    3    0    0 -0.53098492423E+01 -0.57507511231E+02  0.56976169970E+02  0.81127013327E+02  0.00000000000E+00 0. -1.
         -4    1    1    2    0  502  0.34801962136E+01 -0.39021736847E+02  0.10547048069E+03  0.11251146612E+03  0.00000000000E+00 0.  1.
<scales pt_clust_5="13000.00000" pt_clust_6="13000.00000" pt_clust_7="13000.00000" pt_clust_8="13000.00000" pt_clust_9="39.17662"></scales>
<clustering>
<clus scale="   39.177">  1  9  2 -1</clus>
<clus scale="   78.416">  5  6 -1 -1</clus>
<clus scale="   91.354">  7  8 -1 -1</clus>
<clus scale="  106.400">  1  5  2 -1</clus>
<clus scale="   39.177">  1  5  2 -1</clus>
</clustering>
</event>
<event>
 9    2  0.1751298E-004  0.1025451E+03  0.7546771E-02  0.1279113E+00
         21   -1    0    0  501  502  0.00000000000E+00  0.00000000000E+00  0.11516167298E+03  0.11516167298E+03  0.00000000000E+00 0.  1.
          2   -1    0    0  502    0 -0.00000000000E+00 -0.00000000000E+00 -0.43222204022E+03  0.43222204022E+03  0.00000000000E+00 0. -1.
         23    2    1    2    0    0  0.11792626851E+01 -0.43742520397E+02 -0.36226550883E+03  0.37605279141E+03  0.90909869043E+02 0.  0.
         24    2    1    2    0    0  0.13530012994E+02  0.79740145767E+02  0.49738270099E+01  0.11537781199E+03  0.82132505414E+02 0.  0.
        -11    1    4    4    0    0 -0.32100664021E+02  0.20643011141E+02  0.12919709212E+02  0.40292746564E+02  0.00000000000E+00 0.  1.
         12    1    4    4    0    0  0.45630677015E+02  0.59097134627E+02 -0.79458822021E+01  0.75085065425E+02  0.00000000000E+00 0. -1.
        -13    1    3    3    0    0 -0.33708626360E+02  0.19026863702E+01 -0.64567952383E+02  0.72862282297E+02  0.00000000000E+00 0.  1.
         13    1    3    3    0    0  0.34887889046E+02 -0.45645206767E+02 -0.29769755644E+03  0.30319050911E+03  0.00000000000E+00 0. -1.
          1    1    1    2  501    0 -0.14709275679E+02 -0.35997625371E+02  0.40231314585E+02  0.55953109802E+02  0.00000000000E+00 0. -1.
<scales pt_clust_5="13000.00000" pt_clust_6="13000.00000" pt_clust_7="13000.00000" pt_clust_8="13000.00000" pt_clust_9="38.88691"></scales>
<clustering>
<clus scale="   38.887">  1  9  2 -1</clus>
<clus scale="   82.133">  5  6 -1 -1</clus>
<clus scale="   90.910">  7  8 -1 -1</clus>
<clus scale="   94.851">  1  5  2 -1</clus>
<clus scale="   38.887">  1  5  2 -1</clus>
</clustering>
</event>
<event>
 9    2  0.1751298E-004  0.4267849E+03  0.7546771E-02  0.1035072E+00
         -3   -1    0    0    0  501 -0.00000000000E+00  0.00000000000E+00  0.17129777424E+04  0.17129777424E+04  0.00000000000E+00 0.  1.
         21   -1    0    0  501  502  0.00000000000E+00 -0.00000000000E+00 -0.12245371827E+03  0.12245371827E+03  0.00000000000E+00 0. -1.
         23    2    1    2    0    0 -0.40667067770E+03 -0.11127733998E+02  0.90212688121E+03  0.99398811318E+03  0.93137493962E+02 0.  0.
         24    2    1    2    0    0  0.42958183525E+03  0.15744387122E+02  0.69106132675E+03  0.81792032680E+03  0.81482910885E+02 0.  0.
        -11    1    4    4    0    0  0.20560955969E+03 -0.33134094818E+02  0.32517641232E+03  0.38615134132E+03  0.00000000000E+00 0.  1.
         12    1    4    4    0    0  0.22397227555E+03  0.48878481940E+02  0.36588491443E+03  0.43176898548E+03  0.00000000000E+00 0. -1.
        -11    1    3    3    0    0 -0.23475105808E+03  0.34580705548E+02  0.46480133638E+03  0.52186604293E+03  0.00000000000E+00 0.  1.
         11    1    3    3    0    0 -0.17191961962E+03 -0.45708439546E+02  0.43732554483E+03  0.47212207025E+03  0.00000000000E+00 0. -1.
         -4    1    1    2    0  502 -0.22911157549E+02 -0.46166531233E+01 -0.26641838375E+01  0.23523020678E+02  0.00000000000E+00 0.  1.
<scales pt_clust_5="13000.00000" pt_clust_6="13000.00000" pt_clust_7="13000.00000" pt_clust_8="13000.00000" pt_clust_9="23.37166"></scales>
<clustering>
<clus scale="   23.372">  2  9  1 -1</clus>
<clus scale="   81.483">  5  6 -1 -1</clus>
<clus scale="   93.137">  7  8 -1 -1</clus>
<clus scale="  424.394">  2  5  1 -1</clus>
<clus scale="   23.372">  2  5  1 -1</clus>
</clustering>
</event>
<event>
 9    2  0.1751298E-004  0.1831426E+03  0.7546771E-02  0.1166380E+00
          2   -1    0    0  502    0 -0.00000000000E+00  0.00000000000E+00  0.17348063230E+04  0.17348063230E+04  0.00000000000E+00 0. -1.
         21   -1    0    0  501  502  0.00000000000E+00 -0.00000000000E+00 -0.31527371396E+02  0.31527371396E+02  0.00000000000E+00 0. -1.
         24    2    1    2    0    0  0.85993779725E+02  0.15307357380E+03  0.11271491078E+04  0.11435999160E+04  0.80803512574E+02 0.  0.
         23    2    1    2    0    0 -0.28590233239E+02 -0.12839310028E+03  0.49201752220E+03  0.51795221714E+03  0.94292457069E+02 0.  0.
        -11    1    3    3    0    0  0.44143294897E+02  0.62467950089E+02  0.26891215246E+03  0.27957936442E+03  0.00000000000E+00 0.  1.
         12    1    3    3    0    0  0.41850484827E+02  0.90605623709E+02  0.85823695530E+03  0.86402055159E+03  0.00000000000E+00 0. -1.
        -13    1    4    4    0    0 -0.37624587558E+01 -0.13397500295E+03  0.44137180797E+03  0.46127272885E+03  0.00000000000E+00 0. -1.
         13    1    4    4    0    0 -0.24827774483E+02  0.55819026799E+01  0.50645714226E+02  0.56679488290E+02  0.00000000000E+00 0.  1.
          1    1    1    2  501    0 -0.57403546486E+02 -0.24680473524E+02  0.84112321658E+02  0.10478156125E+03  0.00000000000E+00 0. -1.
<scales pt_clust_5="13000.00000" pt_clust_6="13000.00000" pt_clust_7="13000.00000" pt_clust_8="13000.00000" pt_clust_9="62.48434"></scales>
<clustering>
<clus scale="   62.484">  2  9  1 -1</clus>
<clus scale="   80.804">  5  6 -1 -1</clus>
<clus scale="   94.292">  7  8 -1 -1</clus>
<clus scale="  176.577">  1  5  2 -1</clus>
<clus scale="   62.484">  2  5  1 -1</clus>
</clustering>
</event>
<event>
 9    2  0.1751298E-004  0.1150846E+03  0.7546771E-02  0.1254719E+00
         21   -1    0    0  501  502  0.00000000000E+00  0.00000000000E+00  0.43983359949E+03  0.43983359949E+03  0.00000000000E+00 0. -1.
         -1   -1    0    0    0  501 -0.00000000000E+00 -0.00000000000E+00 -0.45956204954E+02  0.45956204954E+02  0.00000000000E+00 0.  1.
         24    2    1    2    0    0 -0.48867842714E+02  0.60722601933E+02  0.94483158395E+02  0.14728979364E+03  0.81804129796E+02 0.  0.
         23    2    1    2    0    0  0.57222242558E+02 -0.26680542854E+02  0.15941548551E+03  0.19419925402E+03  0.91180133960E+02 0.  0.
        -13    1    3    3    0    0 -0.72070389775E+02  0.45434985663E+02  0.72054889607E+02  0.11158129826E+03  0.00000000000E+00 0.  1.
         14    1    3    3    0    0  0.23202547061E+02  0.15287616269E+02  0.22428268788E+02  0.35708495378E+02  0.00000000000E+00 0. -1.
        -13    1    4    4    0    0  0.20319309107E+02 -0.52144275521E+02  0.12727005801E+03  0.13903081478E+03  0.00000000000E+00 0.  1.
         13    1    4    4    0    0  0.36902933451E+02  0.25463732667E+02  0.32145427503E+02  0.55168439238E+02  0.00000000000E+00 0. -1.
         -2    1    1    2    0  502 -0.83543998440E+01 -0.34042059079E+02  0.13997875063E+03  0.14430075679E+03  0.00000000000E+00 0.  1.
<scales pt_clust_5="13000.00000" pt_clust_6="13000.00000" pt_clust_7="13000.00000" pt_clust_8="13000.00000" pt_clust_9="35.05222"></scales>
<clustering>
<clus scale="   35.052">  1  9  2 -1</clus>
<clus scale="   81.804">  5  6 -1 -1</clus>
<clus scale="   91.180">  7  8 -1 -1</clus>
<clus scale="  107.808">  2  5  1 -1</clus>
<clus scale="   35.052">  1  5  2 -1</clus>
</clustering>
</event>
<event>
 9    2  0.1751298E-004  0.1050355E+03  0.7546771E-02  0.1273401E+00
          2   -1    0    0  502    0 -0.00000000000E+00  0.00000000000E+00  0.25205397898E+03  0.25205397898E+03  0.00000000000E+00 0. -1.
         21   -1    0    0  501  502  0.00000000000E+00 -0.00000000000E+00 -0.84979310535E+02  0.84979310535E+02  0.00000000000E+00 0. -1.
         23    2    1    2    0    0  0.46011122077E+02  0.39228901833E+02  0.97904880803E+02  0.14590678401E+03  0.89707824854E+02 0.  0.
         24    2    1    2    0    0 -0.25610079752E+02 -0.31588079602E+02 -0.24727471853E+02  0.94735219426E+02  0.81912337151E+02 0.  0.
        -13    1    4    4    0    0 -0.78638883992E+01 -0.42729247874E+02  0.18092459793E+02  0.47063430240E+02  0.00000000000E+00 0.  1.
         14    1    4    4    0    0 -0.17746191353E+02  0.11141168272E+02 -0.42819931646E+02  0.47671789186E+02  0.00000000000E+00 0. -1.
        -11    1    3    3    0    0  0.77859704368E+01  0.50533293273E+02  0.92486304709E+02  0.10567852962E+03  0.00000000000E+00 0.  1.
         11    1    3    3    0    0  0.38225151640E+02 -0.11304391440E+02  0.54185760936E+01  0.40228254382E+02  0.00000000000E+00 0. -1.
          1    1    1    2  501    0 -0.20401042324E+02 -0.76408222305E+01  0.93897259494E+02  0.96391286084E+02  0.00000000000E+00 0. -1.
<scales pt_clust_5="13000.00000" pt_clust_6="13000.00000" pt_clust_7="13000.00000" pt_clust_8="13000.00000" pt_clust_9="21.78498"></scales>
<clustering>
<clus scale="   21.785">  2  9  1 -1</clus>
<clus scale="   81.912">  5  6 -1 -1</clus>
<clus scale="   89.708">  7  8 -1 -1</clus>
<clus scale="   98.461">  2  5  1 -1</clus>
<clus scale="   21.785">  2  5  1 -1</clus>
</clustering>
</event>
<event>
 9    2  0.1751298E-004  0.1329794E+03  0.7546771E-02  0.1225594E+00
         21   -1    0    0  501  502  0.00000000000E+00  0.00000000000E+00  0.13518124388E+03  0.13518124388E+03  0.00000000000E+00 0.  1.
         -3   -1    0    0    0  501 -0.00000000000E+00 -0.00000000000E+00 -0.28230443430E+03  0.28230443430E+03  0.00000000000E+00 0.  1.
         23    2    1    2    0    0  0.68831285868E+02 -0.85027051361E+02 -0.21011194192E+03  0.25352468004E+03  0.90334876290E+02 0.  0.
         24    2    1    2    0    0 -0.41895767275E+02  0.44358697971E+02  0.29951073281E+02  0.10504643871E+03  0.80092060114E+02 0.  0.
        -11    1    4    4    0    0  0.59199371534E+01  0.26105322498E+02 -0.20088723622E+02  0.33467750677E+02  0.00000000000E+00 0.  1.
         12    1    4    4    0    0 -0.47815704428E+02  0.18253375473E+02  0.50039796903E+02  0.71578688031E+02  0.00000000000E+00 0. -1.
        -13    1    3    3    0    0 -0.96562445117E+01 -0.24439976368E+02 -0.65246741483E+01  0.27076315770E+02  0.00000000000E+00 0. -1.
         13    1    3    3    0    0  0.78487530380E+02 -0.60587074993E+02 -0.20358726778E+03  0.22644836427E+03  0.00000000000E+00 0.  1.
         -4    1    1    2    0  502 -0.26935518594E+02  0.40668353390E+02  0.33037678224E+02  0.58914559421E+02  0.00000000000E+00 0.  1.
<scales pt_clust_5="13000.00000" pt_clust_6="13000.00000" pt_clust_7="13000.00000" pt_clust_8="13000.00000" pt_clust_9="48.77947"></scales>
<clustering>
<clus scale="   48.779">  1  9  2 -1</clus>
<clus scale="   80.092">  5  6 -1 -1</clus>
<clus scale="   90.335">  7  8 -1 -1</clus>
<clus scale="  126.245">  1  5  2 -1</clus>
<clus scale="   48.779">  1  5  2 -1</clus>
</clustering>
</event>
<event>
 9    2  0.1751298E-004  0.1195858E+03  0.7546771E-02  0.1251596E+00
         -1   -1    0    0    0  501 -0.00000000000E+00  0.00000000000E+00  0.20092788757E+03  0.20092788757E+03  0.00000000000E+00 0.  1.
         21   -1    0    0  501  502  0.00000000000E+00 -0.00000000000E+00 -0.14196010546E+03  0.14196010546E+03  0.00000000000E+00 0.  1.
         23    2    1    2    0    0  0.54488576972E+02  0.66898350564E+02  0.12259781979E+03  0.17684739883E+03  0.93810355117E+02 0.  0.
         24    2    1    2    0    0 -0.58889551439E+02 -0.63052323158E+01 -0.30901405385E+02  0.97032928486E+02  0.70375827758E+02 0.  0.
        -13    1    4    4    0    0 -0.58604850996E+02  0.12417831373E+02 -0.43873176176E+02  0.74253529775E+02  0.00000000000E+00 0.  1.
         14    1    4    4    0    0 -0.28470044244E+00 -0.18723063688E+02  0.12971770790E+02  0.22779398711E+02  0.00000000000E+00 0. -1.
        -13    1    3    3    0    0  0.49634869244E+02 -0.44647202772E+01  0.24748601854E+02  0.55642135705E+02  0.00000000000E+00 0. -1.
         13    1    3    3    0    0  0.48537077275E+01  0.71363070842E+02  0.97849217940E+02  0.12120526313E+03  0.00000000000E+00 0.  1.
         -2    1    1    2    0  502  0.44009744669E+01 -0.60593118249E+02 -0.32728632300E+02  0.69007665716E+02  0.00000000000E+00 0.  1.
<scales pt_clust_5="13000.00000" pt_clust_6="13000.00000" pt_clust_7="13000.00000" pt_clust_8="13000.00000" pt_clust_9="60.75273"></scales>
<clustering>
<clus scale="   60.753">  2  9  1 -1</clus>
<clus scale="   70.376">  5  6 -1 -1</clus>
<clus scale="   93.810">  7  8 -1 -1</clus>
<clus scale="  102.241">  2  5  1 -1</clus>
<clus scale="   60.753">  2  5  1 -1</clus>
</clustering>
</event>
<event>
 9    2  0.1751298E-004  0.9624162E+02  0.7546771E-02  0.1295331E+00
          2   -1    0    0  502    0 -0.00000000000E+00  0.00000000000E+00  0.99709966682E+02  0.99709966682E+02  0.00000000000E+00 0. -1.
         21   -1    0    0  501  502  0.00000000000E+00 -0.00000000000E+00 -0.44249027994E+03  0.44249027994E+03  0.00000000000E+00 0. -1.
         24    2    1    2    0    0  0.38312266242E+02 -0.33301640004E+02  0.36639629876E+02  0.10066883267E+03  0.78834779273E+02 0.  0.
         23    2    1    2    0    0  0.15845149810E+02 -0.11819995370E+02 -0.52534070018E+02  0.10713141135E+03  0.91249820400E+02 0.  0.
        -11    1    3    3    0    0  0.46979732821E+02  0.32557211013E+01 -0.15210395587E+01  0.47116966978E+02  0.00000000000E+00 0.  1.
         12    1    3    3    0    0 -0.86674665794E+01 -0.36557361106E+02  0.38160669435E+02  0.53551865697E+02  0.00000000000E+00 0. -1.
        -11    1    4    4    0    0  0.40531866907E+02 -0.15698905009E+02 -0.65783687770E+02  0.78846568918E+02  0.00000000000E+00 0. -1.
         11    1    4    4    0    0 -0.24686717097E+02  0.38789096390E+01  0.13249617753E+02  0.28284842436E+02  0.00000000000E+00 0.  1.
          1    1    1    2  501    0 -0.54157416051E+02  0.45121635374E+02 -0.32688587311E+03  0.33440000259E+03  0.00000000000E+00 0. -1.
<scales pt_clust_5="13000.00000" pt_clust_6="13000.00000" pt_clust_7="13000.00000" pt_clust_8="13000.00000" pt_clust_9="70.49105"></scales>
<clustering>
<clus scale="   70.491">  2  9  1 -1</clus>
<clus scale="   78.835">  5  6 -1 -1</clus>
<clus scale="   84.563">  1  5  2 -1</clus>
<clus scale="   91.250">  7  8 -1 -1</clus>
<clus scale="   70.491">  2  5  1 -1</clus>
</clustering>
</event>
<event>
 9    2  0.1751298E-004  0.2904134E+03  0.7546771E-02  0.1137984E+00
         21   -1    0    0  501  502  0.00000000000E+00  0.00000000000E+00  0.53876572281E+03  0.53876572281E+03  0.00000000000E+00 0.  1.
         -3   -1    0    0    0  501 -0.00000000000E+00 -0.00000000000E+00 -0.23244610332E+03  0.23244610332E+03  0.00000000000E+00 0.  1.
         24    2    1    2    0    0  0.25036973306E+02  0.24854028876E+02  0.31432666487E+02  0.92099657208E+02  0.79055433410E+02 0.  0.
         23    2    1    2    0    0  0.26595718182E+03  0.22845957015E+02  0.25990931514E+03  0.38385428738E+03  0.92391025180E+02 0.  0.
        -11    1    3    3    0    0 -0.24303408262E+02 -0.94973404036E+01  0.13400341059E+02  0.29332989421E+02  0.00000000000E+00 0.  1.
         12    1    3    3    0    0  0.49340381568E+02  0.34351369280E+02  0.18032325427E+02  0.62766667787E+02  0.00000000000E+00 0. -1.
        -13    1    4    4    0    0  0.19166123032E+03 -0.25852944262E+02  0.18540502370E+03  0.26791309179E+03  0.00000000000E+00 0.  1.
         13    1    4    4    0    0  0.74295951499E+02  0.48698901277E+02  0.74504291431E+02  0.11594119560E+03  0.00000000000E+00 0. -1.
         -4    1    1    2    0  502 -0.29099415513E+03 -0.47699985891E+02  0.14977637871E+02  0.29525788154E+03  0.00000000000E+00 0.  1.
<scales pt_clust_5="13000.00000" pt_clust_6="13000.00000" pt_clust_7="13000.00000" pt_clust_8="13000.00000" pt_clust_9="275.32513"></scales>
<clustering>
<clus scale="   79.055">  5  6 -1 -1</clus>
<clus scale="   86.570">  2  5  1 -1</clus>
<clus scale="   92.391">  7  8 -1 -1</clus>
<clus scale="  275.325">  1  9  2 -1</clus>
<clus scale="  275.325">  1  5  2 -1</clus>
</clustering>
</event>
<event>
 9    2  0.1751298E-004  0.1348492E+03  0.7546771E-02  0.1231156E+00
          2   -1    0    0  502    0 -0.00000000000E+00  0.00000000000E+00  0.70043508867E+03  0.70043508867E+03  0.00000000000E+00 0. -1.
         21   -1    0    0  501  502  0.00000000000E+00 -0.00000000000E+00 -0.61086091989E+02  0.61086091989E+02  0.00000000000E+00 0. -1.
         23    2    1    2    0    0  0.26568574119E+02 -0.52168177540E+02  0.18551669963E+03  0.21461099857E+03  0.90631269363E+02 0.  0.
         24    2    1    2    0    0 -0.47918337745E+02 -0.83191391813E+02  0.86570803619E+02  0.15491652145E+03  0.85367732872E+02 0.  0.
        -11    1    4    4    0    0  0.23957446886E+02 -0.29947594781E+02  0.18907188375E+02  0.42758618625E+02  0.00000000000E+00 0.  1.
         12    1    4    4    0    0 -0.71875784632E+02 -0.53243797032E+02  0.67663615244E+02  0.11215790283E+03  0.00000000000E+00 0. -1.
        -11    1    3    3    0    0  0.46957777426E+02  0.98801957763E+00  0.55704058467E+02  0.72862549867E+02  0.00000000000E+00 0.  1.
         11    1    3    3    0    0 -0.20389203307E+02 -0.53156197117E+02  0.12981264116E+03  0.14174844870E+03  0.00000000000E+00 0. -1.
          1    1    1    2  501    0  0.21349763626E+02  0.13535956935E+03  0.36726149343E+03  0.39199366063E+03  0.00000000000E+00 0. -1.
<scales pt_clust_5="13000.00000" pt_clust_6="13000.00000" pt_clust_7="13000.00000" pt_clust_8="13000.00000" pt_clust_9="104.38707"></scales>
<clustering>
<clus scale="   85.368">  5  6 -1 -1</clus>
<clus scale="   90.631">  7  8 -1 -1</clus>
<clus scale="  107.895">  1  7  2 -1</clus>
<clus scale="  104.387">  2  9  1 -1</clus>
<clus scale="  104.387">  2  5  1 -1</clus>
</clustering>
</event>
<event>
 9    2  0.1751298E-004  0.1515845E+03  0.7546771E-02  0.1200458E+00
         21   -1    0    0  501  502  0.00000000000E+00  0.00000000000E+00  0.63582688198E+03  0.63582688198E+03  0.00000000000E+00 0.  1.
         -1   -1    0    0    0  501 -0.00000000000E+00 -0.00000000000E+00 -0.73718661497E+02  0.73718661497E+02  0.00000000000E+00 0.  1.
         24    2    1    2    0    0  0.81733944146E+02  0.25732942524E+02  0.18462754197E+03  0.21811368506E+03  0.78381301336E+02 0.  0.
         23    2    1    2    0    0 -0.18248370780E+03 -0.28007580438E+02  0.30396850439E+03  0.36669321726E+03  0.89343918366E+02 0.  0.
        -13    1    3    3    0    0  0.23351969718E+02 -0.22197521580E+02  0.98092290024E+02  0.10324796277E+03  0.00000000000E+00 0.  1.
         14    1    3    3    0    0  0.58381974429E+02  0.47930464104E+02  0.86535251945E+02  0.11486572229E+03  0.00000000000E+00 0. -1.
        -13    1    4    4    0    0 -0.86114868955E+02 -0.13700629853E+02  0.65399541163E+02  0.10899806373E+03  0.00000000000E+00 0. -1.
         13    1    4    4    0    0 -0.96368838846E+02 -0.14306950585E+02  0.23856896323E+03  0.25769515353E+03  0.00000000000E+00 0.  1.
         -2    1    1    2    0  502  0.10074976365E+03  0.22746379138E+01  0.73512174123E+02  0.12473864116E+03  0.00000000000E+00 0.  1.
<scales pt_clust_5="13000.00000" pt_clust_6="13000.00000" pt_clust_7="13000.00000" pt_clust_8="13000.00000" pt_clust_9="100.77549"></scales>
<clustering>
<clus scale="   78.381">  5  6 -1 -1</clus>
<clus scale="   89.344">  7  8 -1 -1</clus>
<clus scale="  100.775">  1  9  2 -1</clus>
<clus scale="  145.393">  2  5  1 -1</clus>
<clus scale="  100.775">  1  5  2 -1</clus>
</clustering>
</event>
<event>
 9    2  0.1751298E-004  0.1373946E+03  0.7546771E-02  0.1219197E+00
          2   -1    0    0  502    0 -0.00000000000E+00  0.00000000000E+00  0.67650342804E+03  0.67650342804E+03  0.00000000000E+00 0. -1.
         21   -1    0    0  501  502  0.00000000000E+00 -0.00000000000E+00 -0.90153011096E+02  0.90153011096E+02  0.00000000000E+00 0. -1.
         23    2    1    2    0    0 -0.86413543159E+02 -0.44294348870E+02  0.24656830449E+03  0.27982284363E+03  0.89864371448E+02 0.  0.
         24    2    1    2    0    0  0.57059944338E+02  0.14855317678E+03  0.61497892041E+02  0.18821403102E+03  0.79489918668E+02 0.  0.
        -13    1    4    4    0    0  0.47720964809E+02  0.31216286945E+02  0.37022657647E+02  0.67988412485E+02  0.00000000000E+00 0.  1.
         14    1    4    4    0    0  0.93389795282E+01  0.11733688983E+03  0.24475234394E+02  0.12022561854E+03  0.00000000000E+00 0. -1.
        -13    1    3    3    0    0 -0.34319534348E+02  0.60277460822E+01  0.17340592526E+03  0.17687221114E+03  0.00000000000E+00 0.  1.
         13    1    3    3    0    0 -0.52094008811E+02 -0.50322094952E+02  0.73162379229E+02  0.10295063248E+03  0.00000000000E+00 0. -1.
          1    1    1    2  501    0  0.29353598821E+02 -0.10425882791E+03  0.27828422042E+03  0.29861956449E+03  0.00000000000E+00 0. -1.
<scales pt_clust_5="13000.00000" pt_clust_6="13000.00000" pt_clust_7="13000.00000" pt_clust_8="13000.00000" pt_clust_9="108.31227"></scales>
<clustering>
<clus scale="   79.490">  5  6 -1 -1</clus>
<clus scale="   89.864">  7  8 -1 -1</clus>
<clus scale="  108.312">  2  9  1 -1</clus>
<clus scale="  130.845">  2  5  1 -1</clus>
<clus scale="  108.312">  2  5  1 -1</clus>
</clustering>
</event>
<event>
 9    2  0.1751298E-004  0.1556690E+03  0.7546771E-02  0.1216604E+00
          2   -1    0    0  502    0 -0.00000000000E+00  0.00000000000E+00  0.10923685838E+04  0.10923685838E+04  0.00000000000E+00 0. -1.
         21   -1    0    0  501  502  0.00000000000E+00 -0.00000000000E+00 -0.35440799965E+02  0.35440799965E+02  0.00000000000E+00 0. -1.
         24    2    1    2    0    0  0.38827013106E+02  0.74383581143E+01  0.38692532085E+03  0.39842022627E+03  0.86397955255E+02 0.  0.
         23    2    1    2    0    0  0.87433357301E+02 -0.67578916987E+02  0.41463642873E+03  0.43823562512E+03  0.88969619019E+02 0.  0.
        -13    1    3    3    0    0  0.27236541657E+02  0.40672858658E+02  0.12673070414E+03  0.13585573968E+03  0.00000000000E+00 0.  1.
         14    1    3    3    0    0  0.11590471448E+02 -0.33234500544E+02  0.26019461671E+03  0.26256448659E+03  0.00000000000E+00 0. -1.
        -11    1    4    4    0    0  0.20881727117E+02 -0.72199018213E+02  0.21985847952E+03  0.23234994249E+03  0.00000000000E+00 0. -1.
         11    1    4    4    0    0  0.66551630184E+02  0.46201012256E+01  0.19477794920E+03  0.20588568263E+03  0.00000000000E+00 0.  1.
          1    1    1    2  501    0 -0.12626037041E+03  0.60140558873E+02  0.25536603424E+03  0.29115353235E+03  0.00000000000E+00 0. -1.
<scales pt_clust_5="13000.00000" pt_clust_6="13000.00000" pt_clust_7="13000.00000" pt_clust_8="13000.00000" pt_clust_9="127.73898"></scales>
<clustering>
<clus scale="   86.398">  5  6 -1 -1</clus>
<clus scale="   88.970">  7  8 -1 -1</clus>
<clus scale="   95.013">  1  5  2 -1</clus>
<clus scale="  127.739">  2  9  1 -1</clus>
<clus scale="  127.739">  2  5  1 -1</clus>
</clustering>
</event>
<event>
 9    2  0.1751298E-004  0.1429938E+03  0.7546771E-02  0.1225535E+00
          2   -1    0    0  502    0 -0.00000000000E+00  0.00000000000E+00  0.93649370374E+03  0.93649370374E+03  0.00000000000E+00 0. -1.
         21   -1    0    0  501  502  0.00000000000E+00 -0.00000000000E+00 -0.66887057273E+02  0.66887057273E+02  0.00000000000E+00 0. -1.
         24    2    1    2    0    0  0.58915051902E+02  0.15345242009E+02  0.64631869231E+03  0.65426482353E+03  0.81413435607E+02 0.  0.
         23    2    1    2    0    0  0.80561001521E+02 -0.33414300156E+02  0.14647989600E+03  0.18886757356E+03  0.81289667163E+02 0.  0.
        -13    1    3    3    0    0  0.50092303157E+02 -0.15879135804E+01  0.16212161183E+03  0.16969141796E+03  0.00000000000E+00 0.  1.
         14    1    3    3    0    0  0.88227487446E+01  0.16933155590E+02  0.48419708047E+03  0.48457340558E+03  0.00000000000E+00 0. -1.
        -11    1    4    4    0    0  0.49212029597E+02  0.22783599366E+02  0.76827004557E+02  0.94038847751E+02  0.00000000000E+00 0. -1.
         11    1    4    4    0    0  0.31348971924E+02 -0.56197899521E+02  0.69652891446E+02  0.94828725807E+02  0.00000000000E+00 0.  1.
          1    1    1    2  501    0 -0.13947605342E+03  0.18069058147E+02  0.76808058153E+02  0.16024836392E+03  0.00000000000E+00 0. -1.
<scales pt_clust_5="13000.00000" pt_clust_6="13000.00000" pt_clust_7="13000.00000" pt_clust_8="13000.00000" pt_clust_9="117.64023"></scales>
<clustering>
<clus scale="   81.290">  7  8 -1 -1</clus>
<clus scale="   81.413">  5  6 -1 -1</clus>
<clus scale="  101.659">  1  5  2 -1</clus>
<clus scale="  117.640">  2  9  1 -1</clus>
<clus scale="  117.640">  2  5  1 -1</clus>
</clustering>
</event>
<event>
 9    2  0.1751298E-004  0.3657864E+03  0.7546771E-02  0.1056316E+00
         21   -1    0    0  501  502  0.00000000000E+00  0.00000000000E+00  0.23337306742E+03  0.23337306742E+03  0.00000000000E+00 0. -1.
          2   -1    0    0  502    0 -0.00000000000E+00 -0.00000000000E+00 -0.49127006129E+03  0.49127006129E+03  0.00000000000E+00 0. -1.
         24    2    1    2    0    0  0.58887416703E+02 -0.16868901316E+03 -0.46670277960E+02  0.20130784427E+03  0.80143760276E+02 0.  0.
         23    2    1    2    0    0  0.25887250298E+02 -0.13059113438E+03 -0.10440523152E+03  0.19444901169E+03  0.95842431485E+02 0.  0.
        -13    1    3    3    0    0 -0.55116687952E+01 -0.30228043382E+02  0.17846921815E+02  0.35533445061E+02  0.00000000000E+00 0.  1.
         14    1    3    3    0    0  0.64399085498E+02 -0.13846096978E+03 -0.64517199775E+02  0.16577439921E+03  0.00000000000E+00 0. -1.
        -11    1    4    4    0    0 -0.75046302616E+01 -0.39233136819E+02 -0.86867634509E+02  0.95611424135E+02  0.00000000000E+00 0.  1.
         11    1    4    4    0    0  0.33391880560E+02 -0.91357997559E+02 -0.17537597015E+02  0.98837587558E+02  0.00000000000E+00 0. -1.
          1    1    1    2  501    0 -0.84774667001E+02  0.29928014754E+03 -0.10682148438E+03  0.32888627275E+03  0.00000000000E+00 0. -1.
<scales pt_clust_5="13000.00000" pt_clust_6="13000.00000" pt_clust_7="13000.00000" pt_clust_8="13000.00000" pt_clust_9="311.05522"></scales>
<clustering>
<clus scale="   80.144">  5  6 -1 -1</clus>
<clus scale="   95.842">  7  8 -1 -1</clus>
<clus scale="  113.291">  5  7 -1 -1</clus>
<clus scale="  311.055">  1  9  2 -1</clus>
<clus scale="  311.055">  1  5  2 -1</clus>
</clustering>
</event>
<event>
 9    2  0.1751298E-004  0.1359573E+03  0.7546771E-02  0.1221551E+00
         21   -1    0    0  501  502  0.00000000000E+00  0.00000000000E+00  0.56017169589E+03  0.56017169589E+03  0.00000000000E+00 0. -1.
          4   -1    0    0  502    0 -0.00000000000E+00 -0.00000000000E+00 -0.12625225150E+03  0.12625225150E+03  0.00000000000E+00 0. -1.
         24    2    1    2    0    0  0.11242690574E+03  0.20813439160E+02 -0.60428551306E+02  0.15210569884E+03  0.80072001480E+02 0.  0.
         23    2    1    2    0    0 -0.47354545362E+02 -0.23235931668E+02  0.14758154718E+03  0.18149074059E+03  0.91521660644E+02 0.  0.
        -11    1    3    3    0    0  0.42260744345E+02  0.74902263537E+01  0.17544975372E+02  0.46367015908E+02  0.00000000000E+00 0.  1.
         12    1    3    3    0    0  0.70166161398E+02  0.13323212806E+02 -0.77973526678E+02  0.10573868293E+03  0.00000000000E+00 0. -1.
        -13    1    4    4    0    0  0.73676819238E+01 -0.26114650019E+02  0.35227992604E+01  0.27361794481E+02  0.00000000000E+00 0.  1.
         13    1    4    4    0    0 -0.54722227286E+02  0.28787183511E+01  0.14405874792E+03  0.15412894611E+03  0.00000000000E+00 0. -1.
          3    1    1    2  501    0 -0.65072360381E+02  0.24224925086E+01  0.34676644852E+03  0.35282750796E+03  0.00000000000E+00 0. -1.
<scales pt_clust_5="13000.00000" pt_clust_6="13000.00000" pt_clust_7="13000.00000" pt_clust_8="13000.00000" pt_clust_9="65.11744"></scales>
<clustering>
<clus scale="   65.117">  1  9  2 -1</clus>
<clus scale="   80.072">  5  6 -1 -1</clus>
<clus scale="   91.522">  7  8 -1 -1</clus>
<clus scale="  128.529">  2  5  1 -1</clus>
<clus scale="   65.117">  1  5  2 -1</clus>
</clustering>
</event>
<event>
 9    2  0.1751298E-004  0.2236764E+03  0.7546771E-02  0.1161699E+00
         -1   -1    0    0    0  501 -0.00000000000E+00  0.00000000000E+00  0.60930242389E+03  0.60930242389E+03  0.00000000000E+00 0.  1.
         21   -1    0    0  501  502  0.00000000000E+00 -0.00000000000E+00 -0.13375059950E+03  0.13375059950E+03  0.00000000000E+00 0.  1.
         23    2    1    2    0    0 -0.16739902997E+02  0.53803092221E+02  0.14535775288E+03  0.18108798095E+03  0.92135679505E+02 0.  0.
         24    2    1    2    0    0  0.14574030574E+03  0.13521929154E+03  0.97370718724E+02  0.23550328500E+03  0.80350773863E+02 0.  0.
        -11    1    4    4    0    0  0.66236980264E+02  0.11406205369E+03  0.54285827732E+02  0.14263393964E+03  0.00000000000E+00 0.  1.
         12    1    4    4    0    0  0.79503325475E+02  0.21157237849E+02  0.43084890992E+02  0.92869345355E+02  0.00000000000E+00 0. -1.
        -11    1    3    3    0    0  0.27638797536E+02  0.16395495663E+02  0.10649328707E+03  0.11123639511E+03  0.00000000000E+00 0.  1.
         11    1    3    3    0    0 -0.44378700533E+02  0.37407596558E+02  0.38864465813E+02  0.69851585839E+02  0.00000000000E+00 0. -1.
         -2    1    1    2    0  502 -0.12900040274E+03 -0.18902238376E+03  0.23282335278E+03  0.32646175743E+03  0.00000000000E+00 0.  1.
<scales pt_clust_5="13000.00000" pt_clust_6="13000.00000" pt_clust_7="13000.00000" pt_clust_8="13000.00000" pt_clust_9="208.74605"></scales>
<clustering>
<clus scale="   80.351">  5  6 -1 -1</clus>
<clus scale="   92.136">  7  8 -1 -1</clus>
<clus scale="  108.000">  1  7  2 -1</clus>
<clus scale="  208.746">  2  9  1 -1</clus>
<clus scale="  208.746">  2  5  1 -1</clus>
</clustering>
</event>
<event>
 9    2  0.1751298E-004  0.1481053E+03  0.7546771E-02  0.1205708E+00
          2   -1    0    0  502    0 -0.00000000000E+00  0.00000000000E+00  0.43718628676E+03  0.43718628676E+03  0.00000000000E+00 0. -1.
         21   -1    0    0  501  502  0.00000000000E+00 -0.00000000000E+00 -0.85751256184E+02  0.85751256184E+02  0.00000000000E+00 0. -1.
         24    2    1    2    0    0  0.76234637543E+02 -0.38013865259E+02  0.75367095019E+02  0.13910377709E+03  0.80080508711E+02 0.  0.
         23    2    1    2    0    0 -0.14689488739E+03  0.49596687024E+02  0.13753970141E+03  0.22789434068E+03  0.94766670013E+02 0.  0.
        -11    1    3    3    0    0  0.27030612263E+02 -0.87368480351E+01  0.76742860748E+02  0.81831859252E+02  0.00000000000E+00 0.  1.
         12    1    3    3    0    0  0.49204025280E+02 -0.29277017224E+02 -0.13757657288E+01  0.57271917836E+02  0.00000000000E+00 0. -1.
        -11    1    4    4    0    0 -0.61259339942E+02  0.47808621332E+02  0.11591656652E+03  0.13955293404E+03  0.00000000000E+00 0. -1.
         11    1    4    4    0    0 -0.85635547446E+02  0.17880656921E+01  0.21623134886E+02  0.88341406642E+02  0.00000000000E+00 0.  1.
          1    1    1    2  501    0  0.70660249844E+02 -0.11582821765E+02  0.13852823414E+03  0.15593942517E+03  0.00000000000E+00 0. -1.
<scales pt_clust_5="13000.00000" pt_clust_6="13000.00000" pt_clust_7="13000.00000" pt_clust_8="13000.00000" pt_clust_9="71.60334"></scales>
<clustering>
<clus scale="   71.603">  2  9  1 -1</clus>
<clus scale="   80.081">  5  6 -1 -1</clus>
<clus scale="   94.767">  7  8 -1 -1</clus>
<clus scale="  139.167">  1  5  2 -1</clus>
<clus scale="   71.603">  2  5  1 -1</clus>
</clustering>
</event>
<event>
 9    2  0.1751298E-004  0.1097825E+03  0.7546771E-02  0.1263382E+00
          2   -1    0    0  502    0 -0.00000000000E+00  0.00000000000E+00  0.50523431108E+03  0.50523431108E+03  0.00000000000E+00 0. -1.
         21   -1    0    0  501  502  0.00000000000E+00 -0.00000000000E+00 -0.49565333327E+02  0.49565333327E+02  0.00000000000E+00 0. -1.
         24    2    1    2    0    0  0.93321403303E+01 -0.61771263422E+02  0.30624875407E+03  0.32392893368E+03  0.85081589557E+02 0.  0.
         23    2    1    2    0    0 -0.59425889829E+02  0.42625429924E+02  0.74179362038E+02  0.13847409855E+03  0.91236695247E+02 0.  0.
        -11    1    3    3    0    0  0.33615233605E+02 -0.52298648492E+02  0.11337645830E+03  0.12930334049E+03  0.00000000000E+00 0.  1.
         12    1    3    3    0    0 -0.24283093275E+02 -0.94726149302E+01  0.19287229577E+03  0.19462559320E+03  0.00000000000E+00 0. -1.
        -13    1    4    4    0    0 -0.23149004176E+02 -0.20571571411E+01  0.77415338128E+02  0.80828478071E+02  0.00000000000E+00 0.  1.
         13    1    4    4    0    0 -0.36276885653E+02  0.44682587065E+02 -0.32359760898E+01  0.57645620482E+02  0.00000000000E+00 0. -1.
          1    1    1    2  501    0  0.50093749499E+02  0.19145833498E+02  0.75240861651E+02  0.92396612174E+02  0.00000000000E+00 0. -1.
<scales pt_clust_5="13000.00000" pt_clust_6="13000.00000" pt_clust_7="13000.00000" pt_clust_8="13000.00000" pt_clust_9="53.62785"></scales>
<clustering>
<clus scale="   53.628">  2  9  1 -1</clus>
<clus scale="   85.082">  5  6 -1 -1</clus>
<clus scale="   91.237">  7  8 -1 -1</clus>
<clus scale="  104.723">  1  5  2 -1</clus>
<clus scale="   53.628">  2  5  1 -1</clus>
</clustering>
</event>
<event>
 9    2  0.1751298E-004  0.1155130E+03  0.7546771E-02  0.1254624E+00
         21   -1    0    0  501  502  0.00000000000E+00  0.00000000000E+00  0.56720792498E+02  0.56720792498E+02  0.00000000000E+00 0. -1.
          2   -1    0    0  502    0 -0.00000000000E+00 -0.00000000000E+00 -0.68603110464E+03  0.68603110464E+03  0.00000000000E+00 0. -1.
         24    2    1    2    0    0 -0.63475716178E+02 -0.14059494168E+02 -0.36561713791E+03  0.37998131734E+03  0.80517538915E+02 0.  0.
         23    2    1    2    0    0  0.98361730574E+02 -0.74633609564E+02 -0.16363463384E+03  0.22458515309E+03  0.91744165356E+02 0.  0.
        -11    1    3    3    0    0 -0.24644030942E+02  0.32409280868E+02 -0.18688944813E+03  0.19127298704E+03  0.00000000000E+00 0.  1.
         12    1    3    3    0    0 -0.38831685236E+02 -0.46468775036E+02 -0.17872768978E+03  0.18870833030E+03  0.00000000000E+00 0. -1.
        -11    1    4    4    0    0 -0.11872615126E+02 -0.20522093426E+02 -0.54448834474E+01  0.24326160080E+02  0.00000000000E+00 0.  1.
         11    1    4    4    0    0  0.11023434570E+03 -0.54111516139E+02 -0.15818975039E+03  0.20025899301E+03  0.00000000000E+00 0. -1.
          1    1    1    2  501    0 -0.34886014396E+02  0.88693103732E+02 -0.10005854039E+03  0.13818542671E+03  0.00000000000E+00 0. -1.
<scales pt_clust_5="13000.00000" pt_clust_6="13000.00000" pt_clust_7="13000.00000" pt_clust_8="13000.00000" pt_clust_9="95.30740"></scales>
<clustering>
<clus scale="   80.518">  5  6 -1 -1</clus>
<clus scale="   91.744">  7  8 -1 -1</clus>
<clus scale="   95.307">  1  9  2 -1</clus>
<clus scale="  106.815">  2  5  1 -1</clus>
<clus scale="   95.307">  1  5  2 -1</clus>
</clustering>
</event>
<event>
 9    2  0.1751298E-004  0.1936323E+03  0.7546771E-02  0.1179608E+00
         -1   -1    0    0    0  501 -0.00000000000E+00  0.00000000000E+00  0.10063415502E+03  0.10063415502E+03  0.00000000000E+00 0.  1.
         21   -1    0    0  501  502  0.00000000000E+00 -0.00000000000E+00 -0.10926995796E+04  0.10926995796E+04  0.00000000000E+00 0.  1.
         24    2    1    2    0    0  0.36564875003E+02  0.73462838240E+02 -0.85161164437E+02  0.13956577600E+03  0.74110749674E+02 0.  0.
         23    2    1    2    0    0  0.92182240356E+02  0.51853815475E+02 -0.11779062482E+02  0.14078975357E+03  0.92177138057E+02 0.  0.
        -11    1    3    3    0    0  0.21507778016E+02 -0.11412742479E+02 -0.19947406095E+02  0.31475930741E+02  0.00000000000E+00 0.  1.
         12    1    3    3    0    0  0.15057096987E+02  0.84875580719E+02 -0.65213758342E+02  0.10808984526E+03  0.00000000000E+00 0. -1.
        -11    1    4    4    0    0  0.22400565439E+02  0.57517099447E+02 -0.29733069902E+02  0.68513192208E+02  0.00000000000E+00 0.  1.
         11    1    4    4    0    0  0.69781674917E+02 -0.56632839713E+01  0.17954007420E+02  0.72276561360E+02  0.00000000000E+00 0. -1.
         -2    1    1    2    0  502 -0.12874711536E+03 -0.12531665372E+03 -0.89512519767E+03  0.91297820506E+03  0.00000000000E+00 0.  1.
<scales pt_clust_5="13000.00000" pt_clust_6="13000.00000" pt_clust_7="13000.00000" pt_clust_8="13000.00000" pt_clust_9="170.28457"></scales>
<clustering>
<clus scale="   74.111">  5  6 -1 -1</clus>
<clus scale="   92.177">  7  8 -1 -1</clus>
<clus scale="  110.572">  1  5  2 -1</clus>
<clus scale="  170.285">  2  9  1 -1</clus>
<clus scale="  170.285">  2  5  1 -1</clus>
</clustering>
</event>
<event>
 9    2  0.1751298E-004  0.1692883E+03  0.7546771E-02  0.1179884E+00
         21   -1    0    0  501  502  0.00000000000E+00  0.00000000000E+00  0.96833167822E+03  0.96833167822E+03  0.00000000000E+00 0.  1.
         -3   -1    0    0    0  501 -0.00000000000E+00 -0.00000000000E+00 -0.87221224646E+02  0.87221224646E+02  0.00000000000E+00 0.  1.
         24    2    1    2    0    0 -0.11515885639E+03 -0.75347982015E+02  0.13423860914E+03  0.20848730711E+03  0.80672625119E+02 0.  0.
         23    2    1    2    0    0  0.15622269369E+03  0.69580144258E+02  0.77382536966E+03  0.79760855168E+03  0.90148613283E+02 0.  0.
        -11    1    3    3    0    0 -0.10442826936E+03 -0.83667584194E+02  0.87655445524E+02  0.15996563761E+03  0.00000000000E+00 0.  1.
         12    1    3    3    0    0 -0.10730587030E+02  0.83196021791E+01  0.46583163617E+02  0.48521669500E+02  0.00000000000E+00 0. -1.
        -13    1    4    4    0    0  0.60700705954E+02  0.19371198911E+02  0.12969653320E+03  0.14450262895E+03  0.00000000000E+00 0. -1.
         13    1    4    4    0    0  0.95521987739E+02  0.50208945348E+02  0.64412883646E+03  0.65310592272E+03  0.00000000000E+00 0.  1.
         -4    1    1    2    0  502 -0.41063837301E+02  0.57678377574E+01 -0.26953525231E+02  0.49457044075E+02  0.00000000000E+00 0.  1.
<scales pt_clust_5="13000.00000" pt_clust_6="13000.00000" pt_clust_7="13000.00000" pt_clust_8="13000.00000" pt_clust_9="41.46696"></scales>
<clustering>
<clus scale="   41.467">  1  9  2 -1</clus>
<clus scale="   80.673">  5  6 -1 -1</clus>
<clus scale="   90.149">  7  8 -1 -1</clus>
<clus scale="  164.438">  2  5  1 -1</clus>
<clus scale="   41.467">  1  5  2 -1</clus>
</clustering>
</event>
<event>
 9    2  0.1751298E-004  0.1038851E+03  0.7546771E-02  0.1275081E+00
          2   -1    0    0  502    0 -0.00000000000E+00  0.00000000000E+00  0.13656543969E+03  0.13656543969E+03  0.00000000000E+00 0. -1.
         21   -1    0    0  501  502  0.00000000000E+00 -0.00000000000E+00 -0.14603476619E+03  0.14603476619E+03  0.00000000000E+00 0.  1.
         23    2    1    2    0    0 -0.25225373966E+02 -0.47685056718E+02  0.62672492568E+02  0.12322543905E+03  0.91359090294E+02 0.  0.
         24    2    1    2    0    0  0.49049822116E+02  0.11830216445E+02 -0.51473104817E+02  0.11162155072E+03  0.85229402172E+02 0.  0.
        -11    1    4    4    0    0  0.43490590932E+02 -0.26173663678E+02 -0.45196563484E+01  0.50959979037E+02  0.00000000000E+00 0.  1.
         12    1    4    4    0    0  0.55592311836E+01  0.38003880123E+02 -0.46953448468E+02  0.60661571681E+02  0.00000000000E+00 0. -1.
        -13    1    3    3    0    0 -0.52855617697E+02 -0.53859747173E+02  0.56444384411E+02  0.94236708448E+02  0.00000000000E+00 0. -1.
         13    1    3    3    0    0  0.27630243731E+02  0.61746904550E+01  0.62281081569E+01  0.28988730605E+02  0.00000000000E+00 0.  1.
          1    1    1    2  501    0 -0.23824448150E+02  0.35854840273E+02 -0.20668714252E+02  0.47753216116E+02  0.00000000000E+00 0. -1.
<scales pt_clust_5="13000.00000" pt_clust_6="13000.00000" pt_clust_7="13000.00000" pt_clust_8="13000.00000" pt_clust_9="43.04851"></scales>
<clustering>
<clus scale="   43.049">  2  9  1 -1</clus>
<clus scale="   85.229">  5  6 -1 -1</clus>
<clus scale="   91.359">  7  8 -1 -1</clus>
<clus scale="   98.538">  2  5  1 -1</clus>
<clus scale="   43.049">  2  5  1 -1</clus>
</clustering>
</event>
<event>
 9    2  0.1751298E-004  0.9431040E+02  0.7546771E-02  0.1298124E+00
         21   -1    0    0  501  502  0.00000000000E+00  0.00000000000E+00  0.25351034352E+03  0.25351034352E+03  0.00000000000E+00 0. -1.
          2   -1    0    0  502    0 -0.00000000000E+00 -0.00000000000E+00 -0.30945334548E+03  0.30945334548E+03  0.00000000000E+00 0. -1.
         23    2    1    2    0    0  0.26161719063E+02 -0.76470875916E+01 -0.27672240981E+03  0.29231465829E+03  0.90164593221E+02 0.  0.
         24    2    1    2    0    0 -0.44136328695E+02 -0.38714957026E+02  0.10620969882E+03  0.14575409887E+03  0.80727280426E+02 0.  0.
        -11    1    4    4    0    0  0.21195003411E+02  0.42581849508E+01  0.23424926078E+02  0.31876126967E+02  0.00000000000E+00 0.  1.
         12    1    4    4    0    0 -0.65331332106E+02 -0.42973141977E+02  0.82784772743E+02  0.11387797190E+03  0.00000000000E+00 0. -1.
        -11    1    3    3    0    0 -0.27379948572E+02 -0.18436291860E+02 -0.56642045339E+02  0.65558216430E+02  0.00000000000E+00 0.  1.
         11    1    3    3    0    0  0.53541667635E+02  0.10789204268E+02 -0.22008036447E+03  0.22675644186E+03  0.00000000000E+00 0. -1.
          1    1    1    2  501    0  0.17974609633E+02  0.46362044617E+02  0.11456970903E+03  0.12489493184E+03  0.00000000000E+00 0. -1.
<scales pt_clust_5="13000.00000" pt_clust_6="13000.00000" pt_clust_7="13000.00000" pt_clust_8="13000.00000" pt_clust_9="49.72450"></scales>
<clustering>
<clus scale="   49.724">  1  9  2 -1</clus>
<clus scale="   80.727">  5  6 -1 -1</clus>
<clus scale="   85.333">  1  5  2 -1</clus>
<clus scale="   90.165">  7  8 -1 -1</clus>
<clus scale="   49.724">  1  5  2 -1</clus>
</clustering>
</event>
<event>
 9    2  0.1751298E-004  0.1000876E+03  0.7546771E-02  0.1285740E+00
         21   -1    0    0  501  502  0.00000000000E+00  0.00000000000E+00  0.53207024725E+02  0.53207024725E+02  0.00000000000E+00 0. -1.
          2   -1    0    0  502    0 -0.00000000000E+00 -0.00000000000E+00 -0.61991046427E+03  0.61991046427E+03  0.00000000000E+00 0. -1.
         24    2    1    2    0    0 -0.16720765951E+02 -0.20557103545E+02 -0.38322665849E+03  0.39285706112E+03  0.82291069838E+02 0.  0.
         23    2    1    2    0    0  0.17647766236E+02  0.92853023097E+02 -0.15078886571E+03  0.20091271762E+03  0.93249721330E+02 0.  0.
        -11    1    3    3    0    0 -0.36962962837E+02 -0.38364398992E+02 -0.17605964159E+03  0.18394315733E+03  0.00000000000E+00 0.  1.
         12    1    3    3    0    0  0.20242196886E+02  0.17807295447E+02 -0.20716701690E+03  0.20891390379E+03  0.00000000000E+00 0. -1.
        -13    1    4    4    0    0 -0.89043584507E+01  0.10220920263E+03 -0.13149199769E+03  0.16678175607E+03  0.00000000000E+00 0. -1.
         13    1    4    4    0    0  0.26552124687E+02 -0.93561795346E+01 -0.19296868023E+02  0.34130961551E+02  0.00000000000E+00 0.  1.
          1    1    1    2  501    0 -0.92700028494E+00 -0.72295919551E+02 -0.32687915346E+02  0.79347710256E+02  0.00000000000E+00 0. -1.
<scales pt_clust_5="13000.00000" pt_clust_6="13000.00000" pt_clust_7="13000.00000" pt_clust_8="13000.00000" pt_clust_9="72.30186"></scales>
<clustering>
<clus scale="   72.302">  1  9  2 -1</clus>
<clus scale="   82.291">  5  6 -1 -1</clus>
<clus scale="   89.966">  2  5  1 -1</clus>
<clus scale="   93.250">  7  8 -1 -1</clus>
<clus scale="   72.302">  1  5  2 -1</clus>
</clustering>
</event>
<event>
 9    2  0.1751298E-004  0.1067172E+03  0.7546771E-02  0.1271571E+00
         21   -1    0    0  501  502  0.00000000000E+00  0.00000000000E+00  0.59831186774E+03  0.59831186774E+03  0.00000000000E+00 0. -1.
          2   -1    0    0  502    0 -0.00000000000E+00 -0.00000000000E+00 -0.60996416479E+02  0.60996416479E+02  0.00000000000E+00 0. -1.
         23    2    1    2    0    0 -0.38983609068E+02  0.41281375491E+02  0.27911951340E+01  0.10747383249E+03  0.91208333836E+02 0.  0.
         24    2    1    2    0    0  0.50688205994E+02 -0.10930393689E+02  0.47018016237E+03  0.47973492270E+03  0.79921481680E+02 0.  0.
        -11    1    4    4    0    0  0.77627349316E+01 -0.39311233955E+02  0.14202250514E+03  0.14756701913E+03  0.00000000000E+00 0.  1.
         12    1    4    4    0    0  0.42925471063E+02  0.28380840266E+02  0.32815765723E+03  0.33216790357E+03  0.00000000000E+00 0. -1.
        -13    1    3    3    0    0 -0.61621579360E+02  0.53591767886E+02  0.24740368515E+01  0.81703228127E+02  0.00000000000E+00 0. -1.
         13    1    3    3    0    0  0.22637970291E+02 -0.12310392395E+02  0.31715828247E+00  0.25770604363E+02  0.00000000000E+00 0.  1.
          1    1    1    2  501    0 -0.11704596926E+02 -0.30350981803E+02  0.64344093754E+02  0.72099529032E+02  0.00000000000E+00 0. -1.
<scales pt_clust_5="13000.00000" pt_clust_6="13000.00000" pt_clust_7="13000.00000" pt_clust_8="13000.00000" pt_clust_9="32.52967"></scales>
<clustering>
<clus scale="   32.530">  1  9  2 -1</clus>
<clus scale="   79.921">  5  6 -1 -1</clus>
<clus scale="   91.208">  7  8 -1 -1</clus>
<clus scale="   97.247">  1  5  2 -1</clus>
<clus scale="   32.530">  1  5  2 -1</clus>
</clustering>
</event>
<event>
 9    2  0.1751298E-004  0.3042736E+03  0.7546771E-02  0.1083124E+00
         21   -1    0    0  501  502  0.00000000000E+00  0.00000000000E+00  0.10098522816E+03  0.10098522816E+03  0.00000000000E+00 0. -1.
          4   -1    0    0  502    0 -0.00000000000E+00 -0.00000000000E+00 -0.71689644345E+03  0.71689644345E+03  0.00000000000E+00 0. -1.
         24    2    1    2    0    0 -0.15230446443E+03 -0.88283311225E+02 -0.24765826666E+03  0.31447857625E+03  0.81065189510E+02 0.  0.
         23    2    1    2    0    0 -0.57738225268E+02 -0.14205599694E+02 -0.11001086309E+03  0.15510597636E+03  0.91760406416E+02 0.  0.
        -13    1    3    3    0    0 -0.11724840945E+03 -0.77557737109E+02 -0.23824691125E+03  0.27662968536E+03  0.00000000000E+00 0.  1.
         14    1    3    3    0    0 -0.35056054983E+02 -0.10725574116E+02 -0.94113554135E+01  0.37848890893E+02  0.00000000000E+00 0. -1.
        -13    1    4    4    0    0 -0.47162516787E+02  0.34424759001E+02 -0.70644095562E+02  0.91651269821E+02  0.00000000000E+00 0. -1.
         13    1    4    4    0    0 -0.10575708481E+02 -0.48630358694E+02 -0.39366767529E+02  0.63454706541E+02  0.00000000000E+00 0.  1.
          3    1    1    2  501    0  0.21004268970E+03  0.10248891092E+03 -0.25824208553E+03  0.34829711899E+03  0.00000000000E+00 0. -1.
<scales pt_clust_5="13000.00000" pt_clust_6="13000.00000" pt_clust_7="13000.00000" pt_clust_8="13000.00000" pt_clust_9="233.71330"></scales>
<clustering>
<clus scale="   81.065">  5  6 -1 -1</clus>
<clus scale="   91.760">  7  8 -1 -1</clus>
<clus scale="   94.633">  5  7 -1 -1</clus>
<clus scale="  233.713">  1  9  2 -1</clus>
<clus scale="  233.713">  1  5  2 -1</clus>
</clustering>
</event>
<event>
 9    2  0.1751298E-004  0.1125271E+03  0.7546771E-02  0.1265220E+00
         21   -1    0    0  501  502  0.00000000000E+00  0.00000000000E+00  0.26764049631E+02  0.26764049631E+02  0.00000000000E+00 0. -1.
          2   -1    0    0  502    0 -0.00000000000E+00 -0.00000000000E+00 -0.16120884645E+04  0.16120884645E+04  0.00000000000E+00 0. -1.
         24    2    1    2    0    0  0.44281551946E+02 -0.20414281873E+02 -0.10872318045E+04  0.10912722295E+04  0.80152874417E+02 0.  0.
         23    2    1    2    0    0  0.40288096894E+02 -0.31386956460E+02 -0.13442224807E+03  0.17062998795E+03  0.91853036018E+02 0.  0.
        -13    1    3    3    0    0 -0.82515445678E+01  0.18907268690E+02 -0.11553639544E+03  0.11736367184E+03  0.00000000000E+00 0.  1.
         14    1    3    3    0    0  0.52533096514E+02 -0.39321550563E+02 -0.97169540909E+03  0.97390855763E+03  0.00000000000E+00 0. -1.
        -13    1    4    4    0    0  0.18927281184E+02  0.12542405794E+02 -0.11635278901E+03  0.11854756609E+03  0.00000000000E+00 0.  1.
         13    1    4    4    0    0  0.21360815710E+02 -0.43929362254E+02 -0.18069459054E+02  0.52082421856E+02  0.00000000000E+00 0. -1.
          1    1    1    2  501    0 -0.84569648840E+02  0.51801238333E+02 -0.36367036231E+03  0.37695029675E+03  0.00000000000E+00 0. -1.
<scales pt_clust_5="13000.00000" pt_clust_6="13000.00000" pt_clust_7="13000.00000" pt_clust_8="13000.00000" pt_clust_9="65.00281"></scales>
<clustering>
<clus scale="   80.153">  5  6 -1 -1</clus>
<clus scale="   91.853">  7  8 -1 -1</clus>
<clus scale="   93.819">  2  5  1 -1</clus>
<clus scale="   65.003">  1  9  2 -1</clus>
<clus scale="   65.003">  1  5  2 -1</clus>
</clustering>
</event>
<event>
 9    2  0.1751298E-004  0.1096350E+03  0.7546771E-02  0.1264472E+00
         21   -1    0    0  501  502  0.00000000000E+00  0.00000000000E+00  0.44955027247E+02  0.44955027247E+02  0.00000000000E+00 0. -1.
          2   -1    0    0  502    0 -0.00000000000E+00 -0.00000000000E+00 -0.70655208149E+03  0.70655208149E+03  0.00000000000E+00 0. -1.
         24    2    1    2    0    0  0.25399336712E+02  0.40381248093E+02 -0.27220579194E+03  0.28803881414E+03  0.81207104246E+02 0.  0.
         23    2    1    2    0    0 -0.10472256394E+03 -0.17683743099E+02 -0.34005280597E+03  0.36733487489E+03  0.89551489644E+02 0.  0.
        -13    1    3    3    0    0  0.33165141419E+01  0.22058094373E+02 -0.10306041509E+02  0.24571798570E+02  0.00000000000E+00 0.  1.
         14    1    3    3    0    0  0.22082822570E+02  0.18323153721E+02 -0.26189975044E+03  0.26346701557E+03  0.00000000000E+00 0. -1.
        -11    1    4    4    0    0 -0.55308828205E+02 -0.30709308288E+02 -0.28614774201E+03  0.29305743182E+03  0.00000000000E+00 0.  1.
         11    1    4    4    0    0 -0.49413735736E+02  0.13025565189E+02 -0.53905063961E+02  0.74277443067E+02  0.00000000000E+00 0. -1.
          1    1    1    2  501    0  0.79323227230E+02 -0.22697504994E+02 -0.49338456331E+02  0.96133419705E+02  0.00000000000E+00 0. -1.
<scales pt_clust_5="13000.00000" pt_clust_6="13000.00000" pt_clust_7="13000.00000" pt_clust_8="13000.00000" pt_clust_9="82.50667"></scales>
<clustering>
<clus scale="   81.207">  5  6 -1 -1</clus>
<clus scale="   82.507">  1  9  2 -1</clus>
<clus scale="   89.551">  7  8 -1 -1</clus>
<clus scale="  102.932">  2  5  1 -1</clus>
<clus scale="   82.507">  1  5  2 -1</clus>
</clustering>
</event>
<event>
 9    2  0.1751298E-004  0.1717824E+03  0.7546771E-02  0.1214655E+00
         21   -1    0    0  501  502  0.00000000000E+00  0.00000000000E+00  0.18591227414E+03  0.18591227414E+03  0.00000000000E+00 0.  1.
          2   -1    0    0  502    0 -0.00000000000E+00 -0.00000000000E+00 -0.21881440823E+03  0.21881440823E+03  0.00000000000E+00 0. -1.
         24    2    1    2    0    0  0.10494188257E+02  0.10479287604E+02  0.42992937513E+00  0.73683040111E+02  0.72173832550E+02 0.  0.
         23    2    1    2    0    0  0.12966216199E+03  0.51866974048E+02  0.20721283961E+02  0.16840101800E+03  0.91799085000E+02 0.  0.
        -11    1    3    3    0    0 -0.68188461731E+01  0.35105049713E+02 -0.16236654247E+02  0.39274547987E+02  0.00000000000E+00 0.  1.
         12    1    3    3    0    0  0.17313034430E+02 -0.24625762109E+02  0.16666583622E+02  0.34408492124E+02  0.00000000000E+00 0. -1.
        -13    1    4    4    0    0  0.96692411074E+02  0.76891732998E+02  0.35507398595E+01  0.12358951702E+03  0.00000000000E+00 0.  1.
         13    1    4    4    0    0  0.32969750917E+02 -0.25024758950E+02  0.17170544102E+02  0.44811500988E+02  0.00000000000E+00 0. -1.
          1    1    1    2  501    0 -0.14015635025E+03 -0.62346261652E+02 -0.54053347429E+02  0.16264262426E+03  0.00000000000E+00 0. -1.
<scales pt_clust_5="13000.00000" pt_clust_6="13000.00000" pt_clust_7="13000.00000" pt_clust_8="13000.00000" pt_clust_9="145.19696"></scales>
<clustering>
<clus scale="   72.174">  5  6 -1 -1</clus>
<clus scale="   73.682">  2  5  1 -1</clus>
<clus scale="   91.799">  7  8 -1 -1</clus>
<clus scale="  145.197">  1  9  2 -1</clus>
<clus scale="  145.197">  1  5  2 -1</clus>
</clustering>
</event>
<event>
 9    2  0.1751298E-004  0.2143052E+03  0.7546771E-02  0.1139203E+00
         -1   -1    0    0    0  501 -0.00000000000E+00  0.00000000000E+00  0.85590659521E+03  0.85590659521E+03  0.00000000000E+00 0.  1.
         21   -1    0    0  501  502  0.00000000000E+00 -0.00000000000E+00 -0.23989069677E+03  0.23989069677E+03  0.00000000000E+00 0.  1.
         23    2    1    2    0    0 -0.17441993149E+03 -0.96571564068E+02  0.66894190546E+03  0.70382600906E+03  0.90218615910E+02 0.  0.
         24    2    1    2    0    0  0.15985624841E+03  0.79473907444E+02  0.11271427947E+03  0.22481526230E+03  0.77248114829E+02 0.  0.
        -11    1    4    4    0    0  0.10720225580E+03  0.90613946057E+02  0.75522439263E+02  0.15939526248E+03  0.00000000000E+00 0.  1.
         12    1    4    4    0    0  0.52653992609E+02 -0.11140038613E+02  0.37191840207E+02  0.65419999816E+02  0.00000000000E+00 0. -1.
        -13    1    3    3    0    0 -0.71177008622E+02 -0.87171548444E+02  0.29357802075E+03  0.31440912786E+03  0.00000000000E+00 0. -1.
         13    1    3    3    0    0 -0.10324292287E+03 -0.94000156243E+01  0.37536388471E+03  0.38941688120E+03  0.00000000000E+00 0.  1.
         -2    1    1    2    0  502  0.14563683079E+02  0.17097656624E+02 -0.16564028648E+03  0.16715602063E+03  0.00000000000E+00 0.  1.
<scales pt_clust_5="13000.00000" pt_clust_6="13000.00000" pt_clust_7="13000.00000" pt_clust_8="13000.00000" pt_clust_9="22.45954"></scales>
<clustering>
<clus scale="   22.460">  2  9  1 -1</clus>
<clus scale="   77.248">  5  6 -1 -1</clus>
<clus scale="   90.219">  7  8 -1 -1</clus>
<clus scale="  209.176">  2  5  1 -1</clus>
<clus scale="   22.460">  2  5  1 -1</clus>
</clustering>
</event>
<event>
 9    2  0.1751298E-004  0.9090563E+02  0.7546771E-02  0.1302491E+00
         21   -1    0    0  501  502  0.00000000000E+00  0.00000000000E+00  0.47343518579E+02  0.47343518579E+02  0.00000000000E+00 0. -1.
          2   -1    0    0  502    0 -0.00000000000E+00 -0.00000000000E+00 -0.34330189218E+03  0.34330189218E+03  0.00000000000E+00 0. -1.
         23    2    1    2    0    0 -0.22987053098E+02 -0.28805992936E+01 -0.98327057706E+02  0.12891743066E+03  0.80092391576E+02 0.  0.
         24    2    1    2    0    0  0.24912247183E+02  0.64052674695E+02 -0.10465980699E+03  0.15042016075E+03  0.83361768001E+02 0.  0.
        -13    1    4    4    0    0 -0.66169771126E+01  0.34325465665E+02 -0.10106241052E+03  0.10693751820E+03  0.00000000000E+00 0.  1.
         14    1    4    4    0    0  0.31529224296E+02  0.29727209030E+02 -0.35973964731E+01  0.43482642546E+02  0.00000000000E+00 0. -1.
        -13    1    3    3    0    0  0.19832645767E+02 -0.45595884747E+01  0.13748220179E+01  0.20396416860E+02  0.00000000000E+00 0.  1.
         13    1    3    3    0    0 -0.42819698865E+02  0.16789891811E+01 -0.99701879723E+02  0.10852101380E+03  0.00000000000E+00 0. -1.
          1    1    1    2  501    0 -0.19251940847E+01 -0.61172075402E+02 -0.92971508902E+02  0.11130781935E+03  0.00000000000E+00 0. -1.
<scales pt_clust_5="13000.00000" pt_clust_6="13000.00000" pt_clust_7="13000.00000" pt_clust_8="13000.00000" pt_clust_9="61.20239"></scales>
<clustering>
<clus scale="   61.202">  1  9  2 -1</clus>
<clus scale="   80.092">  7  8 -1 -1</clus>
<clus scale="   83.362">  5  6 -1 -1</clus>
<clus scale="   87.917">  2  7  1 -1</clus>
<clus scale="   61.202">  1  5  2 -1</clus>
</clustering>
</event>
<event>
 9    2  0.1751298E-004  0.9977755E+02  0.7546771E-02  0.1289451E+00
         21   -1    0    0  501  502  0.00000000000E+00  0.00000000000E+00  0.26000767852E+02  0.26000767852E+02  0.00000000000E+00 0. -1.
          2   -1    0    0  502    0 -0.00000000000E+00 -0.00000000000E+00 -0.66466292527E+03  0.66466292527E+03  0.00000000000E+00 0. -1.
         24    2    1    2    0    0 -0.45774370306E+02  0.70903324514E+01 -0.39844760453E+03  0.40870471787E+03  0.78316582288E+02 0.  0.
         23    2    1    2    0    0  0.44038130116E+01  0.37473434904E+00 -0.20966898235E+03  0.22999473646E+03  0.94429670373E+02 0.  0.
        -11    1    3    3    0    0 -0.35764623802E+02  0.33624564680E+02 -0.13341872582E+03  0.14216285051E+03  0.00000000000E+00 0.  1.
         12    1    3    3    0    0 -0.10009746504E+02 -0.26534232228E+02 -0.26502887871E+03  0.26654186736E+03  0.00000000000E+00 0. -1.
        -11    1    4    4    0    0 -0.33655407164E+02 -0.30483101386E+02 -0.94886916402E+02  0.10519236097E+03  0.00000000000E+00 0. -1.
         11    1    4    4    0    0  0.38059220175E+02  0.30857835735E+02 -0.11478206595E+03  0.12480237550E+03  0.00000000000E+00 0.  1.
          1    1    1    2  501    0  0.41370557295E+02 -0.74650668004E+01 -0.30545570534E+02  0.51964238784E+02  0.00000000000E+00 0. -1.
<scales pt_clust_5="13000.00000" pt_clust_6="13000.00000" pt_clust_7="13000.00000" pt_clust_8="13000.00000" pt_clust_9="42.03868"></scales>
<clustering>
<clus scale="   42.039">  1  9  2 -1</clus>
<clus scale="   78.317">  5  6 -1 -1</clus>
<clus scale="   84.688">  2  5  1 -1</clus>
<clus scale="   94.430">  7  8 -1 -1</clus>
<clus scale="   42.039">  1  5  2 -1</clus>
</clustering>
</event>
<event>
 9    2  0.1751298E-004  0.1932016E+03  0.7546771E-02  0.1156720E+00
         21   -1    0    0  501  502  0.00000000000E+00  0.00000000000E+00  0.12574701894E+04  0.12574701894E+04  0.00000000000E+00 0. -1.
         -1   -1    0    0    0  501 -0.00000000000E+00 -0.00000000000E+00 -0.63625021359E+02  0.63625021359E+02  0.00000000000E+00 0.  1.
         23    2    1    2    0    0 -0.12369078137E+03  0.11331784849E+03  0.12530445924E+03  0.22786089150E+03  0.89883447793E+02 0.  0.
         24    2    1    2    0    0  0.12846603880E+03 -0.13898140980E+03  0.94511071688E+03  0.96707416561E+03  0.78605465727E+02 0.  0.
        -11    1    4    4    0    0  0.58021948600E+02 -0.11507700532E+02  0.25709119868E+03  0.26380837388E+03  0.00000000000E+00 0.  1.
         12    1    4    4    0    0  0.70444090199E+02 -0.12747370926E+03  0.68801951820E+03  0.70326579174E+03  0.00000000000E+00 0. -1.
        -13    1    3    3    0    0 -0.55336744135E+02  0.49511950574E+02  0.11058717018E+03  0.13320326839E+03  0.00000000000E+00 0. -1.
         13    1    3    3    0    0 -0.68354037234E+02  0.63805897919E+02  0.14717289056E+02  0.94657623108E+02  0.00000000000E+00 0.  1.
         -2    1    1    2    0  502 -0.47752574299E+01  0.25663561303E+02  0.12342999194E+03  0.12616015366E+03  0.00000000000E+00 0.  1.
<scales pt_clust_5="13000.00000" pt_clust_6="13000.00000" pt_clust_7="13000.00000" pt_clust_8="13000.00000" pt_clust_9="26.10405"></scales>
<clustering>
<clus scale="   26.104">  1  9  2 -1</clus>
<clus scale="   78.605">  5  6 -1 -1</clus>
<clus scale="   89.883">  7  8 -1 -1</clus>
<clus scale="  188.220">  1  5  2 -1</clus>
<clus scale="   26.104">  1  5  2 -1</clus>
</clustering>
</event>
<event>
 9    2  0.1751298E-004  0.2102276E+03  0.7546771E-02  0.1142312E+00
         21   -1    0    0  501  502  0.00000000000E+00  0.00000000000E+00  0.21085053463E+03  0.21085053463E+03  0.00000000000E+00 0. -1.
          2   -1    0    0  502    0 -0.00000000000E+00 -0.00000000000E+00 -0.54684657206E+03  0.54684657206E+03  0.00000000000E+00 0. -1.
         24    2    1    2    0    0 -0.50698533656E+01  0.19295025058E+03 -0.34471371074E+03  0.40314277244E+03  0.80256152324E+02 0.  0.
         23    2    1    2    0    0  0.31788025424E+02 -0.16542903686E+03  0.12717858665E+03  0.23003820715E+03  0.91465507428E+02 0.  0.
        -11    1    3    3    0    0  0.13508079992E+02  0.14313502560E+03 -0.30364337305E+03  0.33596041698E+03  0.00000000000E+00 0.  1.
         12    1    3    3    0    0 -0.18577933357E+02  0.49815224973E+02 -0.41070337689E+02  0.67182355458E+02  0.00000000000E+00 0. -1.
        -13    1    4    4    0    0  0.22166710698E+02 -0.86079525896E+02  0.12062674622E+03  0.14983944656E+03  0.00000000000E+00 0.  1.
         13    1    4    4    0    0  0.96213147267E+01 -0.79349510965E+02  0.65518404322E+01  0.80198760593E+02  0.00000000000E+00 0. -1.
          1    1    1    2  501    0 -0.26718172059E+02 -0.27521213714E+02 -0.11846091334E+03  0.12451612711E+03  0.00000000000E+00 0. -1.
<scales pt_clust_5="13000.00000" pt_clust_6="13000.00000" pt_clust_7="13000.00000" pt_clust_8="13000.00000" pt_clust_9="38.35726"></scales>
<clustering>
<clus scale="   38.357">  1  9  2 -1</clus>
<clus scale="   80.256">  5  6 -1 -1</clus>
<clus scale="   91.466">  7  8 -1 -1</clus>
<clus scale="  205.599">  2  5  1 -1</clus>
<clus scale="   38.357">  1  5  2 -1</clus>
</clustering>
</event>
<event>
 9    2  0.1751298E-004  0.1042534E+03  0.7546771E-02  0.1275232E+00
         21   -1    0    0  501  502  0.00000000000E+00  0.00000000000E+00  0.26912377752E+02  0.26912377752E+02  0.00000000000E+00 0. -1.
          2   -1    0    0  502    0 -0.00000000000E+00 -0.00000000000E+00 -0.84786295906E+03  0.84786295906E+03  0.00000000000E+00 0. -1.
         24    2    1    2    0    0  0.85882763984E+02 -0.31269804579E+02 -0.42105011021E+03  0.43852900927E+03  0.81675252242E+02 0.  0.
         23    2    1    2    0    0 -0.86618531029E+01 -0.52209060256E+00 -0.19188712216E+03  0.21209604980E+03  0.89937569536E+02 0.  0.
        -13    1    3    3    0    0  0.55953990300E+02  0.15920135817E+02 -0.13388930086E+03  0.14598165857E+03  0.00000000000E+00 0.  1.
         14    1    3    3    0    0  0.29928773685E+02 -0.47189940396E+02 -0.28716080935E+03  0.29254735069E+03  0.00000000000E+00 0. -1.
        -11    1    4    4    0    0  0.30653224090E+02 -0.10169158100E+02 -0.26351641581E+02  0.41682621529E+02  0.00000000000E+00 0. -1.
         11    1    4    4    0    0 -0.39315077193E+02  0.96470674971E+01 -0.16553548057E+03  0.17041342827E+03  0.00000000000E+00 0.  1.
          1    1    1    2  501    0 -0.77220910881E+02  0.31791895181E+02 -0.20801334894E+03  0.22415027774E+03  0.00000000000E+00 0. -1.
<scales pt_clust_5="13000.00000" pt_clust_6="13000.00000" pt_clust_7="13000.00000" pt_clust_8="13000.00000" pt_clust_9="83.50924"></scales>
<clustering>
<clus scale="   81.675">  5  6 -1 -1</clus>
<clus scale="   83.509">  1  9  2 -1</clus>
<clus scale="   89.938">  7  8 -1 -1</clus>
<clus scale="   97.216">  2  5  1 -1</clus>
<clus scale="   83.509">  1  5  2 -1</clus>
</clustering>
</event>
<event>
 9    2  0.1751298E-004  0.9667459E+02  0.7546771E-02  0.1291243E+00
         21   -1    0    0  501  502  0.00000000000E+00  0.00000000000E+00  0.23170946572E+03  0.23170946572E+03  0.00000000000E+00 0. -1.
         -1   -1    0    0    0  501 -0.00000000000E+00 -0.00000000000E+00 -0.60324183596E+02  0.60324183596E+02  0.00000000000E+00 0.  1.
         23    2    1    2    0    0  0.42314287631E+02 -0.85664615354E+01  0.28008045159E+02  0.10380693981E+03  0.90152908758E+02 0.  0.
         24    2    1    2    0    0 -0.22511362739E+02 -0.17807259318E+02  0.92083912532E+02  0.12724528515E+03  0.82994311298E+02 0.  0.
        -11    1    4    4    0    0 -0.43851729872E+02  0.10222818024E+02  0.25071707218E+02  0.51537081057E+02  0.00000000000E+00 0.  1.
         12    1    4    4    0    0  0.21340367133E+02 -0.28030077343E+02  0.67012205314E+02  0.75708204088E+02  0.00000000000E+00 0. -1.
        -13    1    3    3    0    0  0.71575488747E+01  0.39629950890E+02  0.10050299373E+02  0.41506289053E+02  0.00000000000E+00 0.  1.
         13    1    3    3    0    0  0.35156738756E+02 -0.48196412426E+02  0.17957745786E+02  0.62300650754E+02  0.00000000000E+00 0. -1.
         -2    1    1    2    0  502 -0.19802924892E+02  0.26373720854E+02  0.51293324438E+02  0.60981424367E+02  0.00000000000E+00 0.  1.
<scales pt_clust_5="13000.00000" pt_clust_6="13000.00000" pt_clust_7="13000.00000" pt_clust_8="13000.00000" pt_clust_9="32.98074"></scales>
<clustering>
<clus scale="   32.981">  1  9  2 -1</clus>
<clus scale="   82.994">  5  6 -1 -1</clus>
<clus scale="   90.036">  1  5  2 -1</clus>
<clus scale="   90.153">  7  8 -1 -1</clus>
<clus scale="   32.981">  1  5  2 -1</clus>
</clustering>
</event>
<event>
 9    2  0.1751298E-004  0.1612537E+03  0.7546771E-02  0.1216796E+00
         21   -1    0    0  501  502  0.00000000000E+00  0.00000000000E+00  0.49341938720E+03  0.49341938720E+03  0.00000000000E+00 0.  1.
          2   -1    0    0  502    0 -0.00000000000E+00 -0.00000000000E+00 -0.27351609184E+03  0.27351609184E+03  0.00000000000E+00 0. -1.
         24    2    1    2    0    0  0.10601602863E+01  0.25867070931E+01 -0.20304671247E+03  0.22017203397E+03  0.85087849328E+02 0.  0.
         23    2    1    2    0    0  0.11577524474E+03 -0.61250591359E+02  0.37375076923E+03  0.40707619346E+03  0.94158629671E+02 0.  0.
        -11    1    3    3    0    0  0.22396211169E+02  0.37768577483E+02 -0.10010247977E+03  0.10930947889E+03  0.00000000000E+00 0.  1.
         12    1    3    3    0    0 -0.21336050883E+02 -0.35181870390E+02 -0.10294423270E+03  0.11086255508E+03  0.00000000000E+00 0. -1.
        -11    1    4    4    0    0  0.56993903932E+02  0.53533702983E+01  0.23840773104E+03  0.24518403267E+03  0.00000000000E+00 0.  1.
         11    1    4    4    0    0  0.58781340812E+02 -0.66603961657E+02  0.13534303819E+03  0.16189216078E+03  0.00000000000E+00 0. -1.
          1    1    1    2  501    0 -0.11683540503E+03  0.58663884266E+02  0.49199238594E+02  0.13968725162E+03  0.00000000000E+00 0. -1.
<scales pt_clust_5="13000.00000" pt_clust_6="13000.00000" pt_clust_7="13000.00000" pt_clust_8="13000.00000" pt_clust_9="130.90802"></scales>
<clustering>
<clus scale="   85.088">  5  6 -1 -1</clus>
<clus scale="   85.134">  2  5  1 -1</clus>
<clus scale="   94.159">  7  8 -1 -1</clus>
<clus scale="  130.908">  1  9  2 -1</clus>
<clus scale="  130.908">  1  5  2 -1</clus>
</clustering>
</event>
<event>
 9    2  0.1751298E-004  0.1009445E+03  0.7546771E-02  0.1283071E+00
          2   -1    0    0  502    0 -0.00000000000E+00  0.00000000000E+00  0.44756600486E+03  0.44756600486E+03  0.00000000000E+00 0. -1.
         21   -1    0    0  501  502  0.00000000000E+00 -0.00000000000E+00 -0.80212088253E+02  0.80212088253E+02  0.00000000000E+00 0. -1.
         24    2    1    2    0    0  0.36070425118E+02 -0.24088338261E+02  0.36538271436E+03  0.37716424140E+03  0.82867444953E+02 0.  0.
         23    2    1    2    0    0 -0.32800446100E+02 -0.25022058640E+02 -0.15921731134E+01  0.10126588833E+03  0.92467683221E+02 0.  0.
        -13    1    3    3    0    0 -0.14432183945E+01  0.28479878571E+02  0.95810285061E+02  0.99963978944E+02  0.00000000000E+00 0.  1.
         14    1    3    3    0    0  0.37513643513E+02 -0.52568216832E+02  0.26957242929E+03  0.27720026246E+03  0.00000000000E+00 0. -1.
        -13    1    4    4    0    0 -0.51863829628E+02 -0.48190648996E+02 -0.54952532158E+01  0.71009811169E+02  0.00000000000E+00 0. -1.
         13    1    4    4    0    0  0.19063383528E+02  0.23168590356E+02  0.39030801024E+01  0.30256077157E+02  0.00000000000E+00 0.  1.
          1    1    1    2  501    0 -0.32699790186E+01  0.49110396901E+02  0.35633753668E+01  0.49347963388E+02  0.00000000000E+00 0. -1.
<scales pt_clust_5="13000.00000" pt_clust_6="13000.00000" pt_clust_7="13000.00000" pt_clust_8="13000.00000" pt_clust_9="49.21914"></scales>
<clustering>
<clus scale="   49.219">  2  9  1 -1</clus>
<clus scale="   82.867">  5  6 -1 -1</clus>
<clus scale="   92.231">  1  5  2 -1</clus>
<clus scale="   92.468">  7  8 -1 -1</clus>
<clus scale="   49.219">  2  5  1 -1</clus>
</clustering>
</event>
<event>
 9    2  0.1751298E-004  0.9366284E+02  0.7546771E-02  0.1301018E+00
         21   -1    0    0  501  502  0.00000000000E+00  0.00000000000E+00  0.10474333908E+03  0.10474333908E+03  0.00000000000E+00 0. -1.
          2   -1    0    0  502    0 -0.00000000000E+00 -0.00000000000E+00 -0.40998008261E+03  0.40998008261E+03  0.00000000000E+00 0. -1.
         23    2    1    2    0    0  0.17289859742E+01 -0.20103790982E+02 -0.36866484965E+03  0.38029712923E+03  0.91131681226E+02 0.  0.
         24    2    1    2    0    0 -0.20520512364E+02  0.35407248466E+02  0.32894272397E+02  0.95443831317E+02  0.79703996815E+02 0.  0.
        -13    1    4    4    0    0 -0.15390309751E+02 -0.13406903251E+02  0.40901982801E+02  0.45711911862E+02  0.00000000000E+00 0.  1.
         14    1    4    4    0    0 -0.51302026131E+01  0.48814151717E+02 -0.80077104037E+01  0.49731919455E+02  0.00000000000E+00 0. -1.
        -11    1    3    3    0    0 -0.44355961825E+02 -0.44939242367E+01 -0.16755187809E+03  0.17338188647E+03  0.00000000000E+00 0. -1.
         11    1    3    3    0    0  0.46084947800E+02 -0.15609866745E+02 -0.20111297157E+03  0.20691524276E+03  0.00000000000E+00 0.  1.
          1    1    1    2  501    0  0.18791526390E+02 -0.15303457484E+02  0.30533833729E+02  0.38982461149E+02  0.00000000000E+00 0. -1.
<scales pt_clust_5="13000.00000" pt_clust_6="13000.00000" pt_clust_7="13000.00000" pt_clust_8="13000.00000" pt_clust_9="24.23463"></scales>
<clustering>
<clus scale="   24.235">  1  9  2 -1</clus>
<clus scale="   79.704">  5  6 -1 -1</clus>
<clus scale="   82.586">  1  5  2 -1</clus>
<clus scale="   91.132">  7  8 -1 -1</clus>
<clus scale="   24.235">  1  5  2 -1</clus>
</clustering>
</event>
<event>
 9    2  0.1751298E-004  0.1293022E+03  0.7546771E-02  0.1231896E+00
         -1   -1    0    0    0  501 -0.00000000000E+00  0.00000000000E+00  0.31899467075E+03  0.31899467075E+03  0.00000000000E+00 0.  1.
         21   -1    0    0  501  502  0.00000000000E+00 -0.00000000000E+00 -0.72381968634E+02  0.72381968634E+02  0.00000000000E+00 0. -1.
         23    2    1    2    0    0  0.25149193227E+02 -0.92941526407E+02  0.14597237384E+03  0.19807347402E+03  0.93029876585E+02 0.  0.
         24    2    1    2    0    0 -0.22473904509E+01  0.84940001071E+02  0.11587651479E+03  0.16465603012E+03  0.80401411849E+02 0.  0.
        -11    1    4    4    0    0 -0.40169387082E+02  0.31596061828E+02  0.43914868140E+02  0.67382537985E+02  0.00000000000E+00 0.  1.
         12    1    4    4    0    0  0.37921996631E+02  0.53343939243E+02  0.71961646653E+02  0.97273492131E+02  0.00000000000E+00 0. -1.
        -11    1    3    3    0    0 -0.22951504301E+02 -0.40275626059E+02  0.10741962860E+03  0.11699518885E+03  0.00000000000E+00 0.  1.
         11    1    3    3    0    0  0.48100697529E+02 -0.52665900348E+02  0.38552745234E+02  0.81078285177E+02  0.00000000000E+00 0. -1.
         -2    1    1    2    0  502 -0.22901802777E+02  0.80015253362E+01 -0.15236186515E+02  0.28647135243E+02  0.00000000000E+00 0.  1.
<scales pt_clust_5="13000.00000" pt_clust_6="13000.00000" pt_clust_7="13000.00000" pt_clust_8="13000.00000" pt_clust_9="24.25937"></scales>
<clustering>
<clus scale="   24.259">  2  9  1 -1</clus>
<clus scale="   80.401">  5  6 -1 -1</clus>
<clus scale="   93.030">  7  8 -1 -1</clus>
<clus scale="  120.536">  2  5  1 -1</clus>
<clus scale="   24.259">  2  5  1 -1</clus>
</clustering>
</event>
<event>
 9    2  0.1751298E-004  0.1958421E+03  0.7546771E-02  0.1187542E+00
          2   -1    0    0  502    0 -0.00000000000E+00  0.00000000000E+00  0.41100842165E+03  0.41100842165E+03  0.00000000000E+00 0. -1.
         21   -1    0    0  501  502  0.00000000000E+00 -0.00000000000E+00 -0.25567819600E+03  0.25567819600E+03  0.00000000000E+00 0. -1.
         24    2    1    2    0    0 -0.14751371308E+02 -0.40225534102E+02  0.21842235522E+03  0.23605178073E+03  0.78590211733E+02 0.  0.
         23    2    1    2    0    0 -0.12635449295E+03 -0.68511313465E+02  0.90368186826E+02  0.19550798678E+03  0.96941764689E+02 0.  0.
        -11    1    3    3    0    0 -0.25979371943E+02  0.17005201035E+02  0.69733883163E+02  0.76334258952E+02  0.00000000000E+00 0.  1.
         12    1    3    3    0    0  0.11228000635E+02 -0.57230735137E+02  0.14868847205E+03  0.15971752178E+03  0.00000000000E+00 0. -1.
        -13    1    4    4    0    0 -0.82412306186E+02 -0.59179606174E+02  0.10714030177E+03  0.14755696616E+03  0.00000000000E+00 0.  1.
         13    1    4    4    0    0 -0.43942186767E+02 -0.93317072914E+01 -0.16772114944E+02  0.47951020620E+02  0.00000000000E+00 0. -1.
          1    1    1    2  501    0  0.14110586426E+03  0.10873684757E+03 -0.15346031639E+03  0.23512685014E+03  0.00000000000E+00 0. -1.
<scales pt_clust_5="13000.00000" pt_clust_6="13000.00000" pt_clust_7="13000.00000" pt_clust_8="13000.00000" pt_clust_9="170.16587"></scales>
<clustering>
<clus scale="   78.590">  5  6 -1 -1</clus>
<clus scale="   89.510">  1  5  2 -1</clus>
<clus scale="   96.942">  7  8 -1 -1</clus>
<clus scale="  170.166">  2  9  1 -1</clus>
<clus scale="  170.166">  2  5  1 -1</clus>
</clustering>
</event>
<event>
 9    2  0.1751298E-004  0.4286086E+03  0.7546771E-02  0.1034403E+00
          2   -1    0    0  502    0 -0.00000000000E+00  0.00000000000E+00  0.13029217466E+04  0.13029217466E+04  0.00000000000E+00 0. -1.
         21   -1    0    0  501  502  0.00000000000E+00 -0.00000000000E+00 -0.24348871965E+03  0.24348871965E+03  0.00000000000E+00 0. -1.
         24    2    1    2    0    0  0.18856160352E+03  0.39516585995E+03  0.36287126675E+03  0.57475892580E+03  0.83430997597E+02 0.  0.
         23    2    1    2    0    0  0.47213615644E+01 -0.42185429473E+03  0.28728797544E+03  0.51824707638E+03  0.89790389835E+02 0.  0.
        -13    1    3    3    0    0  0.30930972280E+02  0.11897659006E+03  0.65106375693E+02  0.13910785090E+03  0.00000000000E+00 0.  1.
         14    1    3    3    0    0  0.15763063124E+03  0.27618926990E+03  0.29776489106E+03  0.43565107490E+03  0.00000000000E+00 0. -1.
        -11    1    4    4    0    0  0.28401392539E+02 -0.39044462742E+03  0.26810620596E+03  0.47448349166E+03  0.00000000000E+00 0. -1.
         11    1    4    4    0    0 -0.23680030974E+02 -0.31409667310E+02  0.19181769473E+02  0.43763584720E+02  0.00000000000E+00 0.  1.
          1    1    1    2  501    0 -0.19328296508E+03  0.26688434777E+02  0.40927378477E+03  0.45340446407E+03  0.00000000000E+00 0. -1.
<scales pt_clust_5="13000.00000" pt_clust_6="13000.00000" pt_clust_7="13000.00000" pt_clust_8="13000.00000" pt_clust_9="195.11693"></scales>
<clustering>
<clus scale="   83.431">  5  6 -1 -1</clus>
<clus scale="   89.790">  7  8 -1 -1</clus>
<clus scale="  195.117">  2  9  1 -1</clus>
<clus scale="  427.322">  1  5  2 -1</clus>
<clus scale="  195.117">  2  5  1 -1</clus>
</clustering>
</event>
<event>
 9    2  0.1751298E-004  0.1030374E+03  0.7546771E-02  0.1278969E+00
         -3   -1    0    0    0  501 -0.00000000000E+00  0.00000000000E+00  0.64600939531E+03  0.64600939531E+03  0.00000000000E+00 0.  1.
         21   -1    0    0  501  502  0.00000000000E+00 -0.00000000000E+00 -0.56290416082E+02  0.56290416082E+02  0.00000000000E+00 0.  1.
         24    2    1    2    0    0 -0.18285552162E+01  0.44921821197E+02  0.39063701536E+03  0.40254417548E+03  0.86158120958E+02 0.  0.
         23    2    1    2    0    0 -0.52044035564E+02 -0.89404713014E+01  0.20720734977E+03  0.23446447668E+03  0.96177915147E+02 0.  0.
        -11    1    3    3    0    0  0.41802677590E+02  0.16675053584E+02  0.19423073358E+03  0.19937677681E+03  0.00000000000E+00 0.  1.
         12    1    3    3    0    0 -0.43631232806E+02  0.28246767613E+02  0.19640628178E+03  0.20316739867E+03  0.00000000000E+00 0. -1.
        -13    1    4    4    0    0  0.16029355139E+02  0.27646830128E+02  0.51010056197E+02  0.60193963780E+02  0.00000000000E+00 0. -1.
         13    1    4    4    0    0 -0.68073390703E+02 -0.36587301429E+02  0.15619729357E+03  0.17427051290E+03  0.00000000000E+00 0.  1.
         -4    1    1    2    0  502  0.53872590780E+02 -0.35981349896E+02 -0.81253859049E+01  0.65291159231E+02  0.00000000000E+00 0.  1.
<scales pt_clust_5="13000.00000" pt_clust_6="13000.00000" pt_clust_7="13000.00000" pt_clust_8="13000.00000" pt_clust_9="64.78359"></scales>
<clustering>
<clus scale="   64.784">  2  9  1 -1</clus>
<clus scale="   86.158">  5  6 -1 -1</clus>
<clus scale="   93.754">  1  5  2 -1</clus>
<clus scale="   96.178">  7  8 -1 -1</clus>
<clus scale="   64.784">  2  5  1 -1</clus>
</clustering>
</event>
<event>
 9    2  0.1751298E-004  0.1722926E+03  0.7546771E-02  0.1177223E+00
         -1   -1    0    0    0  501 -0.00000000000E+00  0.00000000000E+00  0.16881806194E+03  0.16881806194E+03  0.00000000000E+00 0.  1.
         21   -1    0    0  501  502  0.00000000000E+00 -0.00000000000E+00 -0.27511951270E+03  0.27511951270E+03  0.00000000000E+00 0.  1.
         23    2    1    2    0    0  0.11077863879E+02  0.12541955372E+03 -0.10169167803E+02  0.15570082723E+03  0.91030500940E+02 0.  0.
         24    2    1    2    0    0 -0.32624239202E+02 -0.18387764835E+03 -0.10036453595E+03  0.22579071405E+03  0.77672877707E+02 0.  0.
        -11    1    4    4    0    0 -0.44031470679E+02 -0.60341379441E+02 -0.17873051909E+02  0.76806890756E+02  0.00000000000E+00 0.  1.
         12    1    4    4    0    0  0.11407231478E+02 -0.12353626890E+03 -0.82491484040E+02  0.14898382330E+03  0.00000000000E+00 0. -1.
        -13    1    3    3    0    0  0.41268861217E+02  0.57783072978E+02  0.22867399905E+02  0.74598394134E+02  0.00000000000E+00 0.  1.
         13    1    3    3    0    0 -0.30190997338E+02  0.67636480743E+02 -0.33036567708E+02  0.81102433092E+02  0.00000000000E+00 0. -1.
         -2    1    1    2    0  502  0.21546375323E+02  0.58458094625E+02  0.42322529991E+01  0.62446033359E+02  0.00000000000E+00 0.  1.
<scales pt_clust_5="13000.00000" pt_clust_6="13000.00000" pt_clust_7="13000.00000" pt_clust_8="13000.00000" pt_clust_9="62.30248"></scales>
<clustering>
<clus scale="   62.302">  2  9  1 -1</clus>
<clus scale="   77.673">  5  6 -1 -1</clus>
<clus scale="   91.031">  7  8 -1 -1</clus>
<clus scale="  165.624">  2  5  1 -1</clus>
<clus scale="   62.302">  2  5  1 -1</clus>
</clustering>
</event>
<event>
 9    2  0.1751298E-004  0.1071732E+03  0.7546771E-02  0.1272199E+00
          2   -1    0    0  502    0 -0.00000000000E+00  0.00000000000E+00  0.56605387125E+03  0.56605387125E+03  0.00000000000E+00 0. -1.
         21   -1    0    0  501  502  0.00000000000E+00 -0.00000000000E+00 -0.15934091282E+03  0.15934091282E+03  0.00000000000E+00 0. -1.
         23    2    1    2    0    0 -0.11701208383E+02  0.52031775221E+02  0.45253951350E+03  0.46545592985E+03  0.94936754968E+02 0.  0.
         24    2    1    2    0    0  0.26938162477E+02 -0.32756039923E+02  0.86279054616E+02  0.12556768598E+03  0.80774660313E+02 0.  0.
        -11    1    4    4    0    0  0.32335670762E+02  0.10439225239E+02  0.63701057105E+01  0.34570959980E+02  0.00000000000E+00 0.  1.
         12    1    4    4    0    0 -0.53975082850E+01 -0.43195265162E+02  0.79908948906E+02  0.90996726003E+02  0.00000000000E+00 0. -1.
        -11    1    3    3    0    0  0.76445015729E+01 -0.25506528949E+02  0.76007335464E+02  0.80536553612E+02  0.00000000000E+00 0.  1.
         11    1    3    3    0    0 -0.19345709956E+02  0.77538304171E+02  0.37653217804E+03  0.38491937624E+03  0.00000000000E+00 0. -1.
          1    1    1    2  501    0 -0.15236954094E+02 -0.19275735298E+02 -0.13210560969E+03  0.13437116823E+03  0.00000000000E+00 0. -1.
<scales pt_clust_5="13000.00000" pt_clust_6="13000.00000" pt_clust_7="13000.00000" pt_clust_8="13000.00000" pt_clust_9="24.57069"></scales>
<clustering>
<clus scale="   24.571">  2  9  1 -1</clus>
<clus scale="   80.775">  5  6 -1 -1</clus>
<clus scale="   94.856">  2  5  1 -1</clus>
<clus scale="   94.937">  7  8 -1 -1</clus>
<clus scale="   24.571">  2  5  1 -1</clus>
</clustering>
</event>
<event>
 9    2  0.1751298E-004  0.1155040E+03  0.7546771E-02  0.1256632E+00
         -3   -1    0    0    0  501 -0.00000000000E+00  0.00000000000E+00  0.10177915626E+03  0.10177915626E+03  0.00000000000E+00 0.  1.
         21   -1    0    0  501  502  0.00000000000E+00 -0.00000000000E+00 -0.32478743579E+03  0.32478743579E+03  0.00000000000E+00 0.  1.
         24    2    1    2    0    0 -0.65251317211E+02 -0.69633681954E+01  0.75982624817E+01  0.99264026081E+02  0.74090420343E+02 0.  0.
         23    2    1    2    0    0  0.67992923862E+02  0.88695377469E+02 -0.10883307732E+03  0.18061782084E+03  0.91039830885E+02 0.  0.
        -13    1    3    3    0    0 -0.71711750037E+02  0.16945358738E+02  0.10083862239E+02  0.74373412950E+02  0.00000000000E+00 0.  1.
         14    1    3    3    0    0  0.64604328263E+01 -0.23908726934E+02 -0.24855997571E+01  0.24890613131E+02  0.00000000000E+00 0. -1.
        -11    1    4    4    0    0  0.26402402285E+02 -0.16237974258E+02 -0.28155547619E+02  0.41874736013E+02  0.00000000000E+00 0. -1.
         11    1    4    4    0    0  0.41590521576E+02  0.10493335173E+03 -0.80677529698E+02  0.13874308483E+03  0.00000000000E+00 0.  1.
         -4    1    1    2    0  502 -0.27416066513E+01 -0.81732009274E+02 -0.12177346470E+03  0.14668474513E+03  0.00000000000E+00 0.  1.
<scales pt_clust_5="13000.00000" pt_clust_6="13000.00000" pt_clust_7="13000.00000" pt_clust_8="13000.00000" pt_clust_9="81.77798"></scales>
<clustering>
<clus scale="   74.090">  5  6 -1 -1</clus>
<clus scale="   81.778">  2  9  1 -1</clus>
<clus scale="   91.040">  7  8 -1 -1</clus>
<clus scale="  102.676">  1  5  2 -1</clus>
<clus scale="   81.778">  2  5  1 -1</clus>
</clustering>
</event>
<event>
 9    2  0.1751298E-004  0.9805435E+02  0.7546771E-02  0.1293423E+00
         21   -1    0    0  501  502  0.00000000000E+00  0.00000000000E+00  0.95903177146E+02  0.95903177146E+02  0.00000000000E+00 0. -1.
          2   -1    0    0  502    0 -0.00000000000E+00 -0.00000000000E+00 -0.53380941114E+03  0.53380941114E+03  0.00000000000E+00 0. -1.
         24    2    1    2    0    0 -0.44424906620E+02  0.12985601507E+02 -0.42009270856E+03  0.42919060701E+03  0.74729480033E+02 0.  0.
         23    2    1    2    0    0 -0.40851221314E+02 -0.18077053281E+01 -0.45875837519E+02  0.11005399402E+03  0.91297311299E+02 0.  0.
        -13    1    3    3    0    0  0.41713469855E+01 -0.25432610648E+02 -0.11122970772E+03  0.11417646736E+03  0.00000000000E+00 0.  1.
         14    1    3    3    0    0 -0.48596253606E+02  0.38418212156E+02 -0.30886300084E+03  0.31501413965E+03  0.00000000000E+00 0. -1.
        -11    1    4    4    0    0 -0.58642281827E+02  0.21089505371E+02 -0.87256094019E+01  0.62927106354E+02  0.00000000000E+00 0. -1.
         11    1    4    4    0    0  0.17791060513E+02 -0.22897210699E+02 -0.37150228117E+02  0.47126887666E+02  0.00000000000E+00 0.  1.
          1    1    1    2  501    0  0.85276127935E+02 -0.11177896179E+02  0.28062312084E+02  0.90467987255E+02  0.00000000000E+00 0. -1.
<scales pt_clust_5="13000.00000" pt_clust_6="13000.00000" pt_clust_7="13000.00000" pt_clust_8="13000.00000" pt_clust_9="86.00560"></scales>
<clustering>
<clus scale="   74.729">  5  6 -1 -1</clus>
<clus scale="   86.006">  1  9  2 -1</clus>
<clus scale="   82.849">  2  5  1 -1</clus>
<clus scale="   91.297">  7  8 -1 -1</clus>
<clus scale="   86.006">  1  5  2 -1</clus>
</clustering>
</event>
<event>
 9    2  0.1751298E-004  0.9394049E+02  0.7546771E-02  0.1299973E+00
          2   -1    0    0  502    0 -0.00000000000E+00  0.00000000000E+00  0.20035036771E+03  0.20035036771E+03  0.00000000000E+00 0. -1.
         21   -1    0    0  501  502  0.00000000000E+00 -0.00000000000E+00 -0.26449900355E+03  0.26449900355E+03  0.00000000000E+00 0.  1.
         23    2    1    2    0    0 -0.25632910357E+02 -0.20692828613E+01  0.17083606133E+03  0.19474275294E+03  0.89880208858E+02 0.  0.
         24    2    1    2    0    0  0.55843727017E+02 -0.12517526371E+02 -0.19442701549E+03  0.21747208601E+03  0.78848167584E+02 0.  0.
        -11    1    4    4    0    0  0.71670852297E+02 -0.12411703371E+01 -0.17846861304E+03  0.19232601856E+03  0.00000000000E+00 0.  1.
         12    1    4    4    0    0 -0.15827125280E+02 -0.11276356034E+02 -0.15958402444E+02  0.25146067458E+02  0.00000000000E+00 0. -1.
        -11    1    3    3    0    0 -0.15933606620E+02  0.42151179803E+02  0.11030758517E+03  0.11915689290E+03  0.00000000000E+00 0. -1.
         11    1    3    3    0    0 -0.96993037366E+01 -0.44220462664E+02  0.60528476158E+02  0.75585860035E+02  0.00000000000E+00 0.  1.
          1    1    1    2  501    0 -0.30210816660E+02  0.14586809232E+02 -0.40557681688E+02  0.52634532303E+02  0.00000000000E+00 0. -1.
<scales pt_clust_5="13000.00000" pt_clust_6="13000.00000" pt_clust_7="13000.00000" pt_clust_8="13000.00000" pt_clust_9="33.54800"></scales>
<clustering>
<clus scale="   33.548">  2  9  1 -1</clus>
<clus scale="   78.848">  5  6 -1 -1</clus>
<clus scale="   83.447">  2  5  1 -1</clus>
<clus scale="   89.880">  7  8 -1 -1</clus>
<clus scale="   33.548">  2  5  1 -1</clus>
</clustering>
</event>
<event>
 9    2  0.1751298E-004  0.1511622E+03  0.7546771E-02  0.1201120E+00
          2   -1    0    0  502    0 -0.00000000000E+00  0.00000000000E+00  0.28793681779E+03  0.28793681779E+03  0.00000000000E+00 0. -1.
         21   -1    0    0  501  502  0.00000000000E+00 -0.00000000000E+00 -0.28437159859E+03  0.28437159859E+03  0.00000000000E+00 0. -1.
         24    2    1    2    0    0 -0.11440935436E+03 -0.88245420494E+02  0.14355086161E+03  0.21877903313E+03  0.79879038954E+02 0.  0.
         23    2    1    2    0    0  0.89618436162E+02  0.33754340417E+02  0.59612174083E+02  0.14514714844E+03  0.91341468157E+02 0.  0.
        -11    1    3    3    0    0 -0.36132600869E+02 -0.14184966204E+02 -0.57584914941E+00  0.38821510970E+02  0.00000000000E+00 0.  1.
         12    1    3    3    0    0 -0.78276753494E+02 -0.74060454290E+02  0.14412671076E+03  0.17995752216E+03  0.00000000000E+00 0. -1.
        -13    1    4    4    0    0  0.48387965919E+02  0.63871106953E+01  0.78286048396E+02  0.92254516433E+02  0.00000000000E+00 0. -1.
         13    1    4    4    0    0  0.41230470242E+02  0.27367229722E+02 -0.18673874313E+02  0.52892632010E+02  0.00000000000E+00 0.  1.
          1    1    1    2  501    0  0.24790918202E+02  0.54491080077E+02 -0.19959781649E+03  0.20838223480E+03  0.00000000000E+00 0. -1.
<scales pt_clust_5="13000.00000" pt_clust_6="13000.00000" pt_clust_7="13000.00000" pt_clust_8="13000.00000" pt_clust_9="59.86541"></scales>
<clustering>
<clus scale="   59.865">  2  9  1 -1</clus>
<clus scale="   79.879">  5  6 -1 -1</clus>
<clus scale="   91.341">  7  8 -1 -1</clus>
<clus scale="  144.525">  1  5  2 -1</clus>
<clus scale="   59.865">  2  5  1 -1</clus>
</clustering>
</event>
<event>
 9    2  0.1751298E-004  0.1863587E+03  0.7546771E-02  0.1181473E+00
          2   -1    0    0  502    0 -0.00000000000E+00  0.00000000000E+00  0.85606946720E+03  0.85606946720E+03  0.00000000000E+00 0. -1.
         21   -1    0    0  501  502  0.00000000000E+00 -0.00000000000E+00 -0.77192488399E+02  0.77192488399E+02  0.00000000000E+00 0.  1.
         24    2    1    2    0    0 -0.97769278793E+01  0.87414615421E+02  0.17876697786E+03  0.21472054044E+03  0.80064816283E+02 0.  0.
         23    2    1    2    0    0  0.16575521941E+03 -0.15951048235E+02  0.16628088098E+03  0.25201813150E+03  0.90191898328E+02 0.  0.
        -13    1    3    3    0    0  0.34570350779E+02  0.33461276315E+02  0.59599397201E+02  0.76595393545E+02  0.00000000000E+00 0.  1.
         14    1    3    3    0    0 -0.44347278658E+02  0.53953339106E+02  0.11916758066E+03  0.13812514690E+03  0.00000000000E+00 0. -1.
        -13    1    4    4    0    0  0.26552450340E+02  0.31458670853E+02  0.25410712932E+02  0.48377524974E+02  0.00000000000E+00 0.  1.
         13    1    4    4    0    0  0.13920276907E+03 -0.47409719088E+02  0.14087016804E+03  0.20364060653E+03  0.00000000000E+00 0. -1.
          1    1    1    2  501    0 -0.15597829153E+03 -0.71463567186E+02  0.43382911996E+03  0.46652328365E+03  0.00000000000E+00 0. -1.
<scales pt_clust_5="13000.00000" pt_clust_6="13000.00000" pt_clust_7="13000.00000" pt_clust_8="13000.00000" pt_clust_9="163.07979"></scales>
<clustering>
<clus scale="   80.065">  5  6 -1 -1</clus>
<clus scale="   90.192">  7  8 -1 -1</clus>
<clus scale="  118.942">  1  5  2 -1</clus>
<clus scale="  163.080">  2  9  1 -1</clus>
<clus scale="  163.080">  2  5  1 -1</clus>
</clustering>
</event>
<event>
 9    2  0.1751298E-004  0.1719268E+03  0.7546771E-02  0.1177091E+00
         21   -1    0    0  501  502  0.00000000000E+00  0.00000000000E+00  0.31307156638E+02  0.31307156638E+02  0.00000000000E+00 0. -1.
          2   -1    0    0  502    0 -0.00000000000E+00 -0.00000000000E+00 -0.20064131021E+04  0.20064131021E+04  0.00000000000E+00 0. -1.
         23    2    1    2    0    0 -0.93970570663E+02 -0.20336840322E+02 -0.51433134973E+03  0.53133023759E+03  0.92363568761E+02 0.  0.
         24    2    1    2    0    0  0.20586360148E+03  0.80656283955E+02 -0.10570694964E+04  0.10831450651E+04  0.83198877419E+02 0.  0.
        -13    1    4    4    0    0  0.10733905474E+03 -0.17599250288E+01 -0.44882215638E+03  0.46148250029E+03  0.00000000000E+00 0.  1.
         14    1    4    4    0    0  0.98524546735E+02  0.82416208984E+02 -0.60824734006E+03  0.62166256483E+03  0.00000000000E+00 0. -1.
        -11    1    3    3    0    0 -0.84842063482E+01 -0.41226511930E+02 -0.11617671121E+03  0.12356631933E+03  0.00000000000E+00 0. -1.
         11    1    3    3    0    0 -0.85486364315E+02  0.20889671608E+02 -0.39815463852E+03  0.40776391826E+03  0.00000000000E+00 0.  1.
          1    1    1    2  501    0 -0.11189303081E+03 -0.60319443633E+02 -0.40370509933E+03  0.42324495608E+03  0.00000000000E+00 0. -1.
<scales pt_clust_5="13000.00000" pt_clust_6="13000.00000" pt_clust_7="13000.00000" pt_clust_8="13000.00000" pt_clust_9="127.11603"></scales>
<clustering>
<clus scale="   83.199">  5  6 -1 -1</clus>
<clus scale="   92.364">  7  8 -1 -1</clus>
<clus scale="  127.116">  1  9  2 -1</clus>
<clus scale="  167.182">  1  5  2 -1</clus>
<clus scale="  127.116">  1  5  2 -1</clus>
</clustering>
</event>
<event>
 9    2  0.1751298E-004  0.4301697E+03  0.7546771E-02  0.1033849E+00
         -3   -1    0    0    0  501 -0.00000000000E+00  0.00000000000E+00  0.77971413352E+03  0.77971413352E+03  0.00000000000E+00 0.  1.
         21   -1    0    0  501  502  0.00000000000E+00 -0.00000000000E+00 -0.48611028436E+03  0.48611028436E+03  0.00000000000E+00 0.  1.
         23    2    1    2    0    0 -0.52027723386E+02  0.42158931829E+03  0.57418899665E+03  0.71922971362E+03  0.84580965779E+02 0.  0.
         24    2    1    2    0    0  0.11932034241E+02 -0.40881677838E+03 -0.21651550768E+03  0.46994145378E+03  0.81807537474E+02 0.  0.
        -13    1    4    4    0    0  0.20348141703E+02 -0.40198037125E+03 -0.21981517328E+03  0.45860764946E+03  0.00000000000E+00 0.  1.
         14    1    4    4    0    0 -0.84161074616E+01 -0.68364071290E+01  0.32996655976E+01  0.11333804317E+02  0.00000000000E+00 0. -1.
        -13    1    3    3    0    0 -0.72888259546E+02  0.25484782493E+03  0.34814593340E+03  0.43756794123E+03  0.00000000000E+00 0.  1.
         13    1    3    3    0    0  0.20860536161E+02  0.16674149336E+03  0.22604306325E+03  0.28166177238E+03  0.00000000000E+00 0. -1.
         -4    1    1    2    0  502  0.40095689144E+02 -0.12772539909E+02 -0.64069639813E+02  0.76653250482E+02  0.00000000000E+00 0.  1.
<scales pt_clust_5="13000.00000" pt_clust_6="13000.00000" pt_clust_7="13000.00000" pt_clust_8="13000.00000" pt_clust_9="42.08090"></scales>
<clustering>
<clus scale="   42.081">  2  9  1 -1</clus>
<clus scale="   81.808">  5  6 -1 -1</clus>
<clus scale="   84.581">  7  8 -1 -1</clus>
<clus scale="  429.633">  2  5  1 -1</clus>
<clus scale="   42.081">  2  5  1 -1</clus>
</clustering>
</event>
<event>
 9    2  0.1751298E-004  0.1396774E+03  0.7546771E-02  0.1233232E+00
         21   -1    0    0  501  502  0.00000000000E+00  0.00000000000E+00  0.55835251111E+02  0.55835251111E+02  0.00000000000E+00 0.  1.
          2   -1    0    0  502    0 -0.00000000000E+00 -0.00000000000E+00 -0.10900338901E+04  0.10900338901E+04  0.00000000000E+00 0. -1.
         24    2    1    2    0    0 -0.48462047329E+02 -0.13527292505E+02 -0.27519719421E+03  0.29049663443E+03  0.78251142113E+02 0.  0.
         23    2    1    2    0    0  0.63632990261E+02  0.10957471968E+03 -0.71226069130E+02  0.16075733769E+03  0.68658517724E+02 0.  0.
        -13    1    3    3    0    0 -0.86579385349E+00 -0.39021912766E+02 -0.11701449374E+03  0.12335254768E+03  0.00000000000E+00 0.  1.
         14    1    3    3    0    0 -0.47596253475E+02  0.25494620261E+02 -0.15818270047E+03  0.16714408675E+03  0.00000000000E+00 0. -1.
        -13    1    4    4    0    0 -0.69716005484E+01  0.23441173335E+02 -0.36799307438E+02  0.44184622318E+02  0.00000000000E+00 0. -1.
         13    1    4    4    0    0  0.70604590809E+02  0.86133546344E+02 -0.34426761692E+02  0.11657271537E+03  0.00000000000E+00 0.  1.
          1    1    1    2  501    0 -0.15170942932E+02 -0.96047427174E+02 -0.68777537569E+03  0.69461516913E+03  0.00000000000E+00 0. -1.
<scales pt_clust_5="13000.00000" pt_clust_6="13000.00000" pt_clust_7="13000.00000" pt_clust_8="13000.00000" pt_clust_9="121.63799"></scales>
<clustering>
<clus scale="   68.659">  7  8 -1 -1</clus>
<clus scale="   78.251">  5  6 -1 -1</clus>
<clus scale="   93.031">  2  5  1 -1</clus>
<clus scale="  121.638">  1  9  2 -1</clus>
<clus scale="  121.638">  1  5  2 -1</clus>
</clustering>
</event>
<event>
 9    2  0.1751298E-004  0.9500699E+02  0.7546771E-02  0.1296926E+00
         21   -1    0    0  501  502  0.00000000000E+00  0.00000000000E+00  0.17431294161E+03  0.17431294161E+03  0.00000000000E+00 0. -1.
          2   -1    0    0  502    0 -0.00000000000E+00 -0.00000000000E+00 -0.89969330337E+02  0.89969330337E+02  0.00000000000E+00 0. -1.
         23    2    1    2    0    0 -0.30206219236E+02  0.44333553856E+01 -0.16587197479E+02  0.97606008457E+02  0.91212539961E+02 0.  0.
         24    2    1    2    0    0  0.15285509089E+02  0.14294104441E+02  0.11236328593E+03  0.14014238180E+03  0.81095073489E+02 0.  0.
        -13    1    4    4    0    0  0.35434179357E+02 -0.21819254509E+02  0.46784058677E+02  0.62613170183E+02  0.00000000000E+00 0.  1.
         14    1    4    4    0    0 -0.20148670268E+02  0.36113358950E+02  0.65579227248E+02  0.77529211622E+02  0.00000000000E+00 0. -1.
        -13    1    3    3    0    0 -0.51023296705E+02 -0.14950235728E+02 -0.35062026669E+02  0.63688555244E+02  0.00000000000E+00 0. -1.
         13    1    3    3    0    0  0.20817077469E+02  0.19383591113E+02  0.18474829190E+02  0.33917453212E+02  0.00000000000E+00 0.  1.
          1    1    1    2  501    0  0.14920710147E+02 -0.18727459827E+02 -0.11432477175E+02  0.26533881684E+02  0.00000000000E+00 0. -1.
<scales pt_clust_5="13000.00000" pt_clust_6="13000.00000" pt_clust_7="13000.00000" pt_clust_8="13000.00000" pt_clust_9="23.94464"></scales>
<clustering>
<clus scale="   23.945">  1  9  2 -1</clus>
<clus scale="   81.095">  5  6 -1 -1</clus>
<clus scale="   85.341">  1  5  2 -1</clus>
<clus scale="   91.213">  7  8 -1 -1</clus>
<clus scale="   23.945">  1  5  2 -1</clus>
</clustering>
</event>
<event>
 9    2  0.1751298E-004  0.1622124E+03  0.7546771E-02  0.1187541E+00
          2   -1    0    0  502    0 -0.00000000000E+00  0.00000000000E+00  0.71800474820E+03  0.71800474820E+03  0.00000000000E+00 0. -1.
         21   -1    0    0  501  502  0.00000000000E+00 -0.00000000000E+00 -0.68440609051E+02  0.68440609051E+02  0.00000000000E+00 0. -1.
         23    2    1    2    0    0 -0.24180829136E+02  0.13544179060E+03  0.22929172105E+03  0.28209817928E+03  0.89863776197E+02 0.  0.
         24    2    1    2    0    0  0.10696134845E+03 -0.10197947280E+03  0.17345914822E+03  0.24187978708E+03  0.81100014582E+02 0.  0.
        -11    1    4    4    0    0 -0.10623322008E+01 -0.21514306954E+02 -0.88975602598E+00  0.21558887244E+02  0.00000000000E+00 0.  1.
         12    1    4    4    0    0  0.10802368065E+03 -0.80465165847E+02  0.17434890424E+03  0.22032089984E+03  0.00000000000E+00 0. -1.
        -11    1    3    3    0    0 -0.92874241038E+01  0.31417871026E+02  0.33724545041E+01  0.32934971014E+02  0.00000000000E+00 0.  1.
         11    1    3    3    0    0 -0.14893405032E+02  0.10402391957E+03  0.22591926654E+03  0.24916320826E+03  0.00000000000E+00 0. -1.
          1    1    1    2  501    0 -0.82780519310E+02 -0.33462317797E+02  0.24681326989E+03  0.26246739089E+03  0.00000000000E+00 0. -1.
<scales pt_clust_5="13000.00000" pt_clust_6="13000.00000" pt_clust_7="13000.00000" pt_clust_8="13000.00000" pt_clust_9="89.28801"></scales>
<clustering>
<clus scale="   81.100">  5  6 -1 -1</clus>
<clus scale="   89.288">  2  9  1 -1</clus>
<clus scale="   89.864">  7  8 -1 -1</clus>
<clus scale="  157.526">  2  5  1 -1</clus>
<clus scale="   89.288">  2  5  1 -1</clus>
</clustering>
</event>
<event>
 9    2  0.1751298E-004  0.1770015E+03  0.7546771E-02  0.1193150E+00
          2   -1    0    0  502    0 -0.00000000000E+00  0.00000000000E+00  0.60811368178E+03  0.60811368178E+03  0.00000000000E+00 0. -1.
         21   -1    0    0  501  502  0.00000000000E+00 -0.00000000000E+00 -0.85577284214E+02  0.85577284214E+02  0.00000000000E+00 0.  1.
         23    2    1    2    0    0  0.30703509212E+02  0.49978581495E+02  0.13112914279E+03  0.16932332787E+03  0.89638011949E+02 0.  0.
         24    2    1    2    0    0  0.29764213164E+02 -0.17116889622E+03  0.13687217141E+03  0.23604222041E+03  0.82445370351E+02 0.  0.
        -11    1    4    4    0    0  0.44044758112E+02 -0.95701005499E+02  0.40641250373E+02  0.11291737866E+03  0.00000000000E+00 0.  1.
         12    1    4    4    0    0 -0.14280544948E+02 -0.75467890723E+02  0.96230921038E+02  0.12312484176E+03  0.00000000000E+00 0. -1.
        -13    1    3    3    0    0  0.22218124190E+01  0.39171309024E+02  0.49811398414E+01  0.39549205494E+02  0.00000000000E+00 0. -1.
         13    1    3    3    0    0  0.28481696793E+02  0.10807272471E+02  0.12614800295E+03  0.12977412238E+03  0.00000000000E+00 0.  1.
          1    1    1    2  501    0 -0.60467722376E+02  0.12119031473E+03  0.25453508336E+03  0.28832541771E+03  0.00000000000E+00 0. -1.
<scales pt_clust_5="13000.00000" pt_clust_6="13000.00000" pt_clust_7="13000.00000" pt_clust_8="13000.00000" pt_clust_9="156.62791"></scales>
<clustering>
<clus scale="   82.445">  5  6 -1 -1</clus>
<clus scale="   89.638">  7  8 -1 -1</clus>
<clus scale="  107.124">  1  7  2 -1</clus>
<clus scale="  156.628">  2  9  1 -1</clus>
<clus scale="  156.628">  2  5  1 -1</clus>
</clustering>
</event>
<event>
 9    2  0.1751298E-004  0.9276006E+02  0.7546771E-02  0.1298544E+00
         21   -1    0    0  501  502  0.00000000000E+00  0.00000000000E+00  0.34927663828E+03  0.34927663828E+03  0.00000000000E+00 0.  1.
          2   -1    0    0  502    0 -0.00000000000E+00 -0.00000000000E+00 -0.42863072172E+02  0.42863072172E+02  0.00000000000E+00 0. -1.
         24    2    1    2    0    0 -0.33988338895E+02  0.21185951596E+01  0.37021788110E+02  0.95249179702E+02  0.80883235672E+02 0.  0.
         23    2    1    2    0    0  0.48321785837E+02  0.17209759871E+02  0.23287202876E+03  0.25315581806E+03  0.85013620199E+02 0.  0.
        -11    1    3    3    0    0 -0.11265800766E+02 -0.38843419587E+02  0.12241707174E+02  0.42256229206E+02  0.00000000000E+00 0.  1.
         12    1    3    3    0    0 -0.22722538130E+02  0.40962014747E+02  0.24780080935E+02  0.52992950497E+02  0.00000000000E+00 0. -1.
        -13    1    4    4    0    0 -0.21768073308E+02  0.14751325240E+02  0.39440264522E+02  0.47402374175E+02  0.00000000000E+00 0. -1.
         13    1    4    4    0    0  0.70089859144E+02  0.24584346304E+01  0.19343176423E+03  0.20575344388E+03  0.00000000000E+00 0.  1.
          1    1    1    2  501    0 -0.14333446941E+02 -0.19328355030E+02  0.36519749243E+02  0.43734712691E+02  0.00000000000E+00 0. -1.
<scales pt_clust_5="13000.00000" pt_clust_6="13000.00000" pt_clust_7="13000.00000" pt_clust_8="13000.00000" pt_clust_9="24.06310"></scales>
<clustering>
<clus scale="   24.063">  1  9  2 -1</clus>
<clus scale="   80.883">  5  6 -1 -1</clus>
<clus scale="   85.014">  7  8 -1 -1</clus>
<clus scale="   88.990">  2  5  1 -1</clus>
<clus scale="   24.063">  1  5  2 -1</clus>
</clustering>
</event>
<event>
 9    2  0.1751298E-004  0.2297910E+03  0.7546771E-02  0.1128622E+00
         21   -1    0    0  501  502  0.00000000000E+00  0.00000000000E+00  0.51715571492E+02  0.51715571492E+02  0.00000000000E+00 0. -1.
          2   -1    0    0  502    0 -0.00000000000E+00 -0.00000000000E+00 -0.14551409737E+04  0.14551409737E+04  0.00000000000E+00 0. -1.
         24    2    1    2    0    0 -0.55567896395E+02 -0.18342747085E+03 -0.77061646767E+03  0.79814600821E+03  0.80336056724E+02 0.  0.
         23    2    1    2    0    0  0.58568552322E+02  0.22976272567E+03 -0.44309857628E+03  0.51340057869E+03  0.10498866830E+03 0.  0.
        -13    1    3    3    0    0 -0.27593806181E+02 -0.83530983923E+02 -0.51193349653E+03  0.51943695314E+03  0.00000000000E+00 0.  1.
         14    1    3    3    0    0 -0.27974090214E+02 -0.99896486926E+02 -0.25868297114E+03  0.27870905507E+03  0.00000000000E+00 0. -1.
        -13    1    4    4    0    0  0.44922751891E+02  0.46201018419E+02 -0.18866197588E+03  0.19936381037E+03  0.00000000000E+00 0.  1.
         13    1    4    4    0    0  0.13645800431E+02  0.18356170725E+03 -0.25443660040E+03  0.31403676833E+03  0.00000000000E+00 0. -1.
          1    1    1    2  501    0 -0.30006559266E+01 -0.46335254821E+02 -0.18971035822E+03  0.19530995825E+03  0.00000000000E+00 0. -1.
<scales pt_clust_5="13000.00000" pt_clust_6="13000.00000" pt_clust_7="13000.00000" pt_clust_8="13000.00000" pt_clust_9="46.43234"></scales>
<clustering>
<clus scale="   46.432">  1  9  2 -1</clus>
<clus scale="   80.336">  5  6 -1 -1</clus>
<clus scale="  104.989">  7  8 -1 -1</clus>
<clus scale="  219.625">  2  5  1 -1</clus>
<clus scale="   46.432">  1  5  2 -1</clus>
</clustering>
</event>
<event>
 9    2  0.1751298E-004  0.4882083E+03  0.7546771E-02  0.1017091E+00
          2   -1    0    0  502    0 -0.00000000000E+00  0.00000000000E+00  0.12610518671E+04  0.12610518671E+04  0.00000000000E+00 0. -1.
         21   -1    0    0  501  502  0.00000000000E+00 -0.00000000000E+00 -0.27394232810E+03  0.27394232810E+03  0.00000000000E+00 0. -1.
         23    2    1    2    0    0 -0.42190341690E+03  0.23746454338E+03  0.77339684425E+03  0.91752124143E+03  0.96491695143E+02 0.  0.
         24    2    1    2    0    0  0.45092102024E+03 -0.14241162106E+03  0.18185307418E+03  0.51310765891E+03  0.81228644791E+02 0.  0.
        -13    1    4    4    0    0  0.20847506325E+03 -0.90158313588E+02  0.51399987963E+02  0.23287836368E+03  0.00000000000E+00 0.  1.
         14    1    4    4    0    0  0.24244595699E+03 -0.52253307471E+02  0.13045308622E+03  0.28022929523E+03  0.00000000000E+00 0. -1.
        -13    1    3    3    0    0 -0.23907090922E+03  0.14341093463E+03  0.35543438073E+03  0.45172468918E+03  0.00000000000E+00 0. -1.
         13    1    3    3    0    0 -0.18283250768E+03  0.94053608754E+02  0.41796246352E+03  0.46579655225E+03  0.00000000000E+00 0.  1.
          1    1    1    2  501    0 -0.29017603337E+02 -0.95052922323E+02  0.31859620560E+02  0.10436529484E+03  0.00000000000E+00 0. -1.
<scales pt_clust_5="13000.00000" pt_clust_6="13000.00000" pt_clust_7="13000.00000" pt_clust_8="13000.00000" pt_clust_9="99.38350"></scales>
<clustering>
<clus scale="   81.229">  5  6 -1 -1</clus>
<clus scale="   96.492">  7  8 -1 -1</clus>
<clus scale="   99.383">  2  9  1 -1</clus>
<clus scale="  485.422">  2  5  1 -1</clus>
<clus scale="   99.383">  2  5  1 -1</clus>
</clustering>
</event>
<event>
 9    2  0.1751298E-004  0.1389910E+03  0.7546771E-02  0.1218401E+00
          2   -1    0    0  502    0 -0.00000000000E+00  0.00000000000E+00  0.13659335370E+03  0.13659335370E+03  0.00000000000E+00 0. -1.
         21   -1    0    0  501  502  0.00000000000E+00 -0.00000000000E+00 -0.19822392962E+03  0.19822392962E+03  0.00000000000E+00 0.  1.
         23    2    1    2    0    0 -0.48635255410E+02 -0.56317131400E+02 -0.51354781712E+02  0.13241392946E+03  0.96742585004E+02 0.  0.
         24    2    1    2    0    0  0.79014270426E+02  0.95704382405E+02 -0.25530174039E+02  0.15037512883E+03  0.80983367682E+02 0.  0.
        -11    1    4    4    0    0  0.87772147145E+02  0.49574532395E+02 -0.22744360844E+02  0.10333871504E+03  0.00000000000E+00 0.  1.
         12    1    4    4    0    0 -0.87578767187E+01  0.46129850011E+02 -0.27858131955E+01  0.47036413785E+02  0.00000000000E+00 0. -1.
        -13    1    3    3    0    0 -0.26387360869E+02 -0.31553846665E+02 -0.79049208672E+02  0.89110692089E+02  0.00000000000E+00 0.  1.
         13    1    3    3    0    0 -0.22247894541E+02 -0.24763284735E+02  0.27694426960E+02  0.43303237373E+02  0.00000000000E+00 0. -1.
          1    1    1    2  501    0 -0.30379015016E+02 -0.39387251006E+02  0.15254379829E+02  0.52028225023E+02  0.00000000000E+00 0. -1.
<scales pt_clust_5="13000.00000" pt_clust_6="13000.00000" pt_clust_7="13000.00000" pt_clust_8="13000.00000" pt_clust_9="49.74176"></scales>
<clustering>
<clus scale="   49.742">  2  9  1 -1</clus>
<clus scale="   80.983">  5  6 -1 -1</clus>
<clus scale="   96.743">  7  8 -1 -1</clus>
<clus scale="  128.521">  2  5  1 -1</clus>
<clus scale="   49.742">  2  5  1 -1</clus>
</clustering>
</event>
<event>
 9    2  0.1751298E-004  0.1937641E+03  0.7546771E-02  0.1156232E+00
          2   -1    0    0  502    0 -0.00000000000E+00  0.00000000000E+00  0.23210243486E+04  0.23210243486E+04  0.00000000000E+00 0. -1.
         21   -1    0    0  501  502  0.00000000000E+00 -0.00000000000E+00 -0.42581314081E+02  0.42581314081E+02  0.00000000000E+00 0. -1.
         24    2    1    2    0    0  0.79464682637E+02  0.12820970824E+03  0.11401130674E+04  0.11529825861E+04  0.82211145089E+02 0.  0.
         23    2    1    2    0    0 -0.93096882090E+02 -0.24404938648E+03  0.61789567960E+03  0.67727842669E+03  0.93187251772E+02 0.  0.
        -11    1    3    3    0    0  0.18336857895E+02  0.49139962553E+02  0.17452465973E+03  0.18223565274E+03  0.00000000000E+00 0.  1.
         12    1    3    3    0    0  0.61127824741E+02  0.79069745683E+02  0.96558840769E+03  0.97074693340E+03  0.00000000000E+00 0. -1.
        -13    1    4    4    0    0  0.16030597409E+01 -0.33229820753E+02  0.17049848158E+03  0.17371391138E+03  0.00000000000E+00 0.  1.
         13    1    4    4    0    0 -0.94699941831E+02 -0.21081956573E+03  0.44739719802E+03  0.50356451531E+03  0.00000000000E+00 0. -1.
          1    1    1    2  501    0  0.13632199454E+02  0.11583967824E+03  0.52043428751E+03  0.53334464986E+03  0.00000000000E+00 0. -1.
<scales pt_clust_5="13000.00000" pt_clust_6="13000.00000" pt_clust_7="13000.00000" pt_clust_8="13000.00000" pt_clust_9="116.63911"></scales>
<clustering>
<clus scale="   82.211">  5  6 -1 -1</clus>
<clus scale="   93.187">  7  8 -1 -1</clus>
<clus scale="  116.639">  2  9  1 -1</clus>
<clus scale="  188.731">  1  5  2 -1</clus>
<clus scale="  116.639">  2  5  1 -1</clus>
</clustering>
</event>
<event>
 9    2  0.1751298E-004  0.1593020E+03  0.7546771E-02  0.1218326E+00
         21   -1    0    0  501  502  0.00000000000E+00  0.00000000000E+00  0.30693724037E+03  0.30693724037E+03  0.00000000000E+00 0.  1.
         -1   -1    0    0    0  501 -0.00000000000E+00 -0.00000000000E+00 -0.30188096790E+03  0.30188096790E+03  0.00000000000E+00 0.  1.
         24    2    1    2    0    0  0.16376891105E+02  0.25608875913E+02  0.11140256922E+03  0.14043049752E+03  0.79913547768E+02 0.  0.
         23    2    1    2    0    0 -0.16336029793E+02  0.10616850556E+03 -0.24115345146E+03  0.27987179923E+03  0.92922652819E+02 0.  0.
        -11    1    3    3    0    0 -0.97545015680E+01  0.41937708429E+02  0.97582503097E+02  0.10665958278E+03  0.00000000000E+00 0.  1.
         12    1    3    3    0    0  0.26131392673E+02 -0.16328832516E+02  0.13820066122E+02  0.33770914734E+02  0.00000000000E+00 0. -1.
        -11    1    4    4    0    0 -0.53455426475E+02  0.76259563611E+02 -0.14139624293E+03  0.16931007406E+03  0.00000000000E+00 0.  1.
         11    1    4    4    0    0  0.37119396682E+02  0.29908941952E+02 -0.99757208528E+02  0.11056172517E+03  0.00000000000E+00 0. -1.
         -2    1    1    2    0  502 -0.40861312351E-01 -0.13177738148E+03  0.13480715472E+03  0.18851591153E+03  0.00000000000E+00 0.  1.
<scales pt_clust_5="13000.00000" pt_clust_6="13000.00000" pt_clust_7="13000.00000" pt_clust_8="13000.00000" pt_clust_9="129.39281"></scales>
<clustering>
<clus scale="   79.914">  5  6 -1 -1</clus>
<clus scale="   85.500">  2  5  1 -1</clus>
<clus scale="   92.923">  7  8 -1 -1</clus>
<clus scale="  129.393">  1  9  2 -1</clus>
<clus scale="  129.393">  1  5  2 -1</clus>
</clustering>
</event>
<event>
 9    2  0.1751298E-004  0.2404365E+03  0.7546771E-02  0.1119852E+00
         21   -1    0    0  501  502  0.00000000000E+00  0.00000000000E+00  0.53705642237E+03  0.53705642237E+03  0.00000000000E+00 0. -1.
          2   -1    0    0  502    0 -0.00000000000E+00 -0.00000000000E+00 -0.12788967049E+03  0.12788967049E+03  0.00000000000E+00 0. -1.
         24    2    1    2    0    0  0.19203932646E+03 -0.88877649121E+02  0.17169523825E+03  0.28512142819E+03  0.83884650300E+02 0.  0.
         23    2    1    2    0    0 -0.22241029040E+03  0.85186307798E+02  0.23909813085E+03  0.34918698631E+03  0.89669342132E+02 0.  0.
        -13    1    3    3    0    0  0.10110865549E+03 -0.69028682834E+02  0.50791194413E+02  0.13254306733E+03  0.00000000000E+00 0.  1.
         14    1    3    3    0    0  0.90930670975E+02 -0.19848966287E+02  0.12090404384E+03  0.15257836086E+03  0.00000000000E+00 0. -1.
        -11    1    4    4    0    0 -0.20267033144E+03  0.99092094470E+02  0.23292080681E+03  0.32426317811E+03  0.00000000000E+00 0. -1.
         11    1    4    4    0    0 -0.19739958963E+02 -0.13905786672E+02  0.61773240376E+01  0.24923808198E+02  0.00000000000E+00 0.  1.
          1    1    1    2  501    0  0.30370963938E+02  0.36913413231E+01 -0.16266172246E+01  0.30637678353E+02  0.00000000000E+00 0. -1.
<scales pt_clust_5="13000.00000" pt_clust_6="13000.00000" pt_clust_7="13000.00000" pt_clust_8="13000.00000" pt_clust_9="30.59448"></scales>
<clustering>
<clus scale="   30.594">  1  9  2 -1</clus>
<clus scale="   83.885">  5  6 -1 -1</clus>
<clus scale="   89.669">  7  8 -1 -1</clus>
<clus scale="  238.340">  2  5  1 -1</clus>
<clus scale="   30.594">  1  5  2 -1</clus>
</clustering>
</event>
<event>
 9    2  0.1751298E-004  0.1019890E+03  0.7546771E-02  0.1282883E+00
          2   -1    0    0  502    0 -0.00000000000E+00  0.00000000000E+00  0.40375692524E+03  0.40375692524E+03  0.00000000000E+00 0. -1.
         21   -1    0    0  501  502  0.00000000000E+00 -0.00000000000E+00 -0.61039028742E+02  0.61039028742E+02  0.00000000000E+00 0.  1.
         24    2    1    2    0    0  0.10778654088E+02  0.43783305736E+02  0.24645273240E+03  0.26328493294E+03  0.80912603213E+02 0.  0.
         23    2    1    2    0    0 -0.55352196922E+02  0.67821943128E+01  0.62141228378E+02  0.12595896280E+03  0.94309406642E+02 0.  0.
        -11    1    3    3    0    0  0.11537297112E+02 -0.21344852050E+02  0.39818154977E+02  0.46628289691E+02  0.00000000000E+00 0.  1.
         12    1    3    3    0    0 -0.75864302364E+00  0.65128157786E+02  0.20663457743E+03  0.21665664325E+03  0.00000000000E+00 0. -1.
        -13    1    4    4    0    0 -0.31550469680E+02 -0.27976746701E+02 -0.91517572017E+01  0.43149567238E+02  0.00000000000E+00 0.  1.
         13    1    4    4    0    0 -0.23801727242E+02  0.34758941014E+02  0.71292985580E+02  0.82809395560E+02  0.00000000000E+00 0. -1.
          1    1    1    2  501    0  0.44573542834E+02 -0.50565500049E+02  0.34123935712E+02  0.75552058241E+02  0.00000000000E+00 0. -1.
<scales pt_clust_5="13000.00000" pt_clust_6="13000.00000" pt_clust_7="13000.00000" pt_clust_8="13000.00000" pt_clust_9="67.40675"></scales>
<clustering>
<clus scale="   67.407">  2  9  1 -1</clus>
<clus scale="   80.913">  5  6 -1 -1</clus>
<clus scale="   89.746">  1  5  2 -1</clus>
<clus scale="   94.309">  7  8 -1 -1</clus>
<clus scale="   67.407">  2  5  1 -1</clus>
</clustering>
</event>
<event>
 9    2  0.1751298E-004  0.1121937E+03  0.7546771E-02  0.1260106E+00
         21   -1    0    0  501  502  0.00000000000E+00  0.00000000000E+00  0.32107957310E+03  0.32107957310E+03  0.00000000000E+00 0.  1.
         -3   -1    0    0    0  501 -0.00000000000E+00 -0.00000000000E+00 -0.11538908815E+03  0.11538908815E+03  0.00000000000E+00 0.  1.
         24    2    1    2    0    0  0.30614002703E+02 -0.71375143342E+02 -0.40875735276E+02  0.12171888624E+03  0.84338800587E+02 0.  0.
         23    2    1    2    0    0 -0.46447831439E+02 -0.11999606140E+01  0.77473619109E+02  0.13006040444E+03  0.93566586953E+02 0.  0.
        -11    1    3    3    0    0  0.39391172275E+02 -0.56646003395E+02 -0.63202449520E+02  0.93568070297E+02  0.00000000000E+00 0.  1.
         12    1    3    3    0    0 -0.87771695727E+01 -0.14729139947E+02  0.22326714244E+02  0.28150815942E+02  0.00000000000E+00 0. -1.
        -13    1    4    4    0    0 -0.71793845715E+01  0.43996666937E+02  0.34213022831E+02  0.56194138445E+02  0.00000000000E+00 0. -1.
         13    1    4    4    0    0 -0.39268446867E+02 -0.45196627551E+02  0.43260596278E+02  0.73866265993E+02  0.00000000000E+00 0.  1.
         -4    1    1    2    0  502  0.15833828736E+02  0.72575103956E+02  0.16909260112E+03  0.18468937057E+03  0.00000000000E+00 0.  1.
<scales pt_clust_5="13000.00000" pt_clust_6="13000.00000" pt_clust_7="13000.00000" pt_clust_8="13000.00000" pt_clust_9="74.28227"></scales>
<clustering>
<clus scale="   74.282">  1  9  2 -1</clus>
<clus scale="   84.339">  5  6 -1 -1</clus>
<clus scale="   93.567">  7  8 -1 -1</clus>
<clus scale="  104.622">  2  5  1 -1</clus>
<clus scale="   74.282">  1  5  2 -1</clus>
</clustering>
</event>
<event>
 9    2  0.1751298E-004  0.1000035E+03  0.7546771E-02  0.1284475E+00
          2   -1    0    0  502    0 -0.00000000000E+00  0.00000000000E+00  0.81224803584E+03  0.81224803584E+03  0.00000000000E+00 0. -1.
         21   -1    0    0  501  502  0.00000000000E+00 -0.00000000000E+00 -0.55158069295E+02  0.55158069295E+02  0.00000000000E+00 0. -1.
         24    2    1    2    0    0  0.37804800137E+02  0.42024885923E+02  0.63353663530E+03  0.64119485341E+03  0.81036274684E+02 0.  0.
         23    2    1    2    0    0  0.95827756803E+01 -0.10179347309E+02  0.13997484489E+03  0.16680260941E+03  0.89636513781E+02 0.  0.
        -13    1    3    3    0    0  0.26226006016E+02  0.10988273782E+02  0.56918271833E+02  0.63625743381E+02  0.00000000000E+00 0.  1.
         14    1    3    3    0    0  0.11578794121E+02  0.31036612141E+02  0.57661836347E+03  0.57756911003E+03  0.00000000000E+00 0. -1.
        -13    1    4    4    0    0  0.63473180538E+01 -0.47419191137E+02  0.10597122743E+03  0.11627024202E+03  0.00000000000E+00 0.  1.
         13    1    4    4    0    0  0.32354576266E+01  0.37239843829E+02  0.34003617459E+02  0.50532367397E+02  0.00000000000E+00 0. -1.
          1    1    1    2  501    0 -0.47387575817E+02 -0.31845538614E+02 -0.16421513648E+02  0.59408642317E+02  0.00000000000E+00 0. -1.
<scales pt_clust_5="13000.00000" pt_clust_6="13000.00000" pt_clust_7="13000.00000" pt_clust_8="13000.00000" pt_clust_9="57.09396"></scales>
<clustering>
<clus scale="   57.094">  2  9  1 -1</clus>
<clus scale="   81.036">  5  6 -1 -1</clus>
<clus scale="   89.637">  7  8 -1 -1</clus>
<clus scale="   92.374">  1  5  2 -1</clus>
<clus scale="   57.094">  2  5  1 -1</clus>
</clustering>
</event>
<event>
 9    2  0.1751298E-004  0.2332771E+03  0.7546771E-02  0.1146005E+00
          2   -1    0    0  502    0 -0.00000000000E+00  0.00000000000E+00  0.18320163912E+04  0.18320163912E+04  0.00000000000E+00 0. -1.
         21   -1    0    0  501  502  0.00000000000E+00 -0.00000000000E+00 -0.79862119405E+02  0.79862119405E+02  0.00000000000E+00 0. -1.
         24    2    1    2    0    0  0.10325332883E+03  0.43460286698E+02  0.19546658367E+03  0.23912457771E+03  0.80145691724E+02 0.  0.
         23    2    1    2    0    0 -0.84996999215E+02  0.19612208553E+03  0.23966619067E+03  0.33399382315E+03  0.91780328220E+02 0.  0.
        -13    1    3    3    0    0  0.11007112529E+03  0.29031661133E+02  0.13500439860E+03  0.17659183903E+03  0.00000000000E+00 0.  1.
         14    1    3    3    0    0 -0.68177964593E+01  0.14428625565E+02  0.60462185065E+02  0.62532738683E+02  0.00000000000E+00 0. -1.
        -13    1    4    4    0    0 -0.81615950385E+02  0.97881231799E+02  0.94414616968E+02  0.15860649039E+03  0.00000000000E+00 0. -1.
         13    1    4    4    0    0 -0.33810488295E+01  0.98240853729E+02  0.14525157370E+03  0.17538733276E+03  0.00000000000E+00 0.  1.
          1    1    1    2  501    0 -0.18256329615E+02 -0.23958237223E+03  0.13170214974E+04  0.13387601097E+04  0.00000000000E+00 0. -1.
<scales pt_clust_5="13000.00000" pt_clust_6="13000.00000" pt_clust_7="13000.00000" pt_clust_8="13000.00000" pt_clust_9="214.46360"></scales>
<clustering>
<clus scale="   80.146">  5  6 -1 -1</clus>
<clus scale="   91.780">  7  8 -1 -1</clus>
<clus scale="  137.744">  1  5  2 -1</clus>
<clus scale="  214.464">  2  9  1 -1</clus>
<clus scale="  214.464">  2  5  1 -1</clus>
</clustering>
</event>
<event>
 9    2  0.1751298E-004  0.1775332E+03  0.7546771E-02  0.1171358E+00
         21   -1    0    0  501  502  0.00000000000E+00  0.00000000000E+00  0.28030891776E+03  0.28030891776E+03  0.00000000000E+00 0. -1.
          2   -1    0    0  502    0 -0.00000000000E+00 -0.00000000000E+00 -0.20240340714E+03  0.20240340714E+03  0.00000000000E+00 0. -1.
         23    2    1    2    0    0 -0.14652713884E+03  0.57971427904E+02 -0.31320799777E+02  0.18469980483E+03  0.91116060803E+02 0.  0.
         24    2    1    2    0    0  0.15667474197E+03  0.28041355345E+02  0.31647403367E+02  0.18173844925E+03  0.81816950657E+02 0.  0.
        -13    1    4    4    0    0  0.64322101172E+01 -0.20029877289E+02  0.63691816105E+01  0.21980349988E+02  0.00000000000E+00 0.  1.
         14    1    4    4    0    0  0.15024253185E+03  0.48071232635E+02  0.25278221757E+02  0.15975809926E+03  0.00000000000E+00 0. -1.
        -11    1    3    3    0    0 -0.80932394558E+02  0.77083019056E+01  0.24576612346E+02  0.84932209919E+02  0.00000000000E+00 0. -1.
         11    1    3    3    0    0 -0.65594744278E+02  0.50263125999E+02 -0.55897412123E+02  0.99767594910E+02  0.00000000000E+00 0.  1.
          1    1    1    2  501    0 -0.10147603130E+02 -0.86012783250E+02  0.77578907022E+02  0.11627407083E+03  0.00000000000E+00 0. -1.
<scales pt_clust_5="13000.00000" pt_clust_6="13000.00000" pt_clust_7="13000.00000" pt_clust_8="13000.00000" pt_clust_9="86.60931"></scales>
<clustering>
<clus scale="   81.817">  5  6 -1 -1</clus>
<clus scale="   86.609">  1  9  2 -1</clus>
<clus scale="   91.116">  7  8 -1 -1</clus>
<clus scale="  172.945">  1  5  2 -1</clus>
<clus scale="   86.609">  1  5  2 -1</clus>
</clustering>
</event>
<event>
 9    2  0.1751298E-004  0.9836365E+02  0.7546771E-02  0.1289825E+00
          2   -1    0    0  502    0 -0.00000000000E+00  0.00000000000E+00  0.59101083067E+02  0.59101083067E+02  0.00000000000E+00 0. -1.
         21   -1    0    0  501  502  0.00000000000E+00 -0.00000000000E+00 -0.29443791086E+03  0.29443791086E+03  0.00000000000E+00 0.  1.
         24    2    1    2    0    0  0.13281126357E+02  0.38725207473E+02 -0.27509756030E+01  0.90306533547E+02  0.80446703620E+02 0.  0.
         23    2    1    2    0    0 -0.12198397929E+02 -0.89398463391E+01 -0.16742675427E+03  0.19158018839E+03  0.91883234465E+02 0.  0.
        -13    1    3    3    0    0  0.66791979978E+01  0.53351054570E+02  0.24182250781E+02  0.58955304786E+02  0.00000000000E+00 0.  1.
         14    1    3    3    0    0  0.66019283595E+01 -0.14625847097E+02 -0.26933226384E+02  0.31351228761E+02  0.00000000000E+00 0. -1.
        -11    1    4    4    0    0  0.13578818446E+02  0.26325473140E+02 -0.13215997333E+03  0.13543881791E+03  0.00000000000E+00 0.  1.
         11    1    4    4    0    0 -0.25777216376E+02 -0.35265319479E+02 -0.35266780939E+02  0.56141370484E+02  0.00000000000E+00 0. -1.
          1    1    1    2  501    0 -0.10827284278E+01 -0.29785361134E+02 -0.65159097923E+02  0.71652271986E+02  0.00000000000E+00 0. -1.
<scales pt_clust_5="13000.00000" pt_clust_6="13000.00000" pt_clust_7="13000.00000" pt_clust_8="13000.00000" pt_clust_9="29.80503"></scales>
<clustering>
<clus scale="   29.805">  2  9  1 -1</clus>
<clus scale="   80.447">  5  6 -1 -1</clus>
<clus scale="   87.776">  1  5  2 -1</clus>
<clus scale="   91.883">  7  8 -1 -1</clus>
<clus scale="   29.805">  2  5  1 -1</clus>
</clustering>
</event>
<event>
 9    2  0.1751298E-004  0.9386247E+02  0.7546771E-02  0.1300791E+00
          4   -1    0    0  502    0 -0.00000000000E+00  0.00000000000E+00  0.10125649202E+03  0.10125649202E+03  0.00000000000E+00 0. -1.
         21   -1    0    0  501  502  0.00000000000E+00 -0.00000000000E+00 -0.11862856824E+03  0.11862856824E+03  0.00000000000E+00 0. -1.
         23    2    1    2    0    0  0.83992886172E+01  0.20578857666E+02 -0.15544408091E+02  0.96440535228E+02  0.92547883714E+02 0.  0.
         24    2    1    2    0    0 -0.18836032255E+02  0.51515086045E+01 -0.25406139846E+02  0.87017588643E+02  0.80902748034E+02 0.  0.
        -11    1    4    4    0    0  0.29167012454E+02  0.17022134312E+02 -0.97838681763E+01  0.35159518605E+02  0.00000000000E+00 0.  1.
         12    1    4    4    0    0 -0.48003044709E+02 -0.11870625707E+02 -0.15622271669E+02  0.51858070039E+02  0.00000000000E+00 0. -1.
        -11    1    3    3    0    0 -0.23951321480E+02  0.46686462410E+01  0.29796727185E+02  0.38513724947E+02  0.00000000000E+00 0.  1.
         11    1    3    3    0    0  0.32350610097E+02  0.15910211425E+02 -0.45341135275E+02  0.57926810281E+02  0.00000000000E+00 0. -1.
          3    1    1    2  501    0  0.10436743638E+02 -0.25730366271E+02  0.23578471721E+02  0.36426936391E+02  0.00000000000E+00 0. -1.
<scales pt_clust_5="13000.00000" pt_clust_6="13000.00000" pt_clust_7="13000.00000" pt_clust_8="13000.00000" pt_clust_9="27.76649"></scales>
<clustering>
<clus scale="   27.766">  2  9  1 -1</clus>
<clus scale="   80.903">  5  6 -1 -1</clus>
<clus scale="   82.403">  2  5  1 -1</clus>
<clus scale="   92.548">  7  8 -1 -1</clus>
<clus scale="   27.766">  2  5  1 -1</clus>
</clustering>
</event>
<event>
 9    2  0.1751298E-004  0.1780536E+03  0.7546771E-02  0.1176469E+00
         21   -1    0    0  501  502  0.00000000000E+00  0.00000000000E+00  0.17304863589E+03  0.17304863589E+03  0.00000000000E+00 0. -1.
         -3   -1    0    0    0  501 -0.00000000000E+00 -0.00000000000E+00 -0.35211464335E+03  0.35211464335E+03  0.00000000000E+00 0.  1.
         23    2    1    2    0    0  0.99185179654E+02 -0.88175316255E+02 -0.13200765154E+03  0.22279000154E+03  0.12081712818E+03 0.  0.
         24    2    1    2    0    0 -0.19833945199E+02  0.15041844962E+03  0.32426399869E+02  0.17396512974E+03  0.78697519584E+02 0.  0.
        -13    1    4    4    0    0 -0.35420407170E+02  0.27336874525E+02 -0.32850906585E+01  0.44863144936E+02  0.00000000000E+00 0.  1.
         14    1    4    4    0    0  0.15586461971E+02  0.12308157509E+03  0.35711490528E+02  0.12910198480E+03  0.00000000000E+00 0. -1.
        -11    1    3    3    0    0 -0.26599900160E+02 -0.56120288963E+01 -0.32636692607E+02  0.42475913895E+02  0.00000000000E+00 0. -1.
         11    1    3    3    0    0  0.12578507981E+03 -0.82563287359E+02 -0.99370958934E+02  0.18031408764E+03  0.00000000000E+00 0.  1.
         -4    1    1    2    0  502 -0.79351234455E+02 -0.62243133361E+02 -0.79484755786E+02  0.12840814796E+03  0.00000000000E+00 0.  1.
<scales pt_clust_5="13000.00000" pt_clust_6="13000.00000" pt_clust_7="13000.00000" pt_clust_8="13000.00000" pt_clust_9="100.85056"></scales>
<clustering>
<clus scale="   78.698">  5  6 -1 -1</clus>
<clus scale="  100.851">  1  9  2 -1</clus>
<clus scale="  120.817">  7  8 -1 -1</clus>
<clus scale="  152.642">  1  5  2 -1</clus>
<clus scale="  100.851">  1  5  2 -1</clus>
</clustering>
</event>
<event>
 9    2  0.1751298E-004  0.2003447E+03  0.7546771E-02  0.1163102E+00
          2   -1    0    0  502    0 -0.00000000000E+00  0.00000000000E+00  0.10195297551E+04  0.10195297551E+04  0.00000000000E+00 0. -1.
         21   -1    0    0  501  502  0.00000000000E+00 -0.00000000000E+00 -0.86761777961E+02  0.86761777961E+02  0.00000000000E+00 0. -1.
         23    2    1    2    0    0 -0.59811556258E+02  0.96419606609E+02  0.85571079286E+02  0.16878753918E+03  0.91064048738E+02 0.  0.
         24    2    1    2    0    0  0.20788209739E+03 -0.37196322138E+01  0.40682566583E+03  0.46374773545E+03  0.79536392186E+02 0.  0.
        -13    1    4    4    0    0  0.80287522294E+02 -0.34286606533E+02  0.12059632075E+03  0.14887958289E+03  0.00000000000E+00 0.  1.
         14    1    4    4    0    0  0.12759457510E+03  0.30566974320E+02  0.28622934508E+03  0.31486815256E+03  0.00000000000E+00 0. -1.
        -11    1    3    3    0    0 -0.51927121103E+02  0.11813348124E+02  0.59618857969E+02  0.79939910718E+02  0.00000000000E+00 0.  1.
         11    1    3    3    0    0 -0.78844351548E+01  0.84606258485E+02  0.25952221317E+02  0.88847628465E+02  0.00000000000E+00 0. -1.
          1    1    1    2  501    0 -0.14807054113E+03 -0.92699974395E+02  0.44037123207E+03  0.47375625847E+03  0.00000000000E+00 0. -1.
<scales pt_clust_5="13000.00000" pt_clust_6="13000.00000" pt_clust_7="13000.00000" pt_clust_8="13000.00000" pt_clust_9="183.88037"></scales>
<clustering>
<clus scale="   79.536">  5  6 -1 -1</clus>
<clus scale="   91.064">  7  8 -1 -1</clus>
<clus scale="  145.488">  1  7  2 -1</clus>
<clus scale="  183.880">  2  9  1 -1</clus>
<clus scale="  183.880">  2  5  1 -1</clus>
</clustering>
</event>
<event>
 9    2  0.1751298E-004  0.1883386E+03  0.7546771E-02  0.1191316E+00
          4   -1    0    0  502    0 -0.00000000000E+00  0.00000000000E+00  0.37135539185E+03  0.37135539185E+03  0.00000000000E+00 0. -1.
         21   -1    0    0  501  502  0.00000000000E+00 -0.00000000000E+00 -0.15920804686E+03  0.15920804686E+03  0.00000000000E+00 0. -1.
         23    2    1    2    0    0 -0.10943070449E+02 -0.14642208194E+02 -0.24294849734E+02  0.95718127821E+02  0.90761088679E+02 0.  0.
         24    2    1    2    0    0 -0.70845354700E+02 -0.14655286654E+03  0.90853115333E+02  0.20274753269E+03  0.79721179567E+02 0.  0.
        -13    1    4    4    0    0 -0.20077180959E+02 -0.11890294200E+03  0.44095082637E+02  0.12839540149E+03  0.00000000000E+00 0.  1.
         14    1    4    4    0    0 -0.50768173741E+02 -0.27649924545E+02  0.46758032697E+02  0.74352131200E+02  0.00000000000E+00 0. -1.
        -13    1    3    3    0    0 -0.45909119103E+02 -0.29522859318E+02 -0.14451374137E+02  0.56463161916E+02  0.00000000000E+00 0. -1.
         13    1    3    3    0    0  0.34966048654E+02  0.14880651124E+02 -0.98434755976E+01  0.39254965905E+02  0.00000000000E+00 0.  1.
          3    1    1    2  501    0  0.81788425149E+02  0.16119507474E+03  0.14558907939E+03  0.23209777820E+03  0.00000000000E+00 0. -1.
<scales pt_clust_5="13000.00000" pt_clust_6="13000.00000" pt_clust_7="13000.00000" pt_clust_8="13000.00000" pt_clust_9="170.63404"></scales>
<clustering>
<clus scale="   79.721">  5  6 -1 -1</clus>
<clus scale="   90.761">  7  8 -1 -1</clus>
<clus scale="   92.584">  1  7  2 -1</clus>
<clus scale="  170.634">  2  9  1 -1</clus>
<clus scale="  170.634">  2  5  1 -1</clus>
</clustering>
</event>
<event>
 9    2  0.1751298E-004  0.3653754E+03  0.7546771E-02  0.1110024E+00
          2   -1    0    0  502    0 -0.00000000000E+00  0.00000000000E+00  0.68684861238E+03  0.68684861238E+03  0.00000000000E+00 0. -1.
         21   -1    0    0  501  502  0.00000000000E+00 -0.00000000000E+00 -0.38518298889E+03  0.38518298889E+03  0.00000000000E+00 0.  1.
         24    2    1    2    0    0 -0.87024924667E+01 -0.31438334209E+02  0.33425364163E+03  0.34540063916E+03  0.80696978614E+02 0.  0.
         23    2    1    2    0    0 -0.21232345778E+03 -0.26600977275E+03 -0.48041353382E+02  0.35573117431E+03  0.91620122338E+02 0.  0.
        -13    1    3    3    0    0  0.35441847244E+02 -0.21506925669E+02  0.17502694568E+03  0.17986968644E+03  0.00000000000E+00 0.  1.
         14    1    3    3    0    0 -0.44144339711E+02 -0.99314085403E+01  0.15922669595E+03  0.16553095272E+03  0.00000000000E+00 0. -1.
        -13    1    4    4    0    0 -0.16479707877E+03 -0.19069957820E+03  0.49792132461E+01  0.25208966433E+03  0.00000000000E+00 0.  1.
         13    1    4    4    0    0 -0.47526379007E+02 -0.75310194548E+02 -0.53020566628E+02  0.10364150998E+03  0.00000000000E+00 0. -1.
          1    1    1    2  501    0  0.22102595025E+03  0.29744810696E+03  0.15453335246E+02  0.37089978780E+03  0.00000000000E+00 0. -1.
<scales pt_clust_5="13000.00000" pt_clust_6="13000.00000" pt_clust_7="13000.00000" pt_clust_8="13000.00000" pt_clust_9="353.70197"></scales>
<clustering>
<clus scale="   80.697">  5  6 -1 -1</clus>
<clus scale="   87.041">  1  5  2 -1</clus>
<clus scale="   91.620">  7  8 -1 -1</clus>
<clus scale="  353.702">  2  9  1 -1</clus>
<clus scale="  353.702">  2  5  1 -1</clus>
</clustering>
</event>
<event>
 9    2  0.1751298E-004  0.1737639E+03  0.7546771E-02  0.1193990E+00
          2   -1    0    0  502    0 -0.00000000000E+00  0.00000000000E+00  0.20858767505E+03  0.20858767505E+03  0.00000000000E+00 0. -1.
         21   -1    0    0  501  502  0.00000000000E+00 -0.00000000000E+00 -0.24836266350E+03  0.24836266350E+03  0.00000000000E+00 0. -1.
         24    2    1    2    0    0 -0.63389837974E+02 -0.37780225550E+02  0.27561458680E+02  0.11452120445E+03  0.83125539170E+02 0.  0.
         23    2    1    2    0    0  0.17602912822E+03  0.51715892832E+01 -0.98274671929E+02  0.22115215105E+03  0.90759922074E+02 0.  0.
        -13    1    3    3    0    0 -0.35252556955E+02 -0.46827339062E+02 -0.17017925446E+02  0.61034025281E+02  0.00000000000E+00 0.  1.
         14    1    3    3    0    0 -0.28137281020E+02  0.90471135128E+01  0.44579384126E+02  0.53487179166E+02  0.00000000000E+00 0. -1.
        -11    1    4    4    0    0  0.17549747858E+03 -0.15116470798E+02 -0.78607735995E+02  0.19289128761E+03  0.00000000000E+00 0. -1.
         11    1    4    4    0    0  0.53164963286E+00  0.20288060081E+02 -0.19666935935E+02  0.28260863438E+02  0.00000000000E+00 0.  1.
          1    1    1    2  501    0 -0.11263929024E+03  0.32608636266E+02  0.30938224794E+02  0.12127698305E+03  0.00000000000E+00 0. -1.
<scales pt_clust_5="13000.00000" pt_clust_6="13000.00000" pt_clust_7="13000.00000" pt_clust_8="13000.00000" pt_clust_9="148.17739"></scales>
<clustering>
<clus scale="   83.126">  5  6 -1 -1</clus>
<clus scale="   90.760">  7  8 -1 -1</clus>
<clus scale="  111.155">  1  5  2 -1</clus>
<clus scale="  148.177">  2  9  1 -1</clus>
<clus scale="  148.177">  2  5  1 -1</clus>
</clustering>
</event>
<event>
 9    2  0.1751298E-004  0.1010632E+03  0.7546771E-02  0.1286443E+00
          2   -1    0    0  502    0 -0.00000000000E+00  0.00000000000E+00  0.15982228538E+03  0.15982228538E+03  0.00000000000E+00 0. -1.
         21   -1    0    0  501  502  0.00000000000E+00 -0.00000000000E+00 -0.46393847150E+03  0.46393847150E+03  0.00000000000E+00 0. -1.
         23    2    1    2    0    0 -0.35565075423E+02 -0.85913931509E+01  0.13337697622E+03  0.16745269484E+03  0.94404981850E+02 0.  0.
         24    2    1    2    0    0  0.34504685537E+02 -0.27423887041E+02 -0.25723079295E+03  0.27248002650E+03  0.78326503143E+02 0.  0.
        -13    1    4    4    0    0 -0.21147550392E+02  0.59369162695E+01 -0.38466260028E+02  0.44295812702E+02  0.00000000000E+00 0.  1.
         14    1    4    4    0    0  0.55652235929E+02 -0.33360803311E+02 -0.21876453293E+03  0.22818421380E+03  0.00000000000E+00 0. -1.
        -13    1    3    3    0    0 -0.12988099485E+00  0.22174441319E+02  0.11489751844E+03  0.11701778694E+03  0.00000000000E+00 0. -1.
         13    1    3    3    0    0 -0.35435194428E+02 -0.30765834470E+02  0.18479457774E+02  0.50434907895E+02  0.00000000000E+00 0.  1.
          1    1    1    2  501    0  0.10603898864E+01  0.36015280192E+02 -0.18026236938E+03  0.18382803554E+03  0.00000000000E+00 0. -1.
<scales pt_clust_5="13000.00000" pt_clust_6="13000.00000" pt_clust_7="13000.00000" pt_clust_8="13000.00000" pt_clust_9="36.03089"></scales>
<clustering>
<clus scale="   36.031">  2  9  1 -1</clus>
<clus scale="   78.327">  5  6 -1 -1</clus>
<clus scale="   86.235">  2  5  1 -1</clus>
<clus scale="   94.405">  7  8 -1 -1</clus>
<clus scale="   36.031">  2  5  1 -1</clus>
</clustering>
</event>
<event>
 9    2  0.1751298E-004  0.9400520E+02  0.7546771E-02  0.1312825E+00
         21   -1    0    0  501  502  0.00000000000E+00  0.00000000000E+00  0.10369209302E+03  0.10369209302E+03  0.00000000000E+00 0.  1.
         -1   -1    0    0    0  501 -0.00000000000E+00 -0.00000000000E+00 -0.23324390880E+03  0.23324390880E+03  0.00000000000E+00 0.  1.
         24    2    1    2    0    0 -0.19021889310E+02  0.10656487268E+02 -0.12012255709E+03  0.13714514555E+03  0.62481751189E+02 0.  0.
         23    2    1    2    0    0  0.21627974567E+02  0.20939259956E+02  0.66719595980E+02  0.11730612441E+03  0.91667881213E+02 0.  0.
        -11    1    3    3    0    0 -0.38921988435E+02  0.19167600560E+02 -0.91459457516E+02  0.10122820982E+03  0.00000000000E+00 0.  1.
         12    1    3    3    0    0  0.19900099125E+02 -0.85111132922E+01 -0.28663099577E+02  0.35916935727E+02  0.00000000000E+00 0. -1.
        -13    1    4    4    0    0  0.55224210462E+02  0.21110008995E+02  0.26191353236E+02  0.64663226684E+02  0.00000000000E+00 0.  1.
         13    1    4    4    0    0 -0.33596235895E+02 -0.17074903904E+00  0.40528242744E+02  0.52642897730E+02  0.00000000000E+00 0. -1.
         -2    1    1    2    0  502 -0.26060852574E+01 -0.31595747223E+02 -0.76148854660E+02  0.82484731853E+02  0.00000000000E+00 0.  1.
<scales pt_clust_5="13000.00000" pt_clust_6="13000.00000" pt_clust_7="13000.00000" pt_clust_8="13000.00000" pt_clust_9="31.70306"></scales>
<clustering>
<clus scale="   31.703">  1  9  2 -1</clus>
<clus scale="   62.482">  5  6 -1 -1</clus>
<clus scale="   65.863">  2  5  1 -1</clus>
<clus scale="   91.668">  7  8 -1 -1</clus>
<clus scale="   31.703">  1  5  2 -1</clus>
</clustering>
</event>
<event>
 9    2  0.1751298E-004  0.1168593E+03  0.7546771E-02  0.1253057E+00
         21   -1    0    0  501  502  0.00000000000E+00  0.00000000000E+00  0.40084928472E+02  0.40084928472E+02  0.00000000000E+00 0. -1.
          2   -1    0    0  502    0 -0.00000000000E+00 -0.00000000000E+00 -0.80314925947E+03  0.80314925947E+03  0.00000000000E+00 0. -1.
         24    2    1    2    0    0  0.53588477643E+02 -0.48344123539E+02 -0.56339974768E+03  0.57372611499E+03  0.80830069381E+02 0.  0.
         23    2    1    2    0    0 -0.32030569981E+02  0.54777573980E+02 -0.21440647442E+03  0.24261093518E+03  0.94145576487E+02 0.  0.
        -11    1    3    3    0    0  0.40798383096E+02  0.70819307728E+01 -0.12567990100E+03  0.13232573190E+03  0.00000000000E+00 0.  1.
         12    1    3    3    0    0  0.12790094547E+02 -0.55426054312E+02 -0.43771984668E+03  0.44140038309E+03  0.00000000000E+00 0. -1.
        -11    1    4    4    0    0 -0.17088513640E+02  0.72317765272E+02 -0.93021072277E+02  0.11905795379E+03  0.00000000000E+00 0.  1.
         11    1    4    4    0    0 -0.14942056340E+02 -0.17540191292E+02 -0.12138540214E+03  0.12355298139E+03  0.00000000000E+00 0. -1.
          1    1    1    2  501    0 -0.21557907662E+02 -0.64334504409E+01  0.14741891098E+02  0.26897137775E+02  0.00000000000E+00 0. -1.
<scales pt_clust_5="13000.00000" pt_clust_6="13000.00000" pt_clust_7="13000.00000" pt_clust_8="13000.00000" pt_clust_9="22.49739"></scales>
<clustering>
<clus scale="   22.497">  1  9  2 -1</clus>
<clus scale="   80.830">  5  6 -1 -1</clus>
<clus scale="   94.146">  7  8 -1 -1</clus>
<clus scale="  106.425">  2  5  1 -1</clus>
<clus scale="   22.497">  1  5  2 -1</clus>
</clustering>
</event>
<event>
 9    2  0.1751298E-004  0.2588105E+03  0.7546771E-02  0.1136762E+00
          2   -1    0    0  502    0 -0.00000000000E+00  0.00000000000E+00  0.19323743468E+04  0.19323743468E+04  0.00000000000E+00 0. -1.
         21   -1    0    0  501  502  0.00000000000E+00 -0.00000000000E+00 -0.94465501967E+02  0.94465501967E+02  0.00000000000E+00 0. -1.
         24    2    1    2    0    0  0.49830171580E+02 -0.79195677543E+02  0.11823879723E+04  0.11890813258E+04  0.84368720787E+02 0.  0.
         23    2    1    2    0    0 -0.15757906959E+03  0.23007145868E+03  0.22971282479E+03  0.37333864839E+03  0.94072978243E+02 0.  0.
        -13    1    3    3    0    0 -0.13503524292E+02 -0.33289406621E+02  0.17432011995E+03  0.17798324073E+03  0.00000000000E+00 0.  1.
         14    1    3    3    0    0  0.63333695872E+02 -0.45906270922E+02  0.10080678523E+04  0.10110980851E+04  0.00000000000E+00 0. -1.
        -11    1    4    4    0    0  0.11323799384E+01  0.55656028834E+02  0.24848977277E+02  0.60961852839E+02  0.00000000000E+00 0.  1.
         11    1    4    4    0    0 -0.15871144953E+03  0.17441542985E+03  0.20486384751E+03  0.31237679555E+03  0.00000000000E+00 0. -1.
          1    1    1    2  501    0  0.10774889801E+03 -0.15087578114E+03  0.42580804775E+03  0.46441987456E+03  0.00000000000E+00 0. -1.
<scales pt_clust_5="13000.00000" pt_clust_6="13000.00000" pt_clust_7="13000.00000" pt_clust_8="13000.00000" pt_clust_9="241.10834"></scales>
<clustering>
<clus scale="   84.369">  5  6 -1 -1</clus>
<clus scale="   94.073">  7  8 -1 -1</clus>
<clus scale="  125.988">  1  5  2 -1</clus>
<clus scale="  241.108">  2  9  1 -1</clus>
<clus scale="  241.108">  2  5  1 -1</clus>
</clustering>
</event>
<event>
 9    2  0.1751298E-004  0.1231999E+03  0.7546771E-02  0.1240617E+00
         21   -1    0    0  501  502  0.00000000000E+00  0.00000000000E+00  0.10069733776E+03  0.10069733776E+03  0.00000000000E+00 0. -1.
         -3   -1    0    0    0  501 -0.00000000000E+00 -0.00000000000E+00 -0.32979560314E+03  0.32979560314E+03  0.00000000000E+00 0.  1.
         24    2    1    2    0    0 -0.72889858379E+02  0.45035107135E+02 -0.12798331233E+03  0.17407126175E+03  0.81117098096E+02 0.  0.
         23    2    1    2    0    0  0.22543513764E+02 -0.97399703971E+02 -0.35652516344E+01  0.13479623089E+03  0.90346004320E+02 0.  0.
        -11    1    3    3    0    0 -0.51568284393E+02 -0.50774736206E+01 -0.24907755301E+02  0.57493173227E+02  0.00000000000E+00 0.  1.
         12    1    3    3    0    0 -0.21321573986E+02  0.50112580755E+02 -0.10307555703E+03  0.11657808852E+03  0.00000000000E+00 0. -1.
        -13    1    4    4    0    0 -0.20188604625E+02  0.71805086798E+01  0.29765682774E+01  0.21633294255E+02  0.00000000000E+00 0.  1.
         13    1    4    4    0    0  0.42732118389E+02 -0.10458021265E+03 -0.65418199119E+01  0.11316293664E+03  0.00000000000E+00 0. -1.
         -4    1    1    2    0  502  0.50346344615E+02  0.52364596837E+02 -0.97549701418E+02  0.12162544826E+03  0.00000000000E+00 0.  1.
<scales pt_clust_5="13000.00000" pt_clust_6="13000.00000" pt_clust_7="13000.00000" pt_clust_8="13000.00000" pt_clust_9="72.64166"></scales>
<clustering>
<clus scale="   72.642">  1  9  2 -1</clus>
<clus scale="   81.117">  5  6 -1 -1</clus>
<clus scale="   90.346">  7  8 -1 -1</clus>
<clus scale="  116.601">  2  5  1 -1</clus>
<clus scale="   72.642">  1  5  2 -1</clus>
</clustering>
</event>
<event>
 9    2  0.1751298E-004  0.2706490E+03  0.7546771E-02  0.1144009E+00
         21   -1    0    0  501  502  0.00000000000E+00  0.00000000000E+00  0.12741175565E+03  0.12741175565E+03  0.00000000000E+00 0. -1.
          2   -1    0    0  502    0 -0.00000000000E+00 -0.00000000000E+00 -0.86830614088E+03  0.86830614088E+03  0.00000000000E+00 0. -1.
         23    2    1    2    0    0 -0.89667096955E+01  0.73796022198E+01 -0.65588269410E+02  0.11340188897E+03  0.91778575529E+02 0.  0.
         24    2    1    2    0    0 -0.24945005367E+03 -0.58458164018E+02 -0.18585371825E+03  0.32648159647E+03  0.80037129061E+02 0.  0.
        -11    1    4    4    0    0 -0.29262173928E+02  0.19120485831E+02 -0.25093923992E+02  0.43029906144E+02  0.00000000000E+00 0.  1.
         12    1    4    4    0    0 -0.22018787975E+03 -0.77578649849E+02 -0.16075979426E+03  0.28345169033E+03  0.00000000000E+00 0. -1.
        -13    1    3    3    0    0  0.24523073679E+02  0.36966986920E+02 -0.17318012175E+02  0.47621978228E+02  0.00000000000E+00 0. -1.
         13    1    3    3    0    0 -0.33489783374E+02 -0.29587384700E+02 -0.48270257234E+02  0.65779910743E+02  0.00000000000E+00 0.  1.
          1    1    1    2  501    0  0.25841676337E+03  0.51078561798E+02 -0.48945239757E+03  0.55583441109E+03  0.00000000000E+00 0. -1.
<scales pt_clust_5="13000.00000" pt_clust_6="13000.00000" pt_clust_7="13000.00000" pt_clust_8="13000.00000" pt_clust_9="258.54396"></scales>
<clustering>
<clus scale="   80.037">  5  6 -1 -1</clus>
<clus scale="   91.779">  7  8 -1 -1</clus>
<clus scale="   92.510">  2  7  1 -1</clus>
<clus scale="  258.544">  1  9  2 -1</clus>
<clus scale="  258.544">  1  5  2 -1</clus>
</clustering>
</event>
<event>
 9    2  0.1751298E-004  0.1543572E+03  0.7546771E-02  0.1221770E+00
          2   -1    0    0  502    0 -0.00000000000E+00  0.00000000000E+00  0.65602383325E+03  0.65602383325E+03  0.00000000000E+00 0. -1.
         21   -1    0    0  501  502  0.00000000000E+00 -0.00000000000E+00 -0.77693057849E+02  0.77693057849E+02  0.00000000000E+00 0. -1.
         24    2    1    2    0    0 -0.16943995863E+01  0.45278626625E+02  0.36248235331E+03  0.37287658522E+03  0.74769421040E+02 0.  0.
         23    2    1    2    0    0  0.70835226267E+02  0.82050758131E+02  0.86461856081E+02  0.16658761066E+03  0.92335384762E+02 0.  0.
        -13    1    3    3    0    0 -0.30664210849E+02  0.34745569271E+02  0.12338963993E+03  0.13180497583E+03  0.00000000000E+00 0.  1.
         14    1    3    3    0    0  0.28969811263E+02  0.10533057354E+02  0.23909271338E+03  0.24107160939E+03  0.00000000000E+00 0. -1.
        -11    1    4    4    0    0  0.45989336170E+02  0.48948903341E+01  0.69963152801E+02  0.83867882664E+02  0.00000000000E+00 0.  1.
         11    1    4    4    0    0  0.24845890097E+02  0.77155867797E+02  0.16498703280E+02  0.82719727998E+02  0.00000000000E+00 0. -1.
          1    1    1    2  501    0 -0.69140826681E+02 -0.12732938476E+03  0.12938656601E+03  0.19425269522E+03  0.00000000000E+00 0. -1.
<scales pt_clust_5="13000.00000" pt_clust_6="13000.00000" pt_clust_7="13000.00000" pt_clust_8="13000.00000" pt_clust_9="123.69449"></scales>
<clustering>
<clus scale="   74.769">  5  6 -1 -1</clus>
<clus scale="   87.427">  1  5  2 -1</clus>
<clus scale="   92.335">  7  8 -1 -1</clus>
<clus scale="  123.694">  2  9  1 -1</clus>
<clus scale="  123.694">  2  5  1 -1</clus>
</clustering>
</event>
<event>
 9    2  0.1751298E-004  0.9316726E+02  0.7546771E-02  0.1302794E+00
          2   -1    0    0  502    0 -0.00000000000E+00  0.00000000000E+00  0.73568047440E+03  0.73568047440E+03  0.00000000000E+00 0. -1.
         21   -1    0    0  501  502  0.00000000000E+00 -0.00000000000E+00 -0.20705967188E+02  0.20705967188E+02  0.00000000000E+00 0. -1.
         23    2    1    2    0    0  0.95457950997E-01  0.13144609451E+02  0.42535386771E+03  0.43559036004E+03  0.92952994101E+02 0.  0.
         24    2    1    2    0    0 -0.20173564863E+02  0.29606598522E+02  0.16041288426E+03  0.18322631679E+03  0.80969539545E+02 0.  0.
        -11    1    4    4    0    0  0.27009115256E+02 -0.21271361762E+01  0.82048061633E+02  0.86405447936E+02  0.00000000000E+00 0.  1.
         12    1    4    4    0    0 -0.47182680120E+02  0.31733734698E+02  0.78364822623E+02  0.96820868855E+02  0.00000000000E+00 0. -1.
        -13    1    3    3    0    0 -0.14010604021E+02 -0.37977589305E+02  0.20338074534E+03  0.20737001203E+03  0.00000000000E+00 0. -1.
         13    1    3    3    0    0  0.14106061972E+02  0.51122198756E+02  0.22197312237E+03  0.22822034801E+03  0.00000000000E+00 0.  1.
          1    1    1    2  501    0  0.20078106912E+02 -0.42751207973E+02  0.12920775524E+03  0.13756976476E+03  0.00000000000E+00 0. -1.
<scales pt_clust_5="13000.00000" pt_clust_6="13000.00000" pt_clust_7="13000.00000" pt_clust_8="13000.00000" pt_clust_9="47.23130"></scales>
<clustering>
<clus scale="   47.231">  2  9  1 -1</clus>
<clus scale="   80.970">  5  6 -1 -1</clus>
<clus scale="   81.215">  2  5  1 -1</clus>
<clus scale="   92.953">  7  8 -1 -1</clus>
<clus scale="   47.231">  2  5  1 -1</clus>
</clustering>
</event>
<event>
 9    2  0.1751298E-004  0.1361409E+03  0.7546771E-02  0.1220278E+00
         21   -1    0    0  501  502  0.00000000000E+00  0.00000000000E+00  0.24885590543E+03  0.24885590543E+03  0.00000000000E+00 0. -1.
         -1   -1    0    0    0  501 -0.00000000000E+00 -0.00000000000E+00 -0.10543230030E+03  0.10543230030E+03  0.00000000000E+00 0.  1.
         23    2    1    2    0    0 -0.94968103801E+02 -0.39637528051E+02 -0.11091280801E+02  0.13632809033E+03  0.88725742224E+02 0.  0.
         24    2    1    2    0    0  0.10345871108E+03  0.21107489516E+02  0.13544080379E+03  0.19004464748E+03  0.81385045858E+02 0.  0.
        -11    1    4    4    0    0  0.26232165399E+02  0.41413838849E+02  0.28921604396E+02  0.56918290124E+02  0.00000000000E+00 0.  1.
         12    1    4    4    0    0  0.77226545685E+02 -0.20306349334E+02  0.10651919940E+03  0.13312635735E+03  0.00000000000E+00 0. -1.
        -11    1    3    3    0    0 -0.74704298694E+02  0.13703311062E+02  0.74888082682E+01  0.76319035808E+02  0.00000000000E+00 0.  1.
         11    1    3    3    0    0 -0.20263805108E+02 -0.53340839112E+02 -0.18580089069E+02  0.60009054521E+02  0.00000000000E+00 0. -1.
         -2    1    1    2    0  502 -0.84906072820E+01  0.18530038535E+02  0.19074082137E+02  0.27915467926E+02  0.00000000000E+00 0.  1.
<scales pt_clust_5="13000.00000" pt_clust_6="13000.00000" pt_clust_7="13000.00000" pt_clust_8="13000.00000" pt_clust_9="20.38266"></scales>
<clustering>
<clus scale="   20.383">  1  9  2 -1</clus>
<clus scale="   81.385">  5  6 -1 -1</clus>
<clus scale="   88.726">  7  8 -1 -1</clus>
<clus scale="  131.475">  1  5  2 -1</clus>
<clus scale="   20.383">  1  5  2 -1</clus>
</clustering>
</event>
<event>
 9    2  0.1751298E-004  0.3528624E+03  0.7546771E-02  0.1061446E+00
         21   -1    0    0  501  502  0.00000000000E+00  0.00000000000E+00  0.17151181945E+03  0.17151181945E+03  0.00000000000E+00 0.  1.
          2   -1    0    0  502    0 -0.00000000000E+00 -0.00000000000E+00 -0.62850128136E+03  0.62850128136E+03  0.00000000000E+00 0. -1.
         24    2    1    2    0    0  0.49380884242E+02 -0.94202154402E+02 -0.77093153805E+02  0.15340698770E+03  0.79232770296E+02 0.  0.
         23    2    1    2    0    0  0.60011179853E+02 -0.17762583868E+03 -0.24372902696E+03  0.32349837571E+03  0.10047427646E+03 0.  0.
        -11    1    3    3    0    0  0.28001334380E+02 -0.75113473301E+02 -0.10423725545E+02  0.80837878824E+02  0.00000000000E+00 0.  1.
         12    1    3    3    0    0  0.21379549863E+02 -0.19088681101E+02 -0.66669428260E+02  0.72569108876E+02  0.00000000000E+00 0. -1.
        -11    1    4    4    0    0  0.59630026204E+02 -0.12060622653E+03 -0.96380597080E+02  0.16550172627E+03  0.00000000000E+00 0.  1.
         11    1    4    4    0    0  0.38115364931E+00 -0.57019612148E+02 -0.14734842988E+03  0.15799664944E+03  0.00000000000E+00 0. -1.
          1    1    1    2  501    0 -0.10939206410E+03  0.27182799308E+03 -0.13616728114E+03  0.32310773740E+03  0.00000000000E+00 0. -1.
<scales pt_clust_5="13000.00000" pt_clust_6="13000.00000" pt_clust_7="13000.00000" pt_clust_8="13000.00000" pt_clust_9="293.01379"></scales>
<clustering>
<clus scale="   79.233">  5  6 -1 -1</clus>
<clus scale="  100.474">  7  8 -1 -1</clus>
<clus scale="  114.881">  5  7 -1 -1</clus>
<clus scale="  293.014">  1  9  2 -1</clus>
<clus scale="  293.014">  1  5  2 -1</clus>
</clustering>
</event>
<event>
 9    2  0.1751298E-004  0.1255968E+03  0.7546771E-02  0.1250781E+00
          2   -1    0    0  502    0 -0.00000000000E+00  0.00000000000E+00  0.15448409617E+04  0.15448409617E+04  0.00000000000E+00 0. -1.
         21   -1    0    0  501  502  0.00000000000E+00 -0.00000000000E+00 -0.24030238174E+02  0.24030238174E+02  0.00000000000E+00 0.  1.
         24    2    1    2    0    0  0.41477604482E+02  0.31430427194E+01  0.41871161597E+03  0.42821159608E+03  0.79470014993E+02 0.  0.
         23    2    1    2    0    0  0.76903839431E+02  0.15452536877E+02  0.22016861978E+03  0.25062513978E+03  0.90475179696E+02 0.  0.
        -11    1    3    3    0    0  0.59780547895E+02 -0.15753907416E+02  0.25418318187E+03  0.26159317547E+03  0.00000000000E+00 0.  1.
         12    1    3    3    0    0 -0.18302943413E+02  0.18896950135E+02  0.16452843409E+03  0.16661842061E+03  0.00000000000E+00 0. -1.
        -11    1    4    4    0    0 -0.20834729714E+02  0.33205290181E+01  0.34117631817E+02  0.40113896296E+02  0.00000000000E+00 0. -1.
         11    1    4    4    0    0  0.97738569145E+02  0.12132007859E+02  0.18605098796E+03  0.21051124349E+03  0.00000000000E+00 0.  1.
          1    1    1    2  501    0 -0.11838144391E+03 -0.18595579596E+02  0.88193048773E+03  0.89003446396E+03  0.00000000000E+00 0. -1.
<scales pt_clust_5="13000.00000" pt_clust_6="13000.00000" pt_clust_7="13000.00000" pt_clust_8="13000.00000" pt_clust_9="87.11376"></scales>
<clustering>
<clus scale="   79.470">  5  6 -1 -1</clus>
<clus scale="   89.698">  1  5  2 -1</clus>
<clus scale="   87.114">  2  9  1 -1</clus>
<clus scale="   90.475">  7  8 -1 -1</clus>
<clus scale="   87.114">  2  5  1 -1</clus>
</clustering>
</event>
<event>
 9    2  0.1751298E-004  0.9712582E+02  0.7546771E-02  0.1292227E+00
         21   -1    0    0  501  502  0.00000000000E+00  0.00000000000E+00  0.26063987638E+03  0.26063987638E+03  0.00000000000E+00 0.  1.
          2   -1    0    0  502    0 -0.00000000000E+00 -0.00000000000E+00 -0.90108263197E+02  0.90108263197E+02  0.00000000000E+00 0. -1.
         23    2    1    2    0    0 -0.26064186567E+02 -0.21185796393E+02  0.12927022930E+02  0.97137353531E+02  0.90224041913E+02 0.  0.
         24    2    1    2    0    0  0.53688523225E+02 -0.59267388180E+02  0.77552128539E+02  0.13680232955E+03  0.79406951211E+02 0.  0.
        -13    1    4    4    0    0  0.55990816790E+02 -0.49931603489E+02  0.92457110021E+02  0.11906491417E+03  0.00000000000E+00 0.  1.
         14    1    4    4    0    0 -0.23022935649E+01 -0.93357846905E+01 -0.14904981481E+02  0.17737415381E+02  0.00000000000E+00 0. -1.
        -13    1    3    3    0    0  0.26948485687E+02 -0.11171910264E+01  0.27594181002E+02  0.38586368341E+02  0.00000000000E+00 0. -1.
         13    1    3    3    0    0 -0.53012672254E+02 -0.20068605367E+02 -0.14667158072E+02  0.58550985190E+02  0.00000000000E+00 0.  1.
          1    1    1    2  501    0 -0.27624336658E+02  0.80453184573E+02  0.80052461716E+02  0.11680845650E+03  0.00000000000E+00 0. -1.
<scales pt_clust_5="13000.00000" pt_clust_6="13000.00000" pt_clust_7="13000.00000" pt_clust_8="13000.00000" pt_clust_9="85.06362"></scales>
<clustering>
<clus scale="   79.407">  5  6 -1 -1</clus>
<clus scale="   85.064">  1  9  2 -1</clus>
<clus scale="   87.169">  1  5  2 -1</clus>
<clus scale="   90.224">  7  8 -1 -1</clus>
<clus scale="   85.064">  1  5  2 -1</clus>
</clustering>
</event>
<event>
 9    2  0.1751298E-004  0.1134740E+03  0.7546771E-02  0.1266879E+00
         21   -1    0    0  501  502  0.00000000000E+00  0.00000000000E+00  0.65476526740E+02  0.65476526740E+02  0.00000000000E+00 0. -1.
          2   -1    0    0  502    0 -0.00000000000E+00 -0.00000000000E+00 -0.80105754994E+03  0.80105754994E+03  0.00000000000E+00 0. -1.
         24    2    1    2    0    0  0.12133637757E+02  0.37101367782E+02 -0.67737510776E+03  0.68314731266E+03  0.79558013521E+02 0.  0.
         23    2    1    2    0    0 -0.43386957897E+02 -0.24568521910E+02 -0.80888918615E+02  0.14278675321E+03  0.10657860645E+03 0.  0.
        -11    1    3    3    0    0  0.34067358716E+02  0.35318532422E+02 -0.22739688749E+03  0.23263131367E+03  0.00000000000E+00 0.  1.
         12    1    3    3    0    0 -0.21933720959E+02  0.17828353605E+01 -0.44997822028E+03  0.45051599898E+03  0.00000000000E+00 0. -1.
        -13    1    4    4    0    0  0.35475967666E+02 -0.13322826011E+02 -0.28975496835E+02  0.47703473580E+02  0.00000000000E+00 0.  1.
         13    1    4    4    0    0 -0.78862925563E+02 -0.11245695900E+02 -0.51913421780E+02  0.95083279632E+02  0.00000000000E+00 0. -1.
          1    1    1    2  501    0  0.31253320140E+02 -0.12532845872E+02  0.22683003174E+02  0.40600010818E+02  0.00000000000E+00 0. -1.
<scales pt_clust_5="13000.00000" pt_clust_6="13000.00000" pt_clust_7="13000.00000" pt_clust_8="13000.00000" pt_clust_9="33.67257"></scales>
<clustering>
<clus scale="   33.673">  1  9  2 -1</clus>
<clus scale="   79.558">  5  6 -1 -1</clus>
<clus scale="   88.582">  2  5  1 -1</clus>
<clus scale="  106.579">  7  8 -1 -1</clus>
<clus scale="   33.673">  1  5  2 -1</clus>
</clustering>
</event>
<event>
 9    2  0.1751298E-004  0.1105928E+03  0.7546771E-02  0.1265644E+00
          2   -1    0    0  502    0 -0.00000000000E+00  0.00000000000E+00  0.17366446768E+03  0.17366446768E+03  0.00000000000E+00 0. -1.
         21   -1    0    0  501  502  0.00000000000E+00 -0.00000000000E+00 -0.13769761024E+03  0.13769761024E+03  0.00000000000E+00 0.  1.
         24    2    1    2    0    0  0.11460413444E+01  0.42025448649E+02  0.34162674848E+02  0.96290902687E+02  0.79607775013E+02 0.  0.
         23    2    1    2    0    0  0.26896593093E+02 -0.72291849923E+02  0.65966156316E+02  0.13878747275E+03  0.94661980368E+02 0.  0.
        -11    1    3    3    0    0 -0.15769607730E+02  0.31091181516E+02 -0.18813931442E+02  0.39614468472E+02  0.00000000000E+00 0.  1.
         12    1    3    3    0    0  0.16915649074E+02  0.10934267134E+02  0.52976606290E+02  0.56676434215E+02  0.00000000000E+00 0. -1.
        -13    1    4    4    0    0  0.45807632203E+02 -0.20898698370E+00  0.36807668941E+02  0.58763826768E+02  0.00000000000E+00 0. -1.
         13    1    4    4    0    0 -0.18911039111E+02 -0.72082862939E+02  0.29158487376E+02  0.80023645979E+02  0.00000000000E+00 0.  1.
          1    1    1    2  501    0 -0.28042634437E+02  0.30266401274E+02 -0.64161973726E+02  0.76283702484E+02  0.00000000000E+00 0. -1.
<scales pt_clust_5="13000.00000" pt_clust_6="13000.00000" pt_clust_7="13000.00000" pt_clust_8="13000.00000" pt_clust_9="41.26069"></scales>
<clustering>
<clus scale="   41.261">  2  9  1 -1</clus>
<clus scale="   79.608">  5  6 -1 -1</clus>
<clus scale="   94.662">  7  8 -1 -1</clus>
<clus scale="   98.017">  1  5  2 -1</clus>
<clus scale="   41.261">  2  5  1 -1</clus>
</clustering>
</event>
<event>
 9    2  0.1751298E-004  0.1188806E+03  0.7546771E-02  0.1248183E+00
         21   -1    0    0  501  502  0.00000000000E+00  0.00000000000E+00  0.71929786649E+02  0.71929786649E+02  0.00000000000E+00 0. -1.
          2   -1    0    0  502    0 -0.00000000000E+00 -0.00000000000E+00 -0.11771861952E+04  0.11771861952E+04  0.00000000000E+00 0. -1.
         24    2    1    2    0    0 -0.22478988778E+02  0.78109752143E+02 -0.78587315626E+03  0.79416078114E+03  0.80549923994E+02 0.  0.
         23    2    1    2    0    0  0.69345126551E+02  0.74586071893E+01  0.67606241235E+01  0.11453163056E+03  0.90594762336E+02 0.  0.
        -13    1    3    3    0    0 -0.35072760776E+02  0.13603413321E+02 -0.14047761744E+03  0.14542734407E+03  0.00000000000E+00 0.  1.
         14    1    3    3    0    0  0.12593771997E+02  0.64506338822E+02 -0.64539553882E+03  0.64873343707E+03  0.00000000000E+00 0. -1.
        -11    1    4    4    0    0  0.67485859325E+02 -0.30785263718E+02  0.14209590082E+02  0.75524738472E+02  0.00000000000E+00 0. -1.
         11    1    4    4    0    0  0.18592672261E+01  0.38243870907E+02 -0.74489659586E+01  0.39006892089E+02  0.00000000000E+00 0.  1.
          1    1    1    2  501    0 -0.46866137773E+02 -0.85568359332E+02 -0.32614387641E+03  0.34042357014E+03  0.00000000000E+00 0. -1.
<scales pt_clust_5="13000.00000" pt_clust_6="13000.00000" pt_clust_7="13000.00000" pt_clust_8="13000.00000" pt_clust_9="97.56223"></scales>
<clustering>
<clus scale="   80.550">  5  6 -1 -1</clus>
<clus scale="   90.595">  7  8 -1 -1</clus>
<clus scale="   97.562">  1  9  2 -1</clus>
<clus scale="  111.416">  2  5  1 -1</clus>
<clus scale="   97.562">  1  5  2 -1</clus>
</clustering>
</event>
<event>
 9    2  0.1751298E-004  0.1054114E+03  0.7546771E-02  0.1275213E+00
          4   -1    0    0  502    0 -0.00000000000E+00  0.00000000000E+00  0.33811232068E+02  0.33811232068E+02  0.00000000000E+00 0. -1.
         21   -1    0    0  501  502  0.00000000000E+00 -0.00000000000E+00 -0.50718558494E+03  0.50718558494E+03  0.00000000000E+00 0.  1.
         24    2    1    2    0    0 -0.52557353217E+02  0.12969745693E+02 -0.13141610224E+03  0.16163072241E+03  0.76966283645E+02 0.  0.
         23    2    1    2    0    0  0.35591670221E+02 -0.55113430074E+02 -0.28744368726E+03  0.30840299044E+03  0.90466977402E+02 0.  0.
        -13    1    3    3    0    0 -0.64560532471E+02  0.31281721687E+02 -0.10712840072E+03  0.12893061198E+03  0.00000000000E+00 0.  1.
         14    1    3    3    0    0  0.12003179254E+02 -0.18311975994E+02 -0.24287701517E+02  0.32700110427E+02  0.00000000000E+00 0. -1.
        -11    1    4    4    0    0 -0.52014824305E+01 -0.61572347006E+02 -0.22653894160E+03  0.23481503656E+03  0.00000000000E+00 0.  1.
         11    1    4    4    0    0  0.40793152651E+02  0.64589169325E+01 -0.60904745665E+02  0.73587953876E+02  0.00000000000E+00 0. -1.
          3    1    1    2  501    0  0.16965682997E+02  0.42143684381E+02 -0.54514563371E+02  0.70963104161E+02  0.00000000000E+00 0. -1.
<scales pt_clust_5="13000.00000" pt_clust_6="13000.00000" pt_clust_7="13000.00000" pt_clust_8="13000.00000" pt_clust_9="45.43046"></scales>
<clustering>
<clus scale="   45.430">  2  9  1 -1</clus>
<clus scale="   76.966">  5  6 -1 -1</clus>
<clus scale="   90.467">  7  8 -1 -1</clus>
<clus scale="   94.080">  1  5  2 -1</clus>
<clus scale="   45.430">  2  5  1 -1</clus>
</clustering>
</event>
<event>
 9    2  0.1751298E-004  0.2049533E+03  0.7546771E-02  0.1178568E+00
         21   -1    0    0  501  502  0.00000000000E+00  0.00000000000E+00  0.27697316953E+03  0.27697316953E+03  0.00000000000E+00 0.  1.
          2   -1    0    0  502    0 -0.00000000000E+00 -0.00000000000E+00 -0.30020053981E+03  0.30020053981E+03  0.00000000000E+00 0. -1.
         23    2    1    2    0    0 -0.88903441156E+01  0.23371418190E+02  0.78871849523E+02  0.12382063551E+03  0.92116880778E+02 0.  0.
         24    2    1    2    0    0  0.19272387700E+03 -0.25155954413E+02 -0.15398716816E+03  0.26232869956E+03  0.85609484558E+02 0.  0.
        -13    1    4    4    0    0  0.16779768697E+03  0.92430894682E+01 -0.10820878140E+03  0.19987655897E+03  0.00000000000E+00 0.  1.
         14    1    4    4    0    0  0.24926190029E+02 -0.34399043881E+02 -0.45778386756E+02  0.62452140582E+02  0.00000000000E+00 0. -1.
        -13    1    3    3    0    0  0.30855834782E+02  0.40076815674E+02  0.54252106503E+02  0.74172264053E+02  0.00000000000E+00 0.  1.
         13    1    3    3    0    0 -0.39746178898E+02 -0.16705397483E+02  0.24619743020E+02  0.49648371458E+02  0.00000000000E+00 0. -1.
          1    1    1    2  501    0 -0.18383353288E+03  0.17845362227E+01  0.51887948354E+02  0.19102437427E+03  0.00000000000E+00 0. -1.
<scales pt_clust_5="13000.00000" pt_clust_6="13000.00000" pt_clust_7="13000.00000" pt_clust_8="13000.00000" pt_clust_9="186.21724"></scales>
<clustering>
<clus scale="   85.609">  5  6 -1 -1</clus>
<clus scale="   92.117">  7  8 -1 -1</clus>
<clus scale="   95.450">  2  7  1 -1</clus>
<clus scale="  186.217">  1  9  2 -1</clus>
<clus scale="  186.217">  1  5  2 -1</clus>
</clustering>
</event>
<event>
 9    2  0.1751298E-004  0.1801754E+03  0.7546771E-02  0.1196329E+00
         -3   -1    0    0    0  501 -0.00000000000E+00  0.00000000000E+00  0.23688290949E+03  0.23688290949E+03  0.00000000000E+00 0.  1.
         21   -1    0    0  501  502  0.00000000000E+00 -0.00000000000E+00 -0.42874235491E+03  0.42874235491E+03  0.00000000000E+00 0.  1.
         24    2    1    2    0    0 -0.40915071385E+02  0.37313872885E+02 -0.46138020139E+02  0.10536599507E+03  0.76856410519E+02 0.  0.
         23    2    1    2    0    0  0.13449686348E+03  0.86391521418E+02  0.14233051882E+03  0.23309799581E+03  0.92324416085E+02 0.  0.
        -11    1    3    3    0    0 -0.53015204118E+02  0.52122296842E+02 -0.43291446220E+02  0.86031941810E+02  0.00000000000E+00 0.  1.
         12    1    3    3    0    0  0.12100132733E+02 -0.14808423957E+02 -0.28465739193E+01  0.19334053257E+02  0.00000000000E+00 0. -1.
        -13    1    4    4    0    0  0.56992783227E+02  0.82701179419E+02  0.11023820158E+03  0.14913122914E+03  0.00000000000E+00 0.  1.
         13    1    4    4    0    0  0.77504080254E+02  0.36903419988E+01  0.32092317248E+02  0.83966766678E+02  0.00000000000E+00 0. -1.
         -4    1    1    2    0  502 -0.93581792096E+02 -0.12370539430E+03 -0.28805194410E+03  0.32716127352E+03  0.00000000000E+00 0.  1.
<scales pt_clust_5="13000.00000" pt_clust_6="13000.00000" pt_clust_7="13000.00000" pt_clust_8="13000.00000" pt_clust_9="154.72352"></scales>
<clustering>
<clus scale="   76.856">  5  6 -1 -1</clus>
<clus scale="   92.324">  7  8 -1 -1</clus>
<clus scale="   94.727">  1  5  2 -1</clus>
<clus scale="  154.724">  2  9  1 -1</clus>
<clus scale="  154.724">  2  5  1 -1</clus>
</clustering>
</event>
<event>
 9    2  0.1751298E-004  0.1051978E+03  0.7546771E-02  0.1276232E+00
         21   -1    0    0  501  502  0.00000000000E+00  0.00000000000E+00  0.26881478408E+02  0.26881478408E+02  0.00000000000E+00 0. -1.
          2   -1    0    0  502    0 -0.00000000000E+00 -0.00000000000E+00 -0.90501443285E+03  0.90501443285E+03  0.00000000000E+00 0. -1.
         24    2    1    2    0    0  0.29088904750E+02 -0.14434937578E+02 -0.41617163733E+03  0.42532244801E+03  0.81521906630E+02 0.  0.
         23    2    1    2    0    0 -0.94860119002E+02 -0.10029471850E+01 -0.24712502423E+03  0.28136508496E+03  0.95373399622E+02 0.  0.
        -13    1    3    3    0    0  0.31195664085E+02  0.28104566234E+02 -0.15005246108E+03  0.15581648558E+03  0.00000000000E+00 0.  1.
         14    1    3    3    0    0 -0.21067593356E+01 -0.42539503813E+02 -0.26611917625E+03  0.26950596244E+03  0.00000000000E+00 0. -1.
        -11    1    4    4    0    0 -0.73247773976E+02 -0.12084576835E+02 -0.24610243278E+03  0.25705579319E+03  0.00000000000E+00 0.  1.
         11    1    4    4    0    0 -0.21612345026E+02  0.11081629650E+02 -0.10225914442E+01  0.24309291773E+02  0.00000000000E+00 0. -1.
          1    1    1    2  501    0  0.65771214252E+02  0.15437884763E+02 -0.21483629289E+03  0.22520837829E+03  0.00000000000E+00 0. -1.
<scales pt_clust_5="13000.00000" pt_clust_6="13000.00000" pt_clust_7="13000.00000" pt_clust_8="13000.00000" pt_clust_9="67.55876"></scales>
<clustering>
<clus scale="   67.559">  1  9  2 -1</clus>
<clus scale="   81.522">  5  6 -1 -1</clus>
<clus scale="   92.824">  2  5  1 -1</clus>
<clus scale="   95.373">  7  8 -1 -1</clus>
<clus scale="   67.559">  1  5  2 -1</clus>
</clustering>
</event>
<event>
 9    2  0.1751298E-004  0.9912706E+02  0.7546771E-02  0.1288124E+00
         21   -1    0    0  501  502  0.00000000000E+00  0.00000000000E+00  0.49263224833E+03  0.49263224833E+03  0.00000000000E+00 0. -1.
         -1   -1    0    0    0  501 -0.00000000000E+00 -0.00000000000E+00 -0.72337148136E+02  0.72337148136E+02  0.00000000000E+00 0.  1.
         24    2    1    2    0    0  0.45263119421E+02 -0.77583181327E+01 -0.21598505629E+02  0.94595884184E+02  0.79830723279E+02 0.  0.
         23    2    1    2    0    0  0.10932418273E+02  0.23780054585E+02  0.19909556906E+03  0.22064261481E+03  0.91428163525E+02 0.  0.
        -13    1    3    3    0    0  0.31823387856E+02  0.28273784895E+02 -0.33684732621E+02  0.54284400510E+02  0.00000000000E+00 0.  1.
         14    1    3    3    0    0  0.13439731565E+02 -0.36032103028E+02  0.12086226992E+02  0.40311483675E+02  0.00000000000E+00 0. -1.
        -11    1    4    4    0    0 -0.23255813276E+01 -0.34229220998E+02  0.56085144777E+02  0.65746417114E+02  0.00000000000E+00 0.  1.
         11    1    4    4    0    0  0.13257999601E+02  0.58009275583E+02  0.14301042428E+03  0.15489619770E+03  0.00000000000E+00 0. -1.
         -2    1    1    2    0  502 -0.56195537695E+02 -0.16021736453E+02  0.24279803676E+03  0.24973089747E+03  0.00000000000E+00 0.  1.
<scales pt_clust_5="13000.00000" pt_clust_6="13000.00000" pt_clust_7="13000.00000" pt_clust_8="13000.00000" pt_clust_9="58.43487"></scales>
<clustering>
<clus scale="   58.435">  1  9  2 -1</clus>
<clus scale="   79.831">  5  6 -1 -1</clus>
<clus scale="   88.544">  2  5  1 -1</clus>
<clus scale="   91.428">  7  8 -1 -1</clus>
<clus scale="   58.435">  1  5  2 -1</clus>
</clustering>
</event>
<event>
 9    2  0.1751298E-004  0.1992460E+03  0.7546771E-02  0.1188633E+00
         21   -1    0    0  501  502  0.00000000000E+00  0.00000000000E+00  0.38726216746E+03  0.38726216746E+03  0.00000000000E+00 0. -1.
          2   -1    0    0  502    0 -0.00000000000E+00 -0.00000000000E+00 -0.24483184180E+03  0.24483184180E+03  0.00000000000E+00 0. -1.
         24    2    1    2    0    0 -0.27256729495E+00  0.18689053954E+02 -0.13383468138E+03  0.15746695983E+03  0.80837902414E+02 0.  0.
         23    2    1    2    0    0  0.13928982654E+03 -0.13352378915E+03  0.15073186090E+03  0.25491954942E+03  0.70948042543E+02 0.  0.
        -13    1    3    3    0    0 -0.22240972883E+02  0.29058517129E+02 -0.21301573688E+02  0.42341650110E+02  0.00000000000E+00 0.  1.
         14    1    3    3    0    0  0.21968405588E+02 -0.10369463174E+02 -0.11253310770E+03  0.11512530972E+03  0.00000000000E+00 0. -1.
        -13    1    4    4    0    0  0.83446463120E+01 -0.47344107942E+02  0.26444174799E+02  0.54867039830E+02  0.00000000000E+00 0.  1.
         13    1    4    4    0    0  0.13094518023E+03 -0.86179681212E+02  0.12428768610E+03  0.20005250959E+03  0.00000000000E+00 0. -1.
          1    1    1    2  501    0 -0.13901725924E+03  0.11483473520E+03  0.12553314615E+03  0.21970750000E+03  0.00000000000E+00 0. -1.
<scales pt_clust_5="13000.00000" pt_clust_6="13000.00000" pt_clust_7="13000.00000" pt_clust_8="13000.00000" pt_clust_9="186.18634"></scales>
<clustering>
<clus scale="   70.948">  7  8 -1 -1</clus>
<clus scale="   80.838">  5  6 -1 -1</clus>
<clus scale="   82.971">  2  5  1 -1</clus>
<clus scale="  186.186">  1  9  2 -1</clus>
<clus scale="  186.186">  1  5  2 -1</clus>
</clustering>
</event>
<event>
 9    2  0.1751298E-004  0.1260395E+03  0.7546771E-02  0.1234903E+00
          2   -1    0    0  502    0 -0.00000000000E+00  0.00000000000E+00  0.52437526397E+03  0.52437526397E+03  0.00000000000E+00 0. -1.
         21   -1    0    0  501  502  0.00000000000E+00 -0.00000000000E+00 -0.59922218115E+02  0.59922218115E+02  0.00000000000E+00 0. -1.
         24    2    1    2    0    0 -0.52916422095E+02 -0.77030648066E+02  0.31568750008E+03  0.33894550117E+03  0.80570382824E+02 0.  0.
         23    2    1    2    0    0  0.90320126907E+01  0.97143622547E+02  0.14802313394E+03  0.19707233400E+03  0.86070877725E+02 0.  0.
        -13    1    3    3    0    0 -0.23010971309E+01 -0.70751920956E+02  0.15598457614E+03  0.17129599342E+03  0.00000000000E+00 0.  1.
         14    1    3    3    0    0 -0.50615324964E+02 -0.62787271100E+01  0.15970292394E+03  0.16764950775E+03  0.00000000000E+00 0. -1.
        -13    1    4    4    0    0  0.42436483178E+02  0.79524319313E+02  0.11980964636E+03  0.14993106358E+03  0.00000000000E+00 0.  1.
         13    1    4    4    0    0 -0.33404470488E+02  0.17619303234E+02  0.28213487579E+02  0.47141270415E+02  0.00000000000E+00 0. -1.
          1    1    1    2  501    0  0.43884409404E+02 -0.20112974481E+02  0.74241184201E+00  0.48279646918E+02  0.00000000000E+00 0. -1.
<scales pt_clust_5="13000.00000" pt_clust_6="13000.00000" pt_clust_7="13000.00000" pt_clust_8="13000.00000" pt_clust_9="48.27394"></scales>
<clustering>
<clus scale="   48.274">  2  9  1 -1</clus>
<clus scale="   80.570">  5  6 -1 -1</clus>
<clus scale="   86.071">  7  8 -1 -1</clus>
<clus scale="  122.349">  1  5  2 -1</clus>
<clus scale="   48.274">  2  5  1 -1</clus>
</clustering>
</event>
<event>
 9    2  0.1751298E-004  0.1156662E+03  0.7546771E-02  0.1258819E+00
         21   -1    0    0  501  502  0.00000000000E+00  0.00000000000E+00  0.37918378597E+02  0.37918378597E+02  0.00000000000E+00 0.  1.
          2   -1    0    0  502    0 -0.00000000000E+00 -0.00000000000E+00 -0.82732346257E+03  0.82732346257E+03  0.00000000000E+00 0. -1.
         24    2    1    2    0    0 -0.30235659213E+02 -0.53702770730E+02 -0.63970145726E+03  0.64740725353E+03  0.78230523661E+02 0.  0.
         23    2    1    2    0    0 -0.56881581156E+01  0.45612885739E+02 -0.70130687889E+02  0.13015437616E+03  0.99543747983E+02 0.  0.
        -13    1    3    3    0    0  0.12151341711E+02 -0.40423911972E+02 -0.15403774036E+03  0.15971654022E+03  0.00000000000E+00 0.  1.
         14    1    3    3    0    0 -0.42387000924E+02 -0.13278858758E+02 -0.48566371690E+03  0.48769071331E+03  0.00000000000E+00 0. -1.
        -11    1    4    4    0    0  0.26784611876E+02  0.38042159428E+02  0.61254638994E+01  0.46926992608E+02  0.00000000000E+00 0.  1.
         11    1    4    4    0    0 -0.32472769992E+02  0.75707263117E+01 -0.76256151788E+02  0.83227383555E+02  0.00000000000E+00 0. -1.
          1    1    1    2  501    0  0.35923817329E+02  0.80898849909E+01 -0.79572938822E+02  0.87680211470E+02  0.00000000000E+00 0. -1.
<scales pt_clust_5="13000.00000" pt_clust_6="13000.00000" pt_clust_7="13000.00000" pt_clust_8="13000.00000" pt_clust_9="36.82346"></scales>
<clustering>
<clus scale="   36.823">  1  9  2 -1</clus>
<clus scale="   78.231">  5  6 -1 -1</clus>
<clus scale="   97.927">  2  5  1 -1</clus>
<clus scale="   99.544">  7  8 -1 -1</clus>
<clus scale="   36.823">  1  5  2 -1</clus>
</clustering>
</event>
<event>
 9    2  0.1751298E-004  0.9833234E+02  0.7546771E-02  0.1291496E+00
         21   -1    0    0  501  502  0.00000000000E+00  0.00000000000E+00  0.16194829354E+03  0.16194829354E+03  0.00000000000E+00 0. -1.
          4   -1    0    0  502    0 -0.00000000000E+00 -0.00000000000E+00 -0.15195910891E+03  0.15195910891E+03  0.00000000000E+00 0. -1.
         24    2    1    2    0    0 -0.32099547557E+02 -0.42984061910E+01 -0.30829919784E+02  0.91105475888E+02  0.79377997794E+02 0.  0.
         23    2    1    2    0    0  0.24871210466E+02 -0.32218390405E+02  0.10646038540E+03  0.14733999536E+03  0.93373758537E+02 0.  0.
        -11    1    3    3    0    0  0.59827249156E+01  0.31105664752E+02 -0.22113443121E+01  0.31752880511E+02  0.00000000000E+00 0.  1.
         12    1    3    3    0    0 -0.38082272472E+02 -0.35404070943E+02 -0.28618575472E+02  0.59352595377E+02  0.00000000000E+00 0. -1.
        -11    1    4    4    0    0 -0.18571815484E+02 -0.10232893956E+02 -0.82276450540E+01  0.22744638758E+02  0.00000000000E+00 0.  1.
         11    1    4    4    0    0  0.43443025950E+02 -0.21985496449E+02  0.11468803046E+03  0.12459535660E+03  0.00000000000E+00 0. -1.
          3    1    1    2  501    0  0.72283370912E+01  0.36516796596E+02 -0.65641280990E+02  0.75461931202E+02  0.00000000000E+00 0. -1.
<scales pt_clust_5="13000.00000" pt_clust_6="13000.00000" pt_clust_7="13000.00000" pt_clust_8="13000.00000" pt_clust_9="37.22535"></scales>
<clustering>
<clus scale="   37.225">  1  9  2 -1</clus>
<clus scale="   79.378">  5  6 -1 -1</clus>
<clus scale="   85.155">  2  5  1 -1</clus>
<clus scale="   93.374">  7  8 -1 -1</clus>
<clus scale="   37.225">  1  5  2 -1</clus>
</clustering>
</event>
<event>
 9    2  0.1751298E-004  0.1179430E+03  0.7546771E-02  0.1250940E+00
         21   -1    0    0  501  502  0.00000000000E+00  0.00000000000E+00  0.14742340404E+03  0.14742340404E+03  0.00000000000E+00 0. -1.
          2   -1    0    0  502    0 -0.00000000000E+00 -0.00000000000E+00 -0.31138003158E+03  0.31138003158E+03  0.00000000000E+00 0. -1.
         23    2    1    2    0    0 -0.54841684149E+02  0.60368531596E+02 -0.25803426811E+03  0.28626250082E+03  0.93341126686E+02 0.  0.
         24    2    1    2    0    0  0.25975039320E+02 -0.93743265995E+01  0.45361319327E+02  0.96337443523E+02  0.80378312165E+02 0.  0.
        -13    1    4    4    0    0  0.40437545639E+02 -0.66727881143E+01 -0.73263909351E+01  0.41634087028E+02  0.00000000000E+00 0.  1.
         14    1    4    4    0    0 -0.14462506318E+02 -0.27015384852E+01  0.52687710262E+02  0.54703356495E+02  0.00000000000E+00 0. -1.
        -11    1    3    3    0    0 -0.16949880707E+02  0.50272134716E+02 -0.23472106833E+03  0.24064198700E+03  0.00000000000E+00 0. -1.
         11    1    3    3    0    0 -0.37891803441E+02  0.10096396881E+02 -0.23313199771E+02  0.45620513824E+02  0.00000000000E+00 0.  1.
          1    1    1    2  501    0  0.28866644828E+02 -0.50994204997E+02  0.48716321241E+02  0.76203491272E+02  0.00000000000E+00 0. -1.
<scales pt_clust_5="13000.00000" pt_clust_6="13000.00000" pt_clust_7="13000.00000" pt_clust_8="13000.00000" pt_clust_9="58.59771"></scales>
<clustering>
<clus scale="   58.598">  1  9  2 -1</clus>
<clus scale="   80.378">  5  6 -1 -1</clus>
<clus scale="   93.341">  7  8 -1 -1</clus>
<clus scale="  107.975">  1  5  2 -1</clus>
<clus scale="   58.598">  1  5  2 -1</clus>
</clustering>
</event>
<event>
 9    2  0.1751298E-004  0.2264526E+03  0.7546771E-02  0.1151735E+00
         21   -1    0    0  501  502  0.00000000000E+00  0.00000000000E+00  0.45077267166E+02  0.45077267166E+02  0.00000000000E+00 0. -1.
          2   -1    0    0  502    0 -0.00000000000E+00 -0.00000000000E+00 -0.22163860946E+04  0.22163860946E+04  0.00000000000E+00 0. -1.
         24    2    1    2    0    0 -0.77648104250E+02  0.70233030652E+02 -0.31361883149E+03  0.34004324172E+03  0.79440091187E+02 0.  0.
         23    2    1    2    0    0  0.88559326360E+02  0.17489562360E+03 -0.55487715164E+03  0.59570204323E+03  0.92417733464E+02 0.  0.
        -11    1    3    3    0    0 -0.25855703460E+02  0.37839516541E+02 -0.24020219556E+03  0.24453515323E+03  0.00000000000E+00 0.  1.
         12    1    3    3    0    0 -0.51792400791E+02  0.32393514111E+02 -0.73416635927E+02  0.95508088490E+02  0.00000000000E+00 0. -1.
        -13    1    4    4    0    0  0.51247504194E+02  0.16615376160E+03 -0.49460927275E+03  0.52428209188E+03  0.00000000000E+00 0. -1.
         13    1    4    4    0    0  0.37311822166E+02  0.87418619984E+01 -0.60267878891E+02  0.71419951348E+02  0.00000000000E+00 0.  1.
          1    1    1    2  501    0 -0.10911222110E+02 -0.24512865425E+03 -0.13028128443E+04  0.13257180768E+04  0.00000000000E+00 0. -1.
<scales pt_clust_5="13000.00000" pt_clust_6="13000.00000" pt_clust_7="13000.00000" pt_clust_8="13000.00000" pt_clust_9="206.73602"></scales>
<clustering>
<clus scale="   79.440">  5  6 -1 -1</clus>
<clus scale="   92.418">  7  8 -1 -1</clus>
<clus scale="  131.425">  2  5  1 -1</clus>
<clus scale="  206.736">  1  9  2 -1</clus>
<clus scale="  206.736">  1  5  2 -1</clus>
</clustering>
</event>
<event>
 9    2  0.1751298E-004  0.1044647E+03  0.7546771E-02  0.1276184E+00
         -3   -1    0    0    0  501 -0.00000000000E+00  0.00000000000E+00  0.87109846940E+02  0.87109846940E+02  0.00000000000E+00 0.  1.
         21   -1    0    0  501  502  0.00000000000E+00 -0.00000000000E+00 -0.52969822709E+03  0.52969822709E+03  0.00000000000E+00 0. -1.
         24    2    1    2    0    0 -0.46066926780E+02  0.57602396672E+01  0.39503966297E+02  0.10091728425E+03  0.80426319099E+02 0.  0.
         23    2    1    2    0    0  0.95734829042E+02 -0.14385873287E+02 -0.35249415795E+03  0.37683327458E+03  0.91537285309E+02 0.  0.
        -13    1    3    3    0    0 -0.28291645895E+02  0.33017006494E+02  0.50434762338E+02  0.66589828033E+02  0.00000000000E+00 0.  1.
         14    1    3    3    0    0 -0.17775280885E+02 -0.27256766827E+02 -0.10930796042E+02  0.34327456220E+02  0.00000000000E+00 0. -1.
        -11    1    4    4    0    0  0.15702452329E+02 -0.42067394676E+02 -0.83278521223E+02  0.94612603817E+02  0.00000000000E+00 0.  1.
         11    1    4    4    0    0  0.80032376713E+02  0.27681521390E+02 -0.26921563673E+03  0.28222067076E+03  0.00000000000E+00 0. -1.
         -4    1    1    2    0  502 -0.49667902262E+02  0.86256336194E+01 -0.12959818850E+03  0.13905751519E+03  0.00000000000E+00 0.  1.
<scales pt_clust_5="13000.00000" pt_clust_6="13000.00000" pt_clust_7="13000.00000" pt_clust_8="13000.00000" pt_clust_9="50.41133"></scales>
<clustering>
<clus scale="   50.411">  2  9  1 -1</clus>
<clus scale="   80.426">  5  6 -1 -1</clus>
<clus scale="   91.537">  7  8 -1 -1</clus>
<clus scale="   94.880">  1  5  2 -1</clus>
<clus scale="   50.411">  2  5  1 -1</clus>
</clustering>
</event>
<event>
 9    2  0.1751298E-004  0.1948057E+03  0.7546771E-02  0.1154562E+00
         21   -1    0    0  501  502  0.00000000000E+00  0.00000000000E+00  0.77690495177E+03  0.77690495177E+03  0.00000000000E+00 0.  1.
         -1   -1    0    0    0  501 -0.00000000000E+00 -0.00000000000E+00 -0.84879317013E+02  0.84879317013E+02  0.00000000000E+00 0.  1.
         23    2    1    2    0    0 -0.41324733821E+02 -0.17243277038E+03  0.98324857023E+02  0.21981621723E+03  0.84915239627E+02 0.  0.
         24    2    1    2    0    0  0.85855629611E+02  0.15135442260E+03  0.50886458455E+03  0.54386363219E+03  0.81025518423E+02 0.  0.
        -11    1    4    4    0    0  0.61398232311E+02  0.15459777662E+03  0.42322970451E+03  0.45474564126E+03  0.00000000000E+00 0.  1.
         12    1    4    4    0    0  0.24457397300E+02 -0.32433540217E+01  0.85634880045E+02  0.89117990935E+02  0.00000000000E+00 0. -1.
        -11    1    3    3    0    0 -0.40777944472E+02 -0.14011178024E+03  0.37077804197E+02  0.15056199814E+03  0.00000000000E+00 0.  1.
         11    1    3    3    0    0 -0.54678934956E+00 -0.32320990135E+02  0.61247052826E+02  0.69254219090E+02  0.00000000000E+00 0. -1.
         -2    1    1    2    0  502 -0.44530895790E+02  0.21078347782E+02  0.84836193178E+02  0.98104419360E+02  0.00000000000E+00 0.  1.
<scales pt_clust_5="13000.00000" pt_clust_6="13000.00000" pt_clust_7="13000.00000" pt_clust_8="13000.00000" pt_clust_9="49.26761"></scales>
<clustering>
<clus scale="   49.268">  1  9  2 -1</clus>
<clus scale="   81.026">  5  6 -1 -1</clus>
<clus scale="   84.915">  7  8 -1 -1</clus>
<clus scale="  193.142">  1  5  2 -1</clus>
<clus scale="   49.268">  1  5  2 -1</clus>
</clustering>
</event>
<event>
 9    2  0.1751298E-004  0.9242582E+02  0.7546771E-02  0.1306368E+00
          2   -1    0    0  502    0 -0.00000000000E+00  0.00000000000E+00  0.42388756938E+03  0.42388756938E+03  0.00000000000E+00 0. -1.
         21   -1    0    0  501  502  0.00000000000E+00 -0.00000000000E+00 -0.31477206344E+02  0.31477206344E+02  0.00000000000E+00 0. -1.
         24    2    1    2    0    0  0.11530421229E+02  0.41826502486E+01  0.13333479904E+03  0.15310704086E+03  0.74250603690E+02 0.  0.
         23    2    1    2    0    0 -0.79894114922E+01 -0.51057931799E+02  0.13767963414E+03  0.17207784949E+03  0.89355254648E+02 0.  0.
        -11    1    3    3    0    0 -0.16146262508E+02  0.31697381813E+02  0.73722599943E+02  0.81856261514E+02  0.00000000000E+00 0.  1.
         12    1    3    3    0    0  0.27676683738E+02 -0.27514731565E+02  0.59612199099E+02  0.71250779345E+02  0.00000000000E+00 0. -1.
        -11    1    4    4    0    0  0.38675600208E+02 -0.13144803774E+02  0.73816682177E+02  0.84365220828E+02  0.00000000000E+00 0.  1.
         11    1    4    4    0    0 -0.46665011701E+02 -0.37913128025E+02  0.63862951960E+02  0.87712628661E+02  0.00000000000E+00 0. -1.
          1    1    1    2  501    0 -0.35410097370E+01  0.46875281550E+02  0.12139592985E+03  0.13017988537E+03  0.00000000000E+00 0. -1.
<scales pt_clust_5="13000.00000" pt_clust_6="13000.00000" pt_clust_7="13000.00000" pt_clust_8="13000.00000" pt_clust_9="47.00886"></scales>
<clustering>
<clus scale="   47.009">  2  9  1 -1</clus>
<clus scale="   74.251">  5  6 -1 -1</clus>
<clus scale="   77.919">  1  5  2 -1</clus>
<clus scale="   89.355">  7  8 -1 -1</clus>
<clus scale="   47.009">  2  5  1 -1</clus>
</clustering>
</event>
<event>
 9    2  0.1751298E-004  0.1710810E+03  0.7546771E-02  0.1178162E+00
         21   -1    0    0  501  502  0.00000000000E+00  0.00000000000E+00  0.65232503182E+02  0.65232503182E+02  0.00000000000E+00 0. -1.
          2   -1    0    0  502    0 -0.00000000000E+00 -0.00000000000E+00 -0.10023936325E+04  0.10023936325E+04  0.00000000000E+00 0. -1.
         24    2    1    2    0    0  0.32287367273E+02  0.15078549675E+03 -0.40469326856E+03  0.44044770918E+03  0.80242150896E+02 0.  0.
         23    2    1    2    0    0 -0.95826212479E+02 -0.99010159494E+02 -0.11372556484E+03  0.20049003812E+03  0.90978440332E+02 0.  0.
        -11    1    3    3    0    0  0.15944267624E+02  0.52770783492E+02 -0.58956337769E+02  0.80714466012E+02  0.00000000000E+00 0.  1.
         12    1    3    3    0    0  0.16343099649E+02  0.98014713263E+02 -0.34573693080E+03  0.35973324316E+03  0.00000000000E+00 0. -1.
        -13    1    4    4    0    0 -0.18325416768E+02  0.93092513245E+01  0.59858307195E+01  0.21408251431E+02  0.00000000000E+00 0.  1.
         13    1    4    4    0    0 -0.77500795711E+02 -0.10831941082E+03 -0.11971139556E+03  0.17908178669E+03  0.00000000000E+00 0. -1.
          1    1    1    2  501    0  0.63538845206E+02 -0.51775337260E+02 -0.41874229587E+03  0.42668838834E+03  0.00000000000E+00 0. -1.
<scales pt_clust_5="13000.00000" pt_clust_6="13000.00000" pt_clust_7="13000.00000" pt_clust_8="13000.00000" pt_clust_9="81.96266"></scales>
<clustering>
<clus scale="   80.242">  5  6 -1 -1</clus>
<clus scale="   81.963">  1  9  2 -1</clus>
<clus scale="   90.978">  7  8 -1 -1</clus>
<clus scale="  165.621">  2  5  1 -1</clus>
<clus scale="   81.963">  1  5  2 -1</clus>
</clustering>
</event>
<event>
 9    2  0.1751298E-004  0.1552268E+03  0.7546771E-02  0.1220323E+00
         21   -1    0    0  501  502  0.00000000000E+00  0.00000000000E+00  0.56697280369E+03  0.56697280369E+03  0.00000000000E+00 0.  1.
         -1   -1    0    0    0  501 -0.00000000000E+00 -0.00000000000E+00 -0.77130491349E+02  0.77130491349E+02  0.00000000000E+00 0.  1.
         24    2    1    2    0    0  0.32579913199E+02  0.12960632251E+02  0.19136745483E+03  0.21088752504E+03  0.81379461273E+02 0.  0.
         23    2    1    2    0    0 -0.94735564159E+02 -0.96771506729E+02  0.28412366423E+03  0.32788987396E+03  0.91901910975E+02 0.  0.
        -13    1    3    3    0    0  0.57232611484E+02  0.15646469358E+02  0.10060166830E+03  0.11679503194E+03  0.00000000000E+00 0.  1.
         14    1    3    3    0    0 -0.24652698286E+02 -0.26858371067E+01  0.90765786530E+02  0.94092493102E+02  0.00000000000E+00 0. -1.
        -13    1    4    4    0    0 -0.96693673026E+02 -0.37487283172E+02  0.19438475093E+03  0.22031884667E+03  0.00000000000E+00 0.  1.
         13    1    4    4    0    0  0.19581088671E+01 -0.59284223557E+02  0.89738913296E+02  0.10757102729E+03  0.00000000000E+00 0. -1.
         -2    1    1    2    0  502  0.62155650960E+02  0.83810874478E+02  0.14351193281E+02  0.10532589604E+03  0.00000000000E+00 0.  1.
<scales pt_clust_5="13000.00000" pt_clust_6="13000.00000" pt_clust_7="13000.00000" pt_clust_8="13000.00000" pt_clust_9="125.09761"></scales>
<clustering>
<clus scale="   81.379">  5  6 -1 -1</clus>
<clus scale="   88.612">  2  5  1 -1</clus>
<clus scale="   91.902">  7  8 -1 -1</clus>
<clus scale="  125.098">  1  9  2 -1</clus>
<clus scale="  125.098">  1  5  2 -1</clus>
</clustering>
</event>
<event>
 9    2  0.1751298E-004  0.1004429E+03  0.7546771E-02  0.1280721E+00
         -3   -1    0    0    0  501 -0.00000000000E+00  0.00000000000E+00  0.29284745958E+03  0.29284745958E+03  0.00000000000E+00 0.  1.
         21   -1    0    0  501  502  0.00000000000E+00 -0.00000000000E+00 -0.54482233728E+02  0.54482233728E+02  0.00000000000E+00 0. -1.
         24    2    1    2    0    0  0.21423025918E+01  0.52365816733E+02  0.13830538621E+03  0.17146204837E+03  0.86741489234E+02 0.  0.
         23    2    1    2    0    0 -0.21197491598E+02 -0.44767962389E+02  0.28471797681E+02  0.10139835348E+03  0.83770392851E+02 0.  0.
        -11    1    3    3    0    0 -0.76145677839E+01  0.52117406787E+02  0.26009205334E+02  0.58742527141E+02  0.00000000000E+00 0.  1.
         12    1    3    3    0    0  0.97568703757E+01  0.24840994559E+00  0.11229618088E+03  0.11271952123E+03  0.00000000000E+00 0. -1.
        -11    1    4    4    0    0  0.13353084108E+02 -0.23198385713E+02  0.48964353461E+02  0.55803027380E+02  0.00000000000E+00 0.  1.
         11    1    4    4    0    0 -0.34550575706E+02 -0.21569576675E+02 -0.20492555780E+02  0.45595326098E+02  0.00000000000E+00 0. -1.
         -4    1    1    2    0  502  0.19055189006E+02 -0.75978543443E+01  0.71588041961E+02  0.74469291460E+02  0.00000000000E+00 0.  1.
<scales pt_clust_5="13000.00000" pt_clust_6="13000.00000" pt_clust_7="13000.00000" pt_clust_8="13000.00000" pt_clust_9="20.51409"></scales>
<clustering>
<clus scale="   20.514">  2  9  1 -1</clus>
<clus scale="   83.770">  7  8 -1 -1</clus>
<clus scale="   86.741">  5  6 -1 -1</clus>
<clus scale="   97.889">  2  7  1 -1</clus>
<clus scale="   20.514">  2  5  1 -1</clus>
</clustering>
</event>
<event>
 9    2  0.1751298E-004  0.1188081E+03  0.7546771E-02  0.1249528E+00
          2   -1    0    0  502    0 -0.00000000000E+00  0.00000000000E+00  0.32428534080E+03  0.32428534080E+03  0.00000000000E+00 0. -1.
         21   -1    0    0  501  502  0.00000000000E+00 -0.00000000000E+00 -0.12401819127E+03  0.12401819127E+03  0.00000000000E+00 0. -1.
         23    2    1    2    0    0 -0.68726659470E+02 -0.53882364008E+02  0.24348069626E+03  0.27514076025E+03  0.93770601075E+02 0.  0.
         24    2    1    2    0    0 -0.29953716037E+01  0.20100194934E+02 -0.43787065597E+02  0.93880910012E+02  0.80519116138E+02 0.  0.
        -13    1    4    4    0    0 -0.93171743588E+01  0.41051073339E+02  0.30275896726E+01  0.42203870197E+02  0.00000000000E+00 0.  1.
         14    1    4    4    0    0  0.63218027551E+01 -0.20950878406E+02 -0.46814655270E+02  0.51677039815E+02  0.00000000000E+00 0. -1.
        -13    1    3    3    0    0 -0.12210894435E+02  0.26194274875E+02  0.72699325753E+02  0.78233227877E+02  0.00000000000E+00 0.  1.
         13    1    3    3    0    0 -0.56515765036E+02 -0.80076638883E+02  0.17078137050E+03  0.19690753237E+03  0.00000000000E+00 0. -1.
          1    1    1    2  501    0  0.71722031074E+02  0.33782169074E+02  0.57351887632E+00  0.79281861814E+02  0.00000000000E+00 0. -1.
<scales pt_clust_5="13000.00000" pt_clust_6="13000.00000" pt_clust_7="13000.00000" pt_clust_8="13000.00000" pt_clust_9="79.27979"></scales>
<clustering>
<clus scale="   79.280">  2  9  1 -1</clus>
<clus scale="   80.519">  5  6 -1 -1</clus>
<clus scale="   93.771">  7  8 -1 -1</clus>
<clus scale="  108.654">  2  5  1 -1</clus>
<clus scale="   79.280">  2  5  1 -1</clus>
</clustering>
</event>
<event>
 9    2  0.1751298E-004  0.2622337E+03  0.7546771E-02  0.1120427E+00
          2   -1    0    0  502    0 -0.00000000000E+00  0.00000000000E+00  0.66318079411E+03  0.66318079411E+03  0.00000000000E+00 0. -1.
         21   -1    0    0  501  502  0.00000000000E+00 -0.00000000000E+00 -0.34439972812E+03  0.34439972812E+03  0.00000000000E+00 0. -1.
         23    2    1    2    0    0 -0.17994751884E+02  0.15474653637E+03 -0.46255693668E+02  0.18690124480E+03  0.92315678504E+02 0.  0.
         24    2    1    2    0    0 -0.23372401631E+03 -0.14449256820E+03  0.46785037390E+03  0.54857980776E+03  0.80937105550E+02 0.  0.
        -11    1    4    4    0    0 -0.11702540866E+03 -0.58356250508E+02  0.14872782162E+03  0.19804131682E+03  0.00000000000E+00 0.  1.
         12    1    4    4    0    0 -0.11669860765E+03 -0.86136317689E+02  0.31912255228E+03  0.35053849093E+03  0.00000000000E+00 0. -1.
        -11    1    3    3    0    0  0.20682144067E+02  0.11481751506E+03 -0.57686767717E+02  0.13014828473E+03  0.00000000000E+00 0.  1.
         11    1    3    3    0    0 -0.38676895951E+02  0.39929021307E+02  0.11431074049E+02  0.56752960071E+02  0.00000000000E+00 0. -1.
          1    1    1    2  501    0  0.25171876820E+03 -0.10253968175E+02 -0.10281361424E+03  0.27209946968E+03  0.00000000000E+00 0. -1.
<scales pt_clust_5="13000.00000" pt_clust_6="13000.00000" pt_clust_7="13000.00000" pt_clust_8="13000.00000" pt_clust_9="249.43078"></scales>
<clustering>
<clus scale="   80.937">  5  6 -1 -1</clus>
<clus scale="   92.316">  7  8 -1 -1</clus>
<clus scale="  181.087">  1  7  2 -1</clus>
<clus scale="  249.431">  2  9  1 -1</clus>
<clus scale="  249.431">  2  5  1 -1</clus>
</clustering>
</event>
<event>
 9    2  0.1751298E-004  0.1880671E+03  0.7546771E-02  0.1161833E+00
         -1   -1    0    0    0  501 -0.00000000000E+00  0.00000000000E+00  0.77366765766E+03  0.77366765766E+03  0.00000000000E+00 0.  1.
         21   -1    0    0  501  502  0.00000000000E+00 -0.00000000000E+00 -0.15109818936E+03  0.15109818936E+03  0.00000000000E+00 0.  1.
         24    2    1    2    0    0 -0.17577826509E+03  0.16978741435E+02  0.55516354007E+03  0.58755440706E+03  0.76337074219E+02 0.  0.
         23    2    1    2    0    0  0.75944368343E+02  0.18963083253E+02 -0.87891503689E+02  0.14912658128E+03  0.91578792378E+02 0.  0.
        -13    1    3    3    0    0 -0.15108144523E+03 -0.15006564910E+02  0.42862105913E+03  0.45471618886E+03  0.00000000000E+00 0.  1.
         14    1    3    3    0    0 -0.24696819859E+02  0.31985306344E+02  0.12654248093E+03  0.13283821820E+03  0.00000000000E+00 0. -1.
        -11    1    4    4    0    0  0.33466244242E+02  0.54954004250E+02 -0.40632659469E+02  0.76098259522E+02  0.00000000000E+00 0. -1.
         11    1    4    4    0    0  0.42478124100E+02 -0.35990920997E+02 -0.47258844220E+02  0.73028321755E+02  0.00000000000E+00 0.  1.
         -2    1    1    2    0  502  0.99833896743E+02 -0.35941824688E+02  0.15529743193E+03  0.18808485868E+03  0.00000000000E+00 0.  1.
<scales pt_clust_5="13000.00000" pt_clust_6="13000.00000" pt_clust_7="13000.00000" pt_clust_8="13000.00000" pt_clust_9="106.10671"></scales>
<clustering>
<clus scale="   76.337">  5  6 -1 -1</clus>
<clus scale="   91.579">  7  8 -1 -1</clus>
<clus scale="  106.107">  2  9  1 -1</clus>
<clus scale="  181.135">  1  5  2 -1</clus>
<clus scale="  106.107">  2  5  1 -1</clus>
</clustering>
</event>
<event>
 9    2  0.1751298E-004  0.2112073E+03  0.7546771E-02  0.1141035E+00
         21   -1    0    0  501  502  0.00000000000E+00  0.00000000000E+00  0.19400158219E+03  0.19400158219E+03  0.00000000000E+00 0.  1.
          2   -1    0    0  502    0 -0.00000000000E+00 -0.00000000000E+00 -0.50674244025E+03  0.50674244025E+03  0.00000000000E+00 0. -1.
         24    2    1    2    0    0  0.10524044794E+03 -0.15969551825E+03 -0.39670762832E+03  0.45085666568E+03  0.96522433623E+02 0.  0.
         23    2    1    2    0    0 -0.65780489789E+02  0.15988102356E+03  0.73413892493E+02  0.20904025234E+03  0.91756269301E+02 0.  0.
        -13    1    3    3    0    0 -0.18681805316E+02 -0.23390532728E+02 -0.51320809806E+02  0.59413402447E+02  0.00000000000E+00 0.  1.
         14    1    3    3    0    0  0.12392225326E+03 -0.13630498552E+03 -0.34538681851E+03  0.39144326324E+03  0.00000000000E+00 0. -1.
        -13    1    4    4    0    0 -0.77606479415E+02  0.72565316845E+02  0.27816282710E+02  0.10982821331E+03  0.00000000000E+00 0. -1.
         13    1    4    4    0    0  0.11825989626E+02  0.87315706715E+02  0.45597609783E+02  0.99212039026E+02  0.00000000000E+00 0.  1.
          1    1    1    2  501    0 -0.39459958153E+02 -0.18550531214E+00  0.10552877774E+02  0.40847104413E+02  0.00000000000E+00 0. -1.
<scales pt_clust_5="13000.00000" pt_clust_6="13000.00000" pt_clust_7="13000.00000" pt_clust_8="13000.00000" pt_clust_9="39.46039"></scales>
<clustering>
<clus scale="   39.460">  1  9  2 -1</clus>
<clus scale="   91.756">  7  8 -1 -1</clus>
<clus scale="   96.522">  5  6 -1 -1</clus>
<clus scale="  209.072">  1  7  2 -1</clus>
<clus scale="   39.460">  1  5  2 -1</clus>
</clustering>
</event>
<event>
 9    2  0.1751298E-004  0.1794965E+03  0.7546771E-02  0.1169618E+00
          2   -1    0    0  502    0 -0.00000000000E+00  0.00000000000E+00  0.20677896071E+04  0.20677896071E+04  0.00000000000E+00 0. -1.
         21   -1    0    0  501  502  0.00000000000E+00 -0.00000000000E+00 -0.55421421532E+02  0.55421421532E+02  0.00000000000E+00 0.  1.
         24    2    1    2    0    0  0.10567587121E+03 -0.11460216366E+03  0.18467491934E+04  0.18551034276E+04  0.81394703845E+02 0.  0.
         23    2    1    2    0    0 -0.64189336576E+02  0.12444876151E+03  0.13902261632E+03  0.21785369323E+03  0.92331893924E+02 0.  0.
        -11    1    3    3    0    0  0.15772500860E+01 -0.24669371737E+02  0.10253411074E+03  0.10547184214E+03  0.00000000000E+00 0.  1.
         12    1    3    3    0    0  0.10409862113E+03 -0.89932791922E+02  0.17442150827E+04  0.17496315854E+04  0.00000000000E+00 0. -1.
        -11    1    4    4    0    0 -0.36124372440E+02  0.12607251564E+03  0.13702481413E+03  0.18967089700E+03  0.00000000000E+00 0.  1.
         11    1    4    4    0    0 -0.28064964136E+02 -0.16237541344E+01  0.19978021902E+01  0.28182796224E+02  0.00000000000E+00 0. -1.
          1    1    1    2  501    0 -0.41486534635E+02 -0.98465978480E+01  0.26596375780E+02  0.50253907807E+02  0.00000000000E+00 0. -1.
<scales pt_clust_5="13000.00000" pt_clust_6="13000.00000" pt_clust_7="13000.00000" pt_clust_8="13000.00000" pt_clust_9="42.63904"></scales>
<clustering>
<clus scale="   42.639">  2  9  1 -1</clus>
<clus scale="   81.395">  5  6 -1 -1</clus>
<clus scale="   92.332">  7  8 -1 -1</clus>
<clus scale="  174.123">  1  5  2 -1</clus>
<clus scale="   42.639">  2  5  1 -1</clus>
</clustering>
</event>
<event>
 9    2  0.1751298E-004  0.2172878E+03  0.7546771E-02  0.1168175E+00
          4   -1    0    0  502    0 -0.00000000000E+00  0.00000000000E+00  0.22756920032E+03  0.22756920032E+03  0.00000000000E+00 0. -1.
         21   -1    0    0  501  502  0.00000000000E+00 -0.00000000000E+00 -0.40436701379E+03  0.40436701379E+03  0.00000000000E+00 0. -1.
         23    2    1    2    0    0 -0.13092897274E+02 -0.43337835718E+02  0.86168676081E+02  0.13311085737E+03  0.90795746857E+02 0.  0.
         24    2    1    2    0    0 -0.89565299279E+01 -0.17723034735E+03 -0.75372546106E+02  0.20843253962E+03  0.79197774072E+02 0.  0.
        -13    1    4    4    0    0  0.96898283113E+01 -0.10027339879E+03 -0.80688150983E+02  0.12907062015E+03  0.00000000000E+00 0.  1.
         14    1    4    4    0    0 -0.18646358239E+02 -0.76956948554E+02  0.53156048770E+01  0.79361919468E+02  0.00000000000E+00 0. -1.
        -13    1    3    3    0    0  0.26499293961E+02 -0.51374024396E+02  0.33772682357E+02  0.66948465529E+02  0.00000000000E+00 0. -1.
         13    1    3    3    0    0 -0.39592191235E+02  0.80361886779E+01  0.52395993724E+02  0.66162391837E+02  0.00000000000E+00 0.  1.
          3    1    1    2  501    0  0.22049427201E+02  0.22056818306E+03 -0.18759394344E+03  0.29039281712E+03  0.00000000000E+00 0. -1.
<scales pt_clust_5="13000.00000" pt_clust_6="13000.00000" pt_clust_7="13000.00000" pt_clust_8="13000.00000" pt_clust_9="202.34051"></scales>
<clustering>
<clus scale="   79.198">  5  6 -1 -1</clus>
<clus scale="   90.796">  7  8 -1 -1</clus>
<clus scale="  101.457">  1  7  2 -1</clus>
<clus scale="  202.341">  2  9  1 -1</clus>
<clus scale="  202.341">  2  5  1 -1</clus>
</clustering>
</event>
<event>
 9    2  0.1751298E-004  0.1395003E+03  0.7546771E-02  0.1237159E+00
          2   -1    0    0  502    0 -0.00000000000E+00  0.00000000000E+00  0.99808039072E+03  0.99808039072E+03  0.00000000000E+00 0. -1.
         21   -1    0    0  501  502  0.00000000000E+00 -0.00000000000E+00 -0.46283856316E+02  0.46283856316E+02  0.00000000000E+00 0.  1.
         24    2    1    2    0    0 -0.98074384956E+01  0.32058701071E+02  0.39800407486E+03  0.40722585753E+03  0.79383306004E+02 0.  0.
         23    2    1    2    0    0  0.10577530855E+03  0.11992637165E+02  0.10289647513E+03  0.17404278248E+03  0.91492984946E+02 0.  0.
        -11    1    3    3    0    0 -0.37749394897E+02  0.83133139824E+01  0.10412946810E+03  0.11107238240E+03  0.00000000000E+00 0.  1.
         12    1    3    3    0    0  0.27941956402E+02  0.23745387089E+02  0.29387460676E+03  0.29615347514E+03  0.00000000000E+00 0. -1.
        -13    1    4    4    0    0  0.45660989923E+01 -0.28731372634E+02  0.35136614040E+02  0.45617131427E+02  0.00000000000E+00 0. -1.
         13    1    4    4    0    0  0.10120920956E+03  0.40724009799E+02  0.67759861086E+02  0.12842565105E+03  0.00000000000E+00 0.  1.
          1    1    1    2  501    0 -0.95967870055E+02 -0.44051338236E+02  0.45089598441E+03  0.46309560702E+03  0.00000000000E+00 0. -1.
<scales pt_clust_5="13000.00000" pt_clust_6="13000.00000" pt_clust_7="13000.00000" pt_clust_8="13000.00000" pt_clust_9="105.30607"></scales>
<clustering>
<clus scale="   79.383">  5  6 -1 -1</clus>
<clus scale="   86.172">  1  5  2 -1</clus>
<clus scale="   91.493">  7  8 -1 -1</clus>
<clus scale="  105.306">  2  9  1 -1</clus>
<clus scale="  105.306">  2  5  1 -1</clus>
</clustering>
</event>
<event>
 9    2  0.1751298E-004  0.1332304E+03  0.7546771E-02  0.1240142E+00
         -3   -1    0    0    0  501 -0.00000000000E+00  0.00000000000E+00  0.20642304519E+03  0.20642304519E+03  0.00000000000E+00 0.  1.
         21   -1    0    0  501  502  0.00000000000E+00 -0.00000000000E+00 -0.15135501269E+03  0.15135501269E+03  0.00000000000E+00 0. -1.
         23    2    1    2    0    0  0.21578257285E+02 -0.14400575253E+01  0.70635657444E+02  0.11685576357E+03  0.90543792849E+02 0.  0.
         24    2    1    2    0    0  0.89972239954E+02 -0.26828599300E+02 -0.13257052128E+02  0.12582247182E+03  0.82708931078E+02 0.  0.
        -13    1    4    4    0    0  0.26864136315E+02 -0.19712214699E+02  0.33276353612E+02  0.47091070682E+02  0.00000000000E+00 0.  1.
         14    1    4    4    0    0  0.63108103639E+02 -0.71163846014E+01 -0.46533405740E+02  0.78731401134E+02  0.00000000000E+00 0. -1.
        -11    1    3    3    0    0  0.55374865688E+02  0.11910114190E+02  0.45803220916E+02  0.72843404755E+02  0.00000000000E+00 0.  1.
         11    1    3    3    0    0 -0.33796608403E+02 -0.13350171715E+02  0.24832436528E+02  0.44012358813E+02  0.00000000000E+00 0. -1.
         -4    1    1    2    0  502 -0.11155049724E+03  0.28268656825E+02 -0.23105728165E+01  0.11509982250E+03  0.00000000000E+00 0.  1.
<scales pt_clust_5="13000.00000" pt_clust_6="13000.00000" pt_clust_7="13000.00000" pt_clust_8="13000.00000" pt_clust_9="104.44899"></scales>
<clustering>
<clus scale="   82.709">  5  6 -1 -1</clus>
<clus scale="   90.544">  7  8 -1 -1</clus>
<clus scale="   93.091">  1  7  2 -1</clus>
<clus scale="  104.449">  2  9  1 -1</clus>
<clus scale="  104.449">  2  5  1 -1</clus>
</clustering>
</event>
<event>
 9    2  0.1751298E-004  0.9477755E+02  0.7546771E-02  0.1297428E+00
         21   -1    0    0  501  502  0.00000000000E+00  0.00000000000E+00  0.18472589134E+02  0.18472589134E+02  0.00000000000E+00 0. -1.
          2   -1    0    0  502    0 -0.00000000000E+00 -0.00000000000E+00 -0.68875775850E+03  0.68875775850E+03  0.00000000000E+00 0. -1.
         23    2    1    2    0    0  0.20808328327E+02 -0.37532663563E+02 -0.35201591064E+03  0.36625166971E+03  0.91560891547E+02 0.  0.
         24    2    1    2    0    0  0.43816900597E+01  0.62810865735E+01 -0.20241247595E+03  0.21836549671E+03  0.81572228600E+02 0.  0.
        -13    1    4    4    0    0  0.39334729360E+02  0.20168255371E+02 -0.11513683120E+03  0.12333073160E+03  0.00000000000E+00 0.  1.
         14    1    4    4    0    0 -0.34953039301E+02 -0.13887168797E+02 -0.87275644753E+02  0.95034765116E+02  0.00000000000E+00 0. -1.
        -13    1    3    3    0    0  0.53256979236E+02 -0.21608974735E+02 -0.14272577216E+03  0.15386324989E+03  0.00000000000E+00 0. -1.
         13    1    3    3    0    0 -0.32448650909E+02 -0.15923688829E+02 -0.20929013848E+03  0.21238841982E+03  0.00000000000E+00 0.  1.
          1    1    1    2  501    0 -0.25190018387E+02  0.31251576990E+02 -0.11585678277E+03  0.12261318121E+03  0.00000000000E+00 0. -1.
<scales pt_clust_5="13000.00000" pt_clust_6="13000.00000" pt_clust_7="13000.00000" pt_clust_8="13000.00000" pt_clust_9="40.13973"></scales>
<clustering>
<clus scale="   40.140">  1  9  2 -1</clus>
<clus scale="   81.572">  5  6 -1 -1</clus>
<clus scale="   85.167">  1  5  2 -1</clus>
<clus scale="   91.561">  7  8 -1 -1</clus>
<clus scale="   40.140">  1  5  2 -1</clus>
</clustering>
</event>
<event>
 9    2  0.1751298E-004  0.4512183E+03  0.7546771E-02  0.1064894E+00
          2   -1    0    0  502    0 -0.00000000000E+00  0.00000000000E+00  0.35200589453E+03  0.35200589453E+03  0.00000000000E+00 0. -1.
         21   -1    0    0  501  502  0.00000000000E+00 -0.00000000000E+00 -0.92816173443E+03  0.92816173443E+03  0.00000000000E+00 0. -1.
         24    2    1    2    0    0  0.81646720151E+01 -0.13690072401E+03  0.64240174024E+02  0.16623726469E+03  0.68553323090E+02 0.  0.
         23    2    1    2    0    0  0.43600133034E+03  0.45293798403E+02 -0.23515392988E+03  0.50573926507E+03  0.91247713724E+02 0.  0.
        -13    1    3    3    0    0 -0.27644659111E+02 -0.33938543727E+02  0.12199508185E+02  0.45440949898E+02  0.00000000000E+00 0.  1.
         14    1    3    3    0    0  0.35809331126E+02 -0.10296218029E+03  0.52040665839E+02  0.12079631479E+03  0.00000000000E+00 0. -1.
        -13    1    4    4    0    0  0.19095492337E+03  0.60822563068E+02 -0.12830141770E+03  0.23795886351E+03  0.00000000000E+00 0.  1.
         13    1    4    4    0    0  0.24504640697E+03 -0.15528764665E+02 -0.10685251218E+03  0.26778040156E+03  0.00000000000E+00 0. -1.
          1    1    1    2  501    0 -0.44416600235E+03  0.91606925612E+02 -0.40524208404E+03  0.60819109920E+03  0.00000000000E+00 0. -1.
<scales pt_clust_5="13000.00000" pt_clust_6="13000.00000" pt_clust_7="13000.00000" pt_clust_8="13000.00000" pt_clust_9="441.89570"></scales>
<clustering>
<clus scale="   68.553">  5  6 -1 -1</clus>
<clus scale="   91.248">  7  8 -1 -1</clus>
<clus scale="  153.323">  1  5  2 -1</clus>
<clus scale="  441.896">  2  9  1 -1</clus>
<clus scale="  441.896">  2  5  1 -1</clus>
</clustering>
</event>
<event>
 9    2  0.1751298E-004  0.9400208E+02  0.7546771E-02  0.1300368E+00
          2   -1    0    0  502    0 -0.00000000000E+00  0.00000000000E+00  0.41961360941E+03  0.41961360941E+03  0.00000000000E+00 0. -1.
         21   -1    0    0  501  502  0.00000000000E+00 -0.00000000000E+00 -0.39528632605E+02  0.39528632605E+02  0.00000000000E+00 0.  1.
         24    2    1    2    0    0  0.14888044045E+02 -0.10310252679E+02  0.28293499316E+03  0.29438128848E+03  0.79247570872E+02 0.  0.
         23    2    1    2    0    0 -0.41043975026E+02  0.20344323062E+02  0.89779168399E+02  0.13579296756E+03  0.90999624140E+02 0.  0.
        -11    1    3    3    0    0 -0.31206623372E+02  0.51888762278E+01  0.89481315821E+02  0.94908817608E+02  0.00000000000E+00 0.  1.
         12    1    3    3    0    0  0.46094667417E+02 -0.15499128907E+02  0.19345367734E+03  0.19947247087E+03  0.00000000000E+00 0. -1.
        -11    1    4    4    0    0 -0.76305336971E+01  0.45615840660E+02  0.80566844086E+02  0.92898042657E+02  0.00000000000E+00 0. -1.
         11    1    4    4    0    0 -0.33413441329E+02 -0.25271517598E+02  0.92123243124E+01  0.42894924902E+02  0.00000000000E+00 0.  1.
          1    1    1    2  501    0  0.26155930981E+02 -0.10034070382E+02  0.73708152477E+01  0.28967985973E+02  0.00000000000E+00 0. -1.
<scales pt_clust_5="13000.00000" pt_clust_6="13000.00000" pt_clust_7="13000.00000" pt_clust_8="13000.00000" pt_clust_9="28.01456"></scales>
<clustering>
<clus scale="   28.015">  2  9  1 -1</clus>
<clus scale="   79.248">  5  6 -1 -1</clus>
<clus scale="   82.678">  1  5  2 -1</clus>
<clus scale="   91.000">  7  8 -1 -1</clus>
<clus scale="   28.015">  2  5  1 -1</clus>
</clustering>
</event>
<event>
 9    2  0.1751298E-004  0.1884247E+03  0.7546771E-02  0.1167949E+00
         -3   -1    0    0    0  501 -0.00000000000E+00  0.00000000000E+00  0.57887957920E+03  0.57887957920E+03  0.00000000000E+00 0.  1.
         21   -1    0    0  501  502  0.00000000000E+00 -0.00000000000E+00 -0.34852564261E+03  0.34852564261E+03  0.00000000000E+00 0.  1.
         23    2    1    2    0    0 -0.79949194982E+02 -0.99180060492E+02 -0.18729938248E+03  0.24400908088E+03  0.90723837535E+02 0.  0.
         24    2    1    2    0    0  0.24076004836E+03  0.64348394337E+02  0.44588407558E+03  0.51645198517E+03  0.76183511257E+02 0.  0.
        -11    1    4    4    0    0  0.20578892124E+03  0.58570989551E+02  0.31457651850E+03  0.38044451227E+03  0.00000000000E+00 0.  1.
         12    1    4    4    0    0  0.34971127113E+02  0.57774047861E+01  0.13130755708E+03  0.13600747290E+03  0.00000000000E+00 0. -1.
        -11    1    3    3    0    0 -0.96625240961E+02 -0.83706900005E+02 -0.17863226132E+03  0.21966512487E+03  0.00000000000E+00 0.  1.
         11    1    3    3    0    0  0.16676045979E+02 -0.15473160487E+02 -0.86671211533E+01  0.24343956007E+02  0.00000000000E+00 0. -1.
         -4    1    1    2    0  502 -0.16081085338E+03  0.34831666155E+02 -0.28230756511E+02  0.16694415576E+03  0.00000000000E+00 0.  1.
<scales pt_clust_5="13000.00000" pt_clust_6="13000.00000" pt_clust_7="13000.00000" pt_clust_8="13000.00000" pt_clust_9="172.33675"></scales>
<clustering>
<clus scale="   76.184">  5  6 -1 -1</clus>
<clus scale="   90.724">  7  8 -1 -1</clus>
<clus scale="  156.395">  1  7  2 -1</clus>
<clus scale="  172.337">  2  9  1 -1</clus>
<clus scale="  172.337">  2  5  1 -1</clus>
</clustering>
</event>
<event>
 9    2  0.1751298E-004  0.2984562E+03  0.7546771E-02  0.1086616E+00
         -1   -1    0    0    0  501 -0.00000000000E+00  0.00000000000E+00  0.50693524866E+03  0.50693524866E+03  0.00000000000E+00 0.  1.
         21   -1    0    0  501  502  0.00000000000E+00 -0.00000000000E+00 -0.33572151798E+03  0.33572151798E+03  0.00000000000E+00 0. -1.
         23    2    1    2    0    0 -0.41135764477E+02  0.27803912894E+03  0.31959965524E+03  0.43612361429E+03  0.95194322138E+02 0.  0.
         24    2    1    2    0    0 -0.12322442409E+02 -0.29248890692E+03 -0.71123332853E+02  0.31147483317E+03  0.79097660945E+02 0.  0.
        -11    1    4    4    0    0  0.21754338269E+02 -0.59810236958E+02  0.61583024392E+01  0.63940913095E+02  0.00000000000E+00 0.  1.
         12    1    4    4    0    0 -0.34076780678E+02 -0.23267866996E+03 -0.77281635292E+02  0.24753392008E+03  0.00000000000E+00 0. -1.
        -11    1    3    3    0    0 -0.56715792981E+01  0.11798872615E+03  0.20330394950E+03  0.23512975608E+03  0.00000000000E+00 0.  1.
         11    1    3    3    0    0 -0.35464185179E+02  0.16005040279E+03  0.11629570574E+03  0.20099385821E+03  0.00000000000E+00 0. -1.
         -2    1    1    2    0  502  0.53458206886E+02  0.14449777977E+02 -0.77262591710E+02  0.95058319177E+02  0.00000000000E+00 0.  1.
<scales pt_clust_5="13000.00000" pt_clust_6="13000.00000" pt_clust_7="13000.00000" pt_clust_8="13000.00000" pt_clust_9="55.37667"></scales>
<clustering>
<clus scale="   55.377">  2  9  1 -1</clus>
<clus scale="   79.098">  5  6 -1 -1</clus>
<clus scale="   95.194">  7  8 -1 -1</clus>
<clus scale="  293.719">  2  5  1 -1</clus>
<clus scale="   55.377">  2  5  1 -1</clus>
</clustering>
</event>
<event>
 9    2  0.1751298E-004  0.9534986E+02  0.7546771E-02  0.1298453E+00
          2   -1    0    0  502    0 -0.00000000000E+00  0.00000000000E+00  0.93846214785E+03  0.93846214785E+03  0.00000000000E+00 0. -1.
         21   -1    0    0  501  502  0.00000000000E+00 -0.00000000000E+00 -0.10785075781E+03  0.10785075781E+03  0.00000000000E+00 0. -1.
         24    2    1    2    0    0  0.14758779288E+02  0.91254230094E+01  0.83004722870E+03  0.83412248206E+03  0.80503529671E+02 0.  0.
         23    2    1    2    0    0 -0.16156444708E+02  0.36271079527E+02  0.73854863286E+02  0.12596790391E+03  0.94003989643E+02 0.  0.
        -11    1    3    3    0    0 -0.13571130963E+02 -0.22216467931E+02  0.11868024445E+03  0.12150204716E+03  0.00000000000E+00 0.  1.
         12    1    3    3    0    0  0.28329910251E+02  0.31341890941E+02  0.71136698426E+03  0.71262043490E+03  0.00000000000E+00 0. -1.
        -13    1    4    4    0    0  0.12470682075E+02  0.60827215167E+02  0.32818463188E+02  0.70231898326E+02  0.00000000000E+00 0. -1.
         13    1    4    4    0    0 -0.28627126783E+02 -0.24556135641E+02  0.41036400098E+02  0.55736005584E+02  0.00000000000E+00 0.  1.
          1    1    1    2  501    0  0.13976654199E+01 -0.45396502536E+02 -0.73290701946E+02  0.86222519697E+02  0.00000000000E+00 0. -1.
<scales pt_clust_5="13000.00000" pt_clust_6="13000.00000" pt_clust_7="13000.00000" pt_clust_8="13000.00000" pt_clust_9="45.41801"></scales>
<clustering>
<clus scale="   45.418">  2  9  1 -1</clus>
<clus scale="   80.504">  5  6 -1 -1</clus>
<clus scale="   82.071">  1  5  2 -1</clus>
<clus scale="   94.004">  7  8 -1 -1</clus>
<clus scale="   45.418">  2  5  1 -1</clus>
</clustering>
</event>
<event>
 9    2  0.1751298E-004  0.1057544E+03  0.7546771E-02  0.1274389E+00
         -3   -1    0    0    0  501 -0.00000000000E+00  0.00000000000E+00  0.13961478571E+03  0.13961478571E+03  0.00000000000E+00 0.  1.
         21   -1    0    0  501  502  0.00000000000E+00 -0.00000000000E+00 -0.17813973434E+03  0.17813973434E+03  0.00000000000E+00 0.  1.
         24    2    1    2    0    0  0.13738979460E+02 -0.83674444630E+02  0.45438834936E+02  0.12354560639E+03  0.77515526817E+02 0.  0.
         23    2    1    2    0    0 -0.12058400985E+01  0.13963686522E+02 -0.10917335698E+02  0.92461909164E+02  0.90739064553E+02 0.  0.
        -11    1    3    3    0    0 -0.35713744241E+01 -0.94064949868E+02  0.41949459053E+02  0.10305690964E+03  0.00000000000E+00 0.  1.
         12    1    3    3    0    0  0.17310353884E+02  0.10390505238E+02  0.34893758834E+01  0.20488696756E+02  0.00000000000E+00 0. -1.
        -11    1    4    4    0    0 -0.25643985056E+02  0.49617234339E+01 -0.43506457673E+02  0.50744896574E+02  0.00000000000E+00 0.  1.
         11    1    4    4    0    0  0.24438144958E+02  0.90019630877E+01  0.32589121975E+02  0.41717012591E+02  0.00000000000E+00 0. -1.
         -4    1    1    2    0  502 -0.12533139361E+02  0.69710758108E+02 -0.73046447865E+02  0.10174700450E+03  0.00000000000E+00 0.  1.
<scales pt_clust_5="13000.00000" pt_clust_6="13000.00000" pt_clust_7="13000.00000" pt_clust_8="13000.00000" pt_clust_9="70.82845"></scales>
<clustering>
<clus scale="   70.828">  2  9  1 -1</clus>
<clus scale="   77.516">  5  6 -1 -1</clus>
<clus scale="   90.739">  7  8 -1 -1</clus>
<clus scale="   94.652">  1  5  2 -1</clus>
<clus scale="   70.828">  2  5  1 -1</clus>
</clustering>
</event>
<event>
 9    2  0.1751298E-004  0.9315660E+02  0.7546771E-02  0.1301143E+00
          2   -1    0    0  502    0 -0.00000000000E+00  0.00000000000E+00  0.29947063749E+03  0.29947063749E+03  0.00000000000E+00 0. -1.
         21   -1    0    0  501  502  0.00000000000E+00 -0.00000000000E+00 -0.10394337406E+03  0.10394337406E+03  0.00000000000E+00 0. -1.
         23    2    1    2    0    0  0.10544956278E+02  0.17847827802E+02  0.22136228389E+03  0.24028640626E+03  0.91140305286E+02 0.  0.
         24    2    1    2    0    0 -0.47724496850E+02  0.30017208467E+02 -0.26255952828E+02  0.10251772887E+03  0.81497541499E+02 0.  0.
        -11    1    4    4    0    0  0.85100260792E+00 -0.22998028762E+02  0.58892815090E+01  0.23755360849E+02  0.00000000000E+00 0.  1.
         12    1    4    4    0    0 -0.48575499458E+02  0.53015237229E+02 -0.32145234337E+02  0.78762368023E+02  0.00000000000E+00 0. -1.
        -11    1    3    3    0    0 -0.10450794143E+02 -0.34947331948E+02  0.79470911625E+02  0.87442329012E+02  0.00000000000E+00 0.  1.
         11    1    3    3    0    0  0.20995750421E+02  0.52795159750E+02  0.14189137226E+03  0.15284407725E+03  0.00000000000E+00 0. -1.
          1    1    1    2  501    0  0.37179540572E+02 -0.47865036269E+02  0.42093237305E+00  0.60609876409E+02  0.00000000000E+00 0. -1.
<scales pt_clust_5="13000.00000" pt_clust_6="13000.00000" pt_clust_7="13000.00000" pt_clust_8="13000.00000" pt_clust_9="60.60841"></scales>
<clustering>
<clus scale="   60.608">  2  9  1 -1</clus>
<clus scale="   81.498">  5  6 -1 -1</clus>
<clus scale="   83.746">  2  5  1 -1</clus>
<clus scale="   91.140">  7  8 -1 -1</clus>
<clus scale="   60.608">  2  5  1 -1</clus>
</clustering>
</event>
<event>
 9    2  0.1751298E-004  0.1269996E+03  0.7546771E-02  0.1235097E+00
          2   -1    0    0  502    0 -0.00000000000E+00  0.00000000000E+00  0.73708869550E+03  0.73708869550E+03  0.00000000000E+00 0. -1.
         21   -1    0    0  501  502  0.00000000000E+00 -0.00000000000E+00 -0.48741070313E+02  0.48741070313E+02  0.00000000000E+00 0. -1.
         23    2    1    2    0    0  0.42585818620E+02  0.96473331710E+02  0.57084748287E+03  0.58773664171E+03  0.91906776843E+02 0.  0.
         24    2    1    2    0    0 -0.42824980525E+00 -0.45031861689E+02  0.76605960239E+02  0.12001739436E+03  0.80670005831E+02 0.  0.
        -11    1    4    4    0    0  0.34675237208E+02 -0.41332884497E+02  0.30582883865E+02  0.62016870300E+02  0.00000000000E+00 0.  1.
         12    1    4    4    0    0 -0.35103487014E+02 -0.36989771916E+01  0.46023076374E+02  0.58000524064E+02  0.00000000000E+00 0. -1.
        -11    1    3    3    0    0  0.11291353946E+02  0.10287904533E+03  0.48992694057E+03  0.50073945294E+03  0.00000000000E+00 0. -1.
         11    1    3    3    0    0  0.31294464674E+02 -0.64057136228E+01  0.80920542305E+02  0.86997188766E+02  0.00000000000E+00 0.  1.
          1    1    1    2  501    0 -0.42157568815E+02 -0.51441470022E+02  0.40894182074E+02  0.78075729737E+02  0.00000000000E+00 0. -1.
<scales pt_clust_5="13000.00000" pt_clust_6="13000.00000" pt_clust_7="13000.00000" pt_clust_8="13000.00000" pt_clust_9="66.50929"></scales>
<clustering>
<clus scale="   66.509">  2  9  1 -1</clus>
<clus scale="   80.670">  5  6 -1 -1</clus>
<clus scale="   91.907">  7  8 -1 -1</clus>
<clus scale="  119.120">  2  5  1 -1</clus>
<clus scale="   66.509">  2  5  1 -1</clus>
</clustering>
</event>
<event>
 9    2  0.1751298E-004  0.2786056E+03  0.7546771E-02  0.1149978E+00
         21   -1    0    0  501  502  0.00000000000E+00  0.00000000000E+00  0.11008008650E+03  0.11008008650E+03  0.00000000000E+00 0. -1.
          2   -1    0    0  502    0 -0.00000000000E+00 -0.00000000000E+00 -0.14200129046E+04  0.14200129046E+04  0.00000000000E+00 0. -1.
         24    2    1    2    0    0  0.42098431850E+01  0.14465517884E+01 -0.67794184955E+03  0.68192184322E+03  0.73433191319E+02 0.  0.
         23    2    1    2    0    0  0.12531276574E+03  0.23031478361E+03 -0.20346239791E+03  0.34406187534E+03  0.90738293415E+02 0.  0.
        -13    1    3    3    0    0 -0.12943773076E+02 -0.24076778765E+02 -0.11753613935E+03  0.12067301518E+03  0.00000000000E+00 0.  1.
         14    1    3    3    0    0  0.17153616261E+02  0.25523330553E+02 -0.56040571020E+03  0.56124882804E+03  0.00000000000E+00 0. -1.
        -13    1    4    4    0    0  0.11159226007E+03  0.11168768512E+03 -0.12151940081E+03  0.19923337142E+03  0.00000000000E+00 0.  1.
         13    1    4    4    0    0  0.13720505663E+02  0.11862709849E+03 -0.81942997093E+02  0.14482850391E+03  0.00000000000E+00 0. -1.
          1    1    1    2  501    0 -0.12952260892E+03 -0.23176133540E+03 -0.42852857065E+03  0.50410927255E+03  0.00000000000E+00 0. -1.
<scales pt_clust_5="13000.00000" pt_clust_6="13000.00000" pt_clust_7="13000.00000" pt_clust_8="13000.00000" pt_clust_9="263.41552"></scales>
<clustering>
<clus scale="   73.433">  5  6 -1 -1</clus>
<clus scale="   73.568">  2  5  1 -1</clus>
<clus scale="   90.738">  7  8 -1 -1</clus>
<clus scale="  263.416">  1  9  2 -1</clus>
<clus scale="  263.416">  1  5  2 -1</clus>
</clustering>
</event>
<event>
 9    2  0.1751298E-004  0.1313146E+03  0.7546771E-02  0.1227906E+00
          2   -1    0    0  502    0 -0.00000000000E+00  0.00000000000E+00  0.12548451893E+03  0.12548451893E+03  0.00000000000E+00 0. -1.
         21   -1    0    0  501  502  0.00000000000E+00 -0.00000000000E+00 -0.29724409244E+03  0.29724409244E+03  0.00000000000E+00 0.  1.
         24    2    1    2    0    0 -0.95990292328E+02  0.22279721228E+02  0.63238163588E+02  0.14214431063E+03  0.80594153086E+02 0.  0.
         23    2    1    2    0    0  0.76668927436E+02 -0.94913774000E+01 -0.22683356557E+03  0.25601784850E+03  0.90130247998E+02 0.  0.
        -11    1    3    3    0    0 -0.22403018950E+02 -0.15176222189E+02 -0.12764843813E+02  0.29919127921E+02  0.00000000000E+00 0.  1.
         12    1    3    3    0    0 -0.73587273377E+02  0.37455943417E+02  0.76003007400E+02  0.11222518271E+03  0.00000000000E+00 0. -1.
        -11    1    4    4    0    0 -0.12781198852E+02 -0.24585622243E+02 -0.45861332978E+02  0.53582401287E+02  0.00000000000E+00 0. -1.
         11    1    4    4    0    0  0.89450126288E+02  0.15094244843E+02 -0.18097223259E+03  0.20243544721E+03  0.00000000000E+00 0.  1.
          1    1    1    2  501    0  0.19321364891E+02 -0.12788343828E+02 -0.81641715314E+01  0.24566452245E+02  0.00000000000E+00 0. -1.
<scales pt_clust_5="13000.00000" pt_clust_6="13000.00000" pt_clust_7="13000.00000" pt_clust_8="13000.00000" pt_clust_9="23.17018"></scales>
<clustering>
<clus scale="   23.170">  2  9  1 -1</clus>
<clus scale="   80.594">  5  6 -1 -1</clus>
<clus scale="   90.130">  7  8 -1 -1</clus>
<clus scale="  124.962">  1  5  2 -1</clus>
<clus scale="   23.170">  2  5  1 -1</clus>
</clustering>
</event>
<event>
 9    2  0.1751298E-004  0.2452055E+03  0.7546771E-02  0.1133083E+00
          2   -1    0    0  502    0 -0.00000000000E+00  0.00000000000E+00  0.16072368766E+04  0.16072368766E+04  0.00000000000E+00 0. -1.
         21   -1    0    0  501  502  0.00000000000E+00 -0.00000000000E+00 -0.75046773300E+02  0.75046773300E+02  0.00000000000E+00 0.  1.
         24    2    1    2    0    0 -0.11819642203E+03  0.75215521678E+02  0.21503103618E+03  0.26924087636E+03  0.81391240934E+02 0.  0.
         23    2    1    2    0    0  0.80649880125E+02  0.19659064953E+03  0.49250944781E+03  0.54394247314E+03  0.90308201509E+02 0.  0.
        -13    1    3    3    0    0 -0.59433379127E+02  0.13967576533E+02  0.35418001389E+02  0.70582253939E+02  0.00000000000E+00 0.  1.
         14    1    3    3    0    0 -0.58763042906E+02  0.61247945145E+02  0.17961303479E+03  0.19865862242E+03  0.00000000000E+00 0. -1.
        -13    1    4    4    0    0 -0.19741644473E+02  0.42612193211E+02  0.10703555545E+03  0.11688516445E+03  0.00000000000E+00 0.  1.
         13    1    4    4    0    0  0.10039152460E+03  0.15397845632E+03  0.38547389235E+03  0.42705730869E+03  0.00000000000E+00 0. -1.
          1    1    1    2  501    0  0.37546541909E+02 -0.27180617121E+03  0.82464961930E+03  0.86910030039E+03  0.00000000000E+00 0. -1.
<scales pt_clust_5="13000.00000" pt_clust_6="13000.00000" pt_clust_7="13000.00000" pt_clust_8="13000.00000" pt_clust_9="227.96972"></scales>
<clustering>
<clus scale="   81.391">  5  6 -1 -1</clus>
<clus scale="   90.308">  7  8 -1 -1</clus>
<clus scale="  162.026">  1  5  2 -1</clus>
<clus scale="  227.970">  2  9  1 -1</clus>
<clus scale="  227.970">  2  5  1 -1</clus>
</clustering>
</event>
<event>
 9    2  0.1751298E-004  0.1252848E+03  0.7546771E-02  0.1254235E+00
         -1   -1    0    0    0  501 -0.00000000000E+00  0.00000000000E+00  0.81161558214E+02  0.81161558214E+02  0.00000000000E+00 0.  1.
         21   -1    0    0  501  502  0.00000000000E+00 -0.00000000000E+00 -0.35545717072E+03  0.35545717072E+03  0.00000000000E+00 0.  1.
         24    2    1    2    0    0 -0.18919528331E+02 -0.39232484387E+02 -0.18037533915E+03  0.19913108981E+03  0.72255045296E+02 0.  0.
         23    2    1    2    0    0  0.56556741665E+02 -0.49686457577E+02 -0.28288044388E+02  0.12073693229E+03  0.90054340646E+02 0.  0.
        -13    1    3    3    0    0 -0.23879097201E+00 -0.57450618965E+02 -0.11050046218E+03  0.12454309609E+03  0.00000000000E+00 0.  1.
         14    1    3    3    0    0 -0.18680737359E+02  0.18218134578E+02 -0.69874876968E+02  0.74587993720E+02  0.00000000000E+00 0. -1.
        -11    1    4    4    0    0  0.72056915267E+02 -0.19121927515E+02 -0.39895058829E+02  0.84554496442E+02  0.00000000000E+00 0.  1.
         11    1    4    4    0    0 -0.15500173602E+02 -0.30564530062E+02  0.11607014441E+02  0.36182435848E+02  0.00000000000E+00 0. -1.
         -2    1    1    2    0  502 -0.37637213334E+02  0.88918941963E+02 -0.65632228967E+02  0.11675070684E+03  0.00000000000E+00 0.  1.
<scales pt_clust_5="13000.00000" pt_clust_6="13000.00000" pt_clust_7="13000.00000" pt_clust_8="13000.00000" pt_clust_9="87.10054"></scales>
<clustering>
<clus scale="   72.255">  5  6 -1 -1</clus>
<clus scale="   84.368">  1  5  2 -1</clus>
<clus scale="   87.101">  2  9  1 -1</clus>
<clus scale="   90.054">  7  8 -1 -1</clus>
<clus scale="   87.101">  2  5  1 -1</clus>
</clustering>
</event>
<event>
 9    2  0.1751298E-004  0.1304053E+03  0.7546771E-02  0.1229652E+00
         -1   -1    0    0    0  501 -0.00000000000E+00  0.00000000000E+00  0.12760368210E+03  0.12760368210E+03  0.00000000000E+00 0.  1.
         21   -1    0    0  501  502  0.00000000000E+00 -0.00000000000E+00 -0.17999330981E+03  0.17999330981E+03  0.00000000000E+00 0. -1.
         23    2    1    2    0    0  0.78413771772E+02 -0.54164273794E+02  0.38679394818E+02  0.13796075911E+03  0.91948829862E+02 0.  0.
         24    2    1    2    0    0 -0.80049183867E+02  0.33936290420E+02 -0.90242571153E+02  0.14932542519E+03  0.81208480550E+02 0.  0.
        -11    1    4    4    0    0 -0.60216076615E+02  0.33704347478E+01 -0.99144606921E+01  0.61119818751E+02  0.00000000000E+00 0.  1.
         12    1    4    4    0    0 -0.19833107251E+02  0.30565855672E+02 -0.80328110461E+02  0.88205606434E+02  0.00000000000E+00 0. -1.
        -13    1    3    3    0    0  0.38455670292E+02  0.23510465218E+02  0.12620425726E+02  0.46806577507E+02  0.00000000000E+00 0.  1.
         13    1    3    3    0    0  0.39958101480E+02 -0.77674739012E+02  0.26058969092E+02  0.91154181608E+02  0.00000000000E+00 0. -1.
         -2    1    1    2    0  502  0.16354120946E+01  0.20227983374E+02 -0.82645137804E+00  0.20310807615E+02  0.00000000000E+00 0.  1.
<scales pt_clust_5="13000.00000" pt_clust_6="13000.00000" pt_clust_7="13000.00000" pt_clust_8="13000.00000" pt_clust_9="20.29400"></scales>
<clustering>
<clus scale="   20.294">  2  9  1 -1</clus>
<clus scale="   81.208">  5  6 -1 -1</clus>
<clus scale="   91.949">  7  8 -1 -1</clus>
<clus scale="  123.068">  2  5  1 -1</clus>
<clus scale="   20.294">  2  5  1 -1</clus>
</clustering>
</event>
<event>
 9    2  0.1751298E-004  0.1964725E+03  0.7546771E-02  0.1153624E+00
          2   -1    0    0  502    0 -0.00000000000E+00  0.00000000000E+00  0.38724184566E+03  0.38724184566E+03  0.00000000000E+00 0. -1.
         21   -1    0    0  501  502  0.00000000000E+00 -0.00000000000E+00 -0.50886239573E+03  0.50886239573E+03  0.00000000000E+00 0. -1.
         24    2    1    2    0    0  0.11706809019E+02 -0.17251502960E+03  0.30017636933E+03  0.35558429119E+03  0.80223753466E+02 0.  0.
         23    2    1    2    0    0 -0.61024220844E+02  0.18529047499E+03 -0.14480004899E+03  0.25887711729E+03  0.89408008700E+02 0.  0.
        -13    1    3    3    0    0  0.33992747018E+02 -0.10735612382E+03  0.12993291481E+03  0.17194012482E+03  0.00000000000E+00 0.  1.
         14    1    3    3    0    0 -0.22285937999E+02 -0.65158905780E+02  0.17024345452E+03  0.18364416637E+03  0.00000000000E+00 0. -1.
        -13    1    4    4    0    0 -0.11728616948E+01  0.36632932068E+02  0.79305385246E+01  0.37499876770E+02  0.00000000000E+00 0. -1.
         13    1    4    4    0    0 -0.59851359149E+02  0.14865754292E+03 -0.15273058752E+03  0.22137724052E+03  0.00000000000E+00 0.  1.
          1    1    1    2  501    0  0.49317411824E+02 -0.12775445384E+02 -0.27699687040E+03  0.28164283291E+03  0.00000000000E+00 0. -1.
<scales pt_clust_5="13000.00000" pt_clust_6="13000.00000" pt_clust_7="13000.00000" pt_clust_8="13000.00000" pt_clust_9="50.94526"></scales>
<clustering>
<clus scale="   50.945">  2  9  1 -1</clus>
<clus scale="   80.224">  5  6 -1 -1</clus>
<clus scale="   89.408">  7  8 -1 -1</clus>
<clus scale="  192.467">  1  5  2 -1</clus>
<clus scale="   50.945">  2  5  1 -1</clus>
</clustering>
</event>
<event>
 9    2  0.1751298E-004  0.1513793E+03  0.7546771E-02  0.1200911E+00
          2   -1    0    0  502    0 -0.00000000000E+00  0.00000000000E+00  0.59779033806E+03  0.59779033806E+03  0.00000000000E+00 0. -1.
         21   -1    0    0  501  502  0.00000000000E+00 -0.00000000000E+00 -0.12369416258E+03  0.12369416258E+03  0.00000000000E+00 0.  1.
         23    2    1    2    0    0 -0.12592307775E+03  0.34263984068E+02  0.35839932061E+03  0.39243137361E+03  0.92312880299E+02 0.  0.
         24    2    1    2    0    0  0.75721905062E+02  0.52436077748E+02 -0.52562562871E+02  0.13322593250E+03  0.80641037445E+02 0.  0.
        -11    1    4    4    0    0  0.21536899632E+02  0.63498437406E+02 -0.30954933178E+02  0.73851861769E+02  0.00000000000E+00 0.  1.
         12    1    4    4    0    0  0.54185005430E+02 -0.11062359658E+02 -0.21607629693E+02  0.59374070735E+02  0.00000000000E+00 0. -1.
        -11    1    3    3    0    0 -0.45147749471E+02  0.56808550753E+02  0.12650895076E+03  0.14584253613E+03  0.00000000000E+00 0.  1.
         11    1    3    3    0    0 -0.80775328278E+02 -0.22544566685E+02  0.23189036984E+03  0.24658883748E+03  0.00000000000E+00 0. -1.
          1    1    1    2  501    0  0.50201172687E+02 -0.86700061815E+02  0.16825941774E+03  0.19582719453E+03  0.00000000000E+00 0. -1.
<scales pt_clust_5="13000.00000" pt_clust_6="13000.00000" pt_clust_7="13000.00000" pt_clust_8="13000.00000" pt_clust_9="100.18517"></scales>
<clustering>
<clus scale="   80.641">  5  6 -1 -1</clus>
<clus scale="   92.313">  7  8 -1 -1</clus>
<clus scale="  100.185">  2  9  1 -1</clus>
<clus scale="  144.558">  2  5  1 -1</clus>
<clus scale="  100.185">  2  5  1 -1</clus>
</clustering>
</event>
<event>
 9    2  0.1751298E-004  0.1302724E+03  0.7546771E-02  0.1230690E+00
         21   -1    0    0  501  502  0.00000000000E+00  0.00000000000E+00  0.12519849477E+03  0.12519849477E+03  0.00000000000E+00 0.  1.
          2   -1    0    0  502    0 -0.00000000000E+00 -0.00000000000E+00 -0.26677103031E+03  0.26677103031E+03  0.00000000000E+00 0. -1.
         24    2    1    2    0    0  0.10761462550E+03 -0.84666113138E+01 -0.82263918141E+02  0.15759536065E+03  0.80102149424E+02 0.  0.
         23    2    1    2    0    0 -0.47774577872E+02  0.52727082231E+02  0.26651093203E+02  0.12066887681E+03  0.93745088246E+02 0.  0.
        -13    1    3    3    0    0  0.12036084821E+03 -0.10293619291E+02 -0.78908865894E+02  0.14428895140E+03  0.00000000000E+00 0.  1.
         14    1    3    3    0    0 -0.12746222711E+02  0.18270079774E+01 -0.33550522467E+01  0.13306409250E+02  0.00000000000E+00 0. -1.
        -13    1    4    4    0    0 -0.46153461286E+02  0.76942582575E+02  0.32971188658E+02  0.95589760349E+02  0.00000000000E+00 0.  1.
         13    1    4    4    0    0 -0.16211165864E+01 -0.24215500344E+02 -0.63200954548E+01  0.25079116461E+02  0.00000000000E+00 0. -1.
          1    1    1    2  501    0 -0.59840047624E+02 -0.44260470917E+02 -0.85959710601E+02  0.11370528762E+03  0.00000000000E+00 0. -1.
<scales pt_clust_5="13000.00000" pt_clust_6="13000.00000" pt_clust_7="13000.00000" pt_clust_8="13000.00000" pt_clust_9="74.43001"></scales>
<clustering>
<clus scale="   74.430">  1  9  2 -1</clus>
<clus scale="   80.102">  5  6 -1 -1</clus>
<clus scale="   93.745">  7  8 -1 -1</clus>
<clus scale="  120.827">  2  5  1 -1</clus>
<clus scale="   74.430">  1  5  2 -1</clus>
</clustering>
</event>
<event>
 9    2  0.1751298E-004  0.3374218E+03  0.7546771E-02  0.1067899E+00
          2   -1    0    0  502    0 -0.00000000000E+00  0.00000000000E+00  0.14143091574E+03  0.14143091574E+03  0.00000000000E+00 0. -1.
         21   -1    0    0  501  502  0.00000000000E+00 -0.00000000000E+00 -0.12342307461E+04  0.12342307461E+04  0.00000000000E+00 0. -1.
         24    2    1    2    0    0  0.99584410938E+02  0.16438207377E+03 -0.63162029205E+02  0.21760734591E+03  0.80156060171E+02 0.  0.
         23    2    1    2    0    0 -0.93700997942E+01  0.89953361323E+02 -0.44425937703E+02  0.13655172104E+03  0.92159115640E+02 0.  0.
        -11    1    3    3    0    0  0.30738120865E+01  0.66883869222E+02 -0.41359746114E+02  0.78698976369E+02  0.00000000000E+00 0.  1.
         12    1    3    3    0    0  0.96510598851E+02  0.97498204547E+02 -0.21802283091E+02  0.13890836954E+03  0.00000000000E+00 0. -1.
        -11    1    4    4    0    0  0.20918683821E+01  0.36905430895E+02  0.27768508534E+02  0.46232854217E+02  0.00000000000E+00 0.  1.
         11    1    4    4    0    0 -0.11461968176E+02  0.53047930429E+02 -0.72194446237E+02  0.90318866826E+02  0.00000000000E+00 0. -1.
          1    1    1    2  501    0 -0.90214311144E+02 -0.25433543509E+03 -0.98521186340E+03  0.10215025948E+04  0.00000000000E+00 0. -1.
<scales pt_clust_5="13000.00000" pt_clust_6="13000.00000" pt_clust_7="13000.00000" pt_clust_8="13000.00000" pt_clust_9="269.86133"></scales>
<clustering>
<clus scale="   80.156">  5  6 -1 -1</clus>
<clus scale="   92.159">  7  8 -1 -1</clus>
<clus scale="  109.605">  5  7 -1 -1</clus>
<clus scale="  269.861">  2  9  1 -1</clus>
<clus scale="  269.861">  2  5  1 -1</clus>
</clustering>
</event>
<event>
 9    2  0.1751298E-004  0.9233826E+02  0.7546771E-02  0.1302754E+00
         21   -1    0    0  501  502  0.00000000000E+00  0.00000000000E+00  0.95404345793E+02  0.95404345793E+02  0.00000000000E+00 0. -1.
          2   -1    0    0  502    0 -0.00000000000E+00 -0.00000000000E+00 -0.14977427950E+03  0.14977427950E+03  0.00000000000E+00 0. -1.
         24    2    1    2    0    0 -0.13701667817E+02 -0.30752224484E+02 -0.52679778827E+02  0.10171977340E+03  0.80239131296E+02 0.  0.
         23    2    1    2    0    0  0.13269811349E+01 -0.48414861446E+01  0.29765053404E+02  0.94372446087E+02  0.89414760019E+02 0.  0.
        -13    1    3    3    0    0 -0.43539275838E+02 -0.37909351180E+00 -0.33915294910E+02  0.55191117774E+02  0.00000000000E+00 0.  1.
         14    1    3    3    0    0  0.29837608020E+02 -0.30373130972E+02 -0.18764483917E+02  0.46528655623E+02  0.00000000000E+00 0. -1.
        -11    1    4    4    0    0  0.18961313180E+02 -0.36296573791E+02  0.39629551714E+02  0.56986612775E+02  0.00000000000E+00 0. -1.
         11    1    4    4    0    0 -0.17634332045E+02  0.31455087647E+02 -0.98644983097E+01  0.37385833312E+02  0.00000000000E+00 0.  1.
          1    1    1    2  501    0  0.12374686683E+02  0.35593710629E+02 -0.31455208281E+02  0.49086405805E+02  0.00000000000E+00 0. -1.
<scales pt_clust_5="13000.00000" pt_clust_6="13000.00000" pt_clust_7="13000.00000" pt_clust_8="13000.00000" pt_clust_9="37.68350"></scales>
<clustering>
<clus scale="   37.684">  1  9  2 -1</clus>
<clus scale="   80.239">  5  6 -1 -1</clus>
<clus scale="   83.485">  2  5  1 -1</clus>
<clus scale="   89.415">  7  8 -1 -1</clus>
<clus scale="   37.684">  1  5  2 -1</clus>
</clustering>
</event>
<event>
 9    2  0.1751298E-004  0.2153631E+03  0.7546771E-02  0.1138321E+00
         21   -1    0    0  501  502  0.00000000000E+00  0.00000000000E+00  0.29748105070E+03  0.29748105070E+03  0.00000000000E+00 0.  1.
         -1   -1    0    0    0  501 -0.00000000000E+00 -0.00000000000E+00 -0.41543257737E+03  0.41543257737E+03  0.00000000000E+00 0.  1.
         23    2    1    2    0    0  0.19915377256E+02 -0.18002090272E+03 -0.90590590961E+02  0.22286162263E+03  0.93040313857E+02 0.  0.
         24    2    1    2    0    0 -0.16787252681E+03  0.20237380995E+03  0.10074026064E+03  0.29307259771E+03  0.81281013777E+02 0.  0.
        -11    1    4    4    0    0 -0.12162741048E+03  0.19112094574E+03  0.73140524950E+02  0.23805457205E+03  0.00000000000E+00 0.  1.
         12    1    4    4    0    0 -0.46245116332E+02  0.11252864206E+02  0.27599735692E+02  0.55018025661E+02  0.00000000000E+00 0. -1.
        -11    1    3    3    0    0 -0.20622213744E+02 -0.24171184595E+02  0.96133296700E+01  0.33195451070E+02  0.00000000000E+00 0. -1.
         11    1    3    3    0    0  0.40537591000E+02 -0.15584971813E+03 -0.10020392063E+03  0.18966617156E+03  0.00000000000E+00 0.  1.
         -2    1    1    2    0  502  0.14795714956E+03 -0.22352907227E+02 -0.12810119635E+03  0.19697940774E+03  0.00000000000E+00 0.  1.
<scales pt_clust_5="13000.00000" pt_clust_6="13000.00000" pt_clust_7="13000.00000" pt_clust_8="13000.00000" pt_clust_9="149.63620"></scales>
<clustering>
<clus scale="   81.281">  5  6 -1 -1</clus>
<clus scale="   93.040">  7  8 -1 -1</clus>
<clus scale="  149.636">  1  9  2 -1</clus>
<clus scale="  210.550">  1  5  2 -1</clus>
<clus scale="  149.636">  1  5  2 -1</clus>
</clustering>
</event>
<event>
 9    2  0.1751298E-004  0.9842222E+02  0.7546771E-02  0.1289147E+00
         -1   -1    0    0    0  501 -0.00000000000E+00  0.00000000000E+00  0.21846698779E+03  0.21846698779E+03  0.00000000000E+00 0.  1.
         21   -1    0    0  501  502  0.00000000000E+00 -0.00000000000E+00 -0.15613912048E+03  0.15613912048E+03  0.00000000000E+00 0.  1.
         24    2    1    2    0    0  0.18393774371E+02 -0.18573860176E+02  0.99279105468E+02  0.13093413608E+03  0.81265539996E+02 0.  0.
         23    2    1    2    0    0 -0.40658750780E+02  0.32780463840E+02  0.74453213397E+02  0.12917957686E+03  0.91740881111E+02 0.  0.
        -11    1    3    3    0    0  0.39801000867E+02 -0.13625172385E+02  0.10047838118E+03  0.10892965655E+03  0.00000000000E+00 0.  1.
         12    1    3    3    0    0 -0.21407226496E+02 -0.49486877911E+01 -0.11992757078E+01  0.22004479529E+02  0.00000000000E+00 0. -1.
        -13    1    4    4    0    0 -0.47111148446E+02 -0.87093387097E+01  0.51988615291E+01  0.48190673888E+02  0.00000000000E+00 0.  1.
         13    1    4    4    0    0  0.64523976652E+01  0.41489802550E+02  0.69254351868E+02  0.80988902968E+02  0.00000000000E+00 0. -1.
         -2    1    1    2    0  502  0.22264976409E+02 -0.14206603665E+02 -0.11140445156E+03  0.11449239534E+03  0.00000000000E+00 0.  1.
<scales pt_clust_5="13000.00000" pt_clust_6="13000.00000" pt_clust_7="13000.00000" pt_clust_8="13000.00000" pt_clust_9="26.41130"></scales>
<clustering>
<clus scale="   26.411">  2  9  1 -1</clus>
<clus scale="   81.266">  5  6 -1 -1</clus>
<clus scale="   88.739">  1  5  2 -1</clus>
<clus scale="   91.741">  7  8 -1 -1</clus>
<clus scale="   26.411">  2  5  1 -1</clus>
</clustering>
</event>
<event>
 9    2  0.1751298E-004  0.9491598E+02  0.7546771E-02  0.1296951E+00
         21   -1    0    0  501  502  0.00000000000E+00  0.00000000000E+00  0.66613472391E+02  0.66613472391E+02  0.00000000000E+00 0.  1.
         -3   -1    0    0    0  501 -0.00000000000E+00 -0.00000000000E+00 -0.31788886877E+03  0.31788886877E+03  0.00000000000E+00 0.  1.
         23    2    1    2    0    0 -0.15635044514E+02  0.69588642526E+01 -0.15671177555E+03  0.18228108862E+03  0.91514666939E+02 0.  0.
         24    2    1    2    0    0  0.57555886631E+02 -0.58659825721E+01 -0.15239284643E+01  0.10016766000E+03  0.81756638355E+02 0.  0.
        -11    1    4    4    0    0  0.35348357837E+02 -0.43214484018E+02 -0.74063436085E+01  0.56319197050E+02  0.00000000000E+00 0.  1.
         12    1    4    4    0    0  0.22207528794E+02  0.37348501446E+02  0.58824151442E+01  0.43848462953E+02  0.00000000000E+00 0. -1.
        -11    1    3    3    0    0 -0.24591521507E+02 -0.26416575000E+02 -0.13868731081E+03  0.14330648465E+03  0.00000000000E+00 0.  1.
         11    1    3    3    0    0  0.89564769933E+01  0.33375439252E+02 -0.18024464745E+02  0.38974603972E+02  0.00000000000E+00 0. -1.
         -4    1    1    2    0  502 -0.41920842117E+02 -0.10928816805E+01 -0.93039692365E+02  0.10205359254E+03  0.00000000000E+00 0.  1.
<scales pt_clust_5="13000.00000" pt_clust_6="13000.00000" pt_clust_7="13000.00000" pt_clust_8="13000.00000" pt_clust_9="41.93511"></scales>
<clustering>
<clus scale="   41.935">  1  9  2 -1</clus>
<clus scale="   81.757">  5  6 -1 -1</clus>
<clus scale="   85.547">  1  5  2 -1</clus>
<clus scale="   91.515">  7  8 -1 -1</clus>
<clus scale="   41.935">  1  5  2 -1</clus>
</clustering>
</event>
<event>
 9    2  0.1751298E-004  0.9763687E+02  0.7546771E-02  0.1290502E+00
         21   -1    0    0  501  502  0.00000000000E+00  0.00000000000E+00  0.55001336935E+02  0.55001336935E+02  0.00000000000E+00 0. -1.
          2   -1    0    0  502    0 -0.00000000000E+00 -0.00000000000E+00 -0.43469208217E+03  0.43469208217E+03  0.00000000000E+00 0. -1.
         23    2    1    2    0    0 -0.86449111892E+01  0.34213540600E+02 -0.29846000866E+03  0.31402264572E+03  0.91030458646E+02 0.  0.
         24    2    1    2    0    0  0.31700853768E+02 -0.25632537366E+02 -0.10674640601E+03  0.14022702230E+03  0.81282541095E+02 0.  0.
        -11    1    4    4    0    0  0.43603941903E+02 -0.54936050339E+01 -0.16412636272E+02  0.46913303818E+02  0.00000000000E+00 0.  1.
         12    1    4    4    0    0 -0.11903088136E+02 -0.20138932332E+02 -0.90333769735E+02  0.93313718484E+02  0.00000000000E+00 0. -1.
        -11    1    3    3    0    0  0.32661399319E+02 -0.83450232237E+01 -0.15797455098E+03  0.16153131329E+03  0.00000000000E+00 0.  1.
         11    1    3    3    0    0 -0.41306310508E+02  0.42558563824E+02 -0.14048545769E+03  0.15249133242E+03  0.00000000000E+00 0. -1.
          1    1    1    2  501    0 -0.23055942578E+02 -0.85810032340E+01  0.25515669433E+02  0.35443751090E+02  0.00000000000E+00 0. -1.
<scales pt_clust_5="13000.00000" pt_clust_6="13000.00000" pt_clust_7="13000.00000" pt_clust_8="13000.00000" pt_clust_9="24.60102"></scales>
<clustering>
<clus scale="   24.601">  1  9  2 -1</clus>
<clus scale="   81.283">  5  6 -1 -1</clus>
<clus scale="   88.619">  1  5  2 -1</clus>
<clus scale="   91.030">  7  8 -1 -1</clus>
<clus scale="   24.601">  1  5  2 -1</clus>
</clustering>
</event>
<event>
 9    2  0.1751298E-004  0.1203443E+03  0.7546771E-02  0.1245984E+00
         -1   -1    0    0    0  501 -0.00000000000E+00  0.00000000000E+00  0.85949007604E+03  0.85949007604E+03  0.00000000000E+00 0.  1.
         21   -1    0    0  501  502  0.00000000000E+00 -0.00000000000E+00 -0.40400046005E+02  0.40400046005E+02  0.00000000000E+00 0.  1.
         23    2    1    2    0    0 -0.25782918392E+02 -0.51932078279E+02  0.31759216489E+03  0.33535891049E+03  0.90769576461E+02 0.  0.
         24    2    1    2    0    0 -0.22388992981E+02  0.10972161258E+03  0.45676885277E+03  0.47700494196E+03  0.79723462817E+02 0.  0.
        -13    1    4    4    0    0  0.13700343798E+02  0.82517568367E+02  0.36808067275E+03  0.37746553507E+03  0.00000000000E+00 0.  1.
         14    1    4    4    0    0 -0.36089336779E+02  0.27204044211E+02  0.88688180018E+02  0.99539406898E+02  0.00000000000E+00 0. -1.
        -13    1    3    3    0    0 -0.55795047632E+02 -0.49102429350E+02  0.18476205231E+03  0.19915107803E+03  0.00000000000E+00 0.  1.
         13    1    3    3    0    0  0.30012129240E+02 -0.28296489290E+01  0.13283011258E+03  0.13620783246E+03  0.00000000000E+00 0. -1.
         -2    1    1    2    0  502  0.48171911373E+02 -0.57789534299E+02  0.44729012371E+02  0.87526269585E+02  0.00000000000E+00 0.  1.
<scales pt_clust_5="13000.00000" pt_clust_6="13000.00000" pt_clust_7="13000.00000" pt_clust_8="13000.00000" pt_clust_9="75.23406"></scales>
<clustering>
<clus scale="   75.234">  2  9  1 -1</clus>
<clus scale="   79.723">  5  6 -1 -1</clus>
<clus scale="   90.770">  7  8 -1 -1</clus>
<clus scale="  112.247">  2  5  1 -1</clus>
<clus scale="   75.234">  2  5  1 -1</clus>
</clustering>
</event>
<event>
 9    2  0.1751298E-004  0.9636567E+02  0.7546771E-02  0.1296417E+00
          2   -1    0    0  502    0 -0.00000000000E+00  0.00000000000E+00  0.90096693728E+03  0.90096693728E+03  0.00000000000E+00 0. -1.
         21   -1    0    0  501  502  0.00000000000E+00 -0.00000000000E+00 -0.25524101417E+02  0.25524101417E+02  0.00000000000E+00 0. -1.
         24    2    1    2    0    0 -0.68190135578E+01  0.54806323301E+01  0.36919525459E+03  0.37731380969E+03  0.77356568543E+02 0.  0.
         23    2    1    2    0    0  0.63184352961E+02 -0.51469718165E+01  0.46779907470E+03  0.48094636741E+03  0.91949335294E+02 0.  0.
        -13    1    3    3    0    0 -0.41478759110E+01 -0.35859797444E+02  0.18917528702E+03  0.19258873063E+03  0.00000000000E+00 0.  1.
         14    1    3    3    0    0 -0.26711376468E+01  0.41340429774E+02  0.18001996757E+03  0.18472507906E+03  0.00000000000E+00 0. -1.
        -11    1    4    4    0    0  0.84669694232E+02 -0.56851002206E+01  0.42072911026E+03  0.42920188921E+03  0.00000000000E+00 0. -1.
         11    1    4    4    0    0 -0.21485341271E+02  0.53812840414E+00  0.47069964444E+02  0.51744478203E+02  0.00000000000E+00 0.  1.
          1    1    1    2  501    0 -0.56365339403E+02 -0.33366051359E+00  0.38448506572E+02  0.68230861587E+02  0.00000000000E+00 0. -1.
<scales pt_clust_5="13000.00000" pt_clust_6="13000.00000" pt_clust_7="13000.00000" pt_clust_8="13000.00000" pt_clust_9="56.36633"></scales>
<clustering>
<clus scale="   56.366">  2  9  1 -1</clus>
<clus scale="   77.357">  5  6 -1 -1</clus>
<clus scale="   82.557">  1  5  2 -1</clus>
<clus scale="   91.949">  7  8 -1 -1</clus>
<clus scale="   56.366">  2  5  1 -1</clus>
</clustering>
</event>
<event>
 9    2  0.1751298E-004  0.1085750E+03  0.7546771E-02  0.1280882E+00
         21   -1    0    0  501  502  0.00000000000E+00  0.00000000000E+00  0.32856781990E+02  0.32856781990E+02  0.00000000000E+00 0.  1.
          2   -1    0    0  502    0 -0.00000000000E+00 -0.00000000000E+00 -0.42685198483E+03  0.42685198483E+03  0.00000000000E+00 0. -1.
         24    2    1    2    0    0 -0.13692229780E+02 -0.36168738284E+02 -0.15580456165E+03  0.17273779402E+03  0.63777968504E+02 0.  0.
         23    2    1    2    0    0  0.33053549882E+02  0.48027048900E+02 -0.11912599131E+03  0.16576094394E+03  0.99431152778E+02 0.  0.
        -13    1    3    3    0    0 -0.18427960436E+02  0.14395529416E+02 -0.40954248953E+02  0.47160062556E+02  0.00000000000E+00 0.  1.
         14    1    3    3    0    0  0.47357306560E+01 -0.50564267700E+02 -0.11485031269E+03  0.12557773146E+03  0.00000000000E+00 0. -1.
        -13    1    4    4    0    0  0.36717310046E+02  0.25928616825E+02 -0.13233208788E+03  0.13975777441E+03  0.00000000000E+00 0. -1.
         13    1    4    4    0    0 -0.36637601647E+01  0.22098432075E+02  0.13206096564E+02  0.26003169522E+02  0.00000000000E+00 0.  1.
          1    1    1    2  501    0 -0.19361320102E+02 -0.11858310616E+02 -0.11906464988E+03  0.12121002887E+03  0.00000000000E+00 0. -1.
<scales pt_clust_5="13000.00000" pt_clust_6="13000.00000" pt_clust_7="13000.00000" pt_clust_8="13000.00000" pt_clust_9="22.70420"></scales>
<clustering>
<clus scale="   22.704">  1  9  2 -1</clus>
<clus scale="   63.778">  5  6 -1 -1</clus>
<clus scale="   77.263">  2  5  1 -1</clus>
<clus scale="   99.431">  7  8 -1 -1</clus>
<clus scale="   22.704">  1  5  2 -1</clus>
</clustering>
</event>
<event>
 9    2  0.1751298E-004  0.1363051E+03  0.7546771E-02  0.1219650E+00
         21   -1    0    0  501  502  0.00000000000E+00  0.00000000000E+00  0.31614205674E+02  0.31614205674E+02  0.00000000000E+00 0.  1.
          2   -1    0    0  502    0 -0.00000000000E+00 -0.00000000000E+00 -0.89547526094E+03  0.89547526094E+03  0.00000000000E+00 0. -1.
         23    2    1    2    0    0  0.54653786807E+01 -0.10851160165E+03 -0.39843541075E+03  0.42200650402E+03  0.86799048607E+02 0.  0.
         24    2    1    2    0    0  0.39206849554E+02  0.98153084462E+02 -0.23493302621E+03  0.27007284803E+03  0.81083977439E+02 0.  0.
        -11    1    4    4    0    0  0.41942509100E+02  0.11030105196E+03 -0.22528507503E+03  0.25432039077E+03  0.00000000000E+00 0.  1.
         12    1    4    4    0    0 -0.27356595463E+01 -0.12147967500E+02 -0.96479511814E+01  0.15752457254E+02  0.00000000000E+00 0. -1.
        -13    1    3    3    0    0  0.44309492172E+02 -0.42304327724E+02 -0.15157132266E+03  0.16348349486E+03  0.00000000000E+00 0. -1.
         13    1    3    3    0    0 -0.38844113491E+02 -0.66207273928E+02 -0.24686408809E+03  0.25852300915E+03  0.00000000000E+00 0.  1.
          1    1    1    2  501    0 -0.44672228234E+02  0.10358517191E+02 -0.23049261831E+03  0.23501011457E+03  0.00000000000E+00 0. -1.
<scales pt_clust_5="13000.00000" pt_clust_6="13000.00000" pt_clust_7="13000.00000" pt_clust_8="13000.00000" pt_clust_9="45.85749"></scales>
<clustering>
<clus scale="   45.857">  1  9  2 -1</clus>
<clus scale="   81.084">  5  6 -1 -1</clus>
<clus scale="   86.799">  7  8 -1 -1</clus>
<clus scale="  132.739">  1  5  2 -1</clus>
<clus scale="   45.857">  1  5  2 -1</clus>
</clustering>
</event>
<event>
 9    2  0.1751298E-004  0.1387658E+03  0.7546771E-02  0.1218334E+00
          2   -1    0    0  502    0 -0.00000000000E+00  0.00000000000E+00  0.13528933711E+04  0.13528933711E+04  0.00000000000E+00 0. -1.
         21   -1    0    0  501  502  0.00000000000E+00 -0.00000000000E+00 -0.31847548667E+02  0.31847548667E+02  0.00000000000E+00 0. -1.
         23    2    1    2    0    0  0.27751150387E+02  0.86114762728E+02  0.30012129743E+03  0.32680223741E+03  0.92417695800E+02 0.  0.
         24    2    1    2    0    0  0.10277987823E+03 -0.48876103061E+02  0.42473767184E+03  0.44649462842E+03  0.77477651702E+02 0.  0.
        -11    1    4    4    0    0  0.62819676815E+02 -0.56165958342E+02  0.18431352816E+03  0.20266327574E+03  0.00000000000E+00 0.  1.
         12    1    4    4    0    0  0.39960201416E+02  0.72898552810E+01  0.24042414368E+03  0.24383135268E+03  0.00000000000E+00 0. -1.
        -13    1    3    3    0    0 -0.20527371926E+02  0.23346125809E+02  0.23223915099E+02  0.38804185611E+02  0.00000000000E+00 0. -1.
         13    1    3    3    0    0  0.48278522313E+02  0.62768636919E+02  0.27689738233E+03  0.28799805180E+03  0.00000000000E+00 0.  1.
          1    1    1    2  501    0 -0.13053102862E+03 -0.37238659667E+02  0.59618685319E+03  0.61144405396E+03  0.00000000000E+00 0. -1.
<scales pt_clust_5="13000.00000" pt_clust_6="13000.00000" pt_clust_7="13000.00000" pt_clust_8="13000.00000" pt_clust_9="115.12245"></scales>
<clustering>
<clus scale="   77.478">  5  6 -1 -1</clus>
<clus scale="   92.418">  7  8 -1 -1</clus>
<clus scale="  129.333">  1  7  2 -1</clus>
<clus scale="  115.122">  2  9  1 -1</clus>
<clus scale="  115.122">  2  5  1 -1</clus>
</clustering>
</event>
<event>
 9    2  0.1751298E-004  0.1200069E+03  0.7546771E-02  0.1246045E+00
         21   -1    0    0  501  502  0.00000000000E+00  0.00000000000E+00  0.33389837199E+02  0.33389837199E+02  0.00000000000E+00 0. -1.
          4   -1    0    0  502    0 -0.00000000000E+00 -0.00000000000E+00 -0.91995030163E+03  0.91995030163E+03  0.00000000000E+00 0. -1.
         23    2    1    2    0    0 -0.73030280997E+02  0.69620391711E+00 -0.55937015062E+03  0.57139666301E+03  0.90913554800E+02 0.  0.
         24    2    1    2    0    0  0.94343489783E+02 -0.50878873348E+02 -0.17870049026E+03  0.22376073062E+03  0.81520828830E+02 0.  0.
        -13    1    4    4    0    0  0.47340533528E+02  0.16415542654E+02 -0.47777476577E+02  0.69233542618E+02  0.00000000000E+00 0.  1.
         14    1    4    4    0    0  0.47002956255E+02 -0.67294416001E+02 -0.13092301368E+03  0.15452718801E+03  0.00000000000E+00 0. -1.
        -13    1    3    3    0    0 -0.72127181705E+02  0.35671816329E+02 -0.42471924115E+03  0.43227449916E+03  0.00000000000E+00 0. -1.
         13    1    3    3    0    0 -0.90309929189E+00 -0.34975612411E+02 -0.13465090947E+03  0.13912216384E+03  0.00000000000E+00 0.  1.
          3    1    1    2  501    0 -0.21313208786E+02  0.50182669431E+02 -0.14848982355E+03  0.15818274519E+03  0.00000000000E+00 0. -1.
<scales pt_clust_5="13000.00000" pt_clust_6="13000.00000" pt_clust_7="13000.00000" pt_clust_8="13000.00000" pt_clust_9="54.52115"></scales>
<clustering>
<clus scale="   54.521">  1  9  2 -1</clus>
<clus scale="   81.521">  5  6 -1 -1</clus>
<clus scale="   90.914">  7  8 -1 -1</clus>
<clus scale="  113.058">  1  5  2 -1</clus>
<clus scale="   54.521">  1  5  2 -1</clus>
</clustering>
</event>
<event>
 9    2  0.1751298E-004  0.2472459E+03  0.7546771E-02  0.1140955E+00
          2   -1    0    0  502    0 -0.00000000000E+00  0.00000000000E+00  0.59392679543E+03  0.59392679543E+03  0.00000000000E+00 0. -1.
         21   -1    0    0  501  502  0.00000000000E+00 -0.00000000000E+00 -0.10104373517E+04  0.10104373517E+04  0.00000000000E+00 0. -1.
         24    2    1    2    0    0  0.57971791289E+02 -0.85712582075E+02 -0.29628360337E+03  0.32378242788E+03  0.79647420997E+02 0.  0.
         23    2    1    2    0    0 -0.50512893533E+02 -0.15013308169E+03  0.54561308591E+03  0.57416699010E+03  0.82961426982E+02 0.  0.
        -11    1    3    3    0    0  0.37201686522E+02 -0.18494528068E+02 -0.38749210754E+02  0.56811217049E+02  0.00000000000E+00 0.  1.
         12    1    3    3    0    0  0.20770104767E+02 -0.67218054007E+02 -0.25753439261E+03  0.26697121083E+03  0.00000000000E+00 0. -1.
        -11    1    4    4    0    0  0.22841377040E+02 -0.31017924499E+02  0.10264732703E+03  0.10963719210E+03  0.00000000000E+00 0.  1.
         11    1    4    4    0    0 -0.73354270573E+02 -0.11911515719E+03  0.44296575888E+03  0.46452979800E+03  0.00000000000E+00 0. -1.
          1    1    1    2  501    0 -0.74588977563E+01  0.23584566376E+03 -0.66584003883E+03  0.70641472916E+03  0.00000000000E+00 0. -1.
<scales pt_clust_5="13000.00000" pt_clust_6="13000.00000" pt_clust_7="13000.00000" pt_clust_8="13000.00000" pt_clust_9="232.91186"></scales>
<clustering>
<clus scale="   79.647">  5  6 -1 -1</clus>
<clus scale="   82.961">  7  8 -1 -1</clus>
<clus scale="  130.580">  1  5  2 -1</clus>
<clus scale="  232.912">  2  9  1 -1</clus>
<clus scale="  232.912">  2  5  1 -1</clus>
</clustering>
</event>
<event>
 9    2  0.1751298E-004  0.1090021E+03  0.7546771E-02  0.1266472E+00
          2   -1    0    0  502    0 -0.00000000000E+00  0.00000000000E+00  0.96928909823E+02  0.96928909823E+02  0.00000000000E+00 0. -1.
         21   -1    0    0  501  502  0.00000000000E+00 -0.00000000000E+00 -0.43810138729E+03  0.43810138729E+03  0.00000000000E+00 0. -1.
         24    2    1    2    0    0  0.61596285232E+02 -0.21034123226E+02  0.35139016415E+02  0.10929621170E+03  0.80463499326E+02 0.  0.
         23    2    1    2    0    0 -0.30129287345E+02  0.46702821018E+02 -0.98314355157E+02  0.14478664701E+03  0.90600956268E+02 0.  0.
        -13    1    3    3    0    0  0.23475055378E+02 -0.16669704689E+02 -0.24885380925E+02  0.38055741528E+02  0.00000000000E+00 0.  1.
         14    1    3    3    0    0  0.38121229853E+02 -0.43644185369E+01  0.60024397340E+02  0.71240470175E+02  0.00000000000E+00 0. -1.
        -13    1    4    4    0    0 -0.45928740389E+02  0.15925879742E+02 -0.98883729660E+02  0.11018654560E+03  0.00000000000E+00 0.  1.
         13    1    4    4    0    0  0.15799453044E+02  0.30776941276E+02  0.56937450222E+00  0.34600101417E+02  0.00000000000E+00 0. -1.
          1    1    1    2  501    0 -0.31466997886E+02 -0.25668697791E+02 -0.27799713872E+03  0.28094743839E+03  0.00000000000E+00 0. -1.
<scales pt_clust_5="13000.00000" pt_clust_6="13000.00000" pt_clust_7="13000.00000" pt_clust_8="13000.00000" pt_clust_9="40.60855"></scales>
<clustering>
<clus scale="   40.609">  2  9  1 -1</clus>
<clus scale="   80.463">  5  6 -1 -1</clus>
<clus scale="   90.601">  7  8 -1 -1</clus>
<clus scale="  100.734">  1  5  2 -1</clus>
<clus scale="   40.609">  2  5  1 -1</clus>
</clustering>
</event>
<event>
 9    2  0.1751298E-004  0.1760195E+03  0.7546771E-02  0.1173057E+00
          2   -1    0    0  502    0 -0.00000000000E+00  0.00000000000E+00  0.25065560332E+03  0.25065560332E+03  0.00000000000E+00 0. -1.
         21   -1    0    0  501  502  0.00000000000E+00 -0.00000000000E+00 -0.15429271289E+03  0.15429271289E+03  0.00000000000E+00 0.  1.
         24    2    1    2    0    0 -0.14568768946E+03 -0.13065184102E+02  0.26348506571E+02  0.16887584729E+03  0.80182330360E+02 0.  0.
         23    2    1    2    0    0  0.15621496875E+03 -0.15244883313E+02  0.26831209451E+02  0.18337455552E+03  0.90943888644E+02 0.  0.
        -11    1    3    3    0    0 -0.49242958517E+02 -0.32782121207E+02  0.37135817449E+02  0.69847014052E+02  0.00000000000E+00 0.  1.
         12    1    3    3    0    0 -0.96444730947E+02  0.19716937105E+02 -0.10787310879E+02  0.99028833237E+02  0.00000000000E+00 0. -1.
        -11    1    4    4    0    0  0.61640570001E+02  0.16865838423E+02 -0.27619263405E+02  0.69619250835E+02  0.00000000000E+00 0.  1.
         11    1    4    4    0    0  0.94574398748E+02 -0.32110721736E+02  0.54450472856E+02  0.11375530468E+03  0.00000000000E+00 0. -1.
          1    1    1    2  501    0 -0.10527279285E+02  0.28310067415E+02  0.43183174402E+02  0.52697913408E+02  0.00000000000E+00 0. -1.
<scales pt_clust_5="13000.00000" pt_clust_6="13000.00000" pt_clust_7="13000.00000" pt_clust_8="13000.00000" pt_clust_9="30.20405"></scales>
<clustering>
<clus scale="   30.204">  2  9  1 -1</clus>
<clus scale="   80.182">  5  6 -1 -1</clus>
<clus scale="   90.944">  7  8 -1 -1</clus>
<clus scale="  170.708">  1  5  2 -1</clus>
<clus scale="   30.204">  2  5  1 -1</clus>
</clustering>
</event>
<event>
 9    2  0.1751298E-004  0.1590695E+03  0.7546771E-02  0.1194097E+00
          2   -1    0    0  502    0 -0.00000000000E+00  0.00000000000E+00  0.70866725095E+03  0.70866725095E+03  0.00000000000E+00 0. -1.
         21   -1    0    0  501  502  0.00000000000E+00 -0.00000000000E+00 -0.14011078159E+03  0.14011078159E+03  0.00000000000E+00 0. -1.
         23    2    1    2    0    0  0.10244281769E+03  0.10733324586E+03  0.90602538981E+02  0.19551588892E+03  0.89457734073E+02 0.  0.
         24    2    1    2    0    0 -0.13253050407E+03  0.19191008627E+00 -0.16465412787E+02  0.14639192855E+03  0.59959282752E+02 0.  0.
        -11    1    4    4    0    0 -0.35554261038E+02 -0.17139059975E+02 -0.26239047288E+02  0.47395574238E+02  0.00000000000E+00 0.  1.
         12    1    4    4    0    0 -0.96976243033E+02  0.17330970062E+02  0.97736345008E+01  0.98996354314E+02  0.00000000000E+00 0. -1.
        -11    1    3    3    0    0  0.66988446325E+01  0.67282486034E+02  0.49907936519E+02  0.84039333493E+02  0.00000000000E+00 0.  1.
         11    1    3    3    0    0  0.95743973058E+02  0.40050759829E+02  0.40694602462E+02  0.11147655543E+03  0.00000000000E+00 0. -1.
          1    1    1    2  501    0  0.30087686380E+02 -0.10752515595E+03  0.49441934317E+03  0.50687021508E+03  0.00000000000E+00 0. -1.
<scales pt_clust_5="13000.00000" pt_clust_6="13000.00000" pt_clust_7="13000.00000" pt_clust_8="13000.00000" pt_clust_9="111.65545"></scales>
<clustering>
<clus scale="   59.959">  5  6 -1 -1</clus>
<clus scale="   89.458">  7  8 -1 -1</clus>
<clus scale="  111.655">  2  9  1 -1</clus>
<clus scale="  144.553">  2  5  1 -1</clus>
<clus scale="  111.655">  2  5  1 -1</clus>
</clustering>
</event>
<event>
 9    2  0.1751298E-004  0.1516472E+03  0.7546771E-02  0.1217809E+00
         21   -1    0    0  501  502  0.00000000000E+00  0.00000000000E+00  0.13948761644E+03  0.13948761644E+03  0.00000000000E+00 0. -1.
          2   -1    0    0  502    0 -0.00000000000E+00 -0.00000000000E+00 -0.28359172942E+03  0.28359172942E+03  0.00000000000E+00 0. -1.
         23    2    1    2    0    0 -0.38060806741E+02 -0.11562081014E+02  0.93504290600E+01  0.10063113901E+03  0.91961344528E+02 0.  0.
         24    2    1    2    0    0 -0.28212420564E+02  0.12496339469E+03 -0.95039967921E+02  0.17869751618E+03  0.80550705145E+02 0.  0.
        -13    1    4    4    0    0 -0.17542754530E+02  0.42238994842E+02  0.76802125154E+01  0.46377436174E+02  0.00000000000E+00 0.  1.
         14    1    4    4    0    0 -0.10669666034E+02  0.82724399848E+02 -0.10272018044E+03  0.13232008000E+03  0.00000000000E+00 0. -1.
        -11    1    3    3    0    0  0.29454110094E+02  0.12615001782E+01 -0.63066833405E+01  0.30148138232E+02  0.00000000000E+00 0.  1.
         11    1    3    3    0    0 -0.67514916834E+02 -0.12823581193E+02  0.15657112401E+02  0.70483000777E+02  0.00000000000E+00 0. -1.
          1    1    1    2  501    0  0.66273227305E+02 -0.11340131368E+03 -0.58414574122E+02  0.14375069068E+03  0.00000000000E+00 0. -1.
<scales pt_clust_5="13000.00000" pt_clust_6="13000.00000" pt_clust_7="13000.00000" pt_clust_8="13000.00000" pt_clust_9="128.48520"></scales>
<clustering>
<clus scale="   80.551">  5  6 -1 -1</clus>
<clus scale="   91.961">  7  8 -1 -1</clus>
<clus scale="  100.196">  2  7  1 -1</clus>
<clus scale="  128.485">  1  9  2 -1</clus>
<clus scale="  128.485">  1  5  2 -1</clus>
</clustering>
</event>
<event>
 9    2  0.1751298E-004  0.1121738E+03  0.7546771E-02  0.1265674E+00
         -1   -1    0    0    0  501 -0.00000000000E+00  0.00000000000E+00  0.19575043295E+03  0.19575043295E+03  0.00000000000E+00 0.  1.
         21   -1    0    0  501  502  0.00000000000E+00 -0.00000000000E+00 -0.98018199328E+02  0.98018199328E+02  0.00000000000E+00 0. -1.
         24    2    1    2    0    0 -0.46685626347E+02 -0.90107682955E+00  0.77648454775E+02  0.12036472717E+03  0.79233991258E+02 0.  0.
         23    2    1    2    0    0  0.52932140107E+02  0.31591365288E+02  0.52028587672E+02  0.12866707966E+03  0.10024179585E+03 0.  0.
        -13    1    3    3    0    0 -0.51746011254E+02  0.21271378259E+00  0.91752739371E+02  0.10533878730E+03  0.00000000000E+00 0.  1.
         14    1    3    3    0    0  0.50603849066E+01 -0.11137906121E+01 -0.14104284597E+02  0.15025939868E+02  0.00000000000E+00 0. -1.
        -13    1    4    4    0    0 -0.69647199855E+01  0.50128059191E+02  0.40716711658E+02  0.64955217273E+02  0.00000000000E+00 0.  1.
         13    1    4    4    0    0  0.59896860092E+02 -0.18536693903E+02  0.11311876013E+02  0.63711862386E+02  0.00000000000E+00 0. -1.
         -2    1    1    2    0  502 -0.62465137595E+01 -0.30690288458E+02 -0.31944808829E+02  0.44736825445E+02  0.00000000000E+00 0.  1.
<scales pt_clust_5="13000.00000" pt_clust_6="13000.00000" pt_clust_7="13000.00000" pt_clust_8="13000.00000" pt_clust_9="31.31953"></scales>
<clustering>
<clus scale="   31.320">  2  9  1 -1</clus>
<clus scale="   79.234">  5  6 -1 -1</clus>
<clus scale="   93.875">  1  5  2 -1</clus>
<clus scale="  100.242">  7  8 -1 -1</clus>
<clus scale="   31.320">  2  5  1 -1</clus>
</clustering>
</event>
<event>
 9    2  0.1751298E-004  0.1642028E+03  0.7546771E-02  0.1215089E+00
         21   -1    0    0  501  502  0.00000000000E+00  0.00000000000E+00  0.17097980359E+03  0.17097980359E+03  0.00000000000E+00 0.  1.
          2   -1    0    0  502    0 -0.00000000000E+00 -0.00000000000E+00 -0.56392099450E+03  0.56392099450E+03  0.00000000000E+00 0. -1.
         24    2    1    2    0    0 -0.56802747861E+01 -0.20409529091E+02 -0.82242608015E+02  0.11726619818E+03  0.80862230141E+02 0.  0.
         23    2    1    2    0    0  0.40341665127E+02 -0.12319012991E+03  0.93204698966E+02  0.18756468100E+03  0.98438486372E+02 0.  0.
        -13    1    3    3    0    0 -0.31204705312E+02  0.18707353339E+02 -0.29713013342E+02  0.46974055226E+02  0.00000000000E+00 0.  1.
         14    1    3    3    0    0  0.25524430525E+02 -0.39116882430E+02 -0.52529594673E+02  0.70292142955E+02  0.00000000000E+00 0. -1.
        -11    1    4    4    0    0  0.49230469087E+02 -0.11442816887E+02  0.25592072309E+02  0.56652725529E+02  0.00000000000E+00 0. -1.
         11    1    4    4    0    0 -0.88888039594E+01 -0.11174731302E+03  0.67612626657E+02  0.13091195548E+03  0.00000000000E+00 0.  1.
          1    1    1    2  501    0 -0.34661390341E+02  0.14359965900E+03 -0.40390328187E+03  0.43006991891E+03  0.00000000000E+00 0. -1.
<scales pt_clust_5="13000.00000" pt_clust_6="13000.00000" pt_clust_7="13000.00000" pt_clust_8="13000.00000" pt_clust_9="131.42469"></scales>
<clustering>
<clus scale="   80.862">  5  6 -1 -1</clus>
<clus scale="   83.591">  2  5  1 -1</clus>
<clus scale="   98.438">  7  8 -1 -1</clus>
<clus scale="  131.425">  1  9  2 -1</clus>
<clus scale="  131.425">  1  5  2 -1</clus>
</clustering>
</event>
<event>
 9    2  0.1751298E-004  0.3081632E+03  0.7546771E-02  0.1114109E+00
         -1   -1    0    0    0  501 -0.00000000000E+00  0.00000000000E+00  0.71448953986E+03  0.71448953986E+03  0.00000000000E+00 0.  1.
         21   -1    0    0  501  502  0.00000000000E+00 -0.00000000000E+00 -0.19738115959E+03  0.19738115959E+03  0.00000000000E+00 0.  1.
         24    2    1    2    0    0  0.72243299864E+02  0.73056494278E+02  0.86640518862E+02  0.15688572219E+03  0.80933334221E+02 0.  0.
         23    2    1    2    0    0 -0.42834315955E+02 -0.32490898379E+03  0.13629851626E+03  0.36661637858E+03  0.91813164281E+02 0.  0.
        -11    1    3    3    0    0  0.89492444162E+02  0.66647181620E+02  0.80100773608E+02  0.13735675561E+03  0.00000000000E+00 0.  1.
         12    1    3    3    0    0 -0.17249144297E+02  0.64093126577E+01  0.65397452538E+01  0.19528966581E+02  0.00000000000E+00 0. -1.
        -11    1    4    4    0    0 -0.34886169356E+01 -0.21435338634E+03  0.47820640723E+02  0.21965053691E+03  0.00000000000E+00 0.  1.
         11    1    4    4    0    0 -0.39345699019E+02 -0.11055559745E+03  0.88477875537E+02  0.14696584167E+03  0.00000000000E+00 0. -1.
         -2    1    1    2    0  502 -0.29408983910E+02  0.25185248952E+03  0.29416934515E+03  0.38836859867E+03  0.00000000000E+00 0.  1.
<scales pt_clust_5="13000.00000" pt_clust_6="13000.00000" pt_clust_7="13000.00000" pt_clust_8="13000.00000" pt_clust_9="294.16825"></scales>
<clustering>
<clus scale="   80.933">  5  6 -1 -1</clus>
<clus scale="   91.813">  7  8 -1 -1</clus>
<clus scale="  130.792">  1  5  2 -1</clus>
<clus scale="  294.168">  2  9  1 -1</clus>
<clus scale="  294.168">  2  5  1 -1</clus>
</clustering>
</event>
<event>
 9    2  0.1751298E-004  0.9793362E+02  0.7546771E-02  0.1285791E+00
         21   -1    0    0  501  502  0.00000000000E+00  0.00000000000E+00  0.22279265144E+03  0.22279265144E+03  0.00000000000E+00 0. -1.
          2   -1    0    0  502    0 -0.00000000000E+00 -0.00000000000E+00 -0.32985785716E+03  0.32985785716E+03  0.00000000000E+00 0. -1.
         23    2    1    2    0    0  0.50252981393E+01  0.52245942387E+02 -0.23086814412E+03  0.25368009414E+03  0.91096641411E+02 0.  0.
         24    2    1    2    0    0 -0.52440900588E+02  0.31160357254E+02 -0.39186998605E+02  0.10983932303E+03  0.82510848415E+02 0.  0.
        -13    1    4    4    0    0 -0.78998342129E+01  0.42104175002E+02 -0.46688713726E+02  0.63364066493E+02  0.00000000000E+00 0.  1.
         14    1    4    4    0    0 -0.44541066375E+02 -0.10943817748E+02  0.75017151208E+01  0.46475256541E+02  0.00000000000E+00 0. -1.
        -11    1    3    3    0    0 -0.30379740903E+02 -0.71848781318E+01 -0.11075167435E+03  0.11506730423E+03  0.00000000000E+00 0.  1.
         11    1    3    3    0    0  0.35405039042E+02  0.59430820519E+02 -0.12011646977E+03  0.13861278991E+03  0.00000000000E+00 0. -1.
          1    1    1    2  501    0  0.47415602449E+02 -0.83406299641E+02  0.16298993701E+03  0.18913109142E+03  0.00000000000E+00 0. -1.
<scales pt_clust_5="13000.00000" pt_clust_6="13000.00000" pt_clust_7="13000.00000" pt_clust_8="13000.00000" pt_clust_9="95.94191"></scales>
<clustering>
<clus scale="   82.511">  5  6 -1 -1</clus>
<clus scale="   91.097">  7  8 -1 -1</clus>
<clus scale="   95.942">  1  9  2 -1</clus>
<clus scale="   95.942">  1  5  2 -1</clus>
<clus scale="   95.942">  1  5  2 -1</clus>
</clustering>
</event>
<event>
 9    2  0.1751298E-004  0.9526128E+02  0.7546771E-02  0.1297024E+00
         21   -1    0    0  501  502  0.00000000000E+00  0.00000000000E+00  0.40834580992E+02  0.40834580992E+02  0.00000000000E+00 0.  1.
          2   -1    0    0  502    0 -0.00000000000E+00 -0.00000000000E+00 -0.37756537778E+03  0.37756537778E+03  0.00000000000E+00 0. -1.
         24    2    1    2    0    0  0.23018599569E+01 -0.33270514363E+02 -0.14701692474E+03  0.17061895895E+03  0.79903862901E+02 0.  0.
         23    2    1    2    0    0  0.46515609065E+02  0.39862305123E+01 -0.12168364234E+03  0.15907459241E+03  0.91204304818E+02 0.  0.
        -13    1    3    3    0    0  0.38210022600E+02 -0.20302364335E+02 -0.48675573779E+02  0.65126824791E+02  0.00000000000E+00 0.  1.
         14    1    3    3    0    0 -0.35908162643E+02 -0.12968150028E+02 -0.98341350965E+02  0.10549213416E+03  0.00000000000E+00 0. -1.
        -11    1    4    4    0    0  0.18796718312E+02  0.82603196661E+01  0.11114582650E+02  0.23347022246E+02  0.00000000000E+00 0.  1.
         11    1    4    4    0    0  0.27718890753E+02 -0.42740891538E+01 -0.13279822499E+03  0.13572757017E+03  0.00000000000E+00 0. -1.
          1    1    1    2  501    0 -0.48817469022E+02  0.29284283851E+02 -0.68030229706E+02  0.88706407413E+02  0.00000000000E+00 0. -1.
<scales pt_clust_5="13000.00000" pt_clust_6="13000.00000" pt_clust_7="13000.00000" pt_clust_8="13000.00000" pt_clust_9="56.92727"></scales>
<clustering>
<clus scale="   56.927">  1  9  2 -1</clus>
<clus scale="   79.904">  5  6 -1 -1</clus>
<clus scale="   84.505">  2  5  1 -1</clus>
<clus scale="   91.204">  7  8 -1 -1</clus>
<clus scale="   56.927">  1  5  2 -1</clus>
</clustering>
</event>
<event>
 9    2  0.1751298E-004  0.1913605E+03  0.7546771E-02  0.1171151E+00
         21   -1    0    0  501  502  0.00000000000E+00  0.00000000000E+00  0.55452531363E+03  0.55452531363E+03  0.00000000000E+00 0.  1.
          2   -1    0    0  502    0 -0.00000000000E+00 -0.00000000000E+00 -0.16027628213E+03  0.16027628213E+03  0.00000000000E+00 0. -1.
         23    2    1    2    0    0 -0.95273114745E+02  0.45555984375E+02 -0.36239632234E+01  0.13880043213E+03  0.90000626363E+02 0.  0.
         24    2    1    2    0    0  0.12978216709E+03  0.12638197983E+03  0.33504971416E+03  0.38972099075E+03  0.82512568446E+02 0.  0.
        -11    1    4    4    0    0  0.66217207665E+02  0.48493819023E+02  0.23050271826E+03  0.24467912089E+03  0.00000000000E+00 0.  1.
         12    1    4    4    0    0  0.63564959424E+02  0.77888160804E+02  0.10454699590E+03  0.14504186986E+03  0.00000000000E+00 0. -1.
        -11    1    3    3    0    0  0.14910269566E+02  0.13919259428E+02 -0.12330543312E+02  0.23834936961E+02  0.00000000000E+00 0.  1.
         11    1    3    3    0    0 -0.11018338431E+03  0.31636724948E+02  0.87065800884E+01  0.11496549517E+03  0.00000000000E+00 0. -1.
          1    1    1    2  501    0 -0.34509052345E+02 -0.17193796420E+03  0.62823280562E+02  0.18628017288E+03  0.00000000000E+00 0. -1.
<scales pt_clust_5="13000.00000" pt_clust_6="13000.00000" pt_clust_7="13000.00000" pt_clust_8="13000.00000" pt_clust_9="172.65736"></scales>
<clustering>
<clus scale="   82.513">  5  6 -1 -1</clus>
<clus scale="   90.001">  7  8 -1 -1</clus>
<clus scale="  138.753">  2  7  1 -1</clus>
<clus scale="  172.657">  1  9  2 -1</clus>
<clus scale="  172.657">  1  5  2 -1</clus>
</clustering>
</event>
<event>
 9    2  0.1751298E-004  0.1018142E+03  0.7546771E-02  0.1278339E+00
         21   -1    0    0  501  502  0.00000000000E+00  0.00000000000E+00  0.15176372636E+03  0.15176372636E+03  0.00000000000E+00 0. -1.
          2   -1    0    0  502    0 -0.00000000000E+00 -0.00000000000E+00 -0.31263554342E+03  0.31263554342E+03  0.00000000000E+00 0. -1.
         24    2    1    2    0    0 -0.87546460580E+01 -0.49153835776E+02 -0.26479828437E+03  0.28467373633E+03  0.91805562732E+02 0.  0.
         23    2    1    2    0    0 -0.95973028924E+01  0.85695103477E+01  0.30734228337E+02  0.94045983105E+02  0.87946059697E+02 0.  0.
        -13    1    3    3    0    0  0.36335326127E+02 -0.25546670768E+02 -0.66657816196E+02  0.80100891206E+02  0.00000000000E+00 0.  1.
         14    1    3    3    0    0 -0.45089972185E+02 -0.23607165009E+02 -0.19814046818E+03  0.20457284512E+03  0.00000000000E+00 0. -1.
        -13    1    4    4    0    0 -0.46997154125E+02 -0.83584785563E+01  0.18689978309E+02  0.51263163664E+02  0.00000000000E+00 0. -1.
         13    1    4    4    0    0  0.37399851233E+02  0.16927988904E+02  0.12044250028E+02  0.42782819441E+02  0.00000000000E+00 0.  1.
          1    1    1    2  501    0  0.18351948950E+02  0.40584325429E+02  0.73192238976E+02  0.85679550344E+02  0.00000000000E+00 0. -1.
<scales pt_clust_5="13000.00000" pt_clust_6="13000.00000" pt_clust_7="13000.00000" pt_clust_8="13000.00000" pt_clust_9="44.54078"></scales>
<clustering>
<clus scale="   44.541">  1  9  2 -1</clus>
<clus scale="   87.946">  7  8 -1 -1</clus>
<clus scale="   91.806">  5  6 -1 -1</clus>
<clus scale="   98.348">  1  7  2 -1</clus>
<clus scale="   44.541">  1  5  2 -1</clus>
</clustering>
</event>
<event>
 9    2  0.1751298E-004  0.9190065E+02  0.7546771E-02  0.1302370E+00
         -1   -1    0    0    0  501 -0.00000000000E+00  0.00000000000E+00  0.58279325176E+02  0.58279325176E+02  0.00000000000E+00 0.  1.
         21   -1    0    0  501  502  0.00000000000E+00 -0.00000000000E+00 -0.21834666678E+03  0.21834666678E+03  0.00000000000E+00 0. -1.
         24    2    1    2    0    0  0.86483172506E+01 -0.27479958975E+02 -0.20009928779E+02  0.88232383103E+02  0.80960574613E+02 0.  0.
         23    2    1    2    0    0  0.20213860024E+02  0.25395030663E+02 -0.86543792779E+02  0.12755710884E+03  0.87906087548E+02 0.  0.
        -13    1    3    3    0    0  0.39326570381E+02 -0.58935760297E+01  0.90484925726E+01  0.40782209286E+02  0.00000000000E+00 0.  1.
         14    1    3    3    0    0 -0.30678253131E+02 -0.21586382945E+02 -0.29058421351E+02  0.47450173817E+02  0.00000000000E+00 0. -1.
        -13    1    4    4    0    0  0.47203306567E+02  0.15360568262E+02 -0.17305041881E+02  0.52569607975E+02  0.00000000000E+00 0.  1.
         13    1    4    4    0    0 -0.26989446542E+02  0.10034462401E+02 -0.69238750898E+02  0.74987500866E+02  0.00000000000E+00 0. -1.
         -2    1    1    2    0  502 -0.28862177275E+02  0.20849283123E+01 -0.53513620049E+02  0.60836500013E+02  0.00000000000E+00 0.  1.
<scales pt_clust_5="13000.00000" pt_clust_6="13000.00000" pt_clust_7="13000.00000" pt_clust_8="13000.00000" pt_clust_9="28.93738"></scales>
<clustering>
<clus scale="   28.937">  2  9  1 -1</clus>
<clus scale="   80.961">  5  6 -1 -1</clus>
<clus scale="   85.281">  1  5  2 -1</clus>
<clus scale="   87.906">  7  8 -1 -1</clus>
<clus scale="   28.937">  2  5  1 -1</clus>
</clustering>
</event>
<event>
 9    2  0.1751298E-004  0.1144318E+03  0.7546771E-02  0.1255285E+00
          2   -1    0    0  502    0 -0.00000000000E+00  0.00000000000E+00  0.23284043447E+03  0.23284043447E+03  0.00000000000E+00 0. -1.
         21   -1    0    0  501  502  0.00000000000E+00 -0.00000000000E+00 -0.71283624273E+02  0.71283624273E+02  0.00000000000E+00 0.  1.
         23    2    1    2    0    0 -0.15181635702E+02  0.63054850542E+02  0.54732742298E+02  0.12231339027E+03  0.88082325817E+02 0.  0.
         24    2    1    2    0    0  0.43968318101E+02 -0.70048395844E+02  0.70873237601E+02  0.13522692712E+03  0.80145587852E+02 0.  0.
        -13    1    4    4    0    0 -0.38845255902E+01 -0.42574253977E+02 -0.31882989749E+01  0.42869824949E+02  0.00000000000E+00 0.  1.
         14    1    4    4    0    0  0.47852843692E+02 -0.27474141867E+02  0.74061536576E+02  0.92357102167E+02  0.00000000000E+00 0. -1.
        -11    1    3    3    0    0  0.35597183330E+02  0.35246302181E+02  0.15729027028E+02  0.52505843196E+02  0.00000000000E+00 0.  1.
         11    1    3    3    0    0 -0.50778819032E+02  0.27808548360E+02  0.39003715270E+02  0.69807547078E+02  0.00000000000E+00 0. -1.
          1    1    1    2  501    0 -0.28786682399E+02  0.69935453024E+01  0.35950830301E+02  0.46583741357E+02  0.00000000000E+00 0. -1.
<scales pt_clust_5="13000.00000" pt_clust_6="13000.00000" pt_clust_7="13000.00000" pt_clust_8="13000.00000" pt_clust_9="29.62404"></scales>
<clustering>
<clus scale="   29.624">  2  9  1 -1</clus>
<clus scale="   80.146">  5  6 -1 -1</clus>
<clus scale="   88.082">  7  8 -1 -1</clus>
<clus scale="  108.441">  2  5  1 -1</clus>
<clus scale="   29.624">  2  5  1 -1</clus>
</clustering>
</event>
<event>
 9    2  0.1751298E-004  0.1018287E+03  0.7546771E-02  0.1282989E+00
         21   -1    0    0  501  502  0.00000000000E+00  0.00000000000E+00  0.27574324230E+02  0.27574324230E+02  0.00000000000E+00 0.  1.
          2   -1    0    0  502    0 -0.00000000000E+00 -0.00000000000E+00 -0.10897242488E+04  0.10897242488E+04  0.00000000000E+00 0. -1.
         23    2    1    2    0    0 -0.38102337357E+02 -0.89994657417E+01 -0.51938003217E+03  0.52960973961E+03  0.95906621138E+02 0.  0.
         24    2    1    2    0    0  0.16404126115E+02 -0.66711008378E+02 -0.13727568307E+03  0.17461687594E+03  0.83228517984E+02 0.  0.
        -13    1    4    4    0    0 -0.48349146996E+01 -0.21874947194E+02  0.58352294171E+01  0.23150369700E+02  0.00000000000E+00 0.  1.
         14    1    4    4    0    0  0.21239040815E+02 -0.44836061183E+02 -0.14311091249E+03  0.15146650624E+03  0.00000000000E+00 0. -1.
        -11    1    3    3    0    0 -0.64713674963E+02  0.16137041409E+02 -0.35380670462E+03  0.36003812030E+03  0.00000000000E+00 0. -1.
         11    1    3    3    0    0  0.26611337606E+02 -0.25136507150E+02 -0.16557332755E+03  0.16957161931E+03  0.00000000000E+00 0.  1.
          1    1    1    2  501    0  0.21698211242E+02  0.75710474119E+02 -0.40549420933E+03  0.41307195748E+03  0.00000000000E+00 0. -1.
<scales pt_clust_5="13000.00000" pt_clust_6="13000.00000" pt_clust_7="13000.00000" pt_clust_8="13000.00000" pt_clust_9="78.75846"></scales>
<clustering>
<clus scale="   78.758">  1  9  2 -1</clus>
<clus scale="   83.229">  5  6 -1 -1</clus>
<clus scale="   89.989">  1  5  2 -1</clus>
<clus scale="   95.907">  7  8 -1 -1</clus>
<clus scale="   78.758">  1  5  2 -1</clus>
</clustering>
</event>
<event>
 9    2  0.1751298E-004  0.1238710E+03  0.7546771E-02  0.1240115E+00
         -3   -1    0    0    0  501 -0.00000000000E+00  0.00000000000E+00  0.99950757361E+02  0.99950757361E+02  0.00000000000E+00 0.  1.
         21   -1    0    0  501  502  0.00000000000E+00 -0.00000000000E+00 -0.45066113153E+03  0.45066113153E+03  0.00000000000E+00 0.  1.
         24    2    1    2    0    0 -0.49350916415E+02  0.93355981324E+02 -0.50416028432E+01  0.13237403940E+03  0.79665653506E+02 0.  0.
         23    2    1    2    0    0  0.74580199125E+02  0.19826584127E+02 -0.16539719677E+03  0.20389081680E+03  0.90884173196E+02 0.  0.
        -11    1    3    3    0    0 -0.17487431435E+02  0.78789256849E+02 -0.33355662057E+02  0.87327873238E+02  0.00000000000E+00 0.  1.
         12    1    3    3    0    0 -0.31863484980E+02  0.14566724475E+02  0.28314059214E+02  0.45046166165E+02  0.00000000000E+00 0. -1.
        -11    1    4    4    0    0  0.84167270129E+02 -0.12589096647E+02 -0.11144324614E+03  0.14022200906E+03  0.00000000000E+00 0.  1.
         11    1    4    4    0    0 -0.95870710044E+01  0.32415680774E+02 -0.53953950631E+02  0.63668807741E+02  0.00000000000E+00 0. -1.
         -4    1    1    2    0  502 -0.25229282710E+02 -0.11318256545E+03 -0.18027157456E+03  0.21434703269E+03  0.00000000000E+00 0.  1.
<scales pt_clust_5="13000.00000" pt_clust_6="13000.00000" pt_clust_7="13000.00000" pt_clust_8="13000.00000" pt_clust_9="115.96038"></scales>
<clustering>
<clus scale="   79.666">  5  6 -1 -1</clus>
<clus scale="   90.884">  7  8 -1 -1</clus>
<clus scale="  115.960">  2  9  1 -1</clus>
<clus scale="  115.891">  1  5  2 -1</clus>
<clus scale="  115.960">  2  5  1 -1</clus>
</clustering>
</event>
<event>
 9    2  0.1751298E-004  0.2631873E+03  0.7546771E-02  0.1105628E+00
         21   -1    0    0  501  502  0.00000000000E+00  0.00000000000E+00  0.12740003176E+03  0.12740003176E+03  0.00000000000E+00 0. -1.
         -3   -1    0    0    0  501 -0.00000000000E+00 -0.00000000000E+00 -0.74344264798E+03  0.74344264798E+03  0.00000000000E+00 0.  1.
         24    2    1    2    0    0 -0.28238649863E+03  0.31684703688E+01 -0.41725690713E+03  0.50957960851E+03  0.76261897766E+02 0.  0.
         23    2    1    2    0    0  0.20344635144E+03 -0.10979124123E+02 -0.12884531309E+03  0.25550763570E+03  0.84688122627E+02 0.  0.
        -13    1    3    3    0    0 -0.17086434357E+03  0.27659024942E+02 -0.29696840194E+03  0.34372936639E+03  0.00000000000E+00 0.  1.
         14    1    3    3    0    0 -0.11152215507E+03 -0.24490554573E+02 -0.12028850519E+03  0.16585024213E+03  0.00000000000E+00 0. -1.
        -13    1    4    4    0    0  0.75466996747E+02  0.57759268511E+01 -0.96137833422E+02  0.12235649531E+03  0.00000000000E+00 0.  1.
         13    1    4    4    0    0  0.12797935469E+03 -0.16755050974E+02 -0.32707479665E+02  0.13315114039E+03  0.00000000000E+00 0. -1.
         -4    1    1    2    0  502  0.78940147193E+02  0.78106537539E+01 -0.69940396003E+02  0.10575543553E+03  0.00000000000E+00 0.  1.
<scales pt_clust_5="13000.00000" pt_clust_6="13000.00000" pt_clust_7="13000.00000" pt_clust_8="13000.00000" pt_clust_9="79.32561"></scales>
<clustering>
<clus scale="   76.262">  5  6 -1 -1</clus>
<clus scale="   79.326">  1  9  2 -1</clus>
<clus scale="   84.688">  7  8 -1 -1</clus>
<clus scale="  260.598">  2  5  1 -1</clus>
<clus scale="   79.326">  1  5  2 -1</clus>
</clustering>
</event>
<event>
 9    2  0.1751298E-004  0.2005145E+03  0.7546771E-02  0.1174323E+00
         21   -1    0    0  501  502  0.00000000000E+00  0.00000000000E+00  0.68181165990E+03  0.68181165990E+03  0.00000000000E+00 0. -1.
          2   -1    0    0  502    0 -0.00000000000E+00 -0.00000000000E+00 -0.11059658878E+03  0.11059658878E+03  0.00000000000E+00 0. -1.
         23    2    1    2    0    0 -0.64042647919E+02  0.11780676635E+02  0.20158740026E+03  0.23070921125E+03  0.91372945234E+02 0.  0.
         24    2    1    2    0    0  0.20112930874E+03  0.88532248301E+02  0.13060516652E+03  0.26846330791E+03  0.81999270419E+02 0.  0.
        -11    1    4    4    0    0  0.80979727247E+02  0.39282645307E+02  0.10099095035E+03  0.13527754618E+03  0.00000000000E+00 0.  1.
         12    1    4    4    0    0  0.12014958150E+03  0.49249602993E+02  0.29614216161E+02  0.13318576173E+03  0.00000000000E+00 0. -1.
        -13    1    3    3    0    0 -0.45109616507E+01  0.22930808271E+02  0.35764723964E+01  0.23642375045E+02  0.00000000000E+00 0.  1.
         13    1    3    3    0    0 -0.59531686268E+02 -0.11150131636E+02  0.19801092786E+03  0.20706683621E+03  0.00000000000E+00 0. -1.
          1    1    1    2  501    0 -0.13708666082E+03 -0.10031292494E+03  0.23902250434E+03  0.29323572952E+03  0.00000000000E+00 0. -1.
<scales pt_clust_5="13000.00000" pt_clust_6="13000.00000" pt_clust_7="13000.00000" pt_clust_8="13000.00000" pt_clust_9="182.98142"></scales>
<clustering>
<clus scale="   81.999">  5  6 -1 -1</clus>
<clus scale="   91.373">  7  8 -1 -1</clus>
<clus scale="  112.202">  2  7  1 -1</clus>
<clus scale="  182.981">  1  9  2 -1</clus>
<clus scale="  182.981">  1  5  2 -1</clus>
</clustering>
</event>
<event>
 9    2  0.1751298E-004  0.2955604E+03  0.7546771E-02  0.1087742E+00
         21   -1    0    0  501  502  0.00000000000E+00  0.00000000000E+00  0.13462965692E+03  0.13462965692E+03  0.00000000000E+00 0.  1.
          2   -1    0    0  502    0 -0.00000000000E+00 -0.00000000000E+00 -0.14412589019E+04  0.14412589019E+04  0.00000000000E+00 0. -1.
         24    2    1    2    0    0  0.73492677475E+02  0.24307225330E+03 -0.55709039896E+03  0.61783394508E+03  0.82968530864E+02 0.  0.
         23    2    1    2    0    0 -0.19249007123E+02 -0.37335314236E+03 -0.30240591310E+03  0.48918006171E+03  0.89914978261E+02 0.  0.
        -13    1    3    3    0    0  0.21719833505E+02  0.13248834739E+02 -0.10507606669E+03  0.10811226841E+03  0.00000000000E+00 0.  1.
         14    1    3    3    0    0  0.51772843970E+02  0.22982341856E+03 -0.45201433227E+03  0.50972167667E+03  0.00000000000E+00 0. -1.
        -11    1    4    4    0    0 -0.37141115296E+02 -0.30111768131E+03 -0.20318074252E+03  0.36514892109E+03  0.00000000000E+00 0.  1.
         11    1    4    4    0    0  0.17892108174E+02 -0.72235461054E+02 -0.99225170577E+02  0.12403114062E+03  0.00000000000E+00 0. -1.
          1    1    1    2  501    0 -0.54243670352E+02  0.13028088906E+03 -0.44713293288E+03  0.46887455198E+03  0.00000000000E+00 0. -1.
<scales pt_clust_5="13000.00000" pt_clust_6="13000.00000" pt_clust_7="13000.00000" pt_clust_8="13000.00000" pt_clust_9="141.12231"></scales>
<clustering>
<clus scale="   82.969">  5  6 -1 -1</clus>
<clus scale="   89.915">  7  8 -1 -1</clus>
<clus scale="  141.122">  1  9  2 -1</clus>
<clus scale="  293.522">  2  5  1 -1</clus>
<clus scale="  141.122">  1  5  2 -1</clus>
</clustering>
</event>
<event>
 9    2  0.1751298E-004  0.1777690E+03  0.7546771E-02  0.1200307E+00
         -3   -1    0    0    0  501 -0.00000000000E+00  0.00000000000E+00  0.22369707643E+03  0.22369707643E+03  0.00000000000E+00 0.  1.
         21   -1    0    0  501  502  0.00000000000E+00 -0.00000000000E+00 -0.87112886507E+03  0.87112886507E+03  0.00000000000E+00 0.  1.
         23    2    1    2    0    0  0.90142878388E+00  0.25529012878E+02  0.14370569562E+03  0.16979646996E+03  0.86758118839E+02 0.  0.
         24    2    1    2    0    0  0.15818542633E+03  0.71070123089E+00 -0.74960014737E+02  0.19092640118E+03  0.76228293026E+02 0.  0.
        -13    1    4    4    0    0  0.14162792555E+03 -0.24475313803E+02 -0.71672531166E+02  0.16060654409E+03  0.00000000000E+00 0.  1.
         14    1    4    4    0    0  0.16557500774E+02  0.25186015034E+02 -0.32874835715E+01  0.30319857080E+02  0.00000000000E+00 0. -1.
        -13    1    3    3    0    0  0.15132621045E+02 -0.18478737123E+02  0.11000835834E+03  0.11257130563E+03  0.00000000000E+00 0.  1.
         13    1    3    3    0    0 -0.14231192261E+02  0.44007750000E+02  0.33697337277E+02  0.57225164332E+02  0.00000000000E+00 0. -1.
         -4    1    1    2    0  502 -0.15908685511E+03 -0.26239714108E+02 -0.71617746953E+03  0.73410307037E+03  0.00000000000E+00 0.  1.
<scales pt_clust_5="13000.00000" pt_clust_6="13000.00000" pt_clust_7="13000.00000" pt_clust_8="13000.00000" pt_clust_9="160.59602"></scales>
<clustering>
<clus scale="   76.228">  5  6 -1 -1</clus>
<clus scale="   86.758">  7  8 -1 -1</clus>
<clus scale="   90.441">  1  7  2 -1</clus>
<clus scale="  160.596">  2  9  1 -1</clus>
<clus scale="  160.596">  2  5  1 -1</clus>
</clustering>
</event>
<event>
 9    2  0.1751298E-004  0.1034906E+03  0.7546771E-02  0.1277913E+00
          4   -1    0    0  502    0 -0.00000000000E+00  0.00000000000E+00  0.17933001548E+03  0.17933001548E+03  0.00000000000E+00 0. -1.
         21   -1    0    0  501  502  0.00000000000E+00 -0.00000000000E+00 -0.14060310047E+03  0.14060310047E+03  0.00000000000E+00 0. -1.
         24    2    1    2    0    0  0.35990057213E+01 -0.55791372202E+02  0.12153446540E+03  0.15637612263E+03  0.80976758352E+02 0.  0.
         23    2    1    2    0    0  0.12174868101E+02  0.21215869359E+02 -0.31532584375E+02  0.99733779427E+02  0.91401216379E+02 0.  0.
        -13    1    3    3    0    0 -0.49085451812E+01 -0.56550717855E+02  0.29547056216E+02  0.63993015531E+02  0.00000000000E+00 0.  1.
         14    1    3    3    0    0  0.85075509025E+01  0.75934565249E+00  0.91987409186E+02  0.92383107097E+02  0.00000000000E+00 0. -1.
        -11    1    4    4    0    0 -0.22098418559E+02 -0.26463082693E+02 -0.20112951302E+02  0.39914479308E+02  0.00000000000E+00 0. -1.
         11    1    4    4    0    0  0.34273286659E+02  0.47678952052E+02 -0.11419633073E+02  0.59819300119E+02  0.00000000000E+00 0.  1.
          3    1    1    2  501    0 -0.15773873822E+02  0.34575502843E+02 -0.51274966015E+02  0.63823213896E+02  0.00000000000E+00 0. -1.
<scales pt_clust_5="13000.00000" pt_clust_6="13000.00000" pt_clust_7="13000.00000" pt_clust_8="13000.00000" pt_clust_9="38.00369"></scales>
<clustering>
<clus scale="   38.004">  2  9  1 -1</clus>
<clus scale="   80.977">  5  6 -1 -1</clus>
<clus scale="   91.401">  7  8 -1 -1</clus>
<clus scale="   94.411">  1  5  2 -1</clus>
<clus scale="   38.004">  2  5  1 -1</clus>
</clustering>
</event>
<event>
 9    2  0.1751298E-004  0.1128790E+03  0.7546771E-02  0.1260616E+00
         -3   -1    0    0    0  501 -0.00000000000E+00  0.00000000000E+00  0.30092760264E+02  0.30092760264E+02  0.00000000000E+00 0.  1.
         21   -1    0    0  501  502  0.00000000000E+00 -0.00000000000E+00 -0.90861348028E+03  0.90861348028E+03  0.00000000000E+00 0.  1.
         24    2    1    2    0    0 -0.34638395154E+02 -0.33429531117E+02 -0.14009510446E+03  0.16790704546E+03  0.79049260932E+02 0.  0.
         23    2    1    2    0    0  0.42581945952E+02  0.99098366244E+02 -0.36955588295E+03  0.39604544188E+03  0.92987811537E+02 0.  0.
        -13    1    3    3    0    0 -0.38437677838E+02  0.16174016308E+02 -0.76901431674E+02  0.87480764026E+02  0.00000000000E+00 0.  1.
         14    1    3    3    0    0  0.37992826836E+01 -0.49603547425E+02 -0.63193672785E+02  0.80426281439E+02  0.00000000000E+00 0. -1.
        -13    1    4    4    0    0 -0.23703977742E+02  0.42419442498E+02 -0.19435111891E+03  0.20033383410E+03  0.00000000000E+00 0. -1.
         13    1    4    4    0    0  0.66285923694E+02  0.56678923746E+02 -0.17520476404E+03  0.19571160778E+03  0.00000000000E+00 0.  1.
         -4    1    1    2    0  502 -0.79435507984E+01 -0.65668835126E+02 -0.36886973261E+03  0.37475375320E+03  0.00000000000E+00 0.  1.
<scales pt_clust_5="13000.00000" pt_clust_6="13000.00000" pt_clust_7="13000.00000" pt_clust_8="13000.00000" pt_clust_9="66.14753"></scales>
<clustering>
<clus scale="   66.148">  2  9  1 -1</clus>
<clus scale="   79.049">  5  6 -1 -1</clus>
<clus scale="   92.988">  7  8 -1 -1</clus>
<clus scale="  101.704">  1  5  2 -1</clus>
<clus scale="   66.148">  2  5  1 -1</clus>
</clustering>
</event>
<event>
 9    2  0.1751298E-004  0.1442254E+03  0.7546771E-02  0.1209950E+00
         21   -1    0    0  501  502  0.00000000000E+00  0.00000000000E+00  0.50982509544E+02  0.50982509544E+02  0.00000000000E+00 0. -1.
          2   -1    0    0  502    0 -0.00000000000E+00 -0.00000000000E+00 -0.73263519200E+03  0.73263519200E+03  0.00000000000E+00 0. -1.
         23    2    1    2    0    0 -0.10873817351E+03 -0.15862610122E+02 -0.51098975355E+03  0.53042213162E+03  0.90341002315E+02 0.  0.
         24    2    1    2    0    0  0.11893885877E+03  0.33951219466E+02 -0.95596494020E+02  0.17530961860E+03  0.79345039381E+02 0.  0.
        -13    1    4    4    0    0  0.49602417752E+02 -0.25112715094E+02 -0.31108841733E+02  0.63708777576E+02  0.00000000000E+00 0.  1.
         14    1    4    4    0    0  0.69336441021E+02  0.59063934560E+02 -0.64487652287E+02  0.11160084102E+03  0.00000000000E+00 0. -1.
        -13    1    3    3    0    0 -0.12052833187E+02  0.19189422233E+02 -0.25305030271E+02  0.33968356900E+02  0.00000000000E+00 0.  1.
         13    1    3    3    0    0 -0.96685340325E+02 -0.35052032355E+02 -0.48568472328E+03  0.49645377472E+03  0.00000000000E+00 0. -1.
          1    1    1    2  501    0 -0.10200685261E+02 -0.18088609344E+02 -0.75066434883E+02  0.77885951325E+02  0.00000000000E+00 0. -1.
<scales pt_clust_5="13000.00000" pt_clust_6="13000.00000" pt_clust_7="13000.00000" pt_clust_8="13000.00000" pt_clust_9="20.76661"></scales>
<clustering>
<clus scale="   20.767">  1  9  2 -1</clus>
<clus scale="   79.345">  5  6 -1 -1</clus>
<clus scale="   90.341">  7  8 -1 -1</clus>
<clus scale="  137.605">  1  5  2 -1</clus>
<clus scale="   20.767">  1  5  2 -1</clus>
</clustering>
</event>
<event>
 9    2  0.1751298E-004  0.1079187E+03  0.7546771E-02  0.1268567E+00
          2   -1    0    0  502    0 -0.00000000000E+00  0.00000000000E+00  0.62956686126E+02  0.62956686126E+02  0.00000000000E+00 0. -1.
         21   -1    0    0  501  502  0.00000000000E+00 -0.00000000000E+00 -0.24283408334E+03  0.24283408334E+03  0.00000000000E+00 0.  1.
         23    2    1    2    0    0  0.25807738038E+02  0.39009338275E+02 -0.57316516625E+02  0.11749832259E+03  0.91284746361E+02 0.  0.
         24    2    1    2    0    0 -0.57899549688E+02 -0.46237264447E+02 -0.95180137329E+02  0.14549253574E+03  0.81354636844E+02 0.  0.
        -11    1    4    4    0    0 -0.45665730959E+02 -0.29105874204E+02 -0.10802050754E+03  0.12083435333E+03  0.00000000000E+00 0.  1.
         12    1    4    4    0    0 -0.12233818729E+02 -0.17131390243E+02  0.12840370208E+02  0.24658182403E+02  0.00000000000E+00 0. -1.
        -13    1    3    3    0    0  0.34894478427E+02  0.65072312187E+02 -0.49200135361E+02  0.88728145239E+02  0.00000000000E+00 0. -1.
         13    1    3    3    0    0 -0.90867403897E+01 -0.26062973911E+02 -0.81163812645E+01  0.28770177352E+02  0.00000000000E+00 0.  1.
          1    1    1    2  501    0  0.32091811650E+02  0.72279261713E+01 -0.27380743256E+02  0.42799911133E+02  0.00000000000E+00 0. -1.
<scales pt_clust_5="13000.00000" pt_clust_6="13000.00000" pt_clust_7="13000.00000" pt_clust_8="13000.00000" pt_clust_9="32.89570"></scales>
<clustering>
<clus scale="   32.896">  2  9  1 -1</clus>
<clus scale="   81.355">  5  6 -1 -1</clus>
<clus scale="   91.285">  7  8 -1 -1</clus>
<clus scale="   99.660">  2  5  1 -1</clus>
<clus scale="   32.896">  2  5  1 -1</clus>
</clustering>
</event>
<event>
 9    2  0.1751298E-004  0.2723255E+03  0.7546771E-02  0.1100451E+00
         21   -1    0    0  501  502  0.00000000000E+00  0.00000000000E+00  0.10198736432E+03  0.10198736432E+03  0.00000000000E+00 0. -1.
          2   -1    0    0  502    0 -0.00000000000E+00 -0.00000000000E+00 -0.12725291291E+04  0.12725291291E+04  0.00000000000E+00 0. -1.
         23    2    1    2    0    0  0.23038167797E+03  0.15309233656E+03 -0.88766910048E+03  0.93428579149E+03  0.91763430446E+02 0.  0.
         24    2    1    2    0    0 -0.21412639010E+03 -0.52552982074E+02 -0.20944807313E+03  0.31467765827E+03  0.80880197905E+02 0.  0.
        -11    1    4    4    0    0 -0.31867491762E+02 -0.34609652929E+02 -0.70662582637E+02  0.84891493638E+02  0.00000000000E+00 0.  1.
         12    1    4    4    0    0 -0.18225889834E+03 -0.17943329145E+02 -0.13878549049E+03  0.22978616463E+03  0.00000000000E+00 0. -1.
        -13    1    3    3    0    0  0.37831750254E+02  0.31737933802E+02 -0.70931495326E+02  0.86428090333E+02  0.00000000000E+00 0.  1.
         13    1    3    3    0    0  0.19254992772E+03  0.12135440275E+03 -0.81673760516E+03  0.84785770116E+03  0.00000000000E+00 0. -1.
          1    1    1    2  501    0 -0.16255287872E+02 -0.10053935448E+03 -0.73424591170E+02  0.12555304366E+03  0.00000000000E+00 0. -1.
<scales pt_clust_5="13000.00000" pt_clust_6="13000.00000" pt_clust_7="13000.00000" pt_clust_8="13000.00000" pt_clust_9="101.84496"></scales>
<clustering>
<clus scale="   80.880">  5  6 -1 -1</clus>
<clus scale="   91.763">  7  8 -1 -1</clus>
<clus scale="  101.845">  1  9  2 -1</clus>
<clus scale="  268.854">  1  5  2 -1</clus>
<clus scale="  101.845">  1  5  2 -1</clus>
</clustering>
</event>
<event>
 9    2  0.1751298E-004  0.1475891E+03  0.7546771E-02  0.1206508E+00
          2   -1    0    0  502    0 -0.00000000000E+00  0.00000000000E+00  0.10301223231E+04  0.10301223231E+04  0.00000000000E+00 0. -1.
         21   -1    0    0  501  502  0.00000000000E+00 -0.00000000000E+00 -0.49583769422E+02  0.49583769422E+02  0.00000000000E+00 0. -1.
         23    2    1    2    0    0 -0.86188597019E+02 -0.56291005836E+02  0.17798171623E+03  0.22535736841E+03  0.92256710262E+02 0.  0.
         24    2    1    2    0    0 -0.52569365478E+02  0.10018424045E+03  0.49638791525E+03  0.51535049828E+03  0.79904652203E+02 0.  0.
        -13    1    4    4    0    0  0.20390061612E+02  0.23617239835E+02  0.14845027228E+03  0.15169380993E+03  0.00000000000E+00 0.  1.
         14    1    4    4    0    0 -0.72959427090E+02  0.76567000617E+02  0.34793764297E+03  0.36365668835E+03  0.00000000000E+00 0. -1.
        -11    1    3    3    0    0  0.39032270878E+01 -0.35277892979E+02  0.93754962874E+02  0.10024848118E+03  0.00000000000E+00 0.  1.
         11    1    3    3    0    0 -0.90091824107E+02 -0.21013112857E+02  0.84226753358E+02  0.12510888723E+03  0.00000000000E+00 0. -1.
          1    1    1    2  501    0  0.13875796250E+03 -0.43893234616E+02  0.30616892215E+03  0.33899822579E+03  0.00000000000E+00 0. -1.
<scales pt_clust_5="13000.00000" pt_clust_6="13000.00000" pt_clust_7="13000.00000" pt_clust_8="13000.00000" pt_clust_9="124.08777"></scales>
<clustering>
<clus scale="   79.905">  5  6 -1 -1</clus>
<clus scale="   92.257">  7  8 -1 -1</clus>
<clus scale="  138.233">  1  7  2 -1</clus>
<clus scale="  124.088">  2  9  1 -1</clus>
<clus scale="  124.088">  2  5  1 -1</clus>
</clustering>
</event>
<event>
 9    2  0.1751298E-004  0.1409349E+03  0.7546771E-02  0.1239229E+00
         21   -1    0    0  501  502  0.00000000000E+00  0.00000000000E+00  0.62850221853E+02  0.62850221853E+02  0.00000000000E+00 0. -1.
          2   -1    0    0  502    0 -0.00000000000E+00 -0.00000000000E+00 -0.44684141590E+03  0.44684141590E+03  0.00000000000E+00 0. -1.
         24    2    1    2    0    0 -0.50344993668E+01 -0.60463425635E+01 -0.52162530213E+02  0.95601645966E+02  0.79729798137E+02 0.  0.
         23    2    1    2    0    0 -0.66442645851E+02  0.84137251592E+02 -0.19912152571E+03  0.24433028847E+03  0.92488948361E+02 0.  0.
        -13    1    3    3    0    0  0.30082822406E+02  0.59516334758E+00 -0.51747633207E+02  0.59859401649E+02  0.00000000000E+00 0.  1.
         14    1    3    3    0    0 -0.35117321773E+02 -0.66415059111E+01 -0.41489700639E+00  0.35742244317E+02  0.00000000000E+00 0. -1.
        -13    1    4    4    0    0  0.10188932016E+02  0.38310813724E+02 -0.11505912600E+03  0.12169689914E+03  0.00000000000E+00 0.  1.
         13    1    4    4    0    0 -0.76631577867E+02  0.45826437868E+02 -0.84062399715E+02  0.12263338934E+03  0.00000000000E+00 0. -1.
          1    1    1    2  501    0  0.71477145218E+02 -0.78090909028E+02 -0.13270713812E+03  0.16975970331E+03  0.00000000000E+00 0. -1.
<scales pt_clust_5="13000.00000" pt_clust_6="13000.00000" pt_clust_7="13000.00000" pt_clust_8="13000.00000" pt_clust_9="106.34113"></scales>
<clustering>
<clus scale="   79.730">  5  6 -1 -1</clus>
<clus scale="   80.117">  2  5  1 -1</clus>
<clus scale="   92.489">  7  8 -1 -1</clus>
<clus scale="  106.341">  1  9  2 -1</clus>
<clus scale="  106.341">  1  5  2 -1</clus>
</clustering>
</event>
<event>
 9    2  0.1751298E-004  0.1647159E+03  0.7546771E-02  0.1184734E+00
         -1   -1    0    0    0  501 -0.00000000000E+00  0.00000000000E+00  0.20445806543E+03  0.20445806543E+03  0.00000000000E+00 0.  1.
         21   -1    0    0  501  502  0.00000000000E+00 -0.00000000000E+00 -0.29359251506E+03  0.29359251506E+03  0.00000000000E+00 0.  1.
         24    2    1    2    0    0  0.15654073404E+03  0.80870910727E+02  0.33704542999E+02  0.19794317711E+03  0.83668390284E+02 0.  0.
         23    2    1    2    0    0 -0.10583158204E+03  0.35516173139E+02 -0.46735918314E+02  0.15209034588E+03  0.92116800524E+02 0.  0.
        -13    1    3    3    0    0  0.75756175769E+02  0.67715526781E+02 -0.14983811547E+02  0.10270786407E+03  0.00000000000E+00 0.  1.
         14    1    3    3    0    0  0.80784558267E+02  0.13155383946E+02  0.48688354546E+02  0.95235313039E+02  0.00000000000E+00 0. -1.
        -11    1    4    4    0    0 -0.11782314161E+03  0.15484052267E+02 -0.27837554805E+02  0.12205317706E+03  0.00000000000E+00 0.  1.
         11    1    4    4    0    0  0.11991559569E+02  0.20032120872E+02 -0.18898363509E+02  0.30037168822E+02  0.00000000000E+00 0. -1.
         -2    1    1    2    0  502 -0.50709151995E+02 -0.11638708387E+03 -0.76103074318E+02  0.14801705749E+03  0.00000000000E+00 0.  1.
<scales pt_clust_5="13000.00000" pt_clust_6="13000.00000" pt_clust_7="13000.00000" pt_clust_8="13000.00000" pt_clust_9="126.95421"></scales>
<clustering>
<clus scale="   83.668">  5  6 -1 -1</clus>
<clus scale="   92.117">  7  8 -1 -1</clus>
<clus scale="  126.954">  2  9  1 -1</clus>
<clus scale="  160.144">  1  5  2 -1</clus>
<clus scale="  126.954">  2  5  1 -1</clus>
</clustering>
</event>
<event>
 9    2  0.1751298E-004  0.2230339E+03  0.7546771E-02  0.1132706E+00
          2   -1    0    0  502    0 -0.00000000000E+00  0.00000000000E+00  0.12976965092E+03  0.12976965092E+03  0.00000000000E+00 0. -1.
         21   -1    0    0  501  502  0.00000000000E+00 -0.00000000000E+00 -0.58857630291E+03  0.58857630291E+03  0.00000000000E+00 0. -1.
         23    2    1    2    0    0  0.66595135611E+02  0.20744732626E+03 -0.20832593363E+03  0.31488636403E+03  0.91018802267E+02 0.  0.
         24    2    1    2    0    0 -0.20414916093E+02 -0.18771891015E+03 -0.27928831098E+03  0.34556571733E+03  0.75885086255E+02 0.  0.
        -13    1    4    4    0    0  0.77819954048E+01 -0.11430178369E+03 -0.10964720201E+03  0.15858110264E+03  0.00000000000E+00 0.  1.
         14    1    4    4    0    0 -0.28196911498E+02 -0.73417126456E+02 -0.16964110898E+03  0.18698461469E+03  0.00000000000E+00 0. -1.
        -13    1    3    3    0    0 -0.16828101719E+02  0.31769590787E+02 -0.61381375903E+02  0.71134838258E+02  0.00000000000E+00 0.  1.
         13    1    3    3    0    0  0.83423237331E+02  0.17567773548E+03 -0.14694455773E+03  0.24375152577E+03  0.00000000000E+00 0. -1.
          1    1    1    2  501    0 -0.46180219518E+02 -0.19728416118E+02  0.28807592630E+02  0.57893872478E+02  0.00000000000E+00 0. -1.
<scales pt_clust_5="13000.00000" pt_clust_6="13000.00000" pt_clust_7="13000.00000" pt_clust_8="13000.00000" pt_clust_9="50.21778"></scales>
<clustering>
<clus scale="   50.218">  2  9  1 -1</clus>
<clus scale="   75.885">  5  6 -1 -1</clus>
<clus scale="   91.019">  7  8 -1 -1</clus>
<clus scale="  217.298">  2  5  1 -1</clus>
<clus scale="   50.218">  2  5  1 -1</clus>
</clustering>
</event>
<event>
 9    2  0.1751298E-004  0.9262766E+02  0.7546771E-02  0.1303456E+00
          4   -1    0    0  502    0 -0.00000000000E+00  0.00000000000E+00  0.41391457141E+03  0.41391457141E+03  0.00000000000E+00 0. -1.
         21   -1    0    0  501  502  0.00000000000E+00 -0.00000000000E+00 -0.87022925305E+02  0.87022925305E+02  0.00000000000E+00 0. -1.
         24    2    1    2    0    0 -0.14629452268E+02  0.56594637045E+01  0.32481893128E+03  0.33509351272E+03  0.80834854781E+02 0.  0.
         23    2    1    2    0    0 -0.68742620280E+01  0.23460736524E+02  0.48668879630E+02  0.10683891333E+03  0.91914263969E+02 0.  0.
        -13    1    3    3    0    0  0.22015593186E+02  0.80377799832E+01  0.30361525937E+02  0.38355110580E+02  0.00000000000E+00 0.  1.
         14    1    3    3    0    0 -0.36645045454E+02 -0.23783162788E+01  0.29445740534E+03  0.29673840214E+03  0.00000000000E+00 0. -1.
        -11    1    4    4    0    0 -0.46007118841E+01  0.58342544341E+02  0.39802649025E+02  0.70776195853E+02  0.00000000000E+00 0. -1.
         11    1    4    4    0    0 -0.22735501439E+01 -0.34881807817E+02  0.88662306049E+01  0.36062717479E+02  0.00000000000E+00 0.  1.
          3    1    1    2  501    0  0.21503714296E+02 -0.29120200228E+02 -0.46596164801E+02  0.59005070664E+02  0.00000000000E+00 0. -1.
<scales pt_clust_5="13000.00000" pt_clust_6="13000.00000" pt_clust_7="13000.00000" pt_clust_8="13000.00000" pt_clust_9="36.19939"></scales>
<clustering>
<clus scale="   36.199">  2  9  1 -1</clus>
<clus scale="   80.835">  5  6 -1 -1</clus>
<clus scale="   81.645">  1  5  2 -1</clus>
<clus scale="   91.914">  7  8 -1 -1</clus>
<clus scale="   36.199">  2  5  1 -1</clus>
</clustering>
</event>
<event>
 9    2  0.1751298E-004  0.1134744E+03  0.7546771E-02  0.1257447E+00
          2   -1    0    0  502    0 -0.00000000000E+00  0.00000000000E+00  0.11208301098E+04  0.11208301098E+04  0.00000000000E+00 0. -1.
         21   -1    0    0  501  502  0.00000000000E+00 -0.00000000000E+00 -0.19333632906E+02  0.19333632906E+02  0.00000000000E+00 0. -1.
         24    2    1    2    0    0  0.11962002637E+01  0.63049907327E+02  0.52274548973E+03  0.53303253072E+03  0.82970537305E+02 0.  0.
         23    2    1    2    0    0 -0.40957368547E+02 -0.72140384207E+02  0.28642089656E+03  0.31196944423E+03  0.91685675411E+02 0.  0.
        -13    1    3    3    0    0  0.41980287379E+02  0.28426661041E+02  0.25920843840E+03  0.26412011307E+03  0.00000000000E+00 0.  1.
         14    1    3    3    0    0 -0.40784087115E+02  0.34623246286E+02  0.26353705133E+03  0.26891241765E+03  0.00000000000E+00 0. -1.
        -13    1    4    4    0    0  0.26240790187E+02 -0.17315093411E+01  0.58804556039E+02  0.64417024188E+02  0.00000000000E+00 0.  1.
         13    1    4    4    0    0 -0.67198158734E+02 -0.70408874865E+02  0.22761634052E+03  0.24755242004E+03  0.00000000000E+00 0. -1.
          1    1    1    2  501    0  0.39761168284E+02  0.90904768795E+01  0.29233009057E+03  0.29516176772E+03  0.00000000000E+00 0. -1.
<scales pt_clust_5="13000.00000" pt_clust_6="13000.00000" pt_clust_7="13000.00000" pt_clust_8="13000.00000" pt_clust_9="40.78712"></scales>
<clustering>
<clus scale="   40.787">  2  9  1 -1</clus>
<clus scale="   82.971">  5  6 -1 -1</clus>
<clus scale="   91.686">  7  8 -1 -1</clus>
<clus scale="  106.556">  1  5  2 -1</clus>
<clus scale="   40.787">  2  5  1 -1</clus>
</clustering>
</event>
<event>
 9    2  0.1751298E-004  0.9237639E+02  0.7546771E-02  0.1303980E+00
         -3   -1    0    0    0  501 -0.00000000000E+00  0.00000000000E+00  0.36603026181E+03  0.36603026181E+03  0.00000000000E+00 0.  1.
         21   -1    0    0  501  502  0.00000000000E+00 -0.00000000000E+00 -0.15095250390E+03  0.15095250390E+03  0.00000000000E+00 0.  1.
         24    2    1    2    0    0 -0.17142898919E+02  0.10626727044E+02  0.32641193320E+03  0.33649157450E+03  0.79215044427E+02 0.  0.
         23    2    1    2    0    0  0.19735844574E+02  0.33086444298E+02 -0.79389408762E+02  0.12628756749E+03  0.90341879110E+02 0.  0.
        -11    1    3    3    0    0 -0.47114610482E+02 -0.41283396585E+01  0.21695226868E+03  0.22204755481E+03  0.00000000000E+00 0.  1.
         12    1    3    3    0    0  0.29971711563E+02  0.14755066702E+02  0.10945966452E+03  0.11444401970E+03  0.00000000000E+00 0. -1.
        -11    1    4    4    0    0  0.49949815728E+02 -0.30466383778E+01 -0.31579691146E+02  0.59173837036E+02  0.00000000000E+00 0. -1.
         11    1    4    4    0    0 -0.30213971155E+02  0.36133082676E+02 -0.47809717616E+02  0.67113730452E+02  0.00000000000E+00 0.  1.
         -4    1    1    2    0  502 -0.25929456552E+01 -0.43713171342E+02 -0.31944766533E+02  0.54203623724E+02  0.00000000000E+00 0.  1.
<scales pt_clust_5="13000.00000" pt_clust_6="13000.00000" pt_clust_7="13000.00000" pt_clust_8="13000.00000" pt_clust_9="43.79001"></scales>
<clustering>
<clus scale="   43.790">  2  9  1 -1</clus>
<clus scale="   79.215">  5  6 -1 -1</clus>
<clus scale="   81.528">  1  5  2 -1</clus>
<clus scale="   90.342">  7  8 -1 -1</clus>
<clus scale="   43.790">  2  5  1 -1</clus>
</clustering>
</event>
<event>
 9    2  0.1751298E-004  0.2503945E+03  0.7546771E-02  0.1113056E+00
         21   -1    0    0  501  502  0.00000000000E+00  0.00000000000E+00  0.41442743863E+02  0.41442743863E+02  0.00000000000E+00 0.  1.
          2   -1    0    0  502    0 -0.00000000000E+00 -0.00000000000E+00 -0.15097794805E+04  0.15097794805E+04  0.00000000000E+00 0. -1.
         24    2    1    2    0    0  0.23661010815E+02 -0.33531954881E+02 -0.17722163479E+03  0.19949822260E+03  0.81901144999E+02 0.  0.
         23    2    1    2    0    0  0.11065721616E+03 -0.71486135306E+02 -0.24172532700E+03  0.28857345508E+03  0.86534491575E+02 0.  0.
        -11    1    3    3    0    0 -0.15748588345E+02 -0.30646795238E+02 -0.14341169227E+03  0.14749290686E+03  0.00000000000E+00 0.  1.
         12    1    3    3    0    0  0.39409599160E+02 -0.28851596430E+01 -0.33809942510E+02  0.52005315735E+02  0.00000000000E+00 0. -1.
        -11    1    4    4    0    0  0.86646359678E+02 -0.73069346460E+02 -0.23879983132E+03  0.26433327538E+03  0.00000000000E+00 0.  1.
         11    1    4    4    0    0  0.24010856484E+02  0.15832111544E+01 -0.29254956846E+01  0.24240179696E+02  0.00000000000E+00 0. -1.
          1    1    1    2  501    0 -0.13431822698E+03  0.10501809019E+03 -0.10493897748E+04  0.10631505467E+04  0.00000000000E+00 0. -1.
<scales pt_clust_5="13000.00000" pt_clust_6="13000.00000" pt_clust_7="13000.00000" pt_clust_8="13000.00000" pt_clust_9="170.49990"></scales>
<clustering>
<clus scale="   81.901">  5  6 -1 -1</clus>
<clus scale="   86.534">  7  8 -1 -1</clus>
<clus scale="   88.042">  5  7 -1 -1</clus>
<clus scale="  170.500">  1  9  2 -1</clus>
<clus scale="  170.500">  1  5  2 -1</clus>
</clustering>
</event>
<event>
 9    2  0.1751298E-004  0.9437241E+02  0.7546771E-02  0.1296642E+00
          2   -1    0    0  502    0 -0.00000000000E+00  0.00000000000E+00  0.11637159161E+03  0.11637159161E+03  0.00000000000E+00 0. -1.
         21   -1    0    0  501  502  0.00000000000E+00 -0.00000000000E+00 -0.15758157729E+03  0.15758157729E+03  0.00000000000E+00 0.  1.
         23    2    1    2    0    0 -0.24502147287E+02 -0.18420537078E+02  0.27930813136E+02  0.10102544430E+03  0.92121325790E+02 0.  0.
         24    2    1    2    0    0  0.13301090212E+02 -0.38538342529E+02 -0.19076703898E+02  0.96271405575E+02  0.85100764122E+02 0.  0.
        -13    1    4    4    0    0 -0.17218983136E+02 -0.53369734653E+02 -0.25717901672E+02  0.61694670949E+02  0.00000000000E+00 0.  1.
         14    1    4    4    0    0  0.30520073348E+02  0.14831392124E+02  0.66411977740E+01  0.34576734626E+02  0.00000000000E+00 0. -1.
        -11    1    3    3    0    0  0.11509362947E+02 -0.47701313361E+02  0.23482370678E+02  0.54399471178E+02  0.00000000000E+00 0.  1.
         11    1    3    3    0    0 -0.36011510234E+02  0.29280776283E+02  0.44484424579E+01  0.46625973120E+02  0.00000000000E+00 0. -1.
          1    1    1    2  501    0  0.11201057076E+02  0.56958879606E+02 -0.50064094924E+02  0.76656319023E+02  0.00000000000E+00 0. -1.
<scales pt_clust_5="13000.00000" pt_clust_6="13000.00000" pt_clust_7="13000.00000" pt_clust_8="13000.00000" pt_clust_9="58.04979"></scales>
<clustering>
<clus scale="   58.050">  2  9  1 -1</clus>
<clus scale="   85.101">  5  6 -1 -1</clus>
<clus scale="   87.533">  2  5  1 -1</clus>
<clus scale="   92.121">  7  8 -1 -1</clus>
<clus scale="   58.050">  2  5  1 -1</clus>
</clustering>
</event>
<event>
 9    2  0.1751298E-004  0.4676343E+03  0.7546771E-02  0.1038943E+00
          2   -1    0    0  502    0 -0.00000000000E+00  0.00000000000E+00  0.41314056599E+03  0.41314056599E+03  0.00000000000E+00 0. -1.
         21   -1    0    0  501  502  0.00000000000E+00 -0.00000000000E+00 -0.13617590217E+04  0.13617590217E+04  0.00000000000E+00 0.  1.
         24    2    1    2    0    0  0.27023724432E+03  0.63963590387E+02 -0.69062639050E+02  0.29621990142E+03  0.76531514895E+02 0.  0.
         23    2    1    2    0    0  0.40330483111E+03  0.25853317748E+01 -0.63762693537E+03  0.75991875938E+03  0.90812672050E+02 0.  0.
        -11    1    3    3    0    0  0.22685330278E+03  0.81785669520E+02 -0.56962563127E+02  0.24778226393E+03  0.00000000000E+00 0.  1.
         12    1    3    3    0    0  0.43383941541E+02 -0.17822079133E+02 -0.12100075923E+02  0.48437637490E+02  0.00000000000E+00 0. -1.
        -11    1    4    4    0    0  0.20048325361E+02  0.17603113234E+02 -0.69465215325E+02  0.74412506244E+02  0.00000000000E+00 0. -1.
         11    1    4    4    0    0  0.38325650575E+03 -0.15017781459E+02 -0.56816172005E+03  0.68550625314E+03  0.00000000000E+00 0.  1.
          1    1    1    2  501    0 -0.67354207543E+03 -0.66548922162E+02 -0.24192888129E+03  0.71876092689E+03  0.00000000000E+00 0. -1.
<scales pt_clust_5="13000.00000" pt_clust_6="13000.00000" pt_clust_7="13000.00000" pt_clust_8="13000.00000" pt_clust_9="458.73202"></scales>
<clustering>
<clus scale="   76.532">  5  6 -1 -1</clus>
<clus scale="   90.813">  7  8 -1 -1</clus>
<clus scale="  288.057">  1  5  2 -1</clus>
<clus scale="  458.732">  2  9  1 -1</clus>
<clus scale="  458.732">  2  5  1 -1</clus>
</clustering>
</event>
<event>
 9    2  0.1751298E-004  0.1852914E+03  0.7546771E-02  0.1164145E+00
         21   -1    0    0  501  502  0.00000000000E+00  0.00000000000E+00  0.12747387340E+04  0.12747387340E+04  0.00000000000E+00 0.  1.
         -1   -1    0    0    0  501 -0.00000000000E+00 -0.00000000000E+00 -0.51504445406E+02  0.51504445406E+02  0.00000000000E+00 0.  1.
         23    2    1    2    0    0  0.51579454423E+01 -0.22221495382E+03  0.49217410376E+03  0.54784667368E+03  0.92165825252E+02 0.  0.
         24    2    1    2    0    0  0.16182360792E+01  0.99738726949E+02  0.50797768099E+03  0.52381420802E+03  0.79934772184E+02 0.  0.
        -13    1    4    4    0    0  0.12860354253E+02  0.10581266827E+03  0.36441767460E+03  0.37968664848E+03  0.00000000000E+00 0.  1.
         14    1    4    4    0    0 -0.11242118174E+02 -0.60739413191E+01  0.14356000639E+03  0.14412755954E+03  0.00000000000E+00 0. -1.
        -13    1    3    3    0    0 -0.25319825400E+01 -0.51978038003E+02  0.22509990795E+03  0.23103700122E+03  0.00000000000E+00 0.  1.
         13    1    3    3    0    0  0.76899279823E+01 -0.17023691581E+03  0.26707419581E+03  0.31680967246E+03  0.00000000000E+00 0. -1.
         -2    1    1    2    0  502 -0.67761815216E+01  0.12247622687E+03  0.22308250385E+03  0.25458229771E+03  0.00000000000E+00 0.  1.
<scales pt_clust_5="13000.00000" pt_clust_6="13000.00000" pt_clust_7="13000.00000" pt_clust_8="13000.00000" pt_clust_9="122.66360"></scales>
<clustering>
<clus scale="   79.935">  5  6 -1 -1</clus>
<clus scale="   92.166">  7  8 -1 -1</clus>
<clus scale="  122.664">  1  9  2 -1</clus>
<clus scale="  179.521">  1  5  2 -1</clus>
<clus scale="  122.664">  1  5  2 -1</clus>
</clustering>
</event>
<event>
 9    2  0.1751298E-004  0.1426166E+03  0.7546771E-02  0.1212836E+00
         21   -1    0    0  501  502  0.00000000000E+00  0.00000000000E+00  0.42460121668E+02  0.42460121668E+02  0.00000000000E+00 0. -1.
          2   -1    0    0  502    0 -0.00000000000E+00 -0.00000000000E+00 -0.77948931083E+03  0.77948931083E+03  0.00000000000E+00 0. -1.
         23    2    1    2    0    0 -0.51723167337E+02 -0.94812750917E+02 -0.50541053458E+03  0.52512298747E+03  0.93003224295E+02 0.  0.
         24    2    1    2    0    0  0.75258981188E+02  0.80979997060E+02 -0.23278652683E+03  0.26950166619E+03  0.78866385940E+02 0.  0.
        -13    1    4    4    0    0  0.39588175558E+02  0.87600813867E+02 -0.19326467423E+03  0.21585263617E+03  0.00000000000E+00 0.  1.
         14    1    4    4    0    0  0.35670805630E+02 -0.66208168065E+01 -0.39521852599E+02  0.53649030022E+02  0.00000000000E+00 0. -1.
        -11    1    3    3    0    0 -0.33063136306E+02 -0.11006345745E+03 -0.36516427022E+03  0.38282121140E+03  0.00000000000E+00 0. -1.
         11    1    3    3    0    0 -0.18660031032E+02  0.15250706529E+02 -0.14024626436E+03  0.14230177607E+03  0.00000000000E+00 0.  1.
          1    1    1    2  501    0 -0.23535813850E+02  0.13832753857E+02  0.11678722524E+01  0.27324778836E+02  0.00000000000E+00 0. -1.
<scales pt_clust_5="13000.00000" pt_clust_6="13000.00000" pt_clust_7="13000.00000" pt_clust_8="13000.00000" pt_clust_9="27.29981"></scales>
<clustering>
<clus scale="   27.300">  1  9  2 -1</clus>
<clus scale="   78.866">  5  6 -1 -1</clus>
<clus scale="   93.003">  7  8 -1 -1</clus>
<clus scale="  133.828">  1  5  2 -1</clus>
<clus scale="   27.300">  1  5  2 -1</clus>
</clustering>
</event>
<event>
 9    2  0.1751298E-004  0.1695015E+03  0.7546771E-02  0.1180049E+00
          2   -1    0    0  502    0 -0.00000000000E+00  0.00000000000E+00  0.21612710553E+03  0.21612710553E+03  0.00000000000E+00 0. -1.
         21   -1    0    0  501  502  0.00000000000E+00 -0.00000000000E+00 -0.37143690200E+03  0.37143690200E+03  0.00000000000E+00 0.  1.
         23    2    1    2    0    0 -0.12094339862E+03  0.28426790788E+02  0.77095790382E+02  0.17341594356E+03  0.93241302453E+02 0.  0.
         24    2    1    2    0    0  0.19792813891E+03 -0.10034666184E+03 -0.14498089060E+03  0.27724592518E+03  0.81245576337E+02 0.  0.
        -13    1    4    4    0    0  0.10588956293E+03 -0.90719800440E+02 -0.11252956056E+03  0.17918031066E+03  0.00000000000E+00 0.  1.
         14    1    4    4    0    0  0.92038575985E+02 -0.96268613993E+01 -0.32451330042E+02  0.98065614520E+02  0.00000000000E+00 0. -1.
        -13    1    3    3    0    0 -0.10898956228E+02  0.42105818502E+02  0.13292523013E+02  0.45479427950E+02  0.00000000000E+00 0.  1.
         13    1    3    3    0    0 -0.11004444239E+03 -0.13679027714E+02  0.63803267368E+02  0.12793651561E+03  0.00000000000E+00 0. -1.
          1    1    1    2  501    0 -0.76984740294E+02  0.71919871051E+02 -0.87424696253E+02  0.13690213879E+03  0.00000000000E+00 0. -1.
<scales pt_clust_5="13000.00000" pt_clust_6="13000.00000" pt_clust_7="13000.00000" pt_clust_8="13000.00000" pt_clust_9="105.35235"></scales>
<clustering>
<clus scale="   81.246">  5  6 -1 -1</clus>
<clus scale="   93.241">  7  8 -1 -1</clus>
<clus scale="  105.352">  2  9  1 -1</clus>
<clus scale="  163.210">  2  5  1 -1</clus>
<clus scale="  105.352">  2  5  1 -1</clus>
</clustering>
</event>
<event>
 9    2  0.1751298E-004  0.8738630E+02  0.7546771E-02  0.1312814E+00
         -3   -1    0    0    0  501 -0.00000000000E+00  0.00000000000E+00  0.89157138975E+02  0.89157138975E+02  0.00000000000E+00 0.  1.
         21   -1    0    0  501  502  0.00000000000E+00 -0.00000000000E+00 -0.20592840089E+03  0.20592840089E+03  0.00000000000E+00 0.  1.
         24    2    1    2    0    0 -0.49031749148E+02 -0.84975613073E+01  0.10797314422E+02  0.92872095244E+02  0.77668031413E+02 0.  0.
         23    2    1    2    0    0 -0.13269807417E+02  0.82353294003E+01 -0.37513560333E+02  0.92707925931E+02  0.83328169800E+02 0.  0.
        -11    1    3    3    0    0 -0.54703496454E+01  0.29888315978E+02 -0.87321847702E+01  0.31614667610E+02  0.00000000000E+00 0.  1.
         12    1    3    3    0    0 -0.43561399503E+02 -0.38385877285E+02  0.19529499192E+02  0.61257427634E+02  0.00000000000E+00 0. -1.
        -13    1    4    4    0    0 -0.35872667137E+02  0.57036035848E+00  0.11927134411E+02  0.37807804667E+02  0.00000000000E+00 0.  1.
         13    1    4    4    0    0  0.22602859720E+02  0.76649690418E+01 -0.49440694745E+02  0.54900121264E+02  0.00000000000E+00 0. -1.
         -4    1    1    2    0  502  0.62301556565E+02  0.26223190702E+00 -0.90055016003E+02  0.10950551869E+03  0.00000000000E+00 0.  1.
<scales pt_clust_5="13000.00000" pt_clust_6="13000.00000" pt_clust_7="13000.00000" pt_clust_8="13000.00000" pt_clust_9="62.30211"></scales>
<clustering>
<clus scale="   62.302">  2  9  1 -1</clus>
<clus scale="   77.668">  5  6 -1 -1</clus>
<clus scale="   82.007">  1  5  2 -1</clus>
<clus scale="   83.328">  7  8 -1 -1</clus>
<clus scale="   62.302">  2  5  1 -1</clus>
</clustering>
</event>
<event>
 9    2  0.1751298E-004  0.9624499E+02  0.7546771E-02  0.1299059E+00
          2   -1    0    0  502    0 -0.00000000000E+00  0.00000000000E+00  0.44521662920E+03  0.44521662920E+03  0.00000000000E+00 0. -1.
         21   -1    0    0  501  502  0.00000000000E+00 -0.00000000000E+00 -0.34580791363E+02  0.34580791363E+02  0.00000000000E+00 0.  1.
         23    2    1    2    0    0  0.44786345387E+01  0.43763630705E+01  0.13713230829E+03  0.16481419485E+03  0.91209857623E+02 0.  0.
         24    2    1    2    0    0 -0.60005150065E+02  0.52981814118E+01  0.12881814583E+03  0.15970717798E+03  0.72688233172E+02 0.  0.
        -13    1    4    4    0    0 -0.20285562615E+02  0.91979649118E+01 -0.25418857908E+01  0.22418023832E+02  0.00000000000E+00 0.  1.
         14    1    4    4    0    0 -0.39719587449E+02 -0.38997835000E+01  0.13136003162E+03  0.13728915415E+03  0.00000000000E+00 0. -1.
        -13    1    3    3    0    0  0.37526869489E+02 -0.21447222203E+02  0.39495221841E+02  0.58550165006E+02  0.00000000000E+00 0. -1.
         13    1    3    3    0    0 -0.33048234950E+02  0.25823585274E+02  0.97637086444E+02  0.10626402985E+03  0.00000000000E+00 0.  1.
          1    1    1    2  501    0  0.55526515526E+02 -0.96745444823E+01  0.14468538372E+03  0.15527604773E+03  0.00000000000E+00 0. -1.
<scales pt_clust_5="13000.00000" pt_clust_6="13000.00000" pt_clust_7="13000.00000" pt_clust_8="13000.00000" pt_clust_9="56.36305"></scales>
<clustering>
<clus scale="   56.363">  2  9  1 -1</clus>
<clus scale="   72.688">  5  6 -1 -1</clus>
<clus scale="   78.914">  2  5  1 -1</clus>
<clus scale="   91.210">  7  8 -1 -1</clus>
<clus scale="   56.363">  2  5  1 -1</clus>
</clustering>
</event>
<event>
 9    2  0.1751298E-004  0.1941218E+03  0.7546771E-02  0.1188062E+00
          2   -1    0    0  502    0 -0.00000000000E+00  0.00000000000E+00  0.40158550475E+03  0.40158550475E+03  0.00000000000E+00 0. -1.
         21   -1    0    0  501  502  0.00000000000E+00 -0.00000000000E+00 -0.14435740607E+03  0.14435740607E+03  0.00000000000E+00 0. -1.
         24    2    1    2    0    0 -0.42037346853E+02  0.14321541873E+02  0.68212052690E+02  0.11361450238E+03  0.79266171389E+02 0.  0.
         23    2    1    2    0    0  0.24275444063E+02  0.16392953351E+03  0.16901699466E+03  0.25208165224E+03  0.86696169288E+02 0.  0.
        -11    1    3    3    0    0 -0.99806766324E+01 -0.28728951759E+02  0.46826658537E+02  0.55836390687E+02  0.00000000000E+00 0.  1.
         12    1    3    3    0    0 -0.32056670220E+02  0.43050493632E+02  0.21385394152E+02  0.57778111692E+02  0.00000000000E+00 0. -1.
        -13    1    4    4    0    0  0.45389631476E+02  0.15419258062E+03  0.16096443672E+03  0.22747553814E+03  0.00000000000E+00 0. -1.
         13    1    4    4    0    0 -0.21114187413E+02  0.97369528963E+01  0.80525579438E+01  0.24606114103E+02  0.00000000000E+00 0.  1.
          1    1    1    2  501    0  0.17761902790E+02 -0.17825107539E+03  0.19999051328E+02  0.18024675620E+03  0.00000000000E+00 0. -1.
<scales pt_clust_5="13000.00000" pt_clust_6="13000.00000" pt_clust_7="13000.00000" pt_clust_8="13000.00000" pt_clust_9="173.68669"></scales>
<clustering>
<clus scale="   79.266">  5  6 -1 -1</clus>
<clus scale="   86.696">  7  8 -1 -1</clus>
<clus scale="   90.859">  1  5  2 -1</clus>
<clus scale="  173.687">  2  9  1 -1</clus>
<clus scale="  173.687">  2  5  1 -1</clus>
</clustering>
</event>
<event>
 9    2  0.1751298E-004  0.1574123E+03  0.7546771E-02  0.1220679E+00
         21   -1    0    0  501  502  0.00000000000E+00  0.00000000000E+00  0.13608161832E+03  0.13608161832E+03  0.00000000000E+00 0.  1.
          2   -1    0    0  502    0 -0.00000000000E+00 -0.00000000000E+00 -0.38953365808E+03  0.38953365808E+03  0.00000000000E+00 0. -1.
         24    2    1    2    0    0 -0.24797310548E+02  0.70131667123E+01 -0.21319369862E+03  0.22927020810E+03  0.80306812142E+02 0.  0.
         23    2    1    2    0    0  0.14526786607E+03  0.30566146319E+01 -0.40933247487E+02  0.17545250962E+03  0.89420112815E+02 0.  0.
        -13    1    3    3    0    0 -0.79125120576E+00 -0.35192480357E+02 -0.76542678526E+02  0.84249144732E+02  0.00000000000E+00 0.  1.
         14    1    3    3    0    0 -0.24006059343E+02  0.42205647069E+02 -0.13665102009E+03  0.14502106337E+03  0.00000000000E+00 0. -1.
        -13    1    4    4    0    0  0.93361031792E+02 -0.41426465349E+02 -0.21404798168E+02  0.10435803598E+03  0.00000000000E+00 0.  1.
         13    1    4    4    0    0  0.51906834280E+02  0.44483079981E+02 -0.19528449318E+02  0.71094473641E+02  0.00000000000E+00 0. -1.
          1    1    1    2  501    0 -0.12047055552E+03 -0.10069781344E+02  0.67490634407E+00  0.12089255868E+03  0.00000000000E+00 0. -1.
<scales pt_clust_5="13000.00000" pt_clust_6="13000.00000" pt_clust_7="13000.00000" pt_clust_8="13000.00000" pt_clust_9="129.54797"></scales>
<clustering>
<clus scale="   80.307">  5  6 -1 -1</clus>
<clus scale="   84.340">  2  5  1 -1</clus>
<clus scale="   89.420">  7  8 -1 -1</clus>
<clus scale="  129.548">  1  9  2 -1</clus>
<clus scale="  129.548">  1  5  2 -1</clus>
</clustering>
</event>
<event>
 9    2  0.1751298E-004  0.9427930E+02  0.7546771E-02  0.1301363E+00
         21   -1    0    0  501  502  0.00000000000E+00  0.00000000000E+00  0.56554743721E+02  0.56554743721E+02  0.00000000000E+00 0.  1.
         -3   -1    0    0    0  501 -0.00000000000E+00 -0.00000000000E+00 -0.67404977048E+03  0.67404977048E+03  0.00000000000E+00 0.  1.
         23    2    1    2    0    0  0.40236693683E+00  0.17095384746E+01 -0.44733435718E+03  0.45714054730E+03  0.94161395790E+02 0.  0.
         24    2    1    2    0    0  0.42078194768E+02  0.45571855324E+02 -0.11000590285E+02  0.10208118140E+03  0.80325501164E+02 0.  0.
        -13    1    4    4    0    0  0.54976345550E+02  0.60007472641E+02 -0.39523210683E+01  0.81479544578E+02  0.00000000000E+00 0.  1.
         14    1    4    4    0    0 -0.12898150782E+02 -0.14435617317E+02 -0.70482692168E+01  0.20601636825E+02  0.00000000000E+00 0. -1.
        -11    1    3    3    0    0  0.31834053497E+02  0.34949192100E+02 -0.26294893730E+03  0.26716473686E+03  0.00000000000E+00 0.  1.
         11    1    3    3    0    0 -0.31431686560E+02 -0.33239653625E+02 -0.18438541987E+03  0.18997581044E+03  0.00000000000E+00 0. -1.
         -4    1    1    2    0  502 -0.42480561705E+02 -0.47281393799E+02 -0.15916007930E+03  0.17138278550E+03  0.00000000000E+00 0.  1.
<scales pt_clust_5="13000.00000" pt_clust_6="13000.00000" pt_clust_7="13000.00000" pt_clust_8="13000.00000" pt_clust_9="63.56204"></scales>
<clustering>
<clus scale="   63.562">  1  9  2 -1</clus>
<clus scale="   80.326">  5  6 -1 -1</clus>
<clus scale="   80.464">  1  5  2 -1</clus>
<clus scale="   94.161">  7  8 -1 -1</clus>
<clus scale="   63.562">  1  5  2 -1</clus>
</clustering>
</event>
<event>
 9    2  0.1751298E-004  0.1564862E+03  0.7546771E-02  0.1218542E+00
          2   -1    0    0  502    0 -0.00000000000E+00  0.00000000000E+00  0.53176704361E+03  0.53176704361E+03  0.00000000000E+00 0. -1.
         21   -1    0    0  501  502  0.00000000000E+00 -0.00000000000E+00 -0.74417791821E+02  0.74417791821E+02  0.00000000000E+00 0.  1.
         24    2    1    2    0    0 -0.84136816709E+01  0.43465820084E+02  0.43587947232E+02  0.99809110994E+02  0.78114543708E+02 0.  0.
         23    2    1    2    0    0  0.10916409091E+03 -0.88541152255E+02  0.17276857344E+03  0.24130983266E+03  0.92871529449E+02 0.  0.
        -11    1    3    3    0    0 -0.21500880526E+02 -0.12639885350E+02 -0.37784373797E+01  0.25225605128E+02  0.00000000000E+00 0.  1.
         12    1    3    3    0    0  0.13087198855E+02  0.56105705434E+02  0.47366384612E+02  0.74583505866E+02  0.00000000000E+00 0. -1.
        -13    1    4    4    0    0  0.26143911331E+02  0.17537598107E+02  0.49818227456E+02  0.58931547018E+02  0.00000000000E+00 0. -1.
         13    1    4    4    0    0  0.83020179583E+02 -0.10607875036E+03  0.12295034599E+03  0.18237828565E+03  0.00000000000E+00 0.  1.
          1    1    1    2  501    0 -0.10075040924E+03  0.45075332171E+02  0.24099273111E+03  0.26506589177E+03  0.00000000000E+00 0. -1.
<scales pt_clust_5="13000.00000" pt_clust_6="13000.00000" pt_clust_7="13000.00000" pt_clust_8="13000.00000" pt_clust_9="125.94775"></scales>
<clustering>
<clus scale="   78.115">  5  6 -1 -1</clus>
<clus scale="   89.788">  1  5  2 -1</clus>
<clus scale="   92.872">  7  8 -1 -1</clus>
<clus scale="  125.948">  2  9  1 -1</clus>
<clus scale="  125.948">  2  5  1 -1</clus>
</clustering>
</event>
<event>
 9    2  0.1751298E-004  0.1023014E+03  0.7546771E-02  0.1277523E+00
         21   -1    0    0  501  502  0.00000000000E+00  0.00000000000E+00  0.39453829672E+03  0.39453829672E+03  0.00000000000E+00 0.  1.
         -1   -1    0    0    0  501 -0.00000000000E+00 -0.00000000000E+00 -0.12457634591E+03  0.12457634591E+03  0.00000000000E+00 0.  1.
         23    2    1    2    0    0  0.70465091913E+02 -0.77089446082E+01  0.11619955067E+03  0.15405085194E+03  0.72142722452E+02 0.  0.
         24    2    1    2    0    0 -0.27203770246E+02  0.92725250805E+02  0.21757282268E+03  0.25029844619E+03  0.77287526457E+02 0.  0.
        -11    1    4    4    0    0 -0.13074795067E+02  0.10440482124E+03  0.18015742830E+03  0.20863368840E+03  0.00000000000E+00 0.  1.
         12    1    4    4    0    0 -0.14128975179E+02 -0.11679570438E+02  0.37415394380E+02  0.41664757792E+02  0.00000000000E+00 0. -1.
        -11    1    3    3    0    0  0.20057586766E+02  0.12199317633E+02 -0.24556699967E+01  0.23604246497E+02  0.00000000000E+00 0.  1.
         11    1    3    3    0    0  0.50407505147E+02 -0.19908262241E+02  0.11865522066E+03  0.13044660544E+03  0.00000000000E+00 0. -1.
         -2    1    1    2    0  502 -0.43261321667E+02 -0.85016306196E+02 -0.63810422540E+02  0.11476534449E+03  0.00000000000E+00 0.  1.
<scales pt_clust_5="13000.00000" pt_clust_6="13000.00000" pt_clust_7="13000.00000" pt_clust_8="13000.00000" pt_clust_9="95.39037"></scales>
<clustering>
<clus scale="   72.143">  7  8 -1 -1</clus>
<clus scale="   77.288">  5  6 -1 -1</clus>
<clus scale="   95.390">  1  9  2 -1</clus>
<clus scale="   98.472">  2  7  1 -1</clus>
<clus scale="   95.390">  1  5  2 -1</clus>
</clustering>
</event>
<event>
 9    2  0.1751298E-004  0.1196590E+03  0.7546771E-02  0.1246205E+00
          2   -1    0    0  502    0 -0.00000000000E+00  0.00000000000E+00  0.43458892985E+03  0.43458892985E+03  0.00000000000E+00 0. -1.
         21   -1    0    0  501  502  0.00000000000E+00 -0.00000000000E+00 -0.59114188859E+02  0.59114188859E+02  0.00000000000E+00 0. -1.
         23    2    1    2    0    0 -0.58943298290E+02  0.30139807743E+02  0.20056606079E+03  0.22922948720E+03  0.89088117248E+02 0.  0.
         24    2    1    2    0    0  0.98087508559E+02 -0.61765047236E+02  0.95919491443E+02  0.17081618701E+03  0.80879790491E+02 0.  0.
        -11    1    4    4    0    0  0.11677178756E+02  0.17181212536E+02  0.29986248124E+02  0.36479112441E+02  0.00000000000E+00 0.  1.
         12    1    4    4    0    0  0.86410329802E+02 -0.78946259772E+02  0.65933243318E+02  0.13433707457E+03  0.00000000000E+00 0. -1.
        -13    1    3    3    0    0 -0.52127611414E+02 -0.15015028954E+02  0.15702971146E+03  0.16613569529E+03  0.00000000000E+00 0.  1.
         13    1    3    3    0    0 -0.68156868759E+01  0.45154836697E+02  0.43536349330E+02  0.63093791911E+02  0.00000000000E+00 0. -1.
          1    1    1    2  501    0 -0.39144210269E+02  0.31625239493E+02  0.78989188751E+02  0.93657444499E+02  0.00000000000E+00 0. -1.
<scales pt_clust_5="13000.00000" pt_clust_6="13000.00000" pt_clust_7="13000.00000" pt_clust_8="13000.00000" pt_clust_9="50.32323"></scales>
<clustering>
<clus scale="   50.323">  2  9  1 -1</clus>
<clus scale="   80.880">  5  6 -1 -1</clus>
<clus scale="   89.088">  7  8 -1 -1</clus>
<clus scale="  113.680">  2  5  1 -1</clus>
<clus scale="   50.323">  2  5  1 -1</clus>
</clustering>
</event>
<event>
 9    2  0.1751298E-004  0.9154667E+02  0.7546771E-02  0.1306066E+00
         21   -1    0    0  501  502  0.00000000000E+00  0.00000000000E+00  0.14815252816E+03  0.14815252816E+03  0.00000000000E+00 0.  1.
          2   -1    0    0  502    0 -0.00000000000E+00 -0.00000000000E+00 -0.11546385560E+03  0.11546385560E+03  0.00000000000E+00 0. -1.
         24    2    1    2    0    0  0.55624668218E+01 -0.80984783775E+01 -0.64552672981E+02  0.10317318155E+03  0.79881984280E+02 0.  0.
         23    2    1    2    0    0  0.15968991656E+02  0.22258337697E+02  0.51644569920E+02  0.10806790968E+03  0.90890424192E+02 0.  0.
        -13    1    3    3    0    0 -0.15354692128E+02  0.30697640715E+02 -0.16887963950E+02  0.38253301063E+02  0.00000000000E+00 0.  1.
         14    1    3    3    0    0  0.20917158949E+02 -0.38796119093E+02 -0.47664709031E+02  0.64919880485E+02  0.00000000000E+00 0. -1.
        -13    1    4    4    0    0  0.92924229411E+01  0.53822244138E+02  0.10227076841E+02  0.55567762137E+02  0.00000000000E+00 0. -1.
         13    1    4    4    0    0  0.66765687147E+01 -0.31563906441E+02  0.41417493079E+02  0.52500147548E+02  0.00000000000E+00 0.  1.
          1    1    1    2  501    0 -0.21531458478E+02 -0.14159859320E+02  0.45596775623E+02  0.52375292528E+02  0.00000000000E+00 0. -1.
<scales pt_clust_5="13000.00000" pt_clust_6="13000.00000" pt_clust_7="13000.00000" pt_clust_8="13000.00000" pt_clust_9="25.77024"></scales>
<clustering>
<clus scale="   25.770">  1  9  2 -1</clus>
<clus scale="   79.882">  5  6 -1 -1</clus>
<clus scale="   80.628">  2  5  1 -1</clus>
<clus scale="   90.890">  7  8 -1 -1</clus>
<clus scale="   25.770">  1  5  2 -1</clus>
</clustering>
</event>
<event>
 9    2  0.1751298E-004  0.1845869E+03  0.7546771E-02  0.1171855E+00
         -3   -1    0    0    0  501 -0.00000000000E+00  0.00000000000E+00  0.76649229482E+03  0.76649229482E+03  0.00000000000E+00 0.  1.
         21   -1    0    0  501  502  0.00000000000E+00 -0.00000000000E+00 -0.99691122388E+02  0.99691122388E+02  0.00000000000E+00 0.  1.
         24    2    1    2    0    0  0.96512130863E+02 -0.80984767953E+02  0.88360411754E+02  0.17593095588E+03  0.85270245849E+02 0.  0.
         23    2    1    2    0    0  0.13791378538E+02  0.19396788163E+03  0.38289552066E+03  0.43891605518E+03  0.90689484089E+02 0.  0.
        -13    1    3    3    0    0  0.10766695366E+03 -0.83064510350E+02  0.66663549491E+02  0.15144607826E+03  0.00000000000E+00 0.  1.
         14    1    3    3    0    0 -0.11154822794E+02  0.20797423970E+01  0.21696862263E+02  0.24484877620E+02  0.00000000000E+00 0. -1.
        -13    1    4    4    0    0  0.34131014705E+02  0.89656091862E+02  0.25606292376E+03  0.27344352597E+03  0.00000000000E+00 0.  1.
         13    1    4    4    0    0 -0.20339636167E+02  0.10431178977E+03  0.12683259690E+03  0.16547252920E+03  0.00000000000E+00 0. -1.
         -4    1    1    2    0  502 -0.11030350940E+03 -0.11298311368E+03  0.19554524001E+03  0.25133640615E+03  0.00000000000E+00 0.  1.
<scales pt_clust_5="13000.00000" pt_clust_6="13000.00000" pt_clust_7="13000.00000" pt_clust_8="13000.00000" pt_clust_9="160.77237"></scales>
<clustering>
<clus scale="   85.270">  5  6 -1 -1</clus>
<clus scale="   90.689">  7  8 -1 -1</clus>
<clus scale="  152.132">  1  5  2 -1</clus>
<clus scale="  160.772">  2  9  1 -1</clus>
<clus scale="  160.772">  2  5  1 -1</clus>
</clustering>
</event>
<event>
 9    2  0.1751298E-004  0.1346225E+03  0.7546771E-02  0.1223244E+00
          2   -1    0    0  502    0 -0.00000000000E+00  0.00000000000E+00  0.12099891382E+04  0.12099891382E+04  0.00000000000E+00 0. -1.
         21   -1    0    0  501  502  0.00000000000E+00 -0.00000000000E+00 -0.25489126076E+02  0.25489126076E+02  0.00000000000E+00 0. -1.
         24    2    1    2    0    0 -0.13473737207E+02  0.10207499159E+03  0.74628613475E+03  0.75762851479E+03  0.80356244323E+02 0.  0.
         23    2    1    2    0    0  0.40497997174E+02 -0.81931354447E+02  0.20444771754E+03  0.24166614670E+03  0.90834038959E+02 0.  0.
        -11    1    3    3    0    0 -0.24495886833E+02  0.61605653363E+02  0.22253601763E+03  0.23220160236E+03  0.00000000000E+00 0.  1.
         12    1    3    3    0    0  0.11022149626E+02  0.40469338229E+02  0.52375011712E+03  0.52542691242E+03  0.00000000000E+00 0. -1.
        -13    1    4    4    0    0  0.67427361159E+02 -0.48646098888E+02  0.15769550343E+03  0.17827160113E+03  0.00000000000E+00 0.  1.
         13    1    4    4    0    0 -0.26929363985E+02 -0.33285255559E+02  0.46752214119E+02  0.63394545564E+02  0.00000000000E+00 0. -1.
          1    1    1    2  501    0 -0.27024259967E+02 -0.20143637145E+02  0.23376615981E+03  0.23618360276E+03  0.00000000000E+00 0. -1.
<scales pt_clust_5="13000.00000" pt_clust_6="13000.00000" pt_clust_7="13000.00000" pt_clust_8="13000.00000" pt_clust_9="33.70575"></scales>
<clustering>
<clus scale="   33.706">  2  9  1 -1</clus>
<clus scale="   80.356">  5  6 -1 -1</clus>
<clus scale="   90.834">  7  8 -1 -1</clus>
<clus scale="  127.787">  1  5  2 -1</clus>
<clus scale="   33.706">  2  5  1 -1</clus>
</clustering>
</event>
<event>
 9    2  0.1751298E-004  0.1276259E+03  0.7546771E-02  0.1234408E+00
          2   -1    0    0  502    0 -0.00000000000E+00  0.00000000000E+00  0.10073578967E+04  0.10073578967E+04  0.00000000000E+00 0. -1.
         21   -1    0    0  501  502  0.00000000000E+00 -0.00000000000E+00 -0.27078465390E+02  0.27078465390E+02  0.00000000000E+00 0.  1.
         23    2    1    2    0    0  0.11590581324E+03 -0.39662477984E+02  0.52648645775E+03  0.54839589642E+03  0.92427264988E+02 0.  0.
         24    2    1    2    0    0 -0.44919115758E+02  0.29787020413E+02  0.19662043209E+03  0.21906789785E+03  0.80163308365E+02 0.  0.
        -13    1    4    4    0    0 -0.56732869009E+02  0.40491128285E+02  0.10472115562E+03  0.12579614593E+03  0.00000000000E+00 0.  1.
         14    1    4    4    0    0  0.11813753251E+02 -0.10704107872E+02  0.91899276470E+02  0.93271751924E+02  0.00000000000E+00 0. -1.
        -11    1    3    3    0    0  0.24940100266E+02 -0.62996908553E+01  0.19619833231E+02  0.32351701071E+02  0.00000000000E+00 0. -1.
         11    1    3    3    0    0  0.90965712972E+02 -0.33362787129E+02  0.50686662452E+03  0.51604419535E+03  0.00000000000E+00 0.  1.
          1    1    1    2  501    0 -0.70986697480E+02  0.98754575709E+01  0.25717254145E+03  0.26697256780E+03  0.00000000000E+00 0. -1.
<scales pt_clust_5="13000.00000" pt_clust_6="13000.00000" pt_clust_7="13000.00000" pt_clust_8="13000.00000" pt_clust_9="71.67036"></scales>
<clustering>
<clus scale="   71.670">  2  9  1 -1</clus>
<clus scale="   80.163">  5  6 -1 -1</clus>
<clus scale="   92.427">  7  8 -1 -1</clus>
<clus scale="  119.045">  2  5  1 -1</clus>
<clus scale="   71.670">  2  5  1 -1</clus>
</clustering>
</event>
<event>
 9    2  0.1751298E-004  0.9384237E+02  0.7546771E-02  0.1300859E+00
         21   -1    0    0  501  502  0.00000000000E+00  0.00000000000E+00  0.20782910779E+03  0.20782910779E+03  0.00000000000E+00 0. -1.
          2   -1    0    0  502    0 -0.00000000000E+00 -0.00000000000E+00 -0.24040960330E+03  0.24040960330E+03  0.00000000000E+00 0. -1.
         23    2    1    2    0    0  0.16674784478E+02 -0.16222614339E+02 -0.17693940074E+03  0.20039894851E+03  0.91164496246E+02 0.  0.
         24    2    1    2    0    0 -0.46759701687E+02 -0.45475087876E+02  0.14681622475E+03  0.17915390435E+03  0.79288487644E+02 0.  0.
        -11    1    4    4    0    0  0.22234452821E+02 -0.14383535416E+02  0.30563306552E+02  0.40439741477E+02  0.00000000000E+00 0.  1.
         12    1    4    4    0    0 -0.68994154508E+02 -0.31091552460E+02  0.11625291820E+03  0.13871416287E+03  0.00000000000E+00 0. -1.
        -13    1    3    3    0    0  0.12634031507E+02 -0.53817256073E+02 -0.90444586178E+02  0.10600065553E+03  0.00000000000E+00 0. -1.
         13    1    3    3    0    0  0.40407529707E+01  0.37594641734E+02 -0.86494814562E+02  0.94398292982E+02  0.00000000000E+00 0.  1.
          1    1    1    2  501    0  0.30084917209E+02  0.61697702216E+02 -0.24573195158E+01  0.68685858234E+02  0.00000000000E+00 0. -1.
<scales pt_clust_5="13000.00000" pt_clust_6="13000.00000" pt_clust_7="13000.00000" pt_clust_8="13000.00000" pt_clust_9="68.64189"></scales>
<clustering>
<clus scale="   68.642">  1  9  2 -1</clus>
<clus scale="   79.288">  5  6 -1 -1</clus>
<clus scale="   82.353">  1  5  2 -1</clus>
<clus scale="   91.164">  7  8 -1 -1</clus>
<clus scale="   68.642">  1  5  2 -1</clus>
</clustering>
</event>
<event>
 9    2  0.1751298E-004  0.1144717E+03  0.7546771E-02  0.1256190E+00
          2   -1    0    0  502    0 -0.00000000000E+00  0.00000000000E+00  0.79530005825E+03  0.79530005825E+03  0.00000000000E+00 0. -1.
         21   -1    0    0  501  502  0.00000000000E+00 -0.00000000000E+00 -0.50730906916E+02  0.50730906916E+02  0.00000000000E+00 0.  1.
         24    2    1    2    0    0  0.68367821488E+02 -0.26949708738E+02  0.66285003389E+03  0.67172470128E+03  0.80271172025E+02 0.  0.
         23    2    1    2    0    0 -0.52684466866E+02  0.47509024374E+01  0.97156094697E+02  0.14304838680E+03  0.90693495385E+02 0.  0.
        -13    1    3    3    0    0 -0.34454340739E+00  0.22077510878E+02  0.88909268459E+02  0.91610006084E+02  0.00000000000E+00 0.  1.
         14    1    3    3    0    0  0.68712364896E+02 -0.49027219616E+02  0.57394076544E+03  0.58011469520E+03  0.00000000000E+00 0. -1.
        -11    1    4    4    0    0 -0.52460569179E+02 -0.35901038587E+02  0.67549846097E+02  0.92757628247E+02  0.00000000000E+00 0.  1.
         11    1    4    4    0    0 -0.22389768663E+00  0.40651941025E+02  0.29606248600E+02  0.50290758548E+02  0.00000000000E+00 0. -1.
          1    1    1    2  501    0 -0.15683354623E+02  0.22198806301E+02 -0.15436977258E+02  0.31257877092E+02  0.00000000000E+00 0. -1.
<scales pt_clust_5="13000.00000" pt_clust_6="13000.00000" pt_clust_7="13000.00000" pt_clust_8="13000.00000" pt_clust_9="27.18004"></scales>
<clustering>
<clus scale="   27.180">  2  9  1 -1</clus>
<clus scale="   80.271">  5  6 -1 -1</clus>
<clus scale="   90.693">  7  8 -1 -1</clus>
<clus scale="  106.405">  1  5  2 -1</clus>
<clus scale="   27.180">  2  5  1 -1</clus>
</clustering>
</event>
<event>
 9    2  0.1751298E-004  0.8915941E+02  0.7546771E-02  0.1312995E+00
         21   -1    0    0  501  502  0.00000000000E+00  0.00000000000E+00  0.54644837172E+02  0.54644837172E+02  0.00000000000E+00 0.  1.
         -1   -1    0    0    0  501 -0.00000000000E+00 -0.00000000000E+00 -0.31940531888E+03  0.31940531888E+03  0.00000000000E+00 0.  1.
         24    2    1    2    0    0 -0.10584521686E+02 -0.76530312606E+01 -0.17589908689E+03  0.19198112442E+03  0.75800147594E+02 0.  0.
         23    2    1    2    0    0 -0.34822458491E+02  0.28751174604E+02 -0.87207407374E+02  0.13197251304E+03  0.88161094826E+02 0.  0.
        -11    1    3    3    0    0 -0.28750636329E+02 -0.34232880979E+02 -0.10019428357E+03  0.10971501123E+03  0.00000000000E+00 0.  1.
         12    1    3    3    0    0  0.18166114643E+02  0.26579849718E+02 -0.75704803326E+02  0.82266113187E+02  0.00000000000E+00 0. -1.
        -11    1    4    4    0    0 -0.40180862401E+02  0.55537852808E+02 -0.76267420452E+02  0.10254596150E+03  0.00000000000E+00 0.  1.
         11    1    4    4    0    0  0.53584039108E+01 -0.26786678203E+02 -0.10939986922E+02  0.29426551539E+02  0.00000000000E+00 0. -1.
         -2    1    1    2    0  502  0.45406980177E+02 -0.21098143344E+02 -0.16539874444E+01  0.50096518599E+02  0.00000000000E+00 0.  1.
<scales pt_clust_5="13000.00000" pt_clust_6="13000.00000" pt_clust_7="13000.00000" pt_clust_8="13000.00000" pt_clust_9="50.06921"></scales>
<clustering>
<clus scale="   50.069">  1  9  2 -1</clus>
<clus scale="   75.800">  5  6 -1 -1</clus>
<clus scale="   76.959">  2  5  1 -1</clus>
<clus scale="   88.161">  7  8 -1 -1</clus>
<clus scale="   50.069">  1  5  2 -1</clus>
</clustering>
</event>
<event>
 9    2  0.1751298E-004  0.2153201E+03  0.7546771E-02  0.1164379E+00
         21   -1    0    0  501  502  0.00000000000E+00  0.00000000000E+00  0.28693879719E+03  0.28693879719E+03  0.00000000000E+00 0.  1.
         -1   -1    0    0    0  501 -0.00000000000E+00 -0.00000000000E+00 -0.28754096833E+03  0.28754096833E+03  0.00000000000E+00 0.  1.
         24    2    1    2    0    0 -0.78357823452E+02 -0.21706843533E+02  0.64891415466E+02  0.13098832803E+03  0.79598434197E+02 0.  0.
         23    2    1    2    0    0  0.23021404884E+03  0.77867030468E+02 -0.85422592934E+02  0.28036128983E+03  0.11065103133E+03 0.  0.
        -13    1    3    3    0    0 -0.59999359503E+02  0.22361842566E+02  0.24866390344E+02  0.68689973886E+02  0.00000000000E+00 0.  1.
         14    1    3    3    0    0 -0.18358463949E+02 -0.44068686099E+02  0.40025025122E+02  0.62298354144E+02  0.00000000000E+00 0. -1.
        -13    1    4    4    0    0  0.20204025624E+03  0.10247902920E+03 -0.87592921448E+02  0.24288832095E+03  0.00000000000E+00 0.  1.
         13    1    4    4    0    0  0.28173792602E+02 -0.24611998727E+02  0.21703285141E+01  0.37472968881E+02  0.00000000000E+00 0. -1.
         -2    1    1    2    0  502 -0.15185622539E+03 -0.56160186935E+02  0.19929006329E+02  0.16313014767E+03  0.00000000000E+00 0.  1.
<scales pt_clust_5="13000.00000" pt_clust_6="13000.00000" pt_clust_7="13000.00000" pt_clust_8="13000.00000" pt_clust_9="184.71356"></scales>
<clustering>
<clus scale="   79.598">  5  6 -1 -1</clus>
<clus scale="  110.651">  7  8 -1 -1</clus>
<clus scale="  113.785">  2  5  1 -1</clus>
<clus scale="  184.714">  1  9  2 -1</clus>
<clus scale="  184.714">  1  5  2 -1</clus>
</clustering>
</event>
<event>
 9    2  0.1751298E-004  0.1353791E+03  0.7546771E-02  0.1222270E+00
          2   -1    0    0  502    0 -0.00000000000E+00  0.00000000000E+00  0.71738975645E+03  0.71738975645E+03  0.00000000000E+00 0. -1.
         21   -1    0    0  501  502  0.00000000000E+00 -0.00000000000E+00 -0.34583171993E+02  0.34583171993E+02  0.00000000000E+00 0. -1.
         24    2    1    2    0    0 -0.58047747927E+02 -0.73912444864E+02  0.33363253084E+03  0.35575622463E+03  0.80120129719E+02 0.  0.
         23    2    1    2    0    0  0.84630103857E+02  0.69465996904E+02  0.33846365961E+03  0.36721489204E+03  0.91111738276E+02 0.  0.
        -11    1    3    3    0    0  0.18489174330E+02 -0.13339887370E+02  0.99778524058E+02  0.10235016378E+03  0.00000000000E+00 0.  1.
         12    1    3    3    0    0 -0.76536922258E+02 -0.60572557494E+02  0.23385400678E+03  0.25340606086E+03  0.00000000000E+00 0. -1.
        -11    1    4    4    0    0  0.34979146912E-01  0.34598414458E+02  0.18766784891E+03  0.19083048242E+03  0.00000000000E+00 0.  1.
         11    1    4    4    0    0  0.84595124710E+02  0.34867582446E+02  0.15079581070E+03  0.17638440961E+03  0.00000000000E+00 0. -1.
          1    1    1    2  501    0 -0.26582355930E+02  0.44464479597E+01  0.10710394005E+02  0.29001811771E+02  0.00000000000E+00 0. -1.
<scales pt_clust_5="13000.00000" pt_clust_6="13000.00000" pt_clust_7="13000.00000" pt_clust_8="13000.00000" pt_clust_9="26.95167"></scales>
<clustering>
<clus scale="   26.952">  2  9  1 -1</clus>
<clus scale="   80.120">  5  6 -1 -1</clus>
<clus scale="   91.112">  7  8 -1 -1</clus>
<clus scale="  128.240">  1  5  2 -1</clus>
<clus scale="   26.952">  2  5  1 -1</clus>
</clustering>
</event>
<event>
 9    2  0.2112061E-004  0.2030106E+03  0.7546771E-02  0.1177273E+00
          2   -1    0    0  502    0 -0.00000000000E+00  0.00000000000E+00  0.62476153129E+03  0.62476153129E+03  0.00000000000E+00 0. -1.
         21   -1    0    0  501  502  0.00000000000E+00 -0.00000000000E+00 -0.27092136852E+03  0.27092136852E+03  0.00000000000E+00 0. -1.
         23    2    1    2    0    0 -0.34966972284E+02 -0.29262834812E+02  0.17012685350E+03  0.19791463618E+03  0.90266573456E+02 0.  0.
         24    2    1    2    0    0  0.16866290727E+03 -0.80880959336E+02 -0.19413244785E+03  0.28210773555E+03  0.83117153928E+02 0.  0.
        -11    1    4    4    0    0  0.10209446567E+03 -0.88314382652E+02 -0.15048546098E+03  0.20215979836E+03  0.00000000000E+00 0.  1.
         12    1    4    4    0    0  0.66568441600E+02  0.74334233159E+01 -0.43646986868E+02  0.79947937196E+02  0.00000000000E+00 0. -1.
        -11    1    3    3    0    0 -0.46321330450E+02  0.19773237414E+02  0.75970779144E+02  0.91149360153E+02  0.00000000000E+00 0.  1.
         11    1    3    3    0    0  0.11354358166E+02 -0.49036072225E+02  0.94156074352E+02  0.10676527603E+03  0.00000000000E+00 0. -1.
          1    1    1    2  501    0 -0.13369593499E+03  0.11014379415E+03  0.37784575713E+03  0.41566052807E+03  0.00000000000E+00 0. -1.
<scales pt_clust_5="13000.00000" pt_clust_6="13000.00000" pt_clust_7="13000.00000" pt_clust_8="13000.00000" pt_clust_9="185.21574"></scales>
<clustering>
<clus scale="   83.117">  5  6 -1 -1</clus>
<clus scale="   90.267">  7  8 -1 -1</clus>
<clus scale="  101.129">  1  7  2 -1</clus>
<clus scale="  185.216">  2  9  1 -1</clus>
<clus scale="  185.216">  2  5  1 -1</clus>
</clustering>
</event>
<event>
 9    2  0.1751298E-004  0.1643046E+03  0.7546771E-02  0.1199596E+00
         21   -1    0    0  501  502  0.00000000000E+00  0.00000000000E+00  0.14687144798E+03  0.14687144798E+03  0.00000000000E+00 0. -1.
         -1   -1    0    0    0  501 -0.00000000000E+00 -0.00000000000E+00 -0.37207502878E+03  0.37207502878E+03  0.00000000000E+00 0.  1.
         23    2    1    2    0    0 -0.69209477332E+02  0.14281125362E+02 -0.15780646875E+03  0.19604896238E+03  0.92403526854E+02 0.  0.
         24    2    1    2    0    0  0.10118972487E+03 -0.13504404602E+03 -0.15191793811E+02  0.18750248312E+03  0.80312737421E+02 0.  0.
        -13    1    4    4    0    0  0.55095532977E+02 -0.31600048089E+02 -0.35022446349E+02  0.72530356000E+02  0.00000000000E+00 0.  1.
         14    1    4    4    0    0  0.46094191893E+02 -0.10344399793E+03  0.19830652538E+02  0.11497212712E+03  0.00000000000E+00 0. -1.
        -11    1    3    3    0    0 -0.12506818917E+02  0.47650237047E+02 -0.82121487563E+02  0.95764838692E+02  0.00000000000E+00 0.  1.
         11    1    3    3    0    0 -0.56702658415E+02 -0.33369111684E+02 -0.75684981190E+02  0.10028412369E+03  0.00000000000E+00 0. -1.
         -2    1    1    2    0  502 -0.31980247538E+02  0.12076292066E+03 -0.52205318237E+02  0.13539503126E+03  0.00000000000E+00 0.  1.
<scales pt_clust_5="13000.00000" pt_clust_6="13000.00000" pt_clust_7="13000.00000" pt_clust_8="13000.00000" pt_clust_9="143.33838"></scales>
<clustering>
<clus scale="   80.313">  5  6 -1 -1</clus>
<clus scale="   92.404">  7  8 -1 -1</clus>
<clus scale="  116.328">  2  7  1 -1</clus>
<clus scale="  143.338">  1  9  2 -1</clus>
<clus scale="  143.338">  1  5  2 -1</clus>
</clustering>
</event>
<event>
 9    2  0.1751298E-004  0.9973520E+02  0.7546771E-02  0.1282305E+00
          2   -1    0    0  502    0 -0.00000000000E+00  0.00000000000E+00  0.68516004649E+02  0.68516004649E+02  0.00000000000E+00 0. -1.
         21   -1    0    0  501  502  0.00000000000E+00 -0.00000000000E+00 -0.31716202700E+03  0.31716202700E+03  0.00000000000E+00 0. -1.
         23    2    1    2    0    0  0.45409611300E+02 -0.63889855360E+02 -0.31193517496E+02  0.11892630785E+03  0.83824129865E+02 0.  0.
         24    2    1    2    0    0  0.36670907076E+00  0.26923903021E+02 -0.77759999988E+02  0.11517352928E+03  0.80580973059E+02 0.  0.
        -11    1    4    4    0    0 -0.36577465506E+02  0.21336055708E+02 -0.21121877196E+02  0.47320946232E+02  0.00000000000E+00 0.  1.
         12    1    4    4    0    0  0.36944174577E+02  0.55878473134E+01 -0.56638122792E+02  0.67852583047E+02  0.00000000000E+00 0. -1.
        -13    1    3    3    0    0 -0.22778391272E+02 -0.25129201152E+02  0.15022833091E+01  0.33949796975E+02  0.00000000000E+00 0. -1.
         13    1    3    3    0    0  0.68188002573E+02 -0.38760654208E+02 -0.32695800806E+02  0.84976510871E+02  0.00000000000E+00 0.  1.
          1    1    1    2  501    0 -0.45776320371E+02  0.36965952339E+02 -0.13969250487E+03  0.15157819452E+03  0.00000000000E+00 0. -1.
<scales pt_clust_5="13000.00000" pt_clust_6="13000.00000" pt_clust_7="13000.00000" pt_clust_8="13000.00000" pt_clust_9="58.83836"></scales>
<clustering>
<clus scale="   58.838">  2  9  1 -1</clus>
<clus scale="   80.581">  5  6 -1 -1</clus>
<clus scale="   83.824">  7  8 -1 -1</clus>
<clus scale="   97.025">  2  5  1 -1</clus>
<clus scale="   58.838">  2  5  1 -1</clus>
</clustering>
</event>
<event>
 9    2  0.1751298E-004  0.9751649E+02  0.7546771E-02  0.1291465E+00
         21   -1    0    0  501  502  0.00000000000E+00  0.00000000000E+00  0.15218171284E+03  0.15218171284E+03  0.00000000000E+00 0. -1.
          2   -1    0    0  502    0 -0.00000000000E+00 -0.00000000000E+00 -0.17285928167E+03  0.17285928167E+03  0.00000000000E+00 0. -1.
         24    2    1    2    0    0  0.17266610381E+02  0.25830404775E+02 -0.11808323849E+03  0.14650354027E+03  0.80958572448E+02 0.  0.
         23    2    1    2    0    0 -0.40525950445E+01 -0.45377260082E+02  0.29525358704E+02  0.10667351078E+03  0.91825768913E+02 0.  0.
        -13    1    3    3    0    0  0.18602214519E+02  0.45419821726E+02 -0.32903661909E+02  0.59090215414E+02  0.00000000000E+00 0.  1.
         14    1    3    3    0    0 -0.13356041387E+01 -0.19589416950E+02 -0.85179576585E+02  0.87413324854E+02  0.00000000000E+00 0. -1.
        -11    1    4    4    0    0 -0.26516209575E+02 -0.63880031848E+02  0.34265392355E+02  0.77187336735E+02  0.00000000000E+00 0.  1.
         11    1    4    4    0    0  0.22463614530E+02  0.18502771766E+02 -0.47400336513E+01  0.29486174045E+02  0.00000000000E+00 0. -1.
          1    1    1    2  501    0 -0.13214015336E+02  0.19546855306E+02  0.67880310964E+02  0.71863943465E+02  0.00000000000E+00 0. -1.
<scales pt_clust_5="13000.00000" pt_clust_6="13000.00000" pt_clust_7="13000.00000" pt_clust_8="13000.00000" pt_clust_9="23.59427"></scales>
<clustering>
<clus scale="   23.594">  1  9  2 -1</clus>
<clus scale="   80.959">  5  6 -1 -1</clus>
<clus scale="   87.360">  2  5  1 -1</clus>
<clus scale="   91.826">  7  8 -1 -1</clus>
<clus scale="   23.594">  1  5  2 -1</clus>
</clustering>
</event>
<event>
 9    2  0.1751298E-004  0.9404758E+02  0.7546771E-02  0.1298784E+00
          2   -1    0    0  502    0 -0.00000000000E+00  0.00000000000E+00  0.11392548605E+04  0.11392548605E+04  0.00000000000E+00 0. -1.
         21   -1    0    0  501  502  0.00000000000E+00 -0.00000000000E+00 -0.21610086159E+02  0.21610086159E+02  0.00000000000E+00 0.  1.
         24    2    1    2    0    0  0.20933230241E+02  0.78674456610E+01  0.92103423310E+03  0.92487523064E+03  0.81179042115E+02 0.  0.
         23    2    1    2    0    0 -0.40040106100E+02 -0.27502465422E+02  0.16169307977E+03  0.19160688352E+03  0.90603256369E+02 0.  0.
        -13    1    3    3    0    0  0.30041084496E+02 -0.18604596131E+00  0.11849395350E+03  0.12224286641E+03  0.00000000000E+00 0.  1.
         14    1    3    3    0    0 -0.91078542557E+01  0.80534916223E+01  0.80254027960E+03  0.80263236423E+03  0.00000000000E+00 0. -1.
        -11    1    4    4    0    0  0.12557334445E+02 -0.17613206269E+02  0.36617972253E+00  0.21634365510E+02  0.00000000000E+00 0. -1.
         11    1    4    4    0    0 -0.52597440545E+02 -0.98892591540E+01  0.16132690005E+03  0.16997251801E+03  0.00000000000E+00 0.  1.
          1    1    1    2  501    0  0.19106875859E+02  0.19635019761E+02  0.34917461503E+02  0.44382832536E+02  0.00000000000E+00 0. -1.
<scales pt_clust_5="13000.00000" pt_clust_6="13000.00000" pt_clust_7="13000.00000" pt_clust_8="13000.00000" pt_clust_9="27.39720"></scales>
<clustering>
<clus scale="   27.397">  2  9  1 -1</clus>
<clus scale="   81.179">  5  6 -1 -1</clus>
<clus scale="   85.006">  1  5  2 -1</clus>
<clus scale="   90.603">  7  8 -1 -1</clus>
<clus scale="   27.397">  2  5  1 -1</clus>
</clustering>
</event>
<event>
 9    2  0.1751298E-004  0.1361499E+03  0.7546771E-02  0.1241883E+00
         21   -1    0    0  501  502  0.00000000000E+00  0.00000000000E+00  0.13506873023E+03  0.13506873023E+03  0.00000000000E+00 0. -1.
          4   -1    0    0  502    0 -0.00000000000E+00 -0.00000000000E+00 -0.38230375404E+03  0.38230375404E+03  0.00000000000E+00 0. -1.
         24    2    1    2    0    0 -0.18414158342E+02  0.21980445705E+02 -0.22828372953E+03  0.24331837792E+03  0.79171653046E+02 0.  0.
         23    2    1    2    0    0 -0.85914968394E+02 -0.22186420648E+02 -0.82518629980E+02  0.15188448950E+03  0.91574859004E+02 0.  0.
        -13    1    3    3    0    0 -0.11807689332E+02  0.50548922493E+02 -0.11281480684E+03  0.12418452293E+03  0.00000000000E+00 0.  1.
         14    1    3    3    0    0 -0.66064690098E+01 -0.28568476787E+02 -0.11546892269E+03  0.11913385499E+03  0.00000000000E+00 0. -1.
        -13    1    4    4    0    0  0.74019992579E+01 -0.27206227248E+02 -0.40676749741E+02  0.49493094100E+02  0.00000000000E+00 0.  1.
         13    1    4    4    0    0 -0.93316967652E+02  0.50198066001E+01 -0.41841880238E+02  0.10239139540E+03  0.00000000000E+00 0. -1.
          3    1    1    2  501    0  0.10432912674E+03  0.20597494209E+00  0.63567335706E+02  0.12216961684E+03  0.00000000000E+00 0. -1.
<scales pt_clust_5="13000.00000" pt_clust_6="13000.00000" pt_clust_7="13000.00000" pt_clust_8="13000.00000" pt_clust_9="100.75138"></scales>
<clustering>
<clus scale="   79.172">  5  6 -1 -1</clus>
<clus scale="   84.204">  2  5  1 -1</clus>
<clus scale="   91.575">  7  8 -1 -1</clus>
<clus scale="  100.751">  1  9  2 -1</clus>
<clus scale="  100.751">  1  5  2 -1</clus>
</clustering>
</event>
<event>
 9    2  0.1751298E-004  0.1087354E+03  0.7546771E-02  0.1270881E+00
         -3   -1    0    0    0  501 -0.00000000000E+00  0.00000000000E+00  0.43650137672E+03  0.43650137672E+03  0.00000000000E+00 0.  1.
         21   -1    0    0  501  502  0.00000000000E+00 -0.00000000000E+00 -0.49350421897E+02  0.49350421897E+02  0.00000000000E+00 0. -1.
         23    2    1    2    0    0  0.33920477995E+02  0.23737215064E+02  0.27327130518E+03  0.29322160322E+03  0.97916536670E+02 0.  0.
         24    2    1    2    0    0 -0.56931802092E+02 -0.39069017066E+02  0.39051344525E+02  0.11285638744E+03  0.80274145854E+02 0.  0.
        -13    1    4    4    0    0 -0.43939222333E+02 -0.22547858174E+02  0.63610266511E+02  0.80531529062E+02  0.00000000000E+00 0.  1.
         14    1    4    4    0    0 -0.12992579758E+02 -0.16521158892E+02 -0.24558921986E+02  0.32324858376E+02  0.00000000000E+00 0. -1.
        -13    1    3    3    0    0 -0.11519242039E+02  0.51608254887E+02  0.12898014110E+03  0.13939864314E+03  0.00000000000E+00 0.  1.
         13    1    3    3    0    0  0.45439720034E+02 -0.27871039824E+02  0.14429116408E+03  0.15382296008E+03  0.00000000000E+00 0. -1.
         -4    1    1    2    0  502  0.23011324097E+02  0.15331802002E+02  0.74828305118E+02  0.79773807959E+02  0.00000000000E+00 0.  1.
<scales pt_clust_5="13000.00000" pt_clust_6="13000.00000" pt_clust_7="13000.00000" pt_clust_8="13000.00000" pt_clust_9="27.65115"></scales>
<clustering>
<clus scale="   27.651">  2  9  1 -1</clus>
<clus scale="   80.274">  5  6 -1 -1</clus>
<clus scale="   93.165">  2  5  1 -1</clus>
<clus scale="   97.917">  7  8 -1 -1</clus>
<clus scale="   27.651">  2  5  1 -1</clus>
</clustering>
</event>
<event>
 9    2  0.1751298E-004  0.9571035E+02  0.7546771E-02  0.1296721E+00
         21   -1    0    0  501  502  0.00000000000E+00  0.00000000000E+00  0.20112565425E+03  0.20112565425E+03  0.00000000000E+00 0. -1.
          2   -1    0    0  502    0 -0.00000000000E+00 -0.00000000000E+00 -0.22273357013E+03  0.22273357013E+03  0.00000000000E+00 0. -1.
         23    2    1    2    0    0 -0.24966598363E+02  0.47123169681E+01 -0.18771576817E+03  0.21056680084E+03  0.91954505221E+02 0.  0.
         24    2    1    2    0    0  0.28832536010E+02 -0.35544354816E+02  0.79825412115E+02  0.12158517457E+03  0.79474159093E+02 0.  0.
        -13    1    4    4    0    0  0.43516074072E+02 -0.30889952069E+01  0.73402945423E+02  0.85388424220E+02  0.00000000000E+00 0.  1.
         14    1    4    4    0    0 -0.14683538062E+02 -0.32455359609E+02  0.64224666917E+01  0.36196750348E+02  0.00000000000E+00 0. -1.
        -13    1    3    3    0    0 -0.51344893449E+02 -0.17129229661E+02 -0.15076132021E+03  0.16018328335E+03  0.00000000000E+00 0. -1.
         13    1    3    3    0    0  0.26378295087E+02  0.21841546629E+02 -0.36954447962E+02  0.50383517493E+02  0.00000000000E+00 0.  1.
          1    1    1    2  501    0 -0.38659376474E+01  0.30832037848E+02  0.86282440175E+02  0.91707248974E+02  0.00000000000E+00 0. -1.
<scales pt_clust_5="13000.00000" pt_clust_6="13000.00000" pt_clust_7="13000.00000" pt_clust_8="13000.00000" pt_clust_9="31.07346"></scales>
<clustering>
<clus scale="   31.073">  1  9  2 -1</clus>
<clus scale="   79.474">  5  6 -1 -1</clus>
<clus scale="   83.791">  1  5  2 -1</clus>
<clus scale="   91.955">  7  8 -1 -1</clus>
<clus scale="   31.073">  1  5  2 -1</clus>
</clustering>
</event>
<event>
 9    2  0.1751298E-004  0.3927203E+03  0.7546771E-02  0.1088826E+00
         21   -1    0    0  501  502  0.00000000000E+00  0.00000000000E+00  0.58274668800E+03  0.58274668800E+03  0.00000000000E+00 0. -1.
          2   -1    0    0  502    0 -0.00000000000E+00 -0.00000000000E+00 -0.45883833800E+03  0.45883833800E+03  0.00000000000E+00 0. -1.
         23    2    1    2    0    0 -0.67617452593E+02  0.39047642830E+02 -0.15485133561E+03  0.19687336783E+03  0.93184486445E+02 0.  0.
         24    2    1    2    0    0 -0.26742634290E+03 -0.26184507741E+03  0.20828857748E+03  0.43622760851E+03  0.82648057926E+02 0.  0.
        -13    1    4    4    0    0 -0.13334859520E+03 -0.99834453463E+02  0.13193949959E+03  0.21250128821E+03  0.00000000000E+00 0.  1.
         14    1    4    4    0    0 -0.13407774770E+03 -0.16201062394E+03  0.76349077888E+02  0.22372632029E+03  0.00000000000E+00 0. -1.
        -11    1    3    3    0    0 -0.31947936339E+02 -0.25777208341E+02 -0.88218248082E+02  0.97301564226E+02  0.00000000000E+00 0. -1.
         11    1    3    3    0    0 -0.35669516254E+02  0.64824851171E+02 -0.66633087531E+02  0.99571803604E+02  0.00000000000E+00 0.  1.
          1    1    1    2  501    0  0.33504379549E+03  0.22279743458E+03  0.70471108132E+02  0.40848404967E+03  0.00000000000E+00 0. -1.
<scales pt_clust_5="13000.00000" pt_clust_6="13000.00000" pt_clust_7="13000.00000" pt_clust_8="13000.00000" pt_clust_9="383.92537"></scales>
<clustering>
<clus scale="   82.648">  5  6 -1 -1</clus>
<clus scale="   93.184">  7  8 -1 -1</clus>
<clus scale="  121.574">  2  7  1 -1</clus>
<clus scale="  383.925">  1  9  2 -1</clus>
<clus scale="  383.925">  1  5  2 -1</clus>
</clustering>
</event>
<event>
 9    2  0.1751298E-004  0.9720465E+02  0.7546771E-02  0.1290503E+00
          2   -1    0    0  502    0 -0.00000000000E+00  0.00000000000E+00  0.48463361604E+03  0.48463361604E+03  0.00000000000E+00 0. -1.
         21   -1    0    0  501  502  0.00000000000E+00 -0.00000000000E+00 -0.95592222878E+02  0.95592222878E+02  0.00000000000E+00 0. -1.
         24    2    1    2    0    0  0.13869913687E+02  0.71966718887E+01  0.24293931033E+03  0.25760933500E+03  0.84254936875E+02 0.  0.
         23    2    1    2    0    0 -0.64994282443E+02  0.15307969934E+02  0.20933261668E+03  0.23824672026E+03  0.92101925158E+02 0.  0.
        -13    1    3    3    0    0  0.40807342692E+02  0.25340075997E+02  0.98822961201E+02  0.10987873466E+03  0.00000000000E+00 0.  1.
         14    1    3    3    0    0 -0.26937429005E+02 -0.18143404109E+02  0.14411634913E+03  0.14773060035E+03  0.00000000000E+00 0. -1.
        -11    1    4    4    0    0  0.33523966288E+01  0.28284546730E+02  0.12841285010E+03  0.13153369993E+03  0.00000000000E+00 0.  1.
         11    1    4    4    0    0 -0.68346679072E+02 -0.12976576796E+02  0.80919766575E+02  0.10671302033E+03  0.00000000000E+00 0. -1.
          1    1    1    2  501    0  0.51124368756E+02 -0.22504641823E+02 -0.63230533838E+02  0.84369783653E+02  0.00000000000E+00 0. -1.
<scales pt_clust_5="13000.00000" pt_clust_6="13000.00000" pt_clust_7="13000.00000" pt_clust_8="13000.00000" pt_clust_9="55.85839"></scales>
<clustering>
<clus scale="   55.858">  2  9  1 -1</clus>
<clus scale="   84.255">  5  6 -1 -1</clus>
<clus scale="   89.805">  1  5  2 -1</clus>
<clus scale="   92.102">  7  8 -1 -1</clus>
<clus scale="   55.858">  2  5  1 -1</clus>
</clustering>
</event>
<event>
 9    2  0.1751298E-004  0.1405478E+03  0.7546771E-02  0.1214351E+00
         21   -1    0    0  501  502  0.00000000000E+00  0.00000000000E+00  0.13353273090E+03  0.13353273090E+03  0.00000000000E+00 0.  1.
          2   -1    0    0  502    0 -0.00000000000E+00 -0.00000000000E+00 -0.46798065138E+03  0.46798065138E+03  0.00000000000E+00 0. -1.
         23    2    1    2    0    0 -0.32125767865E+02  0.88719154697E+02 -0.18917885576E+03  0.22952208018E+03  0.89378926227E+02 0.  0.
         24    2    1    2    0    0  0.66725559496E+02 -0.16713772461E+03  0.67338089932E+01  0.19748774539E+03  0.81047801427E+02 0.  0.
        -13    1    4    4    0    0 -0.58267938925E+01 -0.92120460274E+02  0.11492667316E+02  0.93017267914E+02  0.00000000000E+00 0.  1.
         14    1    4    4    0    0  0.72552353388E+02 -0.75017264337E+02 -0.47588583230E+01  0.10447047747E+03  0.00000000000E+00 0. -1.
        -11    1    3    3    0    0  0.10041358189E+01  0.94021376366E+02 -0.11840225624E+03  0.15119564076E+03  0.00000000000E+00 0.  1.
         11    1    3    3    0    0 -0.33129903684E+02 -0.53022216688E+01 -0.70776599523E+02  0.78326439424E+02  0.00000000000E+00 0. -1.
          1    1    1    2  501    0 -0.34599791631E+02  0.78418569914E+02 -0.15200287371E+03  0.17450355671E+03  0.00000000000E+00 0. -1.
<scales pt_clust_5="13000.00000" pt_clust_6="13000.00000" pt_clust_7="13000.00000" pt_clust_8="13000.00000" pt_clust_9="85.71246"></scales>
<clustering>
<clus scale="   81.048">  5  6 -1 -1</clus>
<clus scale="   85.712">  1  9  2 -1</clus>
<clus scale="   89.379">  7  8 -1 -1</clus>
<clus scale="  135.403">  1  5  2 -1</clus>
<clus scale="   85.712">  1  5  2 -1</clus>
</clustering>
</event>
<event>
 9    2  0.1751298E-004  0.1298911E+03  0.7546771E-02  0.1243537E+00
         21   -1    0    0  501  502  0.00000000000E+00  0.00000000000E+00  0.32010477507E+02  0.32010477507E+02  0.00000000000E+00 0. -1.
          2   -1    0    0  502    0 -0.00000000000E+00 -0.00000000000E+00 -0.86542587779E+03  0.86542587779E+03  0.00000000000E+00 0. -1.
         24    2    1    2    0    0 -0.21972531736E+02  0.40743148692E+02 -0.16155950909E+03  0.18680668962E+03  0.81562662980E+02 0.  0.
         23    2    1    2    0    0 -0.25278096133E+02  0.57140497972E+02 -0.45481577959E+03  0.46789474820E+03  0.90355317383E+02 0.  0.
        -13    1    3    3    0    0  0.15002054594E+02  0.48160190317E+02 -0.59509924361E+02  0.78012157200E+02  0.00000000000E+00 0.  1.
         14    1    3    3    0    0 -0.36974586330E+02 -0.74170416259E+01 -0.10204958473E+03  0.10879453242E+03  0.00000000000E+00 0. -1.
        -11    1    4    4    0    0 -0.16211933358E+02 -0.14182739566E+02 -0.29400453192E+02  0.36446721838E+02  0.00000000000E+00 0.  1.
         11    1    4    4    0    0 -0.90661627747E+01  0.71323237538E+02 -0.42541532639E+03  0.43144802636E+03  0.00000000000E+00 0. -1.
          1    1    1    2  501    0  0.47250627869E+02 -0.97883646663E+02 -0.21704011160E+03  0.24273491748E+03  0.00000000000E+00 0. -1.
<scales pt_clust_5="13000.00000" pt_clust_6="13000.00000" pt_clust_7="13000.00000" pt_clust_8="13000.00000" pt_clust_9="93.31464"></scales>
<clustering>
<clus scale="   81.563">  5  6 -1 -1</clus>
<clus scale="   90.355">  7  8 -1 -1</clus>
<clus scale="   93.783">  2  5  1 -1</clus>
<clus scale="   93.315">  1  9  2 -1</clus>
<clus scale="   93.315">  1  5  2 -1</clus>
</clustering>
</event>
<event>
 9    2  0.1751298E-004  0.9485385E+02  0.7546771E-02  0.1297115E+00
         -1   -1    0    0    0  501 -0.00000000000E+00  0.00000000000E+00  0.96799516665E+02  0.96799516665E+02  0.00000000000E+00 0.  1.
         21   -1    0    0  501  502  0.00000000000E+00 -0.00000000000E+00 -0.20543504179E+03  0.20543504179E+03  0.00000000000E+00 0. -1.
         23    2    1    2    0    0 -0.21928705102E+02  0.26056190761E+02  0.52035508542E+02  0.10938934127E+03  0.89991892139E+02 0.  0.
         24    2    1    2    0    0  0.14576196699E+02 -0.40379314269E+01 -0.10781936889E+03  0.13512033871E+03  0.80023241790E+02 0.  0.
        -13    1    4    4    0    0  0.35532419564E+01 -0.41579433918E+02 -0.47557709798E+02  0.63270930249E+02  0.00000000000E+00 0.  1.
         14    1    4    4    0    0  0.11022954742E+02  0.37541502491E+02 -0.60261659089E+02  0.71849408465E+02  0.00000000000E+00 0. -1.
        -11    1    3    3    0    0 -0.11597647496E+02 -0.28880707774E+02  0.42508102143E+02  0.52683388812E+02  0.00000000000E+00 0.  1.
         11    1    3    3    0    0 -0.10331057606E+02  0.54936898535E+02  0.95274063986E+01  0.56705952462E+02  0.00000000000E+00 0. -1.
         -2    1    1    2    0  502  0.73525084035E+01 -0.22018259335E+02 -0.52851664775E+02  0.57724878462E+02  0.00000000000E+00 0.  1.
<scales pt_clust_5="13000.00000" pt_clust_6="13000.00000" pt_clust_7="13000.00000" pt_clust_8="13000.00000" pt_clust_9="23.21343"></scales>
<clustering>
<clus scale="   23.213">  2  9  1 -1</clus>
<clus scale="   80.023">  5  6 -1 -1</clus>
<clus scale="   85.454">  2  5  1 -1</clus>
<clus scale="   89.992">  7  8 -1 -1</clus>
<clus scale="   23.213">  2  5  1 -1</clus>
</clustering>
</event>
<event>
 9    2  0.1751298E-004  0.1342000E+03  0.7546771E-02  0.1222773E+00
         21   -1    0    0  501  502  0.00000000000E+00  0.00000000000E+00  0.25883834057E+03  0.25883834057E+03  0.00000000000E+00 0.  1.
         -1   -1    0    0    0  501 -0.00000000000E+00 -0.00000000000E+00 -0.28195506058E+03  0.28195506058E+03  0.00000000000E+00 0.  1.
         23    2    1    2    0    0  0.59528604831E+02  0.87487877915E+02 -0.23681382821E+03  0.27326398862E+03  0.85992061647E+02 0.  0.
         24    2    1    2    0    0 -0.62039221072E+02 -0.44720129024E+02  0.18656204948E+03  0.21681753078E+03  0.79722571821E+02 0.  0.
        -13    1    4    4    0    0 -0.79978765501E+02 -0.41230317730E+02  0.13617234113E+03  0.16321595669E+03  0.00000000000E+00 0.  1.
         14    1    4    4    0    0  0.17939544428E+02 -0.34898112943E+01  0.50389708347E+02  0.53601574086E+02  0.00000000000E+00 0. -1.
        -11    1    3    3    0    0  0.28418633806E+02 -0.66513792117E+01 -0.10085880723E+03  0.10499694562E+03  0.00000000000E+00 0. -1.
         11    1    3    3    0    0  0.31109971025E+02  0.94139257127E+02 -0.13595502098E+03  0.16826704300E+03  0.00000000000E+00 0.  1.
         -2    1    1    2    0  502  0.25106162414E+01 -0.42767748891E+02  0.27135058728E+02  0.50711881756E+02  0.00000000000E+00 0.  1.
<scales pt_clust_5="13000.00000" pt_clust_6="13000.00000" pt_clust_7="13000.00000" pt_clust_8="13000.00000" pt_clust_9="42.84138"></scales>
<clustering>
<clus scale="   42.841">  1  9  2 -1</clus>
<clus scale="   79.723">  5  6 -1 -1</clus>
<clus scale="   85.992">  7  8 -1 -1</clus>
<clus scale="  130.272">  1  5  2 -1</clus>
<clus scale="   42.841">  1  5  2 -1</clus>
</clustering>
</event>
<event>
 9    2  0.1751298E-004  0.1016825E+03  0.7546771E-02  0.1281840E+00
         21   -1    0    0  501  502  0.00000000000E+00  0.00000000000E+00  0.16410049669E+03  0.16410049669E+03  0.00000000000E+00 0.  1.
         -1   -1    0    0    0  501 -0.00000000000E+00 -0.00000000000E+00 -0.16644912072E+03  0.16644912072E+03  0.00000000000E+00 0.  1.
         23    2    1    2    0    0  0.17139788228E+02 -0.63246288268E+02 -0.42279053174E+02  0.11998065558E+03  0.91180996139E+02 0.  0.
         24    2    1    2    0    0  0.54460107179E+01 -0.91498991804E+01  0.88730907555E+02  0.12038685182E+03  0.80662509554E+02 0.  0.
        -11    1    4    4    0    0 -0.25617703259E+02 -0.26146886752E+02  0.72951926329E+02  0.81620524148E+02  0.00000000000E+00 0.  1.
         12    1    4    4    0    0  0.31063713977E+02  0.16996987571E+02  0.15778981226E+02  0.38766327670E+02  0.00000000000E+00 0. -1.
        -11    1    3    3    0    0 -0.15743085394E+02 -0.54206570449E+02 -0.59296797281E+02  0.81867619883E+02  0.00000000000E+00 0.  1.
         11    1    3    3    0    0  0.32882873621E+02 -0.90397178191E+01  0.17017744107E+02  0.38113035701E+02  0.00000000000E+00 0. -1.
         -2    1    1    2    0  502 -0.22585798946E+02  0.72396187448E+02 -0.48800478416E+02  0.90182110003E+02  0.00000000000E+00 0.  1.
<scales pt_clust_5="13000.00000" pt_clust_6="13000.00000" pt_clust_7="13000.00000" pt_clust_8="13000.00000" pt_clust_9="75.83754"></scales>
<clustering>
<clus scale="   75.838">  1  9  2 -1</clus>
<clus scale="   80.663">  5  6 -1 -1</clus>
<clus scale="   91.181">  7  8 -1 -1</clus>
<clus scale="   92.368">  1  5  2 -1</clus>
<clus scale="   75.838">  1  5  2 -1</clus>
</clustering>
</event>
<event>
 9    2  0.1751298E-004  0.9652044E+02  0.7546771E-02  0.1288335E+00
         21   -1    0    0  501  502  0.00000000000E+00  0.00000000000E+00  0.63036140502E+02  0.63036140502E+02  0.00000000000E+00 0. -1.
          2   -1    0    0  502    0 -0.00000000000E+00 -0.00000000000E+00 -0.39650328922E+03  0.39650328922E+03  0.00000000000E+00 0. -1.
         24    2    1    2    0    0  0.15595909136E+02  0.33073799316E+02 -0.24210591462E+03  0.26194758185E+03  0.93081432962E+02 0.  0.
         23    2    1    2    0    0  0.30469211579E+02 -0.11100171680E+02 -0.10639918171E+03  0.14438493548E+03  0.92057791956E+02 0.  0.
        -13    1    3    3    0    0 -0.45576452221E+01  0.63131380989E+02 -0.14083044739E+03  0.15440064219E+03  0.00000000000E+00 0.  1.
         14    1    3    3    0    0  0.20153554358E+02 -0.30057581673E+02 -0.10127546723E+03  0.10754693966E+03  0.00000000000E+00 0. -1.
        -13    1    4    4    0    0  0.13428218590E+02  0.35397724773E+02 -0.15576501995E+02  0.40938287555E+02  0.00000000000E+00 0. -1.
         13    1    4    4    0    0  0.17040992989E+02 -0.46497896452E+02 -0.90822679711E+02  0.10344664792E+03  0.00000000000E+00 0.  1.
          1    1    1    2  501    0 -0.46065120715E+02 -0.21973627637E+02  0.15037947606E+02  0.53206912391E+02  0.00000000000E+00 0. -1.
<scales pt_clust_5="13000.00000" pt_clust_6="13000.00000" pt_clust_7="13000.00000" pt_clust_8="13000.00000" pt_clust_9="51.03759"></scales>
<clustering>
<clus scale="   51.038">  1  9  2 -1</clus>
<clus scale="   92.058">  7  8 -1 -1</clus>
<clus scale="   93.081">  5  6 -1 -1</clus>
<clus scale="   95.534">  1  7  2 -1</clus>
<clus scale="   51.038">  1  5  2 -1</clus>
</clustering>
</event>
<event>
 9    2  0.1751298E-004  0.2451656E+03  0.7546771E-02  0.1140810E+00
         21   -1    0    0  501  502  0.00000000000E+00  0.00000000000E+00  0.68023604011E+02  0.68023604011E+02  0.00000000000E+00 0. -1.
          2   -1    0    0  502    0 -0.00000000000E+00 -0.00000000000E+00 -0.19110063058E+04  0.19110063058E+04  0.00000000000E+00 0. -1.
         24    2    1    2    0    0  0.10748956522E+03  0.92844356746E+01 -0.17502453824E+03  0.22067399854E+03  0.80144976549E+02 0.  0.
         23    2    1    2    0    0 -0.28942642346E+03 -0.10024563415E+03 -0.12908291456E+04  0.13298687397E+04  0.92163658630E+02 0.  0.
        -11    1    3    3    0    0  0.81591048359E+02 -0.10646183734E+02 -0.62018395433E+02  0.10303747751E+03  0.00000000000E+00 0.  1.
         12    1    3    3    0    0  0.25898516865E+02  0.19930619409E+02 -0.11300614281E+03  0.11763652103E+03  0.00000000000E+00 0. -1.
        -13    1    4    4    0    0 -0.26335115219E+03 -0.60765071711E+02 -0.10353183797E+04  0.10700141918E+04  0.00000000000E+00 0. -1.
         13    1    4    4    0    0 -0.26075271270E+02 -0.39480562441E+02 -0.25551076590E+03  0.25985454792E+03  0.00000000000E+00 0.  1.
          1    1    1    2  501    0  0.18193685824E+03  0.90961198477E+02 -0.37712901796E+03  0.42848717157E+03  0.00000000000E+00 0. -1.
<scales pt_clust_5="13000.00000" pt_clust_6="13000.00000" pt_clust_7="13000.00000" pt_clust_8="13000.00000" pt_clust_9="227.18280"></scales>
<clustering>
<clus scale="   80.145">  5  6 -1 -1</clus>
<clus scale="   92.164">  7  8 -1 -1</clus>
<clus scale="  134.400">  2  5  1 -1</clus>
<clus scale="  227.183">  1  9  2 -1</clus>
<clus scale="  227.183">  1  5  2 -1</clus>
</clustering>
</event>
<event>
 9    2  0.1751298E-004  0.1656409E+03  0.7546771E-02  0.1187756E+00
         21   -1    0    0  501  502  0.00000000000E+00  0.00000000000E+00  0.25349934358E+03  0.25349934358E+03  0.00000000000E+00 0. -1.
          2   -1    0    0  502    0 -0.00000000000E+00 -0.00000000000E+00 -0.15046877698E+03  0.15046877698E+03  0.00000000000E+00 0. -1.
         24    2    1    2    0    0 -0.11354986757E+03  0.26332098822E+02  0.30424336405E+02  0.13883891957E+03  0.69019225498E+02 0.  0.
         23    2    1    2    0    0  0.14159914837E+03 -0.66802528818E+02  0.96290920394E+02  0.21048871776E+03  0.10257027971E+03 0.  0.
        -13    1    3    3    0    0 -0.41926264606E+02 -0.19202617167E+02  0.27963696494E+02  0.53930700825E+02  0.00000000000E+00 0.  1.
         14    1    3    3    0    0 -0.71623602968E+02  0.45534715989E+02  0.24606399110E+01  0.84908218748E+02  0.00000000000E+00 0. -1.
        -11    1    4    4    0    0  0.10690644087E+03 -0.60210511220E+02  0.17230229429E+02  0.12389985297E+03  0.00000000000E+00 0. -1.
         11    1    4    4    0    0  0.34692707503E+02 -0.65920175977E+01  0.79060690965E+02  0.86588864791E+02  0.00000000000E+00 0.  1.
          1    1    1    2  501    0 -0.28049280799E+02  0.40470429996E+02 -0.23684690201E+02  0.54640483227E+02  0.00000000000E+00 0. -1.
<scales pt_clust_5="13000.00000" pt_clust_6="13000.00000" pt_clust_7="13000.00000" pt_clust_8="13000.00000" pt_clust_9="49.24043"></scales>
<clustering>
<clus scale="   49.240">  1  9  2 -1</clus>
<clus scale="   69.019">  5  6 -1 -1</clus>
<clus scale="  102.570">  7  8 -1 -1</clus>
<clus scale="  147.241">  2  5  1 -1</clus>
<clus scale="   49.240">  1  5  2 -1</clus>
</clustering>
</event>
<event>
 9    2  0.1751298E-004  0.2351420E+03  0.7546771E-02  0.1133946E+00
         -1   -1    0    0    0  501 -0.00000000000E+00  0.00000000000E+00  0.91649578274E+03  0.91649578274E+03  0.00000000000E+00 0.  1.
         21   -1    0    0  501  502  0.00000000000E+00 -0.00000000000E+00 -0.24937073745E+03  0.24937073745E+03  0.00000000000E+00 0.  1.
         24    2    1    2    0    0  0.15176407930E+03 -0.52841046527E+02  0.59446445914E+03  0.62108965020E+03  0.80869329422E+02 0.  0.
         23    2    1    2    0    0 -0.63491580727E+02 -0.16950096915E+03  0.18983102053E+03  0.27839947486E+03  0.93320372274E+02 0.  0.
        -11    1    3    3    0    0  0.15084656360E+03 -0.47326293404E+02  0.45814981646E+03  0.48466041526E+03  0.00000000000E+00 0.  1.
         12    1    3    3    0    0  0.91751569686E+00 -0.55147531232E+01  0.13631464269E+03  0.13642923495E+03  0.00000000000E+00 0. -1.
        -11    1    4    4    0    0 -0.87419991128E+02 -0.12007902277E+03  0.14402320768E+03  0.20689106049E+03  0.00000000000E+00 0.  1.
         11    1    4    4    0    0  0.23928410401E+02 -0.49421946385E+02  0.45807812850E+02  0.71508414378E+02  0.00000000000E+00 0. -1.
         -2    1    1    2    0  502 -0.88272498574E+02  0.22234201568E+03 -0.11717043439E+03  0.26637739513E+03  0.00000000000E+00 0.  1.
<scales pt_clust_5="13000.00000" pt_clust_6="13000.00000" pt_clust_7="13000.00000" pt_clust_8="13000.00000" pt_clust_9="215.83110"></scales>
<clustering>
<clus scale="   80.869">  5  6 -1 -1</clus>
<clus scale="   93.320">  7  8 -1 -1</clus>
<clus scale="  179.901">  1  5  2 -1</clus>
<clus scale="  215.831">  2  9  1 -1</clus>
<clus scale="  215.831">  2  5  1 -1</clus>
</clustering>
</event>
<event>
 9    2  0.1751298E-004  0.9264128E+02  0.7546771E-02  0.1303562E+00
         21   -1    0    0  501  502  0.00000000000E+00  0.00000000000E+00  0.29352124146E+02  0.29352124146E+02  0.00000000000E+00 0.  1.
          2   -1    0    0  502    0 -0.00000000000E+00 -0.00000000000E+00 -0.49837348760E+03  0.49837348760E+03  0.00000000000E+00 0. -1.
         23    2    1    2    0    0  0.20380164929E+02  0.28163070707E+02 -0.33853435507E+03  0.35176353694E+03  0.89014418388E+02 0.  0.
         24    2    1    2    0    0  0.47546994796E+01 -0.14290518630E+02 -0.12340364557E+03  0.14639210459E+03  0.77300468679E+02 0.  0.
        -13    1    4    4    0    0 -0.14108239375E+02 -0.39657562641E+02 -0.43827003076E+02  0.60766527723E+02  0.00000000000E+00 0.  1.
         14    1    4    4    0    0  0.18862938855E+02  0.25367044011E+02 -0.79576642490E+02  0.85625576869E+02  0.00000000000E+00 0. -1.
        -13    1    3    3    0    0 -0.10876403252E+02  0.49291386907E+02 -0.25718058142E+03  0.26208736793E+03  0.00000000000E+00 0. -1.
         13    1    3    3    0    0  0.31256568181E+02 -0.21128316200E+02 -0.81353773656E+02  0.89676169008E+02  0.00000000000E+00 0.  1.
          1    1    1    2  501    0 -0.25134864409E+02 -0.13872552076E+02 -0.70833628184E+01  0.29569970219E+02  0.00000000000E+00 0. -1.
<scales pt_clust_5="13000.00000" pt_clust_6="13000.00000" pt_clust_7="13000.00000" pt_clust_8="13000.00000" pt_clust_9="28.70904"></scales>
<clustering>
<clus scale="   28.709">  1  9  2 -1</clus>
<clus scale="   77.300">  5  6 -1 -1</clus>
<clus scale="   81.451">  1  5  2 -1</clus>
<clus scale="   89.014">  7  8 -1 -1</clus>
<clus scale="   28.709">  1  5  2 -1</clus>
</clustering>
</event>
<event>
 9    2  0.1751298E-004  0.1055019E+03  0.7546771E-02  0.1275057E+00
         21   -1    0    0  501  502  0.00000000000E+00  0.00000000000E+00  0.20183295123E+02  0.20183295123E+02  0.00000000000E+00 0.  1.
         -1   -1    0    0    0  501 -0.00000000000E+00 -0.00000000000E+00 -0.10467829630E+04  0.10467829630E+04  0.00000000000E+00 0.  1.
         23    2    1    2    0    0 -0.27178431131E+02  0.75523540805E+02 -0.45723156677E+03  0.47365461563E+03  0.94050608294E+02 0.  0.
         24    2    1    2    0    0  0.43147212084E+01 -0.11299545439E+02 -0.17694441887E+03  0.19501047856E+03  0.81076894568E+02 0.  0.
        -13    1    4    4    0    0  0.29361536119E+02  0.10930026676E+00 -0.16003944634E+03  0.16271059012E+03  0.00000000000E+00 0.  1.
         14    1    4    4    0    0 -0.25046814910E+02 -0.11408845706E+02 -0.16904972529E+02  0.32299888447E+02  0.00000000000E+00 0. -1.
        -13    1    3    3    0    0 -0.34908511929E+01 -0.21218097331E+02 -0.12422462497E+03  0.12607200778E+03  0.00000000000E+00 0. -1.
         13    1    3    3    0    0 -0.23687579938E+02  0.96741638136E+02 -0.33300694180E+03  0.34758260785E+03  0.00000000000E+00 0.  1.
         -2    1    1    2    0  502  0.22863709923E+02 -0.64223995366E+02 -0.39242368227E+03  0.39830116397E+03  0.00000000000E+00 0.  1.
<scales pt_clust_5="13000.00000" pt_clust_6="13000.00000" pt_clust_7="13000.00000" pt_clust_8="13000.00000" pt_clust_9="68.17240"></scales>
<clustering>
<clus scale="   68.172">  1  9  2 -1</clus>
<clus scale="   81.077">  5  6 -1 -1</clus>
<clus scale="   94.051">  7  8 -1 -1</clus>
<clus scale="   94.120">  1  5  2 -1</clus>
<clus scale="   68.172">  1  5  2 -1</clus>
</clustering>
</event>
<event>
 9    2  0.1751298E-004  0.1747572E+03  0.7546771E-02  0.1191107E+00
         21   -1    0    0  501  502  0.00000000000E+00  0.00000000000E+00  0.11749108636E+03  0.11749108636E+03  0.00000000000E+00 0.  1.
          2   -1    0    0  502    0 -0.00000000000E+00 -0.00000000000E+00 -0.56078143934E+03  0.56078143934E+03  0.00000000000E+00 0. -1.
         24    2    1    2    0    0  0.43895414354E+02  0.73122224886E+02 -0.28511662351E+03  0.30797118100E+03  0.79253341577E+02 0.  0.
         23    2    1    2    0    0  0.10986006215E+03  0.23816399941E+02 -0.11082472107E+03  0.18247224116E+03  0.91528934399E+02 0.  0.
        -13    1    3    3    0    0 -0.22993159983E+02  0.22905101337E+02 -0.90445577748E+02  0.96092307744E+02  0.00000000000E+00 0.  1.
         14    1    3    3    0    0  0.66888574337E+02  0.50217123549E+02 -0.19467104576E+03  0.21187887325E+03  0.00000000000E+00 0. -1.
        -13    1    4    4    0    0  0.73760832381E+02 -0.34037234473E+01 -0.13368896728E+02  0.75039810278E+02  0.00000000000E+00 0.  1.
         13    1    4    4    0    0  0.36099229773E+02  0.27220123388E+02 -0.97455824345E+02  0.10743243089E+03  0.00000000000E+00 0. -1.
          1    1    1    2  501    0 -0.15375547651E+03 -0.96938624827E+02 -0.47349008409E+02  0.18782910354E+03  0.00000000000E+00 0. -1.
<scales pt_clust_5="13000.00000" pt_clust_6="13000.00000" pt_clust_7="13000.00000" pt_clust_8="13000.00000" pt_clust_9="148.87089"></scales>
<clustering>
<clus scale="   79.253">  5  6 -1 -1</clus>
<clus scale="   91.529">  7  8 -1 -1</clus>
<clus scale="  116.425">  2  5  1 -1</clus>
<clus scale="  148.871">  1  9  2 -1</clus>
<clus scale="  148.871">  1  5  2 -1</clus>
</clustering>
</event>
<event>
 9    2  0.1751298E-004  0.9290699E+02  0.7546771E-02  0.1302668E+00
          2   -1    0    0  502    0 -0.00000000000E+00  0.00000000000E+00  0.28510575581E+02  0.28510575581E+02  0.00000000000E+00 0. -1.
         21   -1    0    0  501  502  0.00000000000E+00 -0.00000000000E+00 -0.72976324267E+03  0.72976324267E+03  0.00000000000E+00 0.  1.
         23    2    1    2    0    0 -0.11440322114E+02  0.26036867294E+01 -0.16002048874E+03  0.18507358430E+03  0.92238899784E+02 0.  0.
         24    2    1    2    0    0 -0.36805399584E+02  0.45765045451E+02 -0.43847952519E+03  0.44980942535E+03  0.81333561982E+02 0.  0.
        -13    1    4    4    0    0  0.19715635198E+02  0.37442438079E+02 -0.21644667403E+03  0.22054433826E+03  0.00000000000E+00 0.  1.
         14    1    4    4    0    0 -0.56521034782E+02  0.83226073727E+01 -0.22203285116E+03  0.22926508709E+03  0.00000000000E+00 0. -1.
        -13    1    3    3    0    0 -0.32659855376E+02 -0.32093496680E+02 -0.11809834764E+03  0.12666443225E+03  0.00000000000E+00 0.  1.
         13    1    3    3    0    0  0.21219533262E+02  0.34697183409E+02 -0.41922141107E+02  0.58409152051E+02  0.00000000000E+00 0. -1.
          1    1    1    2  501    0  0.48245721698E+02 -0.48368732181E+02 -0.10275265315E+03  0.12339080859E+03  0.00000000000E+00 0. -1.
<scales pt_clust_5="13000.00000" pt_clust_6="13000.00000" pt_clust_7="13000.00000" pt_clust_8="13000.00000" pt_clust_9="68.31683"></scales>
<clustering>
<clus scale="   68.317">  2  9  1 -1</clus>
<clus scale="   81.334">  5  6 -1 -1</clus>
<clus scale="   82.090">  2  5  1 -1</clus>
<clus scale="   92.239">  7  8 -1 -1</clus>
<clus scale="   68.317">  2  5  1 -1</clus>
</clustering>
</event>
<event>
 9    2  0.1751298E-004  0.9769775E+02  0.7546771E-02  0.1290266E+00
          2   -1    0    0  502    0 -0.00000000000E+00  0.00000000000E+00  0.51608344442E+03  0.51608344442E+03  0.00000000000E+00 0. -1.
         21   -1    0    0  501  502  0.00000000000E+00 -0.00000000000E+00 -0.72024414249E+02  0.72024414249E+02  0.00000000000E+00 0.  1.
         23    2    1    2    0    0  0.28076481935E+02 -0.74348347936E+01  0.39588413672E+03  0.40743951927E+03  0.91864827587E+02 0.  0.
         24    2    1    2    0    0 -0.71523735036E+02  0.23044259345E+02 -0.32550668071E+01  0.11155713374E+03  0.82387596549E+02 0.  0.
        -11    1    4    4    0    0 -0.30554300704E+02  0.38393553989E+02 -0.32570049694E+02  0.58893449691E+02  0.00000000000E+00 0.  1.
         12    1    4    4    0    0 -0.40969434331E+02 -0.15349294644E+02  0.29314982886E+02  0.52663684044E+02  0.00000000000E+00 0. -1.
        -13    1    3    3    0    0 -0.19900842257E+02 -0.35141079199E+02  0.18891742590E+03  0.19318574683E+03  0.00000000000E+00 0.  1.
         13    1    3    3    0    0  0.47977324192E+02  0.27706244405E+02  0.20696671082E+03  0.21425377244E+03  0.00000000000E+00 0. -1.
          1    1    1    2  501    0  0.43447253101E+02 -0.15609424551E+02  0.51429960262E+02  0.69111205672E+02  0.00000000000E+00 0. -1.
<scales pt_clust_5="13000.00000" pt_clust_6="13000.00000" pt_clust_7="13000.00000" pt_clust_8="13000.00000" pt_clust_9="46.16620"></scales>
<clustering>
<clus scale="   46.166">  2  9  1 -1</clus>
<clus scale="   82.388">  5  6 -1 -1</clus>
<clus scale="   88.845">  2  5  1 -1</clus>
<clus scale="   91.865">  7  8 -1 -1</clus>
<clus scale="   46.166">  2  5  1 -1</clus>
</clustering>
</event>
<event>
 9    2  0.1751298E-004  0.9968460E+02  0.7546771E-02  0.1288739E+00
         21   -1    0    0  501  502  0.00000000000E+00  0.00000000000E+00  0.54578098093E+03  0.54578098093E+03  0.00000000000E+00 0.  1.
         -3   -1    0    0    0  501 -0.00000000000E+00 -0.00000000000E+00 -0.23631929151E+02  0.23631929151E+02  0.00000000000E+00 0.  1.
         24    2    1    2    0    0 -0.27578508125E+02 -0.81389294432E+01  0.13420092013E+03  0.15782268669E+03  0.77918529167E+02 0.  0.
         23    2    1    2    0    0  0.48033872377E+02  0.13659451516E+02  0.23951713668E+03  0.26165470939E+03  0.92741008575E+02 0.  0.
        -13    1    3    3    0    0 -0.48906630221E+01  0.23696393633E+02  0.10820152136E+03  0.11087383317E+03  0.00000000000E+00 0.  1.
         14    1    3    3    0    0 -0.22687845103E+02 -0.31835323076E+02  0.25999398764E+02  0.46948853520E+02  0.00000000000E+00 0. -1.
        -11    1    4    4    0    0  0.44876667671E+02 -0.34586859045E+02  0.11895980910E+03  0.13176343310E+03  0.00000000000E+00 0.  1.
         11    1    4    4    0    0  0.31572047052E+01  0.48246310561E+02  0.12055732758E+03  0.12989127629E+03  0.00000000000E+00 0. -1.
         -4    1    1    2    0  502 -0.20455364252E+02 -0.55205220726E+01  0.14843099498E+03  0.14993551401E+03  0.00000000000E+00 0.  1.
<scales pt_clust_5="13000.00000" pt_clust_6="13000.00000" pt_clust_7="13000.00000" pt_clust_8="13000.00000" pt_clust_9="21.18722"></scales>
<clustering>
<clus scale="   21.187">  1  9  2 -1</clus>
<clus scale="   77.919">  5  6 -1 -1</clus>
<clus scale="   86.066">  2  5  1 -1</clus>
<clus scale="   92.741">  7  8 -1 -1</clus>
<clus scale="   21.187">  1  5  2 -1</clus>
</clustering>
</event>
<event>
 9    2  0.1751298E-004  0.9634373E+02  0.7546771E-02  0.1300666E+00
         21   -1    0    0  501  502  0.00000000000E+00  0.00000000000E+00  0.18167641326E+03  0.18167641326E+03  0.00000000000E+00 0.  1.
          2   -1    0    0  502    0 -0.00000000000E+00 -0.00000000000E+00 -0.12868047684E+03  0.12868047684E+03  0.00000000000E+00 0. -1.
         24    2    1    2    0    0  0.17466378487E+02 -0.12300898602E+02 -0.84757995752E+02  0.11361234249E+03  0.72577269429E+02 0.  0.
         23    2    1    2    0    0 -0.21219213781E+02  0.38153534479E+02  0.71253634046E+02  0.12529713895E+03  0.93361370161E+02 0.  0.
        -11    1    3    3    0    0 -0.27025571184E+02  0.13274960512E+01 -0.44507169859E+02  0.52086772913E+02  0.00000000000E+00 0.  1.
         12    1    3    3    0    0  0.44491949672E+02 -0.13628394654E+02 -0.40250825893E+02  0.61525569574E+02  0.00000000000E+00 0. -1.
        -11    1    4    4    0    0 -0.27773593022E+02  0.14878917894E+02 -0.15587253879E+02  0.35152768747E+02  0.00000000000E+00 0. -1.
         11    1    4    4    0    0  0.65543792416E+01  0.23274616585E+02  0.86840887924E+02  0.90144370206E+02  0.00000000000E+00 0.  1.
          1    1    1    2  501    0  0.37528352936E+01 -0.25852635876E+02  0.66500298118E+02  0.71447408661E+02  0.00000000000E+00 0. -1.
<scales pt_clust_5="13000.00000" pt_clust_6="13000.00000" pt_clust_7="13000.00000" pt_clust_8="13000.00000" pt_clust_9="26.12360"></scales>
<clustering>
<clus scale="   26.124">  1  9  2 -1</clus>
<clus scale="   72.577">  5  6 -1 -1</clus>
<clus scale="   76.376">  2  5  1 -1</clus>
<clus scale="   93.361">  7  8 -1 -1</clus>
<clus scale="   26.124">  1  5  2 -1</clus>
</clustering>
</event>
<event>
 9    2  0.1751298E-004  0.9303513E+02  0.7546771E-02  0.1302752E+00
          2   -1    0    0  502    0 -0.00000000000E+00  0.00000000000E+00  0.35111159609E+03  0.35111159609E+03  0.00000000000E+00 0. -1.
         21   -1    0    0  501  502  0.00000000000E+00 -0.00000000000E+00 -0.46289569921E+02  0.46289569921E+02  0.00000000000E+00 0.  1.
         24    2    1    2    0    0 -0.33174502757E+01  0.14252419678E+02  0.26041911183E+03  0.27296768272E+03  0.80492888252E+02 0.  0.
         23    2    1    2    0    0 -0.18059982298E+02 -0.98376341627E+01  0.34014386529E+02  0.10025898300E+03  0.92043159301E+02 0.  0.
        -13    1    3    3    0    0 -0.34502086852E+02  0.27065515528E+02  0.10243940586E+03  0.11143055237E+03  0.00000000000E+00 0.  1.
         14    1    3    3    0    0  0.31184636576E+02 -0.12813095850E+02  0.15797970597E+03  0.16153713035E+03  0.00000000000E+00 0. -1.
        -13    1    4    4    0    0  0.35262083278E+02  0.94937081581E+01  0.20784491717E+02  0.42018330615E+02  0.00000000000E+00 0. -1.
         13    1    4    4    0    0 -0.53322065576E+02 -0.19331342321E+02  0.13229894813E+02  0.58240652383E+02  0.00000000000E+00 0.  1.
          1    1    1    2  501    0  0.21377432573E+02 -0.44147855151E+01  0.10388527812E+02  0.24174500298E+02  0.00000000000E+00 0. -1.
<scales pt_clust_5="13000.00000" pt_clust_6="13000.00000" pt_clust_7="13000.00000" pt_clust_8="13000.00000" pt_clust_9="21.82854"></scales>
<clustering>
<clus scale="   21.829">  2  9  1 -1</clus>
<clus scale="   80.493">  5  6 -1 -1</clus>
<clus scale="   81.625">  1  5  2 -1</clus>
<clus scale="   92.043">  7  8 -1 -1</clus>
<clus scale="   21.829">  2  5  1 -1</clus>
</clustering>
</event>
<event>
 9    2  0.1751298E-004  0.1092507E+03  0.7546771E-02  0.1265311E+00
         21   -1    0    0  501  502  0.00000000000E+00  0.00000000000E+00  0.16047490546E+03  0.16047490546E+03  0.00000000000E+00 0. -1.
          2   -1    0    0  502    0 -0.00000000000E+00 -0.00000000000E+00 -0.22304444054E+03  0.22304444054E+03  0.00000000000E+00 0. -1.
         24    2    1    2    0    0  0.42519196604E+02 -0.65113093020E+02 -0.15389029097E+03  0.18997218505E+03  0.79747178486E+02 0.  0.
         23    2    1    2    0    0  0.53041319567E+01  0.30991747886E+02  0.11698229362E+02  0.94597256063E+02  0.88448685867E+02 0.  0.
        -13    1    3    3    0    0  0.50736182231E+01 -0.44592442727E+02 -0.19449402621E+02  0.48913258044E+02  0.00000000000E+00 0.  1.
         14    1    3    3    0    0  0.37445578380E+02 -0.20520650293E+02 -0.13444088835E+03  0.14105892701E+03  0.00000000000E+00 0. -1.
        -13    1    4    4    0    0  0.37452507979E+02 -0.57402997994E+01 -0.12783836805E+02  0.39988346792E+02  0.00000000000E+00 0. -1.
         13    1    4    4    0    0 -0.32148376022E+02  0.36732047686E+02  0.24482066167E+02  0.54608909271E+02  0.00000000000E+00 0.  1.
          1    1    1    2  501    0 -0.47823328560E+02  0.34121345134E+02  0.79622526524E+02  0.98949904893E+02  0.00000000000E+00 0. -1.
<scales pt_clust_5="13000.00000" pt_clust_6="13000.00000" pt_clust_7="13000.00000" pt_clust_8="13000.00000" pt_clust_9="58.74808"></scales>
<clustering>
<clus scale="   58.748">  1  9  2 -1</clus>
<clus scale="   79.747">  5  6 -1 -1</clus>
<clus scale="   88.449">  7  8 -1 -1</clus>
<clus scale="  102.334">  2  5  1 -1</clus>
<clus scale="   58.748">  1  5  2 -1</clus>
</clustering>
</event>
<event>
 9    2  0.1751298E-004  0.1062233E+03  0.7546771E-02  0.1272421E+00
          2   -1    0    0  502    0 -0.00000000000E+00  0.00000000000E+00  0.34252115779E+03  0.34252115779E+03  0.00000000000E+00 0. -1.
         21   -1    0    0  501  502  0.00000000000E+00 -0.00000000000E+00 -0.50269130956E+02  0.50269130956E+02  0.00000000000E+00 0.  1.
         24    2    1    2    0    0 -0.80192355006E+01 -0.57307613988E+02  0.24113378920E+03  0.26086131419E+03  0.80960794126E+02 0.  0.
         23    2    1    2    0    0  0.57360057432E+01  0.36931842532E+02  0.32711644266E+02  0.10437561034E+03  0.91800618777E+02 0.  0.
        -13    1    3    3    0    0 -0.30790644789E+02 -0.95925004286E+01  0.33096805524E+02  0.46211236804E+02  0.00000000000E+00 0.  1.
         14    1    3    3    0    0  0.22771409289E+02 -0.47715113559E+02  0.20803698368E+03  0.21465007738E+03  0.00000000000E+00 0. -1.
        -13    1    4    4    0    0 -0.17010065004E+02  0.23695119476E+02 -0.26607196398E+02  0.39480930822E+02  0.00000000000E+00 0.  1.
         13    1    4    4    0    0  0.22746070747E+02  0.13236723055E+02  0.59318840663E+02  0.64894679515E+02  0.00000000000E+00 0. -1.
          1    1    1    2  501    0  0.22832297574E+01  0.20375771456E+02  0.18406593364E+02  0.27553364220E+02  0.00000000000E+00 0. -1.
<scales pt_clust_5="13000.00000" pt_clust_6="13000.00000" pt_clust_7="13000.00000" pt_clust_8="13000.00000" pt_clust_9="20.50330"></scales>
<clustering>
<clus scale="   20.503">  2  9  1 -1</clus>
<clus scale="   80.961">  5  6 -1 -1</clus>
<clus scale="   91.801">  7  8 -1 -1</clus>
<clus scale="   97.009">  1  5  2 -1</clus>
<clus scale="   20.503">  2  5  1 -1</clus>
</clustering>
</event>
<event>
 9    2  0.1751298E-004  0.2433602E+03  0.7546771E-02  0.1134650E+00
         21   -1    0    0  501  502  0.00000000000E+00  0.00000000000E+00  0.37732039098E+02  0.37732039098E+02  0.00000000000E+00 0. -1.
          2   -1    0    0  502    0 -0.00000000000E+00 -0.00000000000E+00 -0.32013430000E+04  0.32013430000E+04  0.00000000000E+00 0. -1.
         23    2    1    2    0    0 -0.47668198828E+02 -0.12250351697E+03 -0.80420573010E+03  0.81987445697E+03  0.90376435078E+02 0.  0.
         24    2    1    2    0    0  0.15541648597E+03 -0.14274457568E+03 -0.71594532725E+03  0.75098995436E+03  0.82933117236E+02 0.  0.
        -11    1    4    4    0    0  0.62179367061E+02 -0.94358695568E+02 -0.26718667052E+03  0.29010093764E+03  0.00000000000E+00 0.  1.
         12    1    4    4    0    0  0.93237118905E+02 -0.48385880110E+02 -0.44875865673E+03  0.46088901671E+03  0.00000000000E+00 0. -1.
        -13    1    3    3    0    0 -0.20150977009E+02 -0.12515921187E+03 -0.72458031319E+03  0.73558651460E+03  0.00000000000E+00 0.  1.
         13    1    3    3    0    0 -0.27517221819E+02  0.26556948956E+01 -0.79625416902E+02  0.84287942369E+02  0.00000000000E+00 0. -1.
          1    1    1    2  501    0 -0.10774828714E+03  0.26524809265E+03 -0.16434599036E+04  0.16682106278E+04  0.00000000000E+00 0. -1.
<scales pt_clust_5="13000.00000" pt_clust_6="13000.00000" pt_clust_7="13000.00000" pt_clust_8="13000.00000" pt_clust_9="228.79327"></scales>
<clustering>
<clus scale="   82.933">  5  6 -1 -1</clus>
<clus scale="   90.376">  7  8 -1 -1</clus>
<clus scale="  159.522">  2  7  1 -1</clus>
<clus scale="  228.793">  1  9  2 -1</clus>
<clus scale="  228.793">  1  5  2 -1</clus>
</clustering>
</event>
<event>
 9    2  0.1751298E-004  0.9128120E+02  0.7546771E-02  0.1302226E+00
          2   -1    0    0  502    0 -0.00000000000E+00  0.00000000000E+00  0.42257664325E+03  0.42257664325E+03  0.00000000000E+00 0. -1.
         21   -1    0    0  501  502  0.00000000000E+00 -0.00000000000E+00 -0.51878253877E+02  0.51878253877E+02  0.00000000000E+00 0. -1.
         24    2    1    2    0    0  0.14459895130E+02  0.11694920042E+01  0.19036778794E+03  0.20940902116E+03  0.86033639826E+02 0.  0.
         23    2    1    2    0    0  0.44402066316E+02  0.35644387290E+02  0.16080722211E+03  0.19292684551E+03  0.90109595461E+02 0.  0.
        -13    1    3    3    0    0 -0.35108393844E+02 -0.68619691166E+01  0.62165235175E+02  0.71723095324E+02  0.00000000000E+00 0.  1.
         14    1    3    3    0    0  0.49568288974E+02  0.80314611207E+01  0.12820255276E+03  0.13768592584E+03  0.00000000000E+00 0. -1.
        -13    1    4    4    0    0 -0.26930056693E+01 -0.23374993715E+02  0.75118573985E+02  0.78717487055E+02  0.00000000000E+00 0.  1.
         13    1    4    4    0    0  0.47095071985E+02  0.59019381005E+02  0.85688648129E+02  0.11420935845E+03  0.00000000000E+00 0. -1.
          1    1    1    2  501    0 -0.58861961446E+02 -0.36813879294E+02  0.19523379319E+02  0.72119030456E+02  0.00000000000E+00 0. -1.
<scales pt_clust_5="13000.00000" pt_clust_6="13000.00000" pt_clust_7="13000.00000" pt_clust_8="13000.00000" pt_clust_9="69.42616"></scales>
<clustering>
<clus scale="   69.426">  2  9  1 -1</clus>
<clus scale="   86.034">  5  6 -1 -1</clus>
<clus scale="   87.260">  1  5  2 -1</clus>
<clus scale="   90.110">  7  8 -1 -1</clus>
<clus scale="   69.426">  2  5  1 -1</clus>
</clustering>
</event>
<event>
 9    2  0.1751298E-004  0.9669804E+02  0.7546771E-02  0.1294925E+00
          4   -1    0    0  502    0 -0.00000000000E+00  0.00000000000E+00  0.10328999769E+03  0.10328999769E+03  0.00000000000E+00 0. -1.
         21   -1    0    0  501  502  0.00000000000E+00 -0.00000000000E+00 -0.18921921426E+03  0.18921921426E+03  0.00000000000E+00 0.  1.
         24    2    1    2    0    0 -0.16629343514E+02  0.32455993831E+02 -0.17571818691E+02  0.87911591198E+02  0.78036865990E+02 0.  0.
         23    2    1    2    0    0 -0.30375584290E+02 -0.27476100629E+02 -0.10468385013E+03  0.14498324575E+03  0.91563206819E+02 0.  0.
        -13    1    3    3    0    0  0.37475145022E+01  0.21369495271E+02 -0.46214297910E+02  0.51053506484E+02  0.00000000000E+00 0.  1.
         14    1    3    3    0    0 -0.20376858016E+02  0.11086498560E+02  0.28642479219E+02  0.36858084713E+02  0.00000000000E+00 0. -1.
        -11    1    4    4    0    0 -0.43676041453E+02 -0.54642637029E+02 -0.76099459478E+02  0.10336605880E+03  0.00000000000E+00 0.  1.
         11    1    4    4    0    0  0.13300457163E+02  0.27166536400E+02 -0.28584390651E+02  0.41617186950E+02  0.00000000000E+00 0. -1.
          3    1    1    2  501    0  0.47004927804E+02 -0.49798932017E+01  0.36326452244E+02  0.59614375001E+02  0.00000000000E+00 0. -1.
<scales pt_clust_5="13000.00000" pt_clust_6="13000.00000" pt_clust_7="13000.00000" pt_clust_8="13000.00000" pt_clust_9="47.26801"></scales>
<clustering>
<clus scale="   47.268">  2  9  1 -1</clus>
<clus scale="   78.037">  5  6 -1 -1</clus>
<clus scale="   84.003">  1  5  2 -1</clus>
<clus scale="   91.563">  7  8 -1 -1</clus>
<clus scale="   47.268">  2  5  1 -1</clus>
</clustering>
</event>
<event>
 9    2  0.1751298E-004  0.1072532E+03  0.7546771E-02  0.1269732E+00
         21   -1    0    0  501  502  0.00000000000E+00  0.00000000000E+00  0.89840861110E+02  0.89840861110E+02  0.00000000000E+00 0.  1.
         -1   -1    0    0    0  501 -0.00000000000E+00 -0.00000000000E+00 -0.56558300052E+03  0.56558300052E+03  0.00000000000E+00 0.  1.
         23    2    1    2    0    0  0.57290736162E+02  0.26743926728E+02 -0.37526477045E+03  0.39127901018E+03  0.90984338207E+02 0.  0.
         24    2    1    2    0    0 -0.58570867439E+01  0.20136666120E+02  0.50379414780E+02  0.98009426335E+02  0.81412354280E+02 0.  0.
        -11    1    4    4    0    0  0.14193378088E+02  0.42447543270E+02  0.70492821223E+01  0.45309362053E+02  0.00000000000E+00 0.  1.
         12    1    4    4    0    0 -0.20050464832E+02 -0.22310877150E+02  0.43330132658E+02  0.52700064282E+02  0.00000000000E+00 0. -1.
        -13    1    3    3    0    0 -0.20758212268E+02  0.22459424661E+02 -0.14233271835E+03  0.14558135817E+03  0.00000000000E+00 0. -1.
         13    1    3    3    0    0  0.78048948430E+02  0.42845020664E+01 -0.23293205210E+03  0.24569765201E+03  0.00000000000E+00 0.  1.
         -2    1    1    2    0  502 -0.51433649418E+02 -0.46880592848E+02 -0.15085678374E+03  0.16613542512E+03  0.00000000000E+00 0.  1.
<scales pt_clust_5="13000.00000" pt_clust_6="13000.00000" pt_clust_7="13000.00000" pt_clust_8="13000.00000" pt_clust_9="69.59321"></scales>
<clustering>
<clus scale="   69.593">  1  9  2 -1</clus>
<clus scale="   81.412">  5  6 -1 -1</clus>
<clus scale="   90.984">  7  8 -1 -1</clus>
<clus scale="   99.263">  1  5  2 -1</clus>
<clus scale="   69.593">  1  5  2 -1</clus>
</clustering>
</event>
<event>
 9    2  0.1751298E-004  0.1140873E+03  0.7546771E-02  0.1256309E+00
          2   -1    0    0  502    0 -0.00000000000E+00  0.00000000000E+00  0.21515249477E+03  0.21515249477E+03  0.00000000000E+00 0. -1.
         21   -1    0    0  501  502  0.00000000000E+00 -0.00000000000E+00 -0.10712939099E+03  0.10712939099E+03  0.00000000000E+00 0.  1.
         23    2    1    2    0    0 -0.24909766556E+02  0.63018198302E+02  0.12864612039E+03  0.17077742019E+03  0.89572948871E+02 0.  0.
         24    2    1    2    0    0  0.19350004739E+01 -0.84493081111E+02 -0.25775448846E+02  0.11963664440E+03  0.80658092819E+02 0.  0.
        -13    1    4    4    0    0 -0.20473115499E+02 -0.43717018609E+02 -0.47998039047E+02  0.68074502764E+02  0.00000000000E+00 0.  1.
         14    1    4    4    0    0  0.22408115973E+02 -0.40776062502E+02  0.22222590201E+02  0.51562141634E+02  0.00000000000E+00 0. -1.
        -13    1    3    3    0    0 -0.54569657448E+02  0.33730615367E+02  0.48440521102E+02  0.80387101027E+02  0.00000000000E+00 0.  1.
         13    1    3    3    0    0  0.29659890892E+02  0.29287582935E+02  0.80205599283E+02  0.90390319162E+02  0.00000000000E+00 0. -1.
          1    1    1    2  501    0  0.22974766082E+02  0.21474882809E+02  0.51524322419E+01  0.31867821171E+02  0.00000000000E+00 0. -1.
<scales pt_clust_5="13000.00000" pt_clust_6="13000.00000" pt_clust_7="13000.00000" pt_clust_8="13000.00000" pt_clust_9="31.44854"></scales>
<clustering>
<clus scale="   31.449">  2  9  1 -1</clus>
<clus scale="   80.658">  5  6 -1 -1</clus>
<clus scale="   89.573">  7  8 -1 -1</clus>
<clus scale="  107.230">  2  5  1 -1</clus>
<clus scale="   31.449">  2  5  1 -1</clus>
</clustering>
</event>
<event>
 9    2  0.1751298E-004  0.1429162E+03  0.7546771E-02  0.1212087E+00
         -3   -1    0    0    0  501 -0.00000000000E+00  0.00000000000E+00  0.21691251018E+03  0.21691251018E+03  0.00000000000E+00 0.  1.
         21   -1    0    0  501  502  0.00000000000E+00 -0.00000000000E+00 -0.15655745728E+03  0.15655745728E+03  0.00000000000E+00 0.  1.
         24    2    1    2    0    0 -0.13876394185E+03  0.14821883125E+02  0.73669793943E+02  0.17704066326E+03  0.80256078468E+02 0.  0.
         23    2    1    2    0    0  0.67825380130E+02 -0.36774114306E+02  0.16639721840E+01  0.12067614028E+03  0.92775774619E+02 0.  0.
        -11    1    3    3    0    0 -0.13099617910E+03  0.14266821389E+01  0.35318484249E+02  0.13568135351E+03  0.00000000000E+00 0.  1.
         12    1    3    3    0    0 -0.77677627471E+01  0.13395200986E+02  0.38351309694E+02  0.41359309747E+02  0.00000000000E+00 0. -1.
        -11    1    4    4    0    0  0.42711881286E+02 -0.48347081245E+02  0.38110098360E+02  0.74927462688E+02  0.00000000000E+00 0. -1.
         11    1    4    4    0    0  0.25113498844E+02  0.11572966939E+02 -0.36446126176E+02  0.45748677590E+02  0.00000000000E+00 0.  1.
         -4    1    1    2    0  502  0.70938561721E+02  0.21952231181E+02 -0.14978713228E+02  0.75753163913E+02  0.00000000000E+00 0.  1.
<scales pt_clust_5="13000.00000" pt_clust_6="13000.00000" pt_clust_7="13000.00000" pt_clust_8="13000.00000" pt_clust_9="74.25752"></scales>
<clustering>
<clus scale="   74.258">  2  9  1 -1</clus>
<clus scale="   80.256">  5  6 -1 -1</clus>
<clus scale="   92.776">  7  8 -1 -1</clus>
<clus scale="  135.125">  1  5  2 -1</clus>
<clus scale="   74.258">  2  5  1 -1</clus>
</clustering>
</event>
<event>
 9    2  0.1751298E-004  0.1660408E+03  0.7546771E-02  0.1188705E+00
         21   -1    0    0  501  502  0.00000000000E+00  0.00000000000E+00  0.47860275807E+02  0.47860275807E+02  0.00000000000E+00 0. -1.
          2   -1    0    0  502    0 -0.00000000000E+00 -0.00000000000E+00 -0.13142728427E+04  0.13142728427E+04  0.00000000000E+00 0. -1.
         23    2    1    2    0    0 -0.92308458156E+02 -0.51696686604E+02 -0.62701449402E+03  0.64314512351E+03  0.96410970995E+02 0.  0.
         24    2    1    2    0    0  0.74433080816E+02 -0.11546936891E+03 -0.34546210053E+03  0.38036966255E+03  0.80396259947E+02 0.  0.
        -11    1    4    4    0    0  0.41653583285E+02 -0.72214887613E+01 -0.13469521935E+03  0.14117355636E+03  0.00000000000E+00 0.  1.
         12    1    4    4    0    0  0.32779497531E+02 -0.10824788015E+03 -0.21076688117E+03  0.23919610619E+03  0.00000000000E+00 0. -1.
        -11    1    3    3    0    0 -0.10604240685E+02 -0.60059433332E+02 -0.26209666032E+03  0.26909894984E+03  0.00000000000E+00 0.  1.
         11    1    3    3    0    0 -0.81704217471E+02  0.83627467285E+01 -0.36491783370E+03  0.37404617367E+03  0.00000000000E+00 0. -1.
          1    1    1    2  501    0  0.17875377340E+02  0.16716605551E+03 -0.29393597236E+03  0.33861833246E+03  0.00000000000E+00 0. -1.
<scales pt_clust_5="13000.00000" pt_clust_6="13000.00000" pt_clust_7="13000.00000" pt_clust_8="13000.00000" pt_clust_9="145.27904"></scales>
<clustering>
<clus scale="   80.396">  5  6 -1 -1</clus>
<clus scale="   96.411">  7  8 -1 -1</clus>
<clus scale="  143.138">  2  7  1 -1</clus>
<clus scale="  145.279">  1  9  2 -1</clus>
<clus scale="  145.279">  1  5  2 -1</clus>
</clustering>
</event>
<event>
 9    2  0.1751298E-004  0.2101772E+03  0.7546771E-02  0.1168970E+00
          2   -1    0    0  502    0 -0.00000000000E+00  0.00000000000E+00  0.16517547839E+04  0.16517547839E+04  0.00000000000E+00 0. -1.
         21   -1    0    0  501  502  0.00000000000E+00 -0.00000000000E+00 -0.43518100357E+02  0.43518100357E+02  0.00000000000E+00 0. -1.
         23    2    1    2    0    0  0.60946517060E+02 -0.15586824786E+02  0.47755105958E+03  0.49007433969E+03  0.90335025682E+02 0.  0.
         24    2    1    2    0    0  0.41933934542E+02 -0.17512840017E+03  0.46906448600E+03  0.50899511556E+03  0.81401008791E+02 0.  0.
        -11    1    4    4    0    0  0.65634140889E+02 -0.11307802920E+03  0.32699321448E+03  0.35216337609E+03  0.00000000000E+00 0.  1.
         12    1    4    4    0    0 -0.23700206347E+02 -0.62050370966E+02  0.14207127151E+03  0.15683173948E+03  0.00000000000E+00 0. -1.
        -11    1    3    3    0    0  0.81975988011E+02 -0.13124530628E+02  0.43115850339E+03  0.43907854760E+03  0.00000000000E+00 0. -1.
         11    1    3    3    0    0 -0.21029470951E+02 -0.24622941579E+01  0.46392556185E+02  0.50995792085E+02  0.00000000000E+00 0.  1.
          1    1    1    2  501    0 -0.10288045160E+03  0.19071522496E+03  0.66162113792E+03  0.69620342896E+03  0.00000000000E+00 0. -1.
<scales pt_clust_5="13000.00000" pt_clust_6="13000.00000" pt_clust_7="13000.00000" pt_clust_8="13000.00000" pt_clust_9="193.77406"></scales>
<clustering>
<clus scale="   81.401">  5  6 -1 -1</clus>
<clus scale="   90.335">  7  8 -1 -1</clus>
<clus scale="  110.081">  1  7  2 -1</clus>
<clus scale="  193.774">  2  9  1 -1</clus>
<clus scale="  193.774">  2  5  1 -1</clus>
</clustering>
</event>
<event>
 9    2  0.1751298E-004  0.1361003E+03  0.7546771E-02  0.1220503E+00
          2   -1    0    0  502    0 -0.00000000000E+00  0.00000000000E+00  0.71156137368E+03  0.71156137368E+03  0.00000000000E+00 0. -1.
         21   -1    0    0  501  502  0.00000000000E+00 -0.00000000000E+00 -0.56624421297E+02  0.56624421297E+02  0.00000000000E+00 0. -1.
         23    2    1    2    0    0  0.32567995938E+02  0.73883722489E+02  0.23376029116E+03  0.26339681084E+03  0.90634030202E+02 0.  0.
         24    2    1    2    0    0  0.20299518599E+02 -0.15489271603E+03  0.22569443480E+03  0.28668182704E+03  0.82732509442E+02 0.  0.
        -11    1    4    4    0    0 -0.21568127940E+01 -0.91900100482E+02  0.64877207926E+02  0.11251369880E+03  0.00000000000E+00 0.  1.
         12    1    4    4    0    0  0.22456331393E+02 -0.62992615552E+02  0.16081722687E+03  0.17416812823E+03  0.00000000000E+00 0. -1.
        -13    1    3    3    0    0 -0.13148890243E+02  0.65945292084E+02  0.90083518698E+02  0.11241314516E+03  0.00000000000E+00 0. -1.
         13    1    3    3    0    0  0.45716886181E+02  0.79384304051E+01  0.14367677246E+03  0.15098366569E+03  0.00000000000E+00 0.  1.
          1    1    1    2  501    0 -0.52867514537E+02  0.81008993545E+02  0.19548222642E+03  0.21810715710E+03  0.00000000000E+00 0. -1.
<scales pt_clust_5="13000.00000" pt_clust_6="13000.00000" pt_clust_7="13000.00000" pt_clust_8="13000.00000" pt_clust_9="96.73386"></scales>
<clustering>
<clus scale="   82.733">  5  6 -1 -1</clus>
<clus scale="   90.634">  7  8 -1 -1</clus>
<clus scale="   96.734">  2  9  1 -1</clus>
<clus scale="  130.971">  2  5  1 -1</clus>
<clus scale="   96.734">  2  5  1 -1</clus>
</clustering>
</event>
<event>
 9    2  0.1751298E-004  0.9709618E+02  0.7546771E-02  0.1287026E+00
         21   -1    0    0  501  502  0.00000000000E+00  0.00000000000E+00  0.16242254314E+03  0.16242254314E+03  0.00000000000E+00 0.  1.
         -1   -1    0    0    0  501 -0.00000000000E+00 -0.00000000000E+00 -0.22295812616E+03  0.22295812616E+03  0.00000000000E+00 0.  1.
         23    2    1    2    0    0 -0.62931623185E+02  0.15134215980E+02 -0.14611382124E+03  0.17922665819E+03  0.81138847408E+02 0.  0.
         24    2    1    2    0    0  0.14696802375E+02 -0.39487109155E+02 -0.15277880494E+02  0.91735402368E+02  0.80042130318E+02 0.  0.
        -11    1    4    4    0    0  0.23707673992E+02 -0.60079570107E+02 -0.22068918760E+02  0.68254272581E+02  0.00000000000E+00 0.  1.
         12    1    4    4    0    0 -0.90108716172E+01  0.20592460952E+02  0.67910382659E+01  0.23481129787E+02  0.00000000000E+00 0. -1.
        -11    1    3    3    0    0 -0.45263862382E+02  0.44054939601E+02 -0.12279772614E+03  0.13809032003E+03  0.00000000000E+00 0.  1.
         11    1    3    3    0    0 -0.17667760803E+02 -0.28920723621E+02 -0.23316095104E+02  0.41136338163E+02  0.00000000000E+00 0. -1.
         -2    1    1    2    0  502  0.48234820810E+02  0.24352893175E+02  0.10085611871E+03  0.11441860874E+03  0.00000000000E+00 0.  1.
<scales pt_clust_5="13000.00000" pt_clust_6="13000.00000" pt_clust_7="13000.00000" pt_clust_8="13000.00000" pt_clust_9="54.03389"></scales>
<clustering>
<clus scale="   54.034">  1  9  2 -1</clus>
<clus scale="   80.042">  5  6 -1 -1</clus>
<clus scale="   81.139">  7  8 -1 -1</clus>
<clus scale="   96.182">  1  5  2 -1</clus>
<clus scale="   54.034">  1  5  2 -1</clus>
</clustering>
</event>
<event>
 9    2  0.1751298E-004  0.1856352E+03  0.7546771E-02  0.1180085E+00
         21   -1    0    0  501  502  0.00000000000E+00  0.00000000000E+00  0.80776164972E+02  0.80776164972E+02  0.00000000000E+00 0.  1.
          2   -1    0    0  502    0 -0.00000000000E+00 -0.00000000000E+00 -0.74868966458E+03  0.74868966458E+03  0.00000000000E+00 0. -1.
         23    2    1    2    0    0 -0.80333565169E+02  0.87668867551E+01 -0.22346724182E+03  0.25563657163E+03  0.94244939338E+02 0.  0.
         24    2    1    2    0    0  0.21134474493E+03  0.90149618018E+01 -0.23375314008E+03  0.32508900544E+03  0.79337634275E+02 0.  0.
        -13    1    4    4    0    0  0.12153969589E+03  0.94587098688E+01 -0.76273483631E+02  0.14380197904E+03  0.00000000000E+00 0.  1.
         14    1    4    4    0    0  0.89805049037E+02 -0.44374806701E+00 -0.15747965645E+03  0.18128702640E+03  0.00000000000E+00 0. -1.
        -13    1    3    3    0    0 -0.66101659873E+02  0.47882050958E+02 -0.13291724721E+03  0.15597793064E+03  0.00000000000E+00 0. -1.
         13    1    3    3    0    0 -0.14231905296E+02 -0.39115164203E+02 -0.90549994608E+02  0.99658640982E+02  0.00000000000E+00 0.  1.
          1    1    1    2  501    0 -0.13101117976E+03 -0.17781848557E+02 -0.21069311771E+03  0.24874025249E+03  0.00000000000E+00 0. -1.
<scales pt_clust_5="13000.00000" pt_clust_6="13000.00000" pt_clust_7="13000.00000" pt_clust_8="13000.00000" pt_clust_9="167.82720"></scales>
<clustering>
<clus scale="   79.338">  5  6 -1 -1</clus>
<clus scale="   94.245">  7  8 -1 -1</clus>
<clus scale="  124.147">  2  7  1 -1</clus>
<clus scale="  167.827">  1  9  2 -1</clus>
<clus scale="  167.827">  1  5  2 -1</clus>
</clustering>
</event>
<event>
 9    2  0.1751298E-004  0.2601057E+03  0.7546771E-02  0.1123618E+00
         21   -1    0    0  501  502  0.00000000000E+00  0.00000000000E+00  0.19526279903E+03  0.19526279903E+03  0.00000000000E+00 0. -1.
          2   -1    0    0  502    0 -0.00000000000E+00 -0.00000000000E+00 -0.78736343079E+03  0.78736343079E+03  0.00000000000E+00 0. -1.
         23    2    1    2    0    0 -0.11735888054E+03 -0.86847901965E+02 -0.27393241690E+03  0.32313000392E+03  0.89768399150E+02 0.  0.
         24    2    1    2    0    0 -0.12607165518E+03 -0.16093599410E+03 -0.64414335745E+02  0.22932612461E+03  0.81527960489E+02 0.  0.
        -13    1    4    4    0    0 -0.10189539148E+02 -0.68870367571E+02 -0.48551255131E+01  0.69789157333E+02  0.00000000000E+00 0.  1.
         14    1    4    4    0    0 -0.11588211603E+03 -0.92065626530E+02 -0.59559210232E+02  0.15953696728E+03  0.00000000000E+00 0. -1.
        -11    1    3    3    0    0 -0.46883647197E+02 -0.85210568768E+02 -0.19060271432E+03  0.21398203689E+03  0.00000000000E+00 0. -1.
         11    1    3    3    0    0 -0.70475233345E+02 -0.16373331974E+01 -0.83329702582E+02  0.10914796703E+03  0.00000000000E+00 0.  1.
          1    1    1    2  501    0  0.24343053572E+03  0.24778389607E+03 -0.25375387912E+03  0.43017010128E+03  0.00000000000E+00 0. -1.
<scales pt_clust_5="13000.00000" pt_clust_6="13000.00000" pt_clust_7="13000.00000" pt_clust_8="13000.00000" pt_clust_9="246.99841"></scales>
<clustering>
<clus scale="   81.528">  5  6 -1 -1</clus>
<clus scale="   89.768">  7  8 -1 -1</clus>
<clus scale="  171.389">  2  7  1 -1</clus>
<clus scale="  246.998">  1  9  2 -1</clus>
<clus scale="  246.998">  1  5  2 -1</clus>
</clustering>
</event>
<event>
 9    2  0.1751298E-004  0.3528653E+03  0.7546771E-02  0.1061445E+00
         -1   -1    0    0    0  501 -0.00000000000E+00  0.00000000000E+00  0.13005417731E+04  0.13005417731E+04  0.00000000000E+00 0.  1.
         21   -1    0    0  501  502  0.00000000000E+00 -0.00000000000E+00 -0.97757451987E+02  0.97757451987E+02  0.00000000000E+00 0. -1.
         24    2    1    2    0    0  0.48066029199E+02 -0.10524966558E+03  0.21684753778E+03  0.25884667996E+03  0.81184443207E+02 0.  0.
         23    2    1    2    0    0  0.86473167447E+02 -0.15641563412E+03  0.13658213652E+03  0.24057945032E+03  0.85324865152E+02 0.  0.
        -13    1    3    3    0    0  0.61833615881E+02 -0.91518270298E+02  0.21162392141E+03  0.23871253416E+03  0.00000000000E+00 0.  1.
         14    1    3    3    0    0 -0.13767586681E+02 -0.13731395277E+02  0.52236163723E+01  0.20134145805E+02  0.00000000000E+00 0. -1.
        -13    1    4    4    0    0  0.56366732056E+02 -0.15374731074E+03  0.13130828908E+03  0.20989833449E+03  0.00000000000E+00 0.  1.
         13    1    4    4    0    0  0.30106435391E+02 -0.26683233865E+01  0.52738474411E+01  0.30681115828E+02  0.00000000000E+00 0. -1.
         -2    1    1    2    0  502 -0.13453919665E+03  0.26166529970E+03  0.84935464682E+03  0.89887309481E+03  0.00000000000E+00 0.  1.
<scales pt_clust_5="13000.00000" pt_clust_6="13000.00000" pt_clust_7="13000.00000" pt_clust_8="13000.00000" pt_clust_9="294.22714"></scales>
<clustering>
<clus scale="   81.184">  5  6 -1 -1</clus>
<clus scale="   85.325">  7  8 -1 -1</clus>
<clus scale="  111.971">  5  7 -1 -1</clus>
<clus scale="  294.227">  2  9  1 -1</clus>
<clus scale="  294.227">  2  5  1 -1</clus>
</clustering>
</event>
<event>
 9    2  0.1751298E-004  0.1035885E+03  0.7546771E-02  0.1287484E+00
         21   -1    0    0  501  502  0.00000000000E+00  0.00000000000E+00  0.57713898634E+03  0.57713898634E+03  0.00000000000E+00 0. -1.
         -3   -1    0    0    0  501 -0.00000000000E+00 -0.00000000000E+00 -0.33071825598E+02  0.33071825598E+02  0.00000000000E+00 0.  1.
         23    2    1    2    0    0 -0.68001236140E+01 -0.24371773234E+02  0.89088873846E+02  0.13560654801E+03  0.99055960995E+02 0.  0.
         24    2    1    2    0    0  0.40745859224E+02  0.35068563212E+02  0.39217666854E+03  0.40241854824E+03  0.72443905511E+02 0.  0.
        -13    1    4    4    0    0 -0.20089287944E+02  0.27687790549E+01  0.65844280546E+02  0.68896407078E+02  0.00000000000E+00 0.  1.
         14    1    4    4    0    0  0.60835147168E+02  0.32299784157E+02  0.32633238800E+03  0.33352214116E+03  0.00000000000E+00 0. -1.
        -13    1    3    3    0    0  0.33228592474E+02  0.80617355361E+01  0.74640694959E+02  0.82099721569E+02  0.00000000000E+00 0.  1.
         13    1    3    3    0    0 -0.40028716088E+02 -0.32433508770E+02  0.14448178887E+02  0.53506826442E+02  0.00000000000E+00 0. -1.
         -4    1    1    2    0  502 -0.33945735610E+02 -0.10696789978E+02  0.62801618351E+02  0.72185715689E+02  0.00000000000E+00 0.  1.
<scales pt_clust_5="13000.00000" pt_clust_6="13000.00000" pt_clust_7="13000.00000" pt_clust_8="13000.00000" pt_clust_9="35.59123"></scales>
<clustering>
<clus scale="   35.591">  1  9  2 -1</clus>
<clus scale="   72.444">  5  6 -1 -1</clus>
<clus scale="   78.528">  1  5  2 -1</clus>
<clus scale="   99.056">  7  8 -1 -1</clus>
<clus scale="   35.591">  1  5  2 -1</clus>
</clustering>
</event>
<event>
 9    2  0.1751298E-004  0.1619456E+03  0.7546771E-02  0.1189107E+00
          2   -1    0    0  502    0 -0.00000000000E+00  0.00000000000E+00  0.72133907931E+03  0.72133907931E+03  0.00000000000E+00 0. -1.
         21   -1    0    0  501  502  0.00000000000E+00 -0.00000000000E+00 -0.50036797160E+02  0.50036797160E+02  0.00000000000E+00 0.  1.
         23    2    1    2    0    0  0.19760656996E+02  0.13321816561E+03  0.40226362207E+03  0.43490862607E+03  0.95874543927E+02 0.  0.
         24    2    1    2    0    0  0.14188461539E+02 -0.12699294673E+03  0.26053434999E+03  0.30091982729E+03  0.79662249358E+02 0.  0.
        -13    1    4    4    0    0  0.30912798445E+02 -0.10236802988E+03  0.13668949929E+03  0.17354778554E+03  0.00000000000E+00 0.  1.
         14    1    4    4    0    0 -0.16724336906E+02 -0.24624916843E+02  0.12384485071E+03  0.12737204175E+03  0.00000000000E+00 0. -1.
        -11    1    3    3    0    0 -0.98223638571E+01  0.13261582663E+03  0.29402004360E+03  0.32269369741E+03  0.00000000000E+00 0. -1.
         11    1    3    3    0    0  0.29583020853E+02  0.60233897778E+00  0.10824357847E+03  0.11221492866E+03  0.00000000000E+00 0.  1.
          1    1    1    2  501    0 -0.33949118535E+02 -0.62252188848E+01  0.85043100841E+01  0.35547423106E+02  0.00000000000E+00 0. -1.
<scales pt_clust_5="13000.00000" pt_clust_6="13000.00000" pt_clust_7="13000.00000" pt_clust_8="13000.00000" pt_clust_9="34.51516"></scales>
<clustering>
<clus scale="   34.515">  2  9  1 -1</clus>
<clus scale="   79.662">  5  6 -1 -1</clus>
<clus scale="   95.875">  7  8 -1 -1</clus>
<clus scale="  152.907">  2  5  1 -1</clus>
<clus scale="   34.515">  2  5  1 -1</clus>
</clustering>
</event>
<event>
 9    2  0.1751298E-004  0.3223296E+03  0.7546771E-02  0.1074956E+00
          2   -1    0    0  502    0 -0.00000000000E+00  0.00000000000E+00  0.29244671018E+03  0.29244671018E+03  0.00000000000E+00 0. -1.
         21   -1    0    0  501  502  0.00000000000E+00 -0.00000000000E+00 -0.74194875803E+03  0.74194875803E+03  0.00000000000E+00 0. -1.
         23    2    1    2    0    0 -0.29555228024E+03 -0.11660461487E+03  0.99411907025E+02  0.34557322467E+03  0.92684085944E+02 0.  0.
         24    2    1    2    0    0  0.27068822909E+03  0.38319175339E+02 -0.53405205057E+03  0.60534944987E+03  0.80597066833E+02 0.  0.
        -13    1    4    4    0    0  0.10617033089E+03  0.22168460075E+02 -0.13335846382E+03  0.17189549050E+03  0.00000000000E+00 0.  1.
         14    1    4    4    0    0  0.16451789819E+03  0.16150715264E+02 -0.40069358675E+03  0.43345395937E+03  0.00000000000E+00 0. -1.
        -13    1    3    3    0    0 -0.23737552568E+03 -0.89877513291E+02  0.11654363627E+03  0.27929827558E+03  0.00000000000E+00 0. -1.
         13    1    3    3    0    0 -0.58176754563E+02 -0.26727101582E+02 -0.17131729246E+02  0.66274949094E+02  0.00000000000E+00 0.  1.
          1    1    1    2  501    0  0.24864051154E+02  0.78285439534E+02 -0.14861904310E+02  0.83472793667E+02  0.00000000000E+00 0. -1.
<scales pt_clust_5="13000.00000" pt_clust_6="13000.00000" pt_clust_7="13000.00000" pt_clust_8="13000.00000" pt_clust_9="82.13914"></scales>
<clustering>
<clus scale="   80.597">  5  6 -1 -1</clus>
<clus scale="   82.139">  2  9  1 -1</clus>
<clus scale="   92.684">  7  8 -1 -1</clus>
<clus scale="  319.064">  2  5  1 -1</clus>
<clus scale="   82.139">  2  5  1 -1</clus>
</clustering>
</event>
<event>
 9    2  0.1751298E-004  0.1501602E+03  0.7546771E-02  0.1210183E+00
         -1   -1    0    0    0  501 -0.00000000000E+00  0.00000000000E+00  0.54255849223E+03  0.54255849223E+03  0.00000000000E+00 0.  1.
         21   -1    0    0  501  502  0.00000000000E+00 -0.00000000000E+00 -0.98154362870E+02  0.98154362870E+02  0.00000000000E+00 0.  1.
         23    2    1    2    0    0  0.74853420433E+02 -0.22976167476E+02  0.27069314796E+03  0.29663687311E+03  0.92669926697E+02 0.  0.
         24    2    1    2    0    0  0.59422979543E+01 -0.97864508817E+02  0.15017870282E+03  0.19682047176E+03  0.81067147073E+02 0.  0.
        -13    1    4    4    0    0 -0.26506258655E+02 -0.71689967854E+02  0.12928396753E+03  0.15018780742E+03  0.00000000000E+00 0.  1.
         14    1    4    4    0    0  0.32448556609E+02 -0.26174540962E+02  0.20894735286E+02  0.46632664338E+02  0.00000000000E+00 0. -1.
        -11    1    3    3    0    0  0.31017336190E+02 -0.51859114049E+02  0.19768702095E+03  0.20671623329E+03  0.00000000000E+00 0. -1.
         11    1    3    3    0    0  0.43836084244E+02  0.28882946574E+02  0.73006127015E+02  0.89920639824E+02  0.00000000000E+00 0.  1.
         -2    1    1    2    0  502 -0.80795718388E+02  0.12084067629E+03  0.23532278583E+02  0.14725551023E+03  0.00000000000E+00 0.  1.
<scales pt_clust_5="13000.00000" pt_clust_6="13000.00000" pt_clust_7="13000.00000" pt_clust_8="13000.00000" pt_clust_9="126.39698"></scales>
<clustering>
<clus scale="   81.067">  5  6 -1 -1</clus>
<clus scale="   92.670">  7  8 -1 -1</clus>
<clus scale="  121.320">  1  7  2 -1</clus>
<clus scale="  126.397">  2  9  1 -1</clus>
<clus scale="  126.397">  2  5  1 -1</clus>
</clustering>
</event>
<event>
 9    2  0.1751298E-004  0.1099435E+03  0.7546771E-02  0.1265700E+00
          4   -1    0    0  502    0 -0.00000000000E+00  0.00000000000E+00  0.10042956334E+03  0.10042956334E+03  0.00000000000E+00 0. -1.
         21   -1    0    0  501  502  0.00000000000E+00 -0.00000000000E+00 -0.28195821537E+03  0.28195821537E+03  0.00000000000E+00 0.  1.
         24    2    1    2    0    0  0.66848459025E+02  0.88731386825E+01  0.34752623661E+02  0.11002316364E+03  0.79686276247E+02 0.  0.
         23    2    1    2    0    0 -0.16516936792E+02 -0.40559396346E+02 -0.16396115223E+03  0.19315176021E+03  0.92230522064E+02 0.  0.
        -13    1    3    3    0    0  0.18134019623E+02 -0.31987939268E+02  0.27729029376E+02  0.46053990016E+02  0.00000000000E+00 0.  1.
         14    1    3    3    0    0  0.48714439402E+02  0.40861077951E+02  0.70235942860E+01  0.63969173625E+02  0.00000000000E+00 0. -1.
        -13    1    4    4    0    0 -0.24606650542E+02 -0.67732464662E+02 -0.13228746268E+03  0.15064244688E+03  0.00000000000E+00 0.  1.
         13    1    4    4    0    0  0.80897137502E+01  0.27173068316E+02 -0.31673689549E+02  0.42509313332E+02  0.00000000000E+00 0. -1.
          3    1    1    2  501    0 -0.50331522233E+02  0.31686257664E+02 -0.52320123464E+02  0.79212854855E+02  0.00000000000E+00 0. -1.
<scales pt_clust_5="13000.00000" pt_clust_6="13000.00000" pt_clust_7="13000.00000" pt_clust_8="13000.00000" pt_clust_9="59.47505"></scales>
<clustering>
<clus scale="   59.475">  2  9  1 -1</clus>
<clus scale="   79.686">  5  6 -1 -1</clus>
<clus scale="   92.231">  7  8 -1 -1</clus>
<clus scale="   99.654">  1  5  2 -1</clus>
<clus scale="   59.475">  2  5  1 -1</clus>
</clustering>
</event>
<event>
 9    2  0.1751298E-004  0.1290031E+03  0.7546771E-02  0.1232060E+00
         21   -1    0    0  501  502  0.00000000000E+00  0.00000000000E+00  0.37557387966E+02  0.37557387966E+02  0.00000000000E+00 0.  1.
          2   -1    0    0  502    0 -0.00000000000E+00 -0.00000000000E+00 -0.78478173111E+03  0.78478173111E+03  0.00000000000E+00 0. -1.
         23    2    1    2    0    0  0.78377888276E+02 -0.31073754119E+02 -0.56146146705E+03  0.57526476645E+03  0.92638550165E+02 0.  0.
         24    2    1    2    0    0 -0.10007515067E+03  0.40653398888E+02 -0.17492525761E+03  0.22099764340E+03  0.81076371511E+02 0.  0.
        -13    1    4    4    0    0 -0.11198198238E+03  0.23936584871E+02 -0.14681382896E+03  0.18619136620E+03  0.00000000000E+00 0.  1.
         14    1    4    4    0    0  0.11906831708E+02  0.16716814016E+02 -0.28111428650E+02  0.34806277206E+02  0.00000000000E+00 0. -1.
        -11    1    3    3    0    0  0.89282727185E+02 -0.33802495046E+01 -0.48602447748E+03  0.49416861917E+03  0.00000000000E+00 0. -1.
         11    1    3    3    0    0 -0.10904838909E+02 -0.27693504614E+02 -0.75436989567E+02  0.81096147284E+02  0.00000000000E+00 0.  1.
          1    1    1    2  501    0  0.21697262396E+02 -0.95796447690E+01 -0.10837618495E+02  0.26076709226E+02  0.00000000000E+00 0. -1.
<scales pt_clust_5="13000.00000" pt_clust_6="13000.00000" pt_clust_7="13000.00000" pt_clust_8="13000.00000" pt_clust_9="23.71794"></scales>
<clustering>
<clus scale="   23.718">  1  9  2 -1</clus>
<clus scale="   81.076">  5  6 -1 -1</clus>
<clus scale="   92.639">  7  8 -1 -1</clus>
<clus scale="  120.968">  1  5  2 -1</clus>
<clus scale="   23.718">  1  5  2 -1</clus>
</clustering>
</event>
<event>
 9    2  0.1751298E-004  0.9907430E+02  0.7546771E-02  0.1289192E+00
         21   -1    0    0  501  502  0.00000000000E+00  0.00000000000E+00  0.20277751353E+03  0.20277751353E+03  0.00000000000E+00 0. -1.
         -3   -1    0    0    0  501 -0.00000000000E+00 -0.00000000000E+00 -0.79904081968E+02  0.79904081968E+02  0.00000000000E+00 0.  1.
         23    2    1    2    0    0 -0.28057262765E+02  0.27575393412E+01 -0.15356917447E+02  0.98993208014E+02  0.93642972520E+02 0.  0.
         24    2    1    2    0    0  0.39473937547E+02 -0.19975099544E+02  0.80092040618E+02  0.12198872991E+03  0.80680350190E+02 0.  0.
        -11    1    4    4    0    0  0.21380773190E+02 -0.28291395692E+02 -0.38933901149E+01  0.35674907414E+02  0.00000000000E+00 0.  1.
         12    1    4    4    0    0  0.18093164357E+02  0.83162961480E+01  0.83985430732E+02  0.86313822493E+02  0.00000000000E+00 0. -1.
        -11    1    3    3    0    0  0.85012958074E+01 -0.40058724805E+02 -0.11625465891E+02  0.42569060603E+02  0.00000000000E+00 0.  1.
         11    1    3    3    0    0 -0.36558558572E+02  0.42816264147E+02 -0.37314515556E+01  0.56424147411E+02  0.00000000000E+00 0. -1.
         -4    1    1    2    0  502 -0.11416674782E+02  0.17217560203E+02  0.58138308392E+02  0.61699657577E+02  0.00000000000E+00 0.  1.
<scales pt_clust_5="13000.00000" pt_clust_6="13000.00000" pt_clust_7="13000.00000" pt_clust_8="13000.00000" pt_clust_9="20.65877"></scales>
<clustering>
<clus scale="   20.659">  1  9  2 -1</clus>
<clus scale="   80.680">  5  6 -1 -1</clus>
<clus scale="   86.925">  1  5  2 -1</clus>
<clus scale="   93.643">  7  8 -1 -1</clus>
<clus scale="   20.659">  1  5  2 -1</clus>
</clustering>
</event>
<event>
 9    2  0.1751298E-004  0.1474879E+03  0.7546771E-02  0.1205783E+00
         -3   -1    0    0    0  501 -0.00000000000E+00  0.00000000000E+00  0.75942076597E+02  0.75942076597E+02  0.00000000000E+00 0.  1.
         21   -1    0    0  501  502  0.00000000000E+00 -0.00000000000E+00 -0.46676856181E+03  0.46676856181E+03  0.00000000000E+00 0. -1.
         23    2    1    2    0    0  0.15836393514E+02  0.10551591083E+03 -0.62605674740E+02  0.15394307379E+03  0.91622053344E+02 0.  0.
         24    2    1    2    0    0 -0.44104062124E+02 -0.13535476674E+03 -0.28874803916E+03  0.33178056536E+03  0.80229871332E+02 0.  0.
        -13    1    4    4    0    0 -0.20107368782E+02  0.45574159800E+01 -0.26484040107E+02  0.33563085379E+02  0.00000000000E+00 0.  1.
         14    1    4    4    0    0 -0.23996693342E+02 -0.13991218272E+03 -0.26226399906E+03  0.29821747998E+03  0.00000000000E+00 0. -1.
        -13    1    3    3    0    0  0.29621452072E+02  0.27302192348E+01 -0.36340201726E+02  0.46962695636E+02  0.00000000000E+00 0. -1.
         13    1    3    3    0    0 -0.13785058558E+02  0.10278569160E+03 -0.26265473014E+02  0.10698037815E+03  0.00000000000E+00 0.  1.
         -4    1    1    2    0  502  0.28267668610E+02  0.29838855905E+02 -0.39472771308E+02  0.56986999263E+02  0.00000000000E+00 0.  1.
<scales pt_clust_5="13000.00000" pt_clust_6="13000.00000" pt_clust_7="13000.00000" pt_clust_8="13000.00000" pt_clust_9="41.10256"></scales>
<clustering>
<clus scale="   41.103">  2  9  1 -1</clus>
<clus scale="   80.230">  5  6 -1 -1</clus>
<clus scale="   91.622">  7  8 -1 -1</clus>
<clus scale="  140.694">  2  5  1 -1</clus>
<clus scale="   41.103">  2  5  1 -1</clus>
</clustering>
</event>
<event>
 9    2  0.1751298E-004  0.1314598E+03  0.7546771E-02  0.1239640E+00
         21   -1    0    0  501  502  0.00000000000E+00  0.00000000000E+00  0.37136336732E+03  0.37136336732E+03  0.00000000000E+00 0.  1.
          2   -1    0    0  502    0 -0.00000000000E+00 -0.00000000000E+00 -0.28828136749E+03  0.28828136749E+03  0.00000000000E+00 0. -1.
         23    2    1    2    0    0 -0.15613320283E+02  0.36558963589E+02 -0.15981624401E+02  0.99192290659E+02  0.89461525914E+02 0.  0.
         24    2    1    2    0    0 -0.68542051162E+01  0.10031202194E+03  0.29391812224E+03  0.32127315623E+03  0.81970094904E+02 0.  0.
        -13    1    4    4    0    0 -0.36805328699E+02  0.86788707375E+02  0.24327949744E+03  0.26090577959E+03  0.00000000000E+00 0.  1.
         14    1    4    4    0    0  0.29951123583E+02  0.13523314561E+02  0.50638624806E+02  0.60367376643E+02  0.00000000000E+00 0. -1.
        -13    1    3    3    0    0  0.21220599399E+02  0.38273353635E+02  0.19599242353E+02  0.47950951378E+02  0.00000000000E+00 0. -1.
         13    1    3    3    0    0 -0.36833919682E+02 -0.17143900453E+01 -0.35580866754E+02  0.51241339281E+02  0.00000000000E+00 0.  1.
          1    1    1    2  501    0  0.22467525399E+02 -0.13687098553E+03 -0.19485449801E+03  0.23917928792E+03  0.00000000000E+00 0. -1.
<scales pt_clust_5="13000.00000" pt_clust_6="13000.00000" pt_clust_7="13000.00000" pt_clust_8="13000.00000" pt_clust_9="102.77449"></scales>
<clustering>
<clus scale="   81.970">  5  6 -1 -1</clus>
<clus scale="   89.462">  7  8 -1 -1</clus>
<clus scale="   97.896">  2  7  1 -1</clus>
<clus scale="  102.774">  1  9  2 -1</clus>
<clus scale="  102.774">  1  5  2 -1</clus>
</clustering>
</event>
<event>
 9    2  0.1751298E-004  0.1353256E+03  0.7546771E-02  0.1222004E+00
         21   -1    0    0  501  502  0.00000000000E+00  0.00000000000E+00  0.59753902456E+02  0.59753902456E+02  0.00000000000E+00 0. -1.
         -3   -1    0    0    0  501 -0.00000000000E+00 -0.00000000000E+00 -0.46632552893E+03  0.46632552893E+03  0.00000000000E+00 0.  1.
         24    2    1    2    0    0 -0.10394859888E+02  0.10390958919E+03 -0.30920151867E+03  0.33650127326E+03  0.81989462256E+02 0.  0.
         23    2    1    2    0    0  0.13804205888E+01 -0.84792255248E+02 -0.44150798727E+02  0.13231536539E+03  0.91468195450E+02 0.  0.
        -11    1    3    3    0    0  0.34323037805E+02  0.46576921540E+02 -0.10727254710E+03  0.12188059692E+03  0.00000000000E+00 0.  1.
         12    1    3    3    0    0 -0.44717897693E+02  0.57332667654E+02 -0.20192897157E+03  0.21462067634E+03  0.00000000000E+00 0. -1.
        -13    1    4    4    0    0  0.33122056683E+02 -0.27894771978E+02  0.13457710128E+02  0.45346432103E+02  0.00000000000E+00 0. -1.
         13    1    4    4    0    0 -0.31741636094E+02 -0.56897483270E+02 -0.57608508855E+02  0.86968933286E+02  0.00000000000E+00 0.  1.
         -4    1    1    2    0  502  0.90144392991E+01 -0.19117333946E+02 -0.53219309076E+02  0.57262792734E+02  0.00000000000E+00 0.  1.
<scales pt_clust_5="13000.00000" pt_clust_6="13000.00000" pt_clust_7="13000.00000" pt_clust_8="13000.00000" pt_clust_9="21.13606"></scales>
<clustering>
<clus scale="   21.136">  1  9  2 -1</clus>
<clus scale="   81.989">  5  6 -1 -1</clus>
<clus scale="   91.468">  7  8 -1 -1</clus>
<clus scale="  129.108">  2  5  1 -1</clus>
<clus scale="   21.136">  1  5  2 -1</clus>
</clustering>
</event>
<event>
 9    2  0.1751298E-004  0.1067525E+03  0.7546771E-02  0.1271572E+00
         -3   -1    0    0    0  501 -0.00000000000E+00  0.00000000000E+00  0.57816213148E+03  0.57816213148E+03  0.00000000000E+00 0.  1.
         21   -1    0    0  501  502  0.00000000000E+00 -0.00000000000E+00 -0.13797055900E+03  0.13797055900E+03  0.00000000000E+00 0.  1.
         24    2    1    2    0    0  0.47530162163E+02 -0.40851423010E+02  0.26663525637E+03  0.28507637287E+03  0.79033052295E+02 0.  0.
         23    2    1    2    0    0 -0.62750287622E+02 -0.15848330745E+02  0.28451789286E+03  0.30552151840E+03  0.90577031641E+02 0.  0.
        -11    1    3    3    0    0  0.39170407024E+02 -0.16235328008E+02  0.25138633908E+03  0.25493724353E+03  0.00000000000E+00 0.  1.
         12    1    3    3    0    0  0.83597551388E+01 -0.24616095002E+02  0.15248917285E+02  0.30139129342E+02  0.00000000000E+00 0. -1.
        -13    1    4    4    0    0 -0.38217520101E+02  0.30204634668E+02  0.20277525789E+03  0.20854424952E+03  0.00000000000E+00 0. -1.
         13    1    4    4    0    0 -0.24532767521E+02 -0.46052965413E+02  0.81742634978E+02  0.96977268876E+02  0.00000000000E+00 0.  1.
         -4    1    1    2    0  502  0.15220125459E+02  0.56699753755E+02 -0.11096157675E+03  0.12553479920E+03  0.00000000000E+00 0.  1.
<scales pt_clust_5="13000.00000" pt_clust_6="13000.00000" pt_clust_7="13000.00000" pt_clust_8="13000.00000" pt_clust_9="58.70702"></scales>
<clustering>
<clus scale="   58.707">  2  9  1 -1</clus>
<clus scale="   79.033">  5  6 -1 -1</clus>
<clus scale="   90.577">  7  8 -1 -1</clus>
<clus scale="   97.150">  1  5  2 -1</clus>
<clus scale="   58.707">  2  5  1 -1</clus>
</clustering>
</event>
<event>
 9    2  0.1751298E-004  0.1312965E+03  0.7546771E-02  0.1226847E+00
         21   -1    0    0  501  502  0.00000000000E+00  0.00000000000E+00  0.10333910754E+03  0.10333910754E+03  0.00000000000E+00 0. -1.
          2   -1    0    0  502    0 -0.00000000000E+00 -0.00000000000E+00 -0.35403301390E+03  0.35403301390E+03  0.00000000000E+00 0. -1.
         23    2    1    2    0    0 -0.36666554393E+02  0.82816940040E+02 -0.17605289143E+03  0.21778821345E+03  0.90741410438E+02 0.  0.
         24    2    1    2    0    0 -0.92706449850E+01 -0.10940606271E+03 -0.10860606415E+03  0.17656936761E+03  0.85591080087E+02 0.  0.
        -13    1    4    4    0    0  0.33715474391E+01 -0.32757928182E+02  0.10328196692E+02  0.34512618530E+02  0.00000000000E+00 0.  1.
         14    1    4    4    0    0 -0.12642192424E+02 -0.76648134529E+02 -0.11893426084E+03  0.14205674908E+03  0.00000000000E+00 0. -1.
        -13    1    3    3    0    0  0.21248222772E+02  0.42577815384E+02 -0.11520013116E+03  0.12464119525E+03  0.00000000000E+00 0. -1.
         13    1    3    3    0    0 -0.57914777164E+02  0.40239124656E+02 -0.60852760266E+02  0.93147018198E+02  0.00000000000E+00 0.  1.
          1    1    1    2  501    0  0.45937199378E+02  0.26589122671E+02  0.33965049218E+02  0.63014540381E+02  0.00000000000E+00 0. -1.
<scales pt_clust_5="13000.00000" pt_clust_6="13000.00000" pt_clust_7="13000.00000" pt_clust_8="13000.00000" pt_clust_9="53.07737"></scales>
<clustering>
<clus scale="   53.077">  1  9  2 -1</clus>
<clus scale="   85.591">  5  6 -1 -1</clus>
<clus scale="   90.741">  7  8 -1 -1</clus>
<clus scale="  127.791">  1  5  2 -1</clus>
<clus scale="   53.077">  1  5  2 -1</clus>
</clustering>
</event>
<event>
 9    2  0.1751298E-004  0.9883878E+02  0.7546771E-02  0.1288519E+00
          2   -1    0    0  502    0 -0.00000000000E+00  0.00000000000E+00  0.47740081479E+03  0.47740081479E+03  0.00000000000E+00 0. -1.
         21   -1    0    0  501  502  0.00000000000E+00 -0.00000000000E+00 -0.26552102403E+02  0.26552102403E+02  0.00000000000E+00 0.  1.
         24    2    1    2    0    0  0.26144807065E+02 -0.19248907780E+02  0.19815341755E+03  0.21620902209E+03  0.80171646849E+02 0.  0.
         23    2    1    2    0    0 -0.28859891156E+02  0.39603366826E+02  0.14566036433E+03  0.17875695996E+03  0.91300542244E+02 0.  0.
        -13    1    3    3    0    0 -0.51349031152E+01 -0.43990063613E+02  0.79121728896E+02  0.90673816012E+02  0.00000000000E+00 0.  1.
         14    1    3    3    0    0  0.31279710180E+02  0.24741155833E+02  0.11903168865E+03  0.12553520607E+03  0.00000000000E+00 0. -1.
        -13    1    4    4    0    0  0.16693834254E+02  0.51302306141E+02  0.97563257631E+02  0.11148632184E+03  0.00000000000E+00 0.  1.
         13    1    4    4    0    0 -0.45553725410E+02 -0.11698939315E+02  0.48097106703E+02  0.67270638120E+02  0.00000000000E+00 0. -1.
          1    1    1    2  501    0  0.27150840916E+01 -0.20354459046E+02  0.10703493051E+03  0.10898693515E+03  0.00000000000E+00 0. -1.
<scales pt_clust_5="13000.00000" pt_clust_6="13000.00000" pt_clust_7="13000.00000" pt_clust_8="13000.00000" pt_clust_9="20.53475"></scales>
<clustering>
<clus scale="   20.535">  2  9  1 -1</clus>
<clus scale="   80.172">  5  6 -1 -1</clus>
<clus scale="   88.661">  1  5  2 -1</clus>
<clus scale="   91.301">  7  8 -1 -1</clus>
<clus scale="   20.535">  2  5  1 -1</clus>
</clustering>
</event>
<event>
 9    2  0.1751298E-004  0.1646250E+03  0.7546771E-02  0.1205994E+00
         -1   -1    0    0    0  501 -0.00000000000E+00  0.00000000000E+00  0.11679725763E+03  0.11679725763E+03  0.00000000000E+00 0.  1.
         21   -1    0    0  501  502  0.00000000000E+00 -0.00000000000E+00 -0.43274315668E+03  0.43274315668E+03  0.00000000000E+00 0.  1.
         24    2    1    2    0    0  0.16417652641E+02  0.57525079590E+02  0.10260928752E+02  0.10123519407E+03  0.81022242377E+02 0.  0.
         23    2    1    2    0    0 -0.45126001840E+02  0.10150056092E+03 -0.12849849443E+03  0.19295857597E+03  0.91555606393E+02 0.  0.
        -13    1    3    3    0    0 -0.38483406698E+01  0.66000119842E+02  0.29160018757E+02  0.72257402658E+02  0.00000000000E+00 0.  1.
         14    1    3    3    0    0  0.20265993311E+02 -0.84750402518E+01 -0.18899090005E+02  0.28977791413E+02  0.00000000000E+00 0. -1.
        -13    1    4    4    0    0  0.49439979831E+01  0.86764670263E+02 -0.10331957873E+03  0.13500920884E+03  0.00000000000E+00 0. -1.
         13    1    4    4    0    0 -0.50069999823E+02  0.14735890658E+02 -0.25178915698E+02  0.57949367136E+02  0.00000000000E+00 0.  1.
         -2    1    1    2    0  502  0.28708349198E+02 -0.15902564051E+03 -0.19770833338E+03  0.25534664427E+03  0.00000000000E+00 0.  1.
<scales pt_clust_5="13000.00000" pt_clust_6="13000.00000" pt_clust_7="13000.00000" pt_clust_8="13000.00000" pt_clust_9="136.81727"></scales>
<clustering>
<clus scale="   81.022">  5  6 -1 -1</clus>
<clus scale="   91.556">  7  8 -1 -1</clus>
<clus scale="  100.714">  1  5  2 -1</clus>
<clus scale="  136.817">  2  9  1 -1</clus>
<clus scale="  136.817">  2  5  1 -1</clus>
</clustering>
</event>
<event>
 9    2  0.1751298E-004  0.9947809E+02  0.7546771E-02  0.1284633E+00
         -1   -1    0    0    0  501 -0.00000000000E+00  0.00000000000E+00  0.28229540255E+03  0.28229540255E+03  0.00000000000E+00 0.  1.
         21   -1    0    0  501  502  0.00000000000E+00 -0.00000000000E+00 -0.47154353581E+02  0.47154353581E+02  0.00000000000E+00 0. -1.
         23    2    1    2    0    0 -0.33903477187E+02  0.23123694409E+00  0.10815123108E+03  0.14495953839E+03  0.90371896909E+02 0.  0.
         24    2    1    2    0    0  0.44041302562E+02 -0.28307409023E+02  0.11668399600E+03  0.15291084303E+03  0.83819002961E+02 0.  0.
        -13    1    4    4    0    0 -0.12973861370E+02  0.16274355590E+02  0.51351909624E+02  0.55409334509E+02  0.00000000000E+00 0.  1.
         14    1    4    4    0    0  0.57015163932E+02 -0.44581764613E+02  0.65332086377E+02  0.97501508524E+02  0.00000000000E+00 0. -1.
        -13    1    3    3    0    0 -0.52911588661E+02  0.27571094779E+02  0.87063375973E+02  0.10554540690E+03  0.00000000000E+00 0.  1.
         13    1    3    3    0    0  0.19008111475E+02 -0.27339857835E+02  0.21087855105E+02  0.39414131491E+02  0.00000000000E+00 0. -1.
         -2    1    1    2    0  502 -0.10137825375E+02  0.28076172079E+02  0.10305821888E+02  0.31579374705E+02  0.00000000000E+00 0.  1.
<scales pt_clust_5="13000.00000" pt_clust_6="13000.00000" pt_clust_7="13000.00000" pt_clust_8="13000.00000" pt_clust_9="29.85041"></scales>
<clustering>
<clus scale="   29.850">  2  9  1 -1</clus>
<clus scale="   83.819">  5  6 -1 -1</clus>
<clus scale="   90.372">  7  8 -1 -1</clus>
<clus scale="   93.565">  2  5  1 -1</clus>
<clus scale="   29.850">  2  5  1 -1</clus>
</clustering>
</event>
<event>
 9    2  0.1751298E-004  0.1467008E+03  0.7546771E-02  0.1205053E+00
          2   -1    0    0  502    0 -0.00000000000E+00  0.00000000000E+00  0.40826293925E+03  0.40826293925E+03  0.00000000000E+00 0. -1.
         21   -1    0    0  501  502  0.00000000000E+00 -0.00000000000E+00 -0.72572870593E+02  0.72572870593E+02  0.00000000000E+00 0. -1.
         24    2    1    2    0    0  0.89797140844E+02  0.10608118330E+03  0.17378501656E+03  0.23649750234E+03  0.80081787444E+02 0.  0.
         23    2    1    2    0    0 -0.44423365168E+02 -0.98343401377E+02  0.95558282231E+02  0.16358840558E+03  0.77362272262E+02 0.  0.
        -13    1    3    3    0    0  0.62058613129E+02  0.44127029621E+02  0.38930104563E+02  0.85522039545E+02  0.00000000000E+00 0.  1.
         14    1    3    3    0    0  0.27738527715E+02  0.61954153681E+02  0.13485491199E+03  0.15097546280E+03  0.00000000000E+00 0. -1.
        -13    1    4    4    0    0 -0.19213433516E+02  0.98862614456E+01  0.17104660946E+02  0.27558367494E+02  0.00000000000E+00 0.  1.
         13    1    4    4    0    0 -0.25209931652E+02 -0.10822966282E+03  0.78453621285E+02  0.13603003808E+03  0.00000000000E+00 0. -1.
          1    1    1    2  501    0 -0.45373775676E+02 -0.77377819246E+01  0.66346769870E+02  0.80749901922E+02  0.00000000000E+00 0. -1.
<scales pt_clust_5="13000.00000" pt_clust_6="13000.00000" pt_clust_7="13000.00000" pt_clust_8="13000.00000" pt_clust_9="46.02885"></scales>
<clustering>
<clus scale="   46.029">  2  9  1 -1</clus>
<clus scale="   77.362">  7  8 -1 -1</clus>
<clus scale="   80.082">  5  6 -1 -1</clus>
<clus scale="  145.234">  2  7  1 -1</clus>
<clus scale="   46.029">  2  5  1 -1</clus>
</clustering>
</event>
<event>
 9    2  0.1751298E-004  0.2694797E+03  0.7546771E-02  0.1101578E+00
         21   -1    0    0  501  502  0.00000000000E+00  0.00000000000E+00  0.31431347577E+03  0.31431347577E+03  0.00000000000E+00 0.  1.
         -1   -1    0    0    0  501 -0.00000000000E+00 -0.00000000000E+00 -0.18580723854E+03  0.18580723854E+03  0.00000000000E+00 0.  1.
         24    2    1    2    0    0 -0.13974390194E+03 -0.32822879795E+02 -0.14505496305E+02  0.16555369698E+03  0.81190625028E+02 0.  0.
         23    2    1    2    0    0 -0.45147613336E+02 -0.24328857353E+02  0.17568359340E+02  0.10394344175E+03  0.88687042703E+02 0.  0.
        -13    1    3    3    0    0 -0.84760409465E+02 -0.59428951828E+02 -0.14063306670E+02  0.10446963158E+03  0.00000000000E+00 0.  1.
         14    1    3    3    0    0 -0.54983492480E+02  0.26606072033E+02 -0.44218963488E+00  0.61084065401E+02  0.00000000000E+00 0. -1.
        -11    1    4    4    0    0 -0.61962928489E+02  0.11184692977E+02  0.13891092130E+02  0.64478401845E+02  0.00000000000E+00 0.  1.
         11    1    4    4    0    0  0.16815315153E+02 -0.35513550330E+02  0.36772672094E+01  0.39465039907E+02  0.00000000000E+00 0. -1.
         -2    1    1    2    0  502  0.18489151528E+03  0.57151737148E+02  0.12544337419E+03  0.23062357557E+03  0.00000000000E+00 0.  1.
<scales pt_clust_5="13000.00000" pt_clust_6="13000.00000" pt_clust_7="13000.00000" pt_clust_8="13000.00000" pt_clust_9="193.52311"></scales>
<clustering>
<clus scale="   81.191">  5  6 -1 -1</clus>
<clus scale="   88.687">  7  8 -1 -1</clus>
<clus scale="   90.396">  5  7 -1 -1</clus>
<clus scale="  193.523">  1  9  2 -1</clus>
<clus scale="  193.523">  1  5  2 -1</clus>
</clustering>
</event>
<event>
 9    2  0.1751298E-004  0.1038745E+03  0.7546771E-02  0.1277176E+00
          2   -1    0    0  502    0 -0.00000000000E+00  0.00000000000E+00  0.36681061439E+03  0.36681061439E+03  0.00000000000E+00 0. -1.
         21   -1    0    0  501  502  0.00000000000E+00 -0.00000000000E+00 -0.41579105509E+02  0.41579105509E+02  0.00000000000E+00 0. -1.
         23    2    1    2    0    0 -0.29603496281E+02 -0.24836206334E+02  0.15611855221E+03  0.18497048711E+03  0.91366704105E+02 0.  0.
         24    2    1    2    0    0  0.66302369087E+02  0.98067033654E+01  0.13575085524E+03  0.17159527080E+03  0.80774170906E+02 0.  0.
        -11    1    4    4    0    0  0.21285772644E+02 -0.35304015230E+02  0.54222055469E+02  0.68113793814E+02  0.00000000000E+00 0.  1.
         12    1    4    4    0    0  0.45016596443E+02  0.45110718595E+02  0.81528799772E+02  0.10348147699E+03  0.00000000000E+00 0. -1.
        -11    1    3    3    0    0 -0.26227752064E+02  0.20264937040E+02  0.14269482876E+02  0.36085742241E+02  0.00000000000E+00 0.  1.
         11    1    3    3    0    0 -0.33757442173E+01 -0.45101143373E+02  0.14184906934E+03  0.14888474487E+03  0.00000000000E+00 0. -1.
          1    1    1    2  501    0 -0.36698872806E+02  0.15029502968E+02  0.33362101432E+02  0.51823961993E+02  0.00000000000E+00 0. -1.
<scales pt_clust_5="13000.00000" pt_clust_6="13000.00000" pt_clust_7="13000.00000" pt_clust_8="13000.00000" pt_clust_9="39.65720"></scales>
<clustering>
<clus scale="   39.657">  2  9  1 -1</clus>
<clus scale="   80.774">  5  6 -1 -1</clus>
<clus scale="   91.367">  7  8 -1 -1</clus>
<clus scale="   94.692">  2  5  1 -1</clus>
<clus scale="   39.657">  2  5  1 -1</clus>
</clustering>
</event>
<event>
 9    2  0.1751298E-004  0.3346416E+03  0.7546771E-02  0.1101285E+00
          2   -1    0    0  502    0 -0.00000000000E+00  0.00000000000E+00  0.71311366773E+03  0.71311366773E+03  0.00000000000E+00 0. -1.
         21   -1    0    0  501  502  0.00000000000E+00 -0.00000000000E+00 -0.29159399786E+03  0.29159399786E+03  0.00000000000E+00 0. -1.
         24    2    1    2    0    0 -0.10443802993E+02 -0.11788452626E+03 -0.42347582888E+02  0.14798291053E+03  0.78101149035E+02 0.  0.
         23    2    1    2    0    0 -0.23854968650E+03  0.25018428420E+03  0.57277034615E+02  0.36193531575E+03  0.90655309272E+02 0.  0.
        -13    1    3    3    0    0 -0.18178405294E+02 -0.32015679919E+02  0.19704502960E+02  0.41757940761E+02  0.00000000000E+00 0.  1.
         14    1    3    3    0    0  0.77346023009E+01 -0.85868846342E+02 -0.62052085848E+02  0.10622496977E+03  0.00000000000E+00 0. -1.
        -13    1    4    4    0    0 -0.19276248717E+03  0.17972707287E+03  0.62455926395E+01  0.26362512136E+03  0.00000000000E+00 0. -1.
         13    1    4    4    0    0 -0.45787199333E+02  0.70457211327E+02  0.51031441976E+02  0.98310194389E+02  0.00000000000E+00 0.  1.
          1    1    1    2  501    0  0.24899348949E+03 -0.13229975794E+03  0.40659021814E+03  0.49478943931E+03  0.00000000000E+00 0. -1.
<scales pt_clust_5="13000.00000" pt_clust_6="13000.00000" pt_clust_7="13000.00000" pt_clust_8="13000.00000" pt_clust_9="322.12846"></scales>
<clustering>
<clus scale="   78.101">  5  6 -1 -1</clus>
<clus scale="   90.655">  7  8 -1 -1</clus>
<clus scale="  141.794">  1  5  2 -1</clus>
<clus scale="  322.128">  2  9  1 -1</clus>
<clus scale="  322.128">  2  5  1 -1</clus>
</clustering>
</event>
<event>
 9    2  0.1751298E-004  0.4024008E+03  0.7546771E-02  0.1043143E+00
          2   -1    0    0  502    0 -0.00000000000E+00  0.00000000000E+00  0.17468683583E+04  0.17468683583E+04  0.00000000000E+00 0. -1.
         21   -1    0    0  501  502  0.00000000000E+00 -0.00000000000E+00 -0.30593757882E+03  0.30593757882E+03  0.00000000000E+00 0. -1.
         23    2    1    2    0    0  0.98555300360E+02 -0.37111372212E+03  0.12522769457E+04  0.13130513525E+04  0.92020452654E+02 0.  0.
         24    2    1    2    0    0 -0.20215477561E+03  0.41993932684E+03 -0.49234014268E+02  0.47573295819E+03  0.81745139399E+02 0.  0.
        -13    1    4    4    0    0 -0.68074586427E+02  0.67642506397E+02 -0.36329266988E+01  0.96035702451E+02  0.00000000000E+00 0.  1.
         14    1    4    4    0    0 -0.13408018918E+03  0.35229682045E+03 -0.45601087569E+02  0.37969725574E+03  0.00000000000E+00 0. -1.
        -11    1    3    3    0    0 -0.87692600832E+01 -0.13103561843E+03  0.38513868178E+03  0.40691404181E+03  0.00000000000E+00 0.  1.
         11    1    3    3    0    0  0.10732456044E+03 -0.24007810370E+03  0.86713826391E+03  0.90613731073E+03  0.00000000000E+00 0. -1.
          1    1    1    2  501    0  0.10359947525E+03 -0.48825604723E+02  0.23788784803E+03  0.26402162636E+03  0.00000000000E+00 0. -1.
<scales pt_clust_5="13000.00000" pt_clust_6="13000.00000" pt_clust_7="13000.00000" pt_clust_8="13000.00000" pt_clust_9="114.52862"></scales>
<clustering>
<clus scale="   81.745">  5  6 -1 -1</clus>
<clus scale="   92.020">  7  8 -1 -1</clus>
<clus scale="  114.529">  2  9  1 -1</clus>
<clus scale="  400.176">  2  5  1 -1</clus>
<clus scale="  114.529">  2  5  1 -1</clus>
</clustering>
</event>
<event>
 9    2  0.1751298E-004  0.1108450E+03  0.7546771E-02  0.1259342E+00
         21   -1    0    0  501  502  0.00000000000E+00  0.00000000000E+00  0.58602733182E+03  0.58602733182E+03  0.00000000000E+00 0. -1.
          2   -1    0    0  502    0 -0.00000000000E+00 -0.00000000000E+00 -0.17909902154E+03  0.17909902154E+03  0.00000000000E+00 0. -1.
         23    2    1    2    0    0  0.26778514845E+02 -0.70836536410E+02 -0.15072729217E+03  0.18646388027E+03  0.79467970228E+02 0.  0.
         24    2    1    2    0    0 -0.50345263410E+02  0.78499002267E+02  0.51313609747E+03  0.52771061989E+03  0.80455608347E+02 0.  0.
        -11    1    4    4    0    0 -0.29181262232E+02  0.51821796028E+02  0.12878787966E+03  0.14185683825E+03  0.00000000000E+00 0.  1.
         12    1    4    4    0    0 -0.21164001178E+02  0.26677206239E+02  0.38434821781E+03  0.38585378164E+03  0.00000000000E+00 0. -1.
        -11    1    3    3    0    0 -0.13113291164E+02 -0.64964024315E+02 -0.11430111282E+03  0.13212504400E+03  0.00000000000E+00 0.  1.
         11    1    3    3    0    0  0.39891806010E+02 -0.58725120954E+01 -0.36426179356E+02  0.54338836273E+02  0.00000000000E+00 0. -1.
          1    1    1    2  501    0  0.23566748564E+02 -0.76624658575E+01  0.44519504987E+02  0.50951853207E+02  0.00000000000E+00 0. -1.
<scales pt_clust_5="13000.00000" pt_clust_6="13000.00000" pt_clust_7="13000.00000" pt_clust_8="13000.00000" pt_clust_9="24.78114"></scales>
<clustering>
<clus scale="   24.781">  1  9  2 -1</clus>
<clus scale="   79.468">  7  8 -1 -1</clus>
<clus scale="   80.456">  5  6 -1 -1</clus>
<clus scale="  110.130">  2  7  1 -1</clus>
<clus scale="   24.781">  1  5  2 -1</clus>
</clustering>
</event>
<event>
 9    2  0.1972850E-004  0.8861143E+02  0.7546771E-02  0.1314035E+00
         21   -1    0    0  501  502  0.00000000000E+00  0.00000000000E+00  0.10821778984E+03  0.10821778984E+03  0.00000000000E+00 0. -1.
         -3   -1    0    0    0  501 -0.00000000000E+00 -0.00000000000E+00 -0.17948192725E+03  0.17948192725E+03  0.00000000000E+00 0.  1.
         23    2    1    2    0    0  0.25952707057E+02  0.12040415731E+02 -0.13129375141E+03  0.15870860721E+03  0.84450329962E+02 0.  0.
         24    2    1    2    0    0 -0.19837690438E+02  0.76923375981E+01  0.72843536407E+02  0.10468120264E+03  0.72105945451E+02 0.  0.
        -11    1    4    4    0    0  0.12100125145E+02  0.24766488619E+02  0.53404349499E+01  0.28076898556E+02  0.00000000000E+00 0.  1.
         12    1    4    4    0    0 -0.31937815583E+02 -0.17074151021E+02  0.67503101457E+02  0.76604304080E+02  0.00000000000E+00 0. -1.
        -11    1    3    3    0    0  0.29531575697E+02  0.44959054524E+02 -0.97759967003E+02  0.11158154729E+03  0.00000000000E+00 0.  1.
         11    1    3    3    0    0 -0.35788686403E+01 -0.32918638793E+02 -0.33533784404E+02  0.47127059925E+02  0.00000000000E+00 0. -1.
         -4    1    1    2    0  502 -0.61150166190E+01 -0.19732753329E+02 -0.12813922410E+02  0.24309907234E+02  0.00000000000E+00 0.  1.
<scales pt_clust_5="13000.00000" pt_clust_6="13000.00000" pt_clust_7="13000.00000" pt_clust_8="13000.00000" pt_clust_9="20.65854"></scales>
<clustering>
<clus scale="   20.659">  1  9  2 -1</clus>
<clus scale="   72.106">  5  6 -1 -1</clus>
<clus scale="   76.938">  1  5  2 -1</clus>
<clus scale="   84.450">  7  8 -1 -1</clus>
<clus scale="   20.659">  1  5  2 -1</clus>
</clustering>
</event>
<event>
 9    2  0.1751298E-004  0.9996918E+02  0.7546771E-02  0.1283105E+00
         21   -1    0    0  501  502  0.00000000000E+00  0.00000000000E+00  0.18989999580E+03  0.18989999580E+03  0.00000000000E+00 0.  1.
          4   -1    0    0  502    0 -0.00000000000E+00 -0.00000000000E+00 -0.18715033411E+03  0.18715033411E+03  0.00000000000E+00 0. -1.
         24    2    1    2    0    0 -0.20954824391E+02 -0.50429141395E+02  0.17227989777E+02  0.10295327588E+03  0.85559163243E+02 0.  0.
         23    2    1    2    0    0 -0.62291433414E+01  0.15657898157E+02  0.10892991946E+03  0.14303369905E+03  0.91153385605E+02 0.  0.
        -11    1    3    3    0    0  0.19196781001E+02 -0.57585336510E+02  0.11212631092E+02  0.61727712397E+02  0.00000000000E+00 0.  1.
         12    1    3    3    0    0 -0.40151605392E+02  0.71561951149E+01  0.60153586851E+01  0.41225563480E+02  0.00000000000E+00 0. -1.
        -11    1    4    4    0    0 -0.27026574964E+02 -0.66520980397E+01  0.10903684986E+03  0.11253319862E+03  0.00000000000E+00 0.  1.
         11    1    4    4    0    0  0.20797431623E+02  0.22309996197E+02 -0.10693040012E+00  0.30500500431E+02  0.00000000000E+00 0. -1.
          3    1    1    2  501    0  0.27183967732E+02  0.34771243238E+02 -0.12340824755E+03  0.13106335499E+03  0.00000000000E+00 0. -1.
<scales pt_clust_5="13000.00000" pt_clust_6="13000.00000" pt_clust_7="13000.00000" pt_clust_8="13000.00000" pt_clust_9="44.13626"></scales>
<clustering>
<clus scale="   44.136">  1  9  2 -1</clus>
<clus scale="   85.559">  5  6 -1 -1</clus>
<clus scale="   91.153">  7  8 -1 -1</clus>
<clus scale="   94.896">  2  5  1 -1</clus>
<clus scale="   44.136">  1  5  2 -1</clus>
</clustering>
</event>
<event>
 9    2  0.1751298E-004  0.9975438E+02  0.7546771E-02  0.1287533E+00
          2   -1    0    0  502    0 -0.00000000000E+00  0.00000000000E+00  0.37258709693E+03  0.37258709693E+03  0.00000000000E+00 0. -1.
         21   -1    0    0  501  502  0.00000000000E+00 -0.00000000000E+00 -0.82671915652E+02  0.82671915652E+02  0.00000000000E+00 0.  1.
         23    2    1    2    0    0  0.33723000425E+02  0.16548175616E+02  0.14873550889E+03  0.17870493528E+03  0.91663075537E+02 0.  0.
         24    2    1    2    0    0 -0.32706805004E+02 -0.38675699447E+02 -0.34393132498E+02  0.99589476937E+02  0.78547002058E+02 0.  0.
        -11    1    4    4    0    0 -0.26044626042E+02 -0.35034809126E+02 -0.59251892973E+02  0.73597195714E+02  0.00000000000E+00 0.  1.
         12    1    4    4    0    0 -0.66621789618E+01 -0.36408903206E+01  0.24858760474E+02  0.25992281223E+02  0.00000000000E+00 0. -1.
        -11    1    3    3    0    0 -0.22537042677E+02  0.27515512600E+02  0.89352739158E+02  0.96171376830E+02  0.00000000000E+00 0. -1.
         11    1    3    3    0    0  0.56260043102E+02 -0.10967336984E+02  0.59382769728E+02  0.82533558453E+02  0.00000000000E+00 0.  1.
          1    1    1    2  501    0 -0.10161954212E+01  0.22127523831E+02  0.17557280489E+03  0.17696460036E+03  0.00000000000E+00 0. -1.
<scales pt_clust_5="13000.00000" pt_clust_6="13000.00000" pt_clust_7="13000.00000" pt_clust_8="13000.00000" pt_clust_9="22.15086"></scales>
<clustering>
<clus scale="   22.151">  2  9  1 -1</clus>
<clus scale="   78.547">  5  6 -1 -1</clus>
<clus scale="   87.855">  2  5  1 -1</clus>
<clus scale="   91.663">  7  8 -1 -1</clus>
<clus scale="   22.151">  2  5  1 -1</clus>
</clustering>
</event>
<event>
 9    2  0.1751298E-004  0.1389032E+03  0.7546771E-02  0.1231516E+00
         21   -1    0    0  501  502  0.00000000000E+00  0.00000000000E+00  0.40297790763E+02  0.40297790763E+02  0.00000000000E+00 0. -1.
          2   -1    0    0  502    0 -0.00000000000E+00 -0.00000000000E+00 -0.83879997689E+03  0.83879997689E+03  0.00000000000E+00 0. -1.
         24    2    1    2    0    0 -0.43020657822E+02 -0.31905439559E+02 -0.36119251505E+03  0.37424958951E+03  0.82060881375E+02 0.  0.
         23    2    1    2    0    0 -0.81859903269E+02 -0.39005966408E+01 -0.21905839171E+03  0.25085832064E+03  0.90703140172E+02 0.  0.
        -11    1    3    3    0    0 -0.54823932555E+02 -0.35151820521E+01 -0.30757068134E+03  0.31243838450E+03  0.00000000000E+00 0.  1.
         12    1    3    3    0    0  0.11803274733E+02 -0.28390257507E+02 -0.53621833705E+02  0.61811205017E+02  0.00000000000E+00 0. -1.
        -13    1    4    4    0    0  0.86372991812E+01  0.19067346989E+02 -0.13016979715E+02  0.24649714385E+02  0.00000000000E+00 0.  1.
         13    1    4    4    0    0 -0.90497202451E+02 -0.22967943630E+02 -0.20604141199E+03  0.22620860625E+03  0.00000000000E+00 0. -1.
          1    1    1    2  501    0  0.12488056109E+03  0.35806036200E+02 -0.21825127937E+03  0.25398985750E+03  0.00000000000E+00 0. -1.
<scales pt_clust_5="13000.00000" pt_clust_6="13000.00000" pt_clust_7="13000.00000" pt_clust_8="13000.00000" pt_clust_9="105.20000"></scales>
<clustering>
<clus scale="   82.061">  5  6 -1 -1</clus>
<clus scale="   90.703">  7  8 -1 -1</clus>
<clus scale="   97.993">  2  5  1 -1</clus>
<clus scale="  105.200">  1  9  2 -1</clus>
<clus scale="  105.200">  1  5  2 -1</clus>
</clustering>
</event>
<event>
 9    2  0.1751298E-004  0.2080385E+03  0.7546771E-02  0.1154679E+00
          2   -1    0    0  502    0 -0.00000000000E+00  0.00000000000E+00  0.24572333428E+04  0.24572333428E+04  0.00000000000E+00 0. -1.
         21   -1    0    0  501  502  0.00000000000E+00 -0.00000000000E+00 -0.47530528363E+02  0.47530528363E+02  0.00000000000E+00 0.  1.
         24    2    1    2    0    0  0.13388494948E+03 -0.28473123124E+02  0.29504749766E+03  0.33475733048E+03  0.79205719446E+02 0.  0.
         23    2    1    2    0    0  0.43518678373E+02 -0.16318088745E+03  0.52320050792E+03  0.55726610418E+03  0.91021217180E+02 0.  0.
        -13    1    3    3    0    0  0.94420089575E+02 -0.34273114399E+02  0.12637525864E+03  0.16143266610E+03  0.00000000000E+00 0.  1.
         14    1    3    3    0    0  0.39464859900E+02  0.57999912750E+01  0.16867223902E+03  0.17332466438E+03  0.00000000000E+00 0. -1.
        -11    1    4    4    0    0  0.65562003621E+02 -0.14130372005E+03  0.47533122029E+03  0.50020484464E+03  0.00000000000E+00 0.  1.
         11    1    4    4    0    0 -0.22043325248E+02 -0.21877167401E+02  0.47869287635E+02  0.57061259539E+02  0.00000000000E+00 0. -1.
          1    1    1    2  501    0 -0.17740362785E+03  0.19165401057E+03  0.15914548088E+04  0.16127404365E+04  0.00000000000E+00 0. -1.
<scales pt_clust_5="13000.00000" pt_clust_6="13000.00000" pt_clust_7="13000.00000" pt_clust_8="13000.00000" pt_clust_9="187.06999"></scales>
<clustering>
<clus scale="   79.206">  5  6 -1 -1</clus>
<clus scale="   91.021">  7  8 -1 -1</clus>
<clus scale="  158.144">  1  5  2 -1</clus>
<clus scale="  187.070">  2  9  1 -1</clus>
<clus scale="  187.070">  2  5  1 -1</clus>
</clustering>
</event>
<event>
 9    2  0.1751298E-004  0.1238343E+03  0.7546771E-02  0.1239847E+00
         21   -1    0    0  501  502  0.00000000000E+00  0.00000000000E+00  0.51580107417E+02  0.51580107417E+02  0.00000000000E+00 0. -1.
          2   -1    0    0  502    0 -0.00000000000E+00 -0.00000000000E+00 -0.71656643030E+03  0.71656643030E+03  0.00000000000E+00 0. -1.
         23    2    1    2    0    0  0.16038427639E+02  0.71522602640E+02 -0.28832120417E+03  0.31071096912E+03  0.89663123457E+02 0.  0.
         24    2    1    2    0    0 -0.14188837124E+02 -0.12583542225E+03 -0.11076873445E+03  0.18604251319E+03  0.79411759768E+02 0.  0.
        -11    1    4    4    0    0  0.19541473216E+02 -0.35965433111E+02 -0.71382203829E+02  0.82284874538E+02  0.00000000000E+00 0.  1.
         12    1    4    4    0    0 -0.33730310340E+02 -0.89869989140E+02 -0.39386530620E+02  0.10375763865E+03  0.00000000000E+00 0. -1.
        -11    1    3    3    0    0  0.38238711189E+02  0.82275748202E+02 -0.23690168130E+03  0.25368071345E+03  0.00000000000E+00 0. -1.
         11    1    3    3    0    0 -0.22200283550E+02 -0.10753145563E+02 -0.51419522866E+02  0.57030255663E+02  0.00000000000E+00 0.  1.
          1    1    1    2  501    0 -0.18495905152E+01  0.54312819612E+02 -0.26589638426E+03  0.27139305541E+03  0.00000000000E+00 0. -1.
<scales pt_clust_5="13000.00000" pt_clust_6="13000.00000" pt_clust_7="13000.00000" pt_clust_8="13000.00000" pt_clust_9="54.34433"></scales>
<clustering>
<clus scale="   54.344">  1  9  2 -1</clus>
<clus scale="   79.412">  5  6 -1 -1</clus>
<clus scale="   89.663">  7  8 -1 -1</clus>
<clus scale="  116.626">  1  5  2 -1</clus>
<clus scale="   54.344">  1  5  2 -1</clus>
</clustering>
</event>
<event>
 9    2  0.1751298E-004  0.1102732E+03  0.7546771E-02  0.1263928E+00
          2   -1    0    0  502    0 -0.00000000000E+00  0.00000000000E+00  0.48508902709E+03  0.48508902709E+03  0.00000000000E+00 0. -1.
         21   -1    0    0  501  502  0.00000000000E+00 -0.00000000000E+00 -0.21551647131E+03  0.21551647131E+03  0.00000000000E+00 0. -1.
         23    2    1    2    0    0  0.58990438070E+02  0.32877707522E+02  0.43319559129E+03  0.44768439518E+03  0.90565346245E+02 0.  0.
         24    2    1    2    0    0 -0.36726335845E+02  0.47047362735E+02 -0.49518371158E+02  0.11184104958E+03  0.80585812678E+02 0.  0.
        -11    1    4    4    0    0 -0.52756765508E+02  0.55545731624E+02 -0.23517263073E+02  0.80135299781E+02  0.00000000000E+00 0.  1.
         12    1    4    4    0    0  0.16030429662E+02 -0.84983688894E+01 -0.26001108085E+02  0.31705749804E+02  0.00000000000E+00 0. -1.
        -13    1    3    3    0    0 -0.19972631366E+02  0.21844431205E+02  0.73045796783E+02  0.78814805754E+02  0.00000000000E+00 0.  1.
         13    1    3    3    0    0  0.78963069437E+02  0.11033276317E+02  0.36014979451E+03  0.36886958943E+03  0.00000000000E+00 0. -1.
          1    1    1    2  501    0 -0.22264102225E+02 -0.79925070257E+02 -0.11410466436E+03  0.14108005363E+03  0.00000000000E+00 0. -1.
<scales pt_clust_5="13000.00000" pt_clust_6="13000.00000" pt_clust_7="13000.00000" pt_clust_8="13000.00000" pt_clust_9="82.96811"></scales>
<clustering>
<clus scale="   80.586">  5  6 -1 -1</clus>
<clus scale="   82.968">  2  9  1 -1</clus>
<clus scale="   90.565">  7  8 -1 -1</clus>
<clus scale="  102.236">  2  5  1 -1</clus>
<clus scale="   82.968">  2  5  1 -1</clus>
</clustering>
</event>
<event>
 9    2  0.1751298E-004  0.1153748E+03  0.7546771E-02  0.1254560E+00
          2   -1    0    0  502    0 -0.00000000000E+00  0.00000000000E+00  0.34484340470E+03  0.34484340470E+03  0.00000000000E+00 0. -1.
         21   -1    0    0  501  502  0.00000000000E+00 -0.00000000000E+00 -0.92514246582E+02  0.92514246582E+02  0.00000000000E+00 0. -1.
         24    2    1    2    0    0 -0.59989529012E+02  0.13787824687E+02  0.17944876481E+03  0.20661067049E+03  0.81836802654E+02 0.  0.
         23    2    1    2    0    0  0.93603212709E+02  0.33819594597E+02  0.97961502211E+02  0.16730087668E+03  0.92129262523E+02 0.  0.
        -11    1    3    3    0    0 -0.27306493174E+02 -0.27138676878E+02  0.31755142647E+02  0.49905324733E+02  0.00000000000E+00 0.  1.
         12    1    3    3    0    0 -0.32683035838E+02  0.40926501565E+02  0.14769362216E+03  0.15670534576E+03  0.00000000000E+00 0. -1.
        -13    1    4    4    0    0  0.23395223480E+02 -0.31777785617E+02  0.25995889008E+02  0.47254104432E+02  0.00000000000E+00 0.  1.
         13    1    4    4    0    0  0.70207989228E+02  0.65597380214E+02  0.71965613203E+02  0.12004677224E+03  0.00000000000E+00 0. -1.
          1    1    1    2  501    0 -0.33613683696E+02 -0.47607419285E+02 -0.25081108908E+02  0.63446104109E+02  0.00000000000E+00 0. -1.
<scales pt_clust_5="13000.00000" pt_clust_6="13000.00000" pt_clust_7="13000.00000" pt_clust_8="13000.00000" pt_clust_9="58.27818"></scales>
<clustering>
<clus scale="   58.278">  2  9  1 -1</clus>
<clus scale="   81.837">  5  6 -1 -1</clus>
<clus scale="   92.129">  7  8 -1 -1</clus>
<clus scale="  107.335">  1  5  2 -1</clus>
<clus scale="   58.278">  2  5  1 -1</clus>
</clustering>
</event>
<event>
 9    2  0.1751298E-004  0.1702428E+03  0.7546771E-02  0.1193044E+00
         -3   -1    0    0    0  501 -0.00000000000E+00  0.00000000000E+00  0.78328697994E+02  0.78328697994E+02  0.00000000000E+00 0.  1.
         21   -1    0    0  501  502  0.00000000000E+00 -0.00000000000E+00 -0.64332816312E+03  0.64332816312E+03  0.00000000000E+00 0.  1.
         24    2    1    2    0    0 -0.58848600190E+02 -0.66354350364E+02 -0.14742510991E+03  0.19051711751E+03  0.81832459802E+02 0.  0.
         23    2    1    2    0    0  0.57860306093E+02 -0.10850263114E+03 -0.18599870381E+03  0.24096182743E+03  0.91358899269E+02 0.  0.
        -11    1    3    3    0    0 -0.58913093626E+02 -0.84102708622E+02 -0.12119648647E+03  0.15884774638E+03  0.00000000000E+00 0.  1.
         12    1    3    3    0    0  0.64493435957E-01  0.17748358258E+02 -0.26228623445E+02  0.31669371135E+02  0.00000000000E+00 0. -1.
        -13    1    4    4    0    0  0.39054786324E+02 -0.57050957261E+02 -0.17057063636E+03  0.18405007483E+03  0.00000000000E+00 0.  1.
         13    1    4    4    0    0  0.18805519769E+02 -0.51451673880E+02 -0.15428067455E+02  0.56911752602E+02  0.00000000000E+00 0. -1.
         -4    1    1    2    0  502  0.98829409691E+00  0.17485698150E+03 -0.23157565140E+03  0.29017791616E+03  0.00000000000E+00 0.  1.
<scales pt_clust_5="13000.00000" pt_clust_6="13000.00000" pt_clust_7="13000.00000" pt_clust_8="13000.00000" pt_clust_9="143.65300"></scales>
<clustering>
<clus scale="   81.832">  5  6 -1 -1</clus>
<clus scale="   91.359">  7  8 -1 -1</clus>
<clus scale="  120.676">  1  5  2 -1</clus>
<clus scale="  143.653">  2  9  1 -1</clus>
<clus scale="  143.653">  2  5  1 -1</clus>
</clustering>
</event>
<event>
 9    2  0.1751298E-004  0.1298822E+03  0.7546771E-02  0.1229827E+00
         21   -1    0    0  501  502  0.00000000000E+00  0.00000000000E+00  0.38421956178E+02  0.38421956178E+02  0.00000000000E+00 0. -1.
          2   -1    0    0  502    0 -0.00000000000E+00 -0.00000000000E+00 -0.12170821344E+04  0.12170821344E+04  0.00000000000E+00 0. -1.
         23    2    1    2    0    0  0.83589713075E+01  0.67425992778E+02 -0.25492807757E+03  0.27837406870E+03  0.88812501867E+02 0.  0.
         24    2    1    2    0    0  0.22941863855E+02 -0.14989331718E+03 -0.28719848180E+03  0.33451376795E+03  0.80138363800E+02 0.  0.
        -11    1    4    4    0    0  0.31428146945E+02 -0.15500375439E+02 -0.41350620630E+02  0.54202065326E+02  0.00000000000E+00 0.  1.
         12    1    4    4    0    0 -0.84862830894E+01 -0.13439294174E+03 -0.24584786117E+03  0.28031170263E+03  0.00000000000E+00 0. -1.
        -13    1    3    3    0    0 -0.22946843514E+02  0.31940574450E+02 -0.32651905006E+02  0.51116580715E+02  0.00000000000E+00 0. -1.
         13    1    3    3    0    0  0.31305814822E+02  0.35485418328E+02 -0.22227617257E+03  0.22725748799E+03  0.00000000000E+00 0.  1.
          1    1    1    2  501    0 -0.31300835163E+02  0.82467324398E+02 -0.63653361885E+03  0.64261625392E+03  0.00000000000E+00 0. -1.
<scales pt_clust_5="13000.00000" pt_clust_6="13000.00000" pt_clust_7="13000.00000" pt_clust_8="13000.00000" pt_clust_9="88.20776"></scales>
<clustering>
<clus scale="   80.138">  5  6 -1 -1</clus>
<clus scale="   88.208">  1  9  2 -1</clus>
<clus scale="   88.813">  7  8 -1 -1</clus>
<clus scale="  124.112">  1  5  2 -1</clus>
<clus scale="   88.208">  1  5  2 -1</clus>
</clustering>
</event>
<event>
 9    2  0.1751298E-004  0.1232385E+03  0.7546771E-02  0.1239992E+00
         21   -1    0    0  501  502  0.00000000000E+00  0.00000000000E+00  0.78784623638E+02  0.78784623638E+02  0.00000000000E+00 0. -1.
          2   -1    0    0  502    0 -0.00000000000E+00 -0.00000000000E+00 -0.47168258633E+03  0.47168258633E+03  0.00000000000E+00 0. -1.
         24    2    1    2    0    0 -0.85219525051E+02 -0.14742594839E+02 -0.38511215156E+03  0.40361299750E+03  0.84334873687E+02 0.  0.
         23    2    1    2    0    0  0.64010543383E+02 -0.89651502421E+01 -0.17876916157E+02  0.11348194133E+03  0.91546945846E+02 0.  0.
        -11    1    3    3    0    0 -0.80351093729E+02  0.13801849772E+02 -0.19574251727E+03  0.21204226557E+03  0.00000000000E+00 0.  1.
         12    1    3    3    0    0 -0.48684313224E+01 -0.28544444610E+02 -0.18936963429E+03  0.19157073193E+03  0.00000000000E+00 0. -1.
        -13    1    4    4    0    0  0.45844867374E+02  0.37474425597E+02  0.33031495351E+01  0.59304259840E+02  0.00000000000E+00 0.  1.
         13    1    4    4    0    0  0.18165676009E+02 -0.46439575839E+02 -0.21180065692E+02  0.54177681490E+02  0.00000000000E+00 0. -1.
          1    1    1    2  501    0  0.21208981668E+02  0.23707745081E+02  0.10091105024E+02  0.33372271137E+02  0.00000000000E+00 0. -1.
<scales pt_clust_5="13000.00000" pt_clust_6="13000.00000" pt_clust_7="13000.00000" pt_clust_8="13000.00000" pt_clust_9="31.81003"></scales>
<clustering>
<clus scale="   31.810">  1  9  2 -1</clus>
<clus scale="   84.335">  5  6 -1 -1</clus>
<clus scale="   91.547">  7  8 -1 -1</clus>
<clus scale="  117.980">  2  5  1 -1</clus>
<clus scale="   31.810">  1  5  2 -1</clus>
</clustering>
</event>
<event>
 9    2  0.1751298E-004  0.1518656E+03  0.7546771E-02  0.1198820E+00
          2   -1    0    0  502    0 -0.00000000000E+00  0.00000000000E+00  0.21607165346E+04  0.21607165346E+04  0.00000000000E+00 0. -1.
         21   -1    0    0  501  502  0.00000000000E+00 -0.00000000000E+00 -0.41627610884E+02  0.41627610884E+02  0.00000000000E+00 0. -1.
         24    2    1    2    0    0  0.76176165657E+02  0.10235466652E+03  0.14251025014E+04  0.14335993087E+04  0.89501690614E+02 0.  0.
         23    2    1    2    0    0 -0.13338558019E+03 -0.12425826406E+02  0.61458734542E+03  0.63583762547E+03  0.92875005498E+02 0.  0.
        -13    1    3    3    0    0 -0.44509690043E+01  0.21529365269E+02  0.63093376364E+02  0.66813911987E+02  0.00000000000E+00 0.  1.
         14    1    3    3    0    0  0.80627134662E+02  0.80825301255E+02  0.13620091250E+04  0.13667853967E+04  0.00000000000E+00 0. -1.
        -13    1    4    4    0    0 -0.90875478375E+02 -0.50615173610E+02  0.44032563099E+03  0.45244547702E+03  0.00000000000E+00 0.  1.
         13    1    4    4    0    0 -0.42510101816E+02  0.38189347204E+02  0.17426171443E+03  0.18339214845E+03  0.00000000000E+00 0. -1.
          1    1    1    2  501    0  0.57209414534E+02 -0.89928840117E+02  0.79399076949E+02  0.13290721130E+03  0.00000000000E+00 0. -1.
<scales pt_clust_5="13000.00000" pt_clust_6="13000.00000" pt_clust_7="13000.00000" pt_clust_8="13000.00000" pt_clust_9="106.58383"></scales>
<clustering>
<clus scale="   89.502">  5  6 -1 -1</clus>
<clus scale="   92.875">  7  8 -1 -1</clus>
<clus scale="  106.584">  2  9  1 -1</clus>
<clus scale="  149.826">  1  5  2 -1</clus>
<clus scale="  106.584">  2  5  1 -1</clus>
</clustering>
</event>
<event>
 9    2  0.1751298E-004  0.1347623E+03  0.7546771E-02  0.1223604E+00
         21   -1    0    0  501  502  0.00000000000E+00  0.00000000000E+00  0.84346032542E+02  0.84346032542E+02  0.00000000000E+00 0. -1.
          2   -1    0    0  502    0 -0.00000000000E+00 -0.00000000000E+00 -0.47621898953E+03  0.47621898953E+03  0.00000000000E+00 0. -1.
         24    2    1    2    0    0  0.10789107335E+03  0.55109521500E+02 -0.30232550527E+03  0.33459864695E+03  0.76668118101E+02 0.  0.
         23    2    1    2    0    0 -0.52094292260E+02 -0.50388453692E+02 -0.11639215683E+03  0.16386800595E+03  0.89737270129E+02 0.  0.
        -11    1    3    3    0    0  0.12537460648E+02  0.45271849504E+02 -0.11340813274E+03  0.12275232319E+03  0.00000000000E+00 0.  1.
         12    1    3    3    0    0  0.95353612700E+02  0.98376719962E+01 -0.18891737254E+03  0.21184632376E+03  0.00000000000E+00 0. -1.
        -13    1    4    4    0    0 -0.48809533692E+02 -0.73046270729E+02 -0.10859550460E+03  0.13968218163E+03  0.00000000000E+00 0. -1.
         13    1    4    4    0    0 -0.32847585680E+01  0.22657817037E+02 -0.77966522296E+01  0.24185824314E+02  0.00000000000E+00 0.  1.
          1    1    1    2  501    0 -0.55796781088E+02 -0.47210678078E+01  0.26844705119E+02  0.62098369173E+02  0.00000000000E+00 0. -1.
<scales pt_clust_5="13000.00000" pt_clust_6="13000.00000" pt_clust_7="13000.00000" pt_clust_8="13000.00000" pt_clust_9="55.99615"></scales>
<clustering>
<clus scale="   55.996">  1  9  2 -1</clus>
<clus scale="   76.668">  5  6 -1 -1</clus>
<clus scale="   89.737">  7  8 -1 -1</clus>
<clus scale="  126.436">  2  5  1 -1</clus>
<clus scale="   55.996">  1  5  2 -1</clus>
</clustering>
</event>
<event>
 9    2  0.1751298E-004  0.1447585E+03  0.7546771E-02  0.1209794E+00
         21   -1    0    0  501  502  0.00000000000E+00  0.00000000000E+00  0.18744651291E+03  0.18744651291E+03  0.00000000000E+00 0. -1.
         -3   -1    0    0    0  501 -0.00000000000E+00 -0.00000000000E+00 -0.22229311299E+03  0.22229311299E+03  0.00000000000E+00 0.  1.
         24    2    1    2    0    0  0.10307258955E+03 -0.21052993425E+02 -0.11446774214E+03  0.17402259732E+03  0.78190876315E+02 0.  0.
         23    2    1    2    0    0 -0.13896328638E+03 -0.11354254096E+02  0.36372556894E+02  0.17084167170E+03  0.91783439940E+02 0.  0.
        -11    1    3    3    0    0  0.59853674876E+02 -0.49621490451E+02 -0.55475262540E+02  0.95510520178E+02  0.00000000000E+00 0.  1.
         12    1    3    3    0    0  0.43218914677E+02  0.28568497026E+02 -0.58992479602E+02  0.78512077146E+02  0.00000000000E+00 0. -1.
        -11    1    4    4    0    0 -0.54251135284E+02  0.22488711908E+02 -0.21807161365E+02  0.62645671277E+02  0.00000000000E+00 0.  1.
         11    1    4    4    0    0 -0.84712151094E+02 -0.33842966004E+02  0.58179718259E+02  0.10819600042E+03  0.00000000000E+00 0. -1.
         -4    1    1    2    0  502  0.35890696826E+02  0.32407247521E+02  0.43248585175E+02  0.64875356879E+02  0.00000000000E+00 0.  1.
<scales pt_clust_5="13000.00000" pt_clust_6="13000.00000" pt_clust_7="13000.00000" pt_clust_8="13000.00000" pt_clust_9="48.35671"></scales>
<clustering>
<clus scale="   48.357">  1  9  2 -1</clus>
<clus scale="   78.191">  5  6 -1 -1</clus>
<clus scale="   91.783">  7  8 -1 -1</clus>
<clus scale="  136.545">  2  5  1 -1</clus>
<clus scale="   48.357">  1  5  2 -1</clus>
</clustering>
</event>
<event>
 9    2  0.1751298E-004  0.1261552E+03  0.7546771E-02  0.1236652E+00
         -1   -1    0    0    0  501 -0.00000000000E+00  0.00000000000E+00  0.43020627399E+03  0.43020627399E+03  0.00000000000E+00 0.  1.
         21   -1    0    0  501  502  0.00000000000E+00 -0.00000000000E+00 -0.13948207210E+03  0.13948207210E+03  0.00000000000E+00 0. -1.
         23    2    1    2    0    0  0.68809788836E+01  0.86770356572E+02  0.16516934583E+03  0.20799492083E+03  0.91676232694E+02 0.  0.
         24    2    1    2    0    0 -0.10700849489E+03 -0.66357247699E+02 -0.51173614714E+02  0.15754845995E+03  0.79678579876E+02 0.  0.
        -11    1    4    4    0    0 -0.11242192007E+03 -0.59655502269E+02 -0.24615354231E+02  0.12962786247E+03  0.00000000000E+00 0.  1.
         12    1    4    4    0    0  0.54134251889E+01 -0.67017454296E+01 -0.26558260483E+02  0.27920597486E+02  0.00000000000E+00 0. -1.
        -13    1    3    3    0    0 -0.41190915243E+02  0.25174991664E+02  0.64149521034E+02  0.80284698123E+02  0.00000000000E+00 0. -1.
         13    1    3    3    0    0  0.48071894127E+02  0.61595364908E+02  0.10101982479E+03  0.12771022271E+03  0.00000000000E+00 0.  1.
         -2    1    1    2    0  502  0.10012751600E+03 -0.20413108873E+02  0.17672847078E+03  0.20414496530E+03  0.00000000000E+00 0.  1.
<scales pt_clust_5="13000.00000" pt_clust_6="13000.00000" pt_clust_7="13000.00000" pt_clust_8="13000.00000" pt_clust_9="102.18721"></scales>
<clustering>
<clus scale="   79.679">  5  6 -1 -1</clus>
<clus scale="   91.676">  7  8 -1 -1</clus>
<clus scale="  102.187">  2  9  1 -1</clus>
<clus scale="  117.725">  2  5  1 -1</clus>
<clus scale="  102.187">  2  5  1 -1</clus>
</clustering>
</event>
<event>
 9    2  0.1751298E-004  0.1618430E+03  0.7546771E-02  0.1219146E+00
          2   -1    0    0  502    0 -0.00000000000E+00  0.00000000000E+00  0.15373460836E+03  0.15373460836E+03  0.00000000000E+00 0. -1.
         21   -1    0    0  501  502  0.00000000000E+00 -0.00000000000E+00 -0.36314962211E+03  0.36314962211E+03  0.00000000000E+00 0. -1.
         24    2    1    2    0    0  0.10792641243E+02  0.28919731494E+02  0.71777167256E+02  0.10758371523E+03  0.73955811601E+02 0.  0.
         23    2    1    2    0    0 -0.72217839053E+02  0.10068412688E+03 -0.13529434228E+03  0.20471216177E+03  0.90828412088E+02 0.  0.
        -13    1    3    3    0    0  0.16033885202E+02 -0.22794903440E+02  0.29494053376E+02  0.40578224235E+02  0.00000000000E+00 0.  1.
         14    1    3    3    0    0 -0.52412439587E+01  0.51714634935E+02  0.42283113879E+02  0.67005490999E+02  0.00000000000E+00 0. -1.
        -13    1    4    4    0    0 -0.27849123911E+02  0.84638981471E+02 -0.38566859722E+02  0.97091367051E+02  0.00000000000E+00 0.  1.
         13    1    4    4    0    0 -0.44368715142E+02  0.16045145405E+02 -0.96727482560E+02  0.10762079472E+03  0.00000000000E+00 0. -1.
          1    1    1    2  501    0  0.61425197810E+02 -0.12960385837E+03 -0.14589783872E+03  0.20458835347E+03  0.00000000000E+00 0. -1.
<scales pt_clust_5="13000.00000" pt_clust_6="13000.00000" pt_clust_7="13000.00000" pt_clust_8="13000.00000" pt_clust_9="133.95294"></scales>
<clustering>
<clus scale="   73.956">  5  6 -1 -1</clus>
<clus scale="   80.139">  1  5  2 -1</clus>
<clus scale="   90.828">  7  8 -1 -1</clus>
<clus scale="  133.953">  2  9  1 -1</clus>
<clus scale="  133.953">  2  5  1 -1</clus>
</clustering>
</event>
<event>
 9    2  0.3838310E-004  0.1180341E+03  0.7546771E-02  0.1249632E+00
          2   -1    0    0  502    0 -0.00000000000E+00  0.00000000000E+00  0.16464023730E+04  0.16464023730E+04  0.00000000000E+00 0. -1.
         21   -1    0    0  501  502  0.00000000000E+00 -0.00000000000E+00 -0.10794977009E+03  0.10794977009E+03  0.00000000000E+00 0.  1.
         24    2    1    2    0    0  0.16109177733E+02 -0.74784793949E+02  0.15721284137E+04  0.15759939654E+04  0.79479297039E+02 0.  0.
         23    2    1    2    0    0 -0.15980722285E+02  0.95671858753E+02 -0.59778774987E+02  0.14492689421E+03  0.89564583867E+02 0.  0.
        -13    1    3    3    0    0  0.56600065691E+01 -0.38655403608E+02  0.22681909498E+03  0.23015902709E+03  0.00000000000E+00 0.  1.
         14    1    3    3    0    0  0.10449171164E+02 -0.36129390342E+02  0.13453093188E+04  0.13458349383E+04  0.00000000000E+00 0. -1.
        -13    1    4    4    0    0 -0.27379540383E+02  0.97217054305E+01  0.12902296622E+02  0.31790250804E+02  0.00000000000E+00 0. -1.
         13    1    4    4    0    0  0.11398818098E+02  0.85950153323E+02 -0.72681071609E+02  0.11313664340E+03  0.00000000000E+00 0.  1.
          1    1    1    2  501    0 -0.12845544796E+00 -0.20887064804E+02  0.26102964124E+02  0.33431283448E+02  0.00000000000E+00 0. -1.
<scales pt_clust_5="13000.00000" pt_clust_6="13000.00000" pt_clust_7="13000.00000" pt_clust_8="13000.00000" pt_clust_9="20.88746"></scales>
<clustering>
<clus scale="   20.887">  2  9  1 -1</clus>
<clus scale="   79.479">  5  6 -1 -1</clus>
<clus scale="   89.565">  7  8 -1 -1</clus>
<clus scale="  110.577">  1  5  2 -1</clus>
<clus scale="   20.887">  2  5  1 -1</clus>
</clustering>
</event>
<event>
 9    2  0.1751298E-004  0.2467899E+03  0.7546771E-02  0.1115451E+00
         21   -1    0    0  501  502  0.00000000000E+00  0.00000000000E+00  0.10362084299E+03  0.10362084299E+03  0.00000000000E+00 0. -1.
          2   -1    0    0  502    0 -0.00000000000E+00 -0.00000000000E+00 -0.11580751167E+04  0.11580751167E+04  0.00000000000E+00 0. -1.
         24    2    1    2    0    0  0.20757827575E+03 -0.18824043985E+02 -0.55604613032E+03  0.59995889970E+03  0.85558734745E+02 0.  0.
         23    2    1    2    0    0 -0.30137910658E+03 -0.39667342591E+02 -0.30742153740E+03  0.44106598840E+03  0.87340371619E+02 0.  0.
        -11    1    3    3    0    0  0.40586836518E+02  0.65393150438E+01 -0.41566677756E+02  0.58462318116E+02  0.00000000000E+00 0.  1.
         12    1    3    3    0    0  0.16699143923E+03 -0.25363359029E+02 -0.51447945256E+03  0.54149658158E+03  0.00000000000E+00 0. -1.
        -13    1    4    4    0    0 -0.62805501793E+02  0.20193409788E+02 -0.97356154417E+02  0.11760325530E+03  0.00000000000E+00 0.  1.
         13    1    4    4    0    0 -0.23857360479E+03 -0.59860752379E+02 -0.21006538298E+03  0.32346273310E+03  0.00000000000E+00 0. -1.
          1    1    1    2  501    0  0.93800830833E+02  0.58491386576E+02 -0.19098660597E+03  0.22067107157E+03  0.00000000000E+00 0. -1.
<scales pt_clust_5="13000.00000" pt_clust_6="13000.00000" pt_clust_7="13000.00000" pt_clust_8="13000.00000" pt_clust_9="110.54343"></scales>
<clustering>
<clus scale="   85.559">  5  6 -1 -1</clus>
<clus scale="   87.340">  7  8 -1 -1</clus>
<clus scale="  110.543">  1  9  2 -1</clus>
<clus scale="  246.165">  2  5  1 -1</clus>
<clus scale="  110.543">  1  5  2 -1</clus>
</clustering>
</event>
<event>
 9    2  0.1751298E-004  0.2880466E+03  0.7546771E-02  0.1132679E+00
         -3   -1    0    0    0  501 -0.00000000000E+00  0.00000000000E+00  0.25244842051E+03  0.25244842051E+03  0.00000000000E+00 0.  1.
         21   -1    0    0  501  502  0.00000000000E+00 -0.00000000000E+00 -0.45015910783E+03  0.45015910783E+03  0.00000000000E+00 0.  1.
         23    2    1    2    0    0 -0.44412270062E+02 -0.35966666532E+02 -0.36539509042E+02  0.10735124253E+03  0.83205184438E+02 0.  0.
         24    2    1    2    0    0  0.29038319469E+03  0.71008692769E+02 -0.15591141178E+03  0.34674611598E+03  0.80993002267E+02 0.  0.
        -11    1    4    4    0    0  0.29543208327E+03  0.70598598395E+02 -0.15641141994E+03  0.34165598225E+03  0.00000000000E+00 0.  1.
         12    1    4    4    0    0 -0.50488885775E+01  0.41009437404E+00  0.50000815351E+00  0.50901337328E+01  0.00000000000E+00 0. -1.
        -13    1    3    3    0    0  0.20050313155E+02 -0.19411135020E+02 -0.29203307225E+02  0.40393568464E+02  0.00000000000E+00 0.  1.
         13    1    3    3    0    0 -0.64462583217E+02 -0.16555531512E+02 -0.73362018165E+01  0.66957674062E+02  0.00000000000E+00 0. -1.
         -4    1    1    2    0  502 -0.24597092463E+03 -0.35042026237E+02 -0.52597664936E+01  0.24851016983E+03  0.00000000000E+00 0.  1.
<scales pt_clust_5="13000.00000" pt_clust_6="13000.00000" pt_clust_7="13000.00000" pt_clust_8="13000.00000" pt_clust_9="276.42552"></scales>
<clustering>
<clus scale="   80.993">  5  6 -1 -1</clus>
<clus scale="   83.205">  7  8 -1 -1</clus>
<clus scale="  100.941">  1  7  2 -1</clus>
<clus scale="  276.426">  2  9  1 -1</clus>
<clus scale="  276.426">  2  5  1 -1</clus>
</clustering>
</event>
<event>
 9    2  0.1751298E-004  0.1543555E+03  0.7546771E-02  0.1219944E+00
          2   -1    0    0  502    0 -0.00000000000E+00  0.00000000000E+00  0.38398315967E+03  0.38398315967E+03  0.00000000000E+00 0. -1.
         21   -1    0    0  501  502  0.00000000000E+00 -0.00000000000E+00 -0.10238493868E+03  0.10238493868E+03  0.00000000000E+00 0.  1.
         24    2    1    2    0    0  0.30593538155E+02 -0.23669302454E+02  0.61394293081E+01  0.91048606731E+02  0.82194621114E+02 0.  0.
         23    2    1    2    0    0 -0.13633332706E+03 -0.21865070918E+02  0.13040478163E+03  0.21013053961E+03  0.89914288127E+02 0.  0.
        -13    1    3    3    0    0  0.23988526422E+02 -0.28903727113E+02 -0.33617380955E+02  0.50408363821E+02  0.00000000000E+00 0.  1.
         14    1    3    3    0    0  0.66050117330E+01  0.52344246586E+01  0.39756810263E+02  0.40640242910E+02  0.00000000000E+00 0. -1.
        -11    1    4    4    0    0 -0.57655801677E+02  0.34649556081E+02  0.44481285005E+02  0.80643461727E+02  0.00000000000E+00 0. -1.
         11    1    4    4    0    0 -0.78677525388E+02 -0.56514626999E+02  0.85923496624E+02  0.12948707788E+03  0.00000000000E+00 0.  1.
          1    1    1    2  501    0  0.10573978891E+03  0.45534373372E+02  0.14505401004E+03  0.18518895201E+03  0.00000000000E+00 0. -1.
<scales pt_clust_5="13000.00000" pt_clust_6="13000.00000" pt_clust_7="13000.00000" pt_clust_8="13000.00000" pt_clust_9="125.46332"></scales>
<clustering>
<clus scale="   82.195">  5  6 -1 -1</clus>
<clus scale="   89.914">  7  8 -1 -1</clus>
<clus scale="   90.841">  1  5  2 -1</clus>
<clus scale="  125.463">  2  9  1 -1</clus>
<clus scale="  125.463">  2  5  1 -1</clus>
</clustering>
</event>
<event>
 9    2  0.1751298E-004  0.1277252E+03  0.7546771E-02  0.1233541E+00
         21   -1    0    0  501  502  0.00000000000E+00  0.00000000000E+00  0.95462499894E+02  0.95462499894E+02  0.00000000000E+00 0.  1.
         -3   -1    0    0    0  501 -0.00000000000E+00 -0.00000000000E+00 -0.39597495741E+03  0.39597495741E+03  0.00000000000E+00 0.  1.
         23    2    1    2    0    0  0.51212771508E+02  0.78174122093E+02 -0.30584406488E+03  0.33258340175E+03  0.91308191121E+02 0.  0.
         24    2    1    2    0    0 -0.54398427355E+02 -0.43226359817E+02  0.35251810200E+02  0.11273775660E+03  0.81482541439E+02 0.  0.
        -11    1    4    4    0    0 -0.56333363814E+02 -0.82453194727E+01  0.48986375557E+02  0.75107244404E+02  0.00000000000E+00 0.  1.
         12    1    4    4    0    0  0.19349364589E+01 -0.34981040344E+02 -0.13734565357E+02  0.37630512197E+02  0.00000000000E+00 0. -1.
        -11    1    3    3    0    0  0.47028753761E+02  0.52264593194E+02 -0.29650372728E+03  0.30472569907E+03  0.00000000000E+00 0.  1.
         11    1    3    3    0    0  0.41840177464E+01  0.25909528899E+02 -0.93403376050E+01  0.27857702685E+02  0.00000000000E+00 0. -1.
         -4    1    1    2    0  502  0.31856558470E+01 -0.34947762276E+02 -0.29920202830E+02  0.46116298948E+02  0.00000000000E+00 0.  1.
<scales pt_clust_5="13000.00000" pt_clust_6="13000.00000" pt_clust_7="13000.00000" pt_clust_8="13000.00000" pt_clust_9="35.09267"></scales>
<clustering>
<clus scale="   35.093">  1  9  2 -1</clus>
<clus scale="   81.483">  5  6 -1 -1</clus>
<clus scale="   91.308">  7  8 -1 -1</clus>
<clus scale="  120.896">  1  5  2 -1</clus>
<clus scale="   35.093">  1  5  2 -1</clus>
</clustering>
</event>
<event>
 9    2  0.1751298E-004  0.1563113E+03  0.7546771E-02  0.1204993E+00
         21   -1    0    0  501  502  0.00000000000E+00  0.00000000000E+00  0.76274128613E+02  0.76274128613E+02  0.00000000000E+00 0.  1.
         -1   -1    0    0    0  501 -0.00000000000E+00 -0.00000000000E+00 -0.79878736908E+03  0.79878736908E+03  0.00000000000E+00 0.  1.
         23    2    1    2    0    0  0.53646521796E+02 -0.59440877250E+02 -0.11017446414E+03  0.16306390495E+03  0.89667482180E+02 0.  0.
         24    2    1    2    0    0  0.72605712203E+02  0.11250690197E+03 -0.11598893005E+03  0.19710071038E+03  0.86405241180E+02 0.  0.
        -13    1    4    4    0    0  0.65558565643E+02  0.11434765117E+03 -0.12756177366E+03  0.18342659828E+03  0.00000000000E+00 0.  1.
         14    1    4    4    0    0  0.70471465596E+01 -0.18407492008E+01  0.11572843617E+02  0.13674112097E+02  0.00000000000E+00 0. -1.
        -13    1    3    3    0    0  0.56157109130E+02  0.29361044999E+01 -0.39240926593E+02  0.68571801313E+02  0.00000000000E+00 0. -1.
         13    1    3    3    0    0 -0.25105873344E+01 -0.62376981750E+02 -0.70933537551E+02  0.94492103641E+02  0.00000000000E+00 0.  1.
         -2    1    1    2    0  502 -0.12625223400E+03 -0.53066024716E+02 -0.49634984628E+03  0.51489688236E+03  0.00000000000E+00 0.  1.
<scales pt_clust_5="13000.00000" pt_clust_6="13000.00000" pt_clust_7="13000.00000" pt_clust_8="13000.00000" pt_clust_9="130.25893"></scales>
<clustering>
<clus scale="   86.405">  5  6 -1 -1</clus>
<clus scale="   89.667">  7  8 -1 -1</clus>
<clus scale="  120.214">  2  7  1 -1</clus>
<clus scale="  130.259">  1  9  2 -1</clus>
<clus scale="  130.259">  1  5  2 -1</clus>
</clustering>
</event>
<event>
 9    2  0.1751298E-004  0.1475768E+03  0.7546771E-02  0.1204751E+00
          2   -1    0    0  502    0 -0.00000000000E+00  0.00000000000E+00  0.45466425075E+03  0.45466425075E+03  0.00000000000E+00 0. -1.
         21   -1    0    0  501  502  0.00000000000E+00 -0.00000000000E+00 -0.12391031200E+03  0.12391031200E+03  0.00000000000E+00 0.  1.
         24    2    1    2    0    0  0.94863052956E+02  0.41762250184E+02  0.19245716099E+03  0.23402363019E+03  0.83571623858E+02 0.  0.
         23    2    1    2    0    0 -0.17471808689E+03  0.39957020945E+02  0.98709978427E+02  0.22362955150E+03  0.90241581634E+02 0.  0.
        -13    1    3    3    0    0  0.61592203525E+02  0.57149353934E+02  0.17345672163E+03  0.19273526525E+03  0.00000000000E+00 0.  1.
         14    1    3    3    0    0  0.33270849431E+02 -0.15387103750E+02  0.19000439352E+02  0.41288364938E+02  0.00000000000E+00 0. -1.
        -11    1    4    4    0    0 -0.82574696857E+02  0.43571928594E+02  0.70832654701E+01  0.93633680757E+02  0.00000000000E+00 0.  1.
         11    1    4    4    0    0 -0.92143390029E+02 -0.36149076483E+01  0.91626712957E+02  0.12999587074E+03  0.00000000000E+00 0. -1.
          1    1    1    2  501    0  0.79855033930E+02 -0.81719271129E+02  0.39586799336E+02  0.12092138107E+03  0.00000000000E+00 0. -1.
<scales pt_clust_5="13000.00000" pt_clust_6="13000.00000" pt_clust_7="13000.00000" pt_clust_8="13000.00000" pt_clust_9="114.25789"></scales>
<clustering>
<clus scale="   83.572">  5  6 -1 -1</clus>
<clus scale="   90.242">  7  8 -1 -1</clus>
<clus scale="  114.258">  2  9  1 -1</clus>
<clus scale="  143.595">  1  5  2 -1</clus>
<clus scale="  114.258">  2  5  1 -1</clus>
</clustering>
</event>
<event>
 9    2  0.1751298E-004  0.1521479E+03  0.7546771E-02  0.1199289E+00
         21   -1    0    0  501  502  0.00000000000E+00  0.00000000000E+00  0.89398439185E+02  0.89398439185E+02  0.00000000000E+00 0.  1.
         -1   -1    0    0    0  501 -0.00000000000E+00 -0.00000000000E+00 -0.51117231405E+03  0.51117231405E+03  0.00000000000E+00 0.  1.
         24    2    1    2    0    0  0.17897299402E+02 -0.11527515803E+03 -0.27157053476E+03  0.30732275057E+03  0.84190511839E+02 0.  0.
         23    2    1    2    0    0  0.56250135429E+02  0.13595668022E+03 -0.11744474563E+03  0.20958981141E+03  0.92121246946E+02 0.  0.
        -11    1    3    3    0    0  0.32082475257E+02 -0.11334756029E+03 -0.18323562687E+03  0.21783537269E+03  0.00000000000E+00 0.  1.
         12    1    3    3    0    0 -0.14185175855E+02 -0.19275977394E+01 -0.88334907894E+02  0.89487377879E+02  0.00000000000E+00 0. -1.
        -11    1    4    4    0    0 -0.20685135645E+01  0.84004618911E+02 -0.98018293007E+02  0.12910708931E+03  0.00000000000E+00 0.  1.
         11    1    4    4    0    0  0.58318648993E+02  0.51952061307E+02 -0.19426452620E+02  0.80482722095E+02  0.00000000000E+00 0. -1.
         -2    1    1    2    0  502 -0.74147434831E+02 -0.20681522186E+02 -0.32758594476E+02  0.83658191254E+02  0.00000000000E+00 0.  1.
<scales pt_clust_5="13000.00000" pt_clust_6="13000.00000" pt_clust_7="13000.00000" pt_clust_8="13000.00000" pt_clust_9="76.97771"></scales>
<clustering>
<clus scale="   76.978">  1  9  2 -1</clus>
<clus scale="   84.191">  5  6 -1 -1</clus>
<clus scale="   92.121">  7  8 -1 -1</clus>
<clus scale="  147.481">  2  5  1 -1</clus>
<clus scale="   76.978">  1  5  2 -1</clus>
</clustering>
</event>
<event>
 9    2  0.1751298E-004  0.1117194E+03  0.7546771E-02  0.1266752E+00
         21   -1    0    0  501  502  0.00000000000E+00  0.00000000000E+00  0.66364088287E+02  0.66364088287E+02  0.00000000000E+00 0. -1.
          2   -1    0    0  502    0 -0.00000000000E+00 -0.00000000000E+00 -0.26036131457E+03  0.26036131457E+03  0.00000000000E+00 0. -1.
         23    2    1    2    0    0 -0.16521288419E+02  0.13860947946E+02 -0.70971372331E+02  0.12554714377E+03  0.10129200743E+03 0.  0.
         24    2    1    2    0    0  0.34836689326E+02 -0.61552118299E+02 -0.94169647106E+02  0.14250473598E+03  0.80233528848E+02 0.  0.
        -11    1    4    4    0    0 -0.23431813363E+02 -0.22611904567E+02 -0.12480941034E+02  0.34872940724E+02  0.00000000000E+00 0.  1.
         12    1    4    4    0    0  0.58268502689E+02 -0.38940213731E+02 -0.81688706072E+02  0.10763179526E+03  0.00000000000E+00 0. -1.
        -13    1    3    3    0    0 -0.19309366701E+02 -0.22475972285E+02  0.14235652920E+02  0.32873618399E+02  0.00000000000E+00 0. -1.
         13    1    3    3    0    0  0.27880782819E+01  0.36336920231E+02 -0.85207025251E+02  0.92673525370E+02  0.00000000000E+00 0.  1.
          1    1    1    2  501    0 -0.18315400906E+02  0.47691170353E+02 -0.28856206848E+02  0.58673523106E+02  0.00000000000E+00 0. -1.
<scales pt_clust_5="13000.00000" pt_clust_6="13000.00000" pt_clust_7="13000.00000" pt_clust_8="13000.00000" pt_clust_9="51.08720"></scales>
<clustering>
<clus scale="   51.087">  1  9  2 -1</clus>
<clus scale="   80.234">  5  6 -1 -1</clus>
<clus scale="   93.052">  1  5  2 -1</clus>
<clus scale="  101.292">  7  8 -1 -1</clus>
<clus scale="   51.087">  1  5  2 -1</clus>
</clustering>
</event>
<event>
 9    2  0.1751298E-004  0.1216189E+03  0.7546771E-02  0.1243266E+00
         21   -1    0    0  501  502  0.00000000000E+00  0.00000000000E+00  0.60085427091E+03  0.60085427091E+03  0.00000000000E+00 0. -1.
         -1   -1    0    0    0  501 -0.00000000000E+00 -0.00000000000E+00 -0.98446357350E+02  0.98446357350E+02  0.00000000000E+00 0.  1.
         23    2    1    2    0    0  0.75094580006E+02 -0.28654613509E+02 -0.31987745933E+02  0.12467494649E+03  0.89779416190E+02 0.  0.
         24    2    1    2    0    0 -0.11168372300E+03 -0.28712920353E+02  0.40002180754E+03  0.42400652158E+03  0.80413917071E+02 0.  0.
        -13    1    4    4    0    0 -0.55890303456E+02  0.45256315959E+01  0.29682545104E+03  0.30207541401E+03  0.00000000000E+00 0.  1.
         14    1    4    4    0    0 -0.55793419542E+02 -0.33238551949E+02  0.10319635650E+03  0.12193110757E+03  0.00000000000E+00 0. -1.
        -11    1    3    3    0    0  0.56657322762E+02 -0.54846216764E+02  0.77138922547E+00  0.78859081641E+02  0.00000000000E+00 0.  1.
         11    1    3    3    0    0  0.18437257244E+02  0.26191603255E+02 -0.32759135158E+02  0.45815864852E+02  0.00000000000E+00 0. -1.
         -2    1    1    2    0  502  0.36589142992E+02  0.57367533862E+02  0.13437385195E+03  0.15061916018E+03  0.00000000000E+00 0.  1.
<scales pt_clust_5="13000.00000" pt_clust_6="13000.00000" pt_clust_7="13000.00000" pt_clust_8="13000.00000" pt_clust_9="68.04263"></scales>
<clustering>
<clus scale="   68.043">  1  9  2 -1</clus>
<clus scale="   80.414">  5  6 -1 -1</clus>
<clus scale="   89.779">  7  8 -1 -1</clus>
<clus scale="  114.879">  1  5  2 -1</clus>
<clus scale="   68.043">  1  5  2 -1</clus>
</clustering>
</event>
<event>
 9    2  0.1751298E-004  0.1065750E+03  0.7546771E-02  0.1271235E+00
         -3   -1    0    0    0  501 -0.00000000000E+00  0.00000000000E+00  0.45235691581E+03  0.45235691581E+03  0.00000000000E+00 0.  1.
         21   -1    0    0  501  502  0.00000000000E+00 -0.00000000000E+00 -0.85292924720E+02  0.85292924720E+02  0.00000000000E+00 0. -1.
         24    2    1    2    0    0 -0.47853395171E+02  0.49452482956E+02  0.21457256586E+03  0.23958507914E+03  0.81388750018E+02 0.  0.
         23    2    1    2    0    0 -0.57974469272E+02 -0.36855359730E+02  0.25631434557E+01  0.11411717624E+03  0.91086791465E+02 0.  0.
        -11    1    3    3    0    0  0.16751329173E+02  0.25327640501E+02  0.30590512563E+02  0.43103084127E+02  0.00000000000E+00 0.  1.
         12    1    3    3    0    0 -0.64604724344E+02  0.24124842455E+02  0.18398205329E+03  0.19648199502E+03  0.00000000000E+00 0. -1.
        -11    1    4    4    0    0 -0.37386849545E+01 -0.53860336951E+02 -0.12286361668E+02  0.55370283950E+02  0.00000000000E+00 0. -1.
         11    1    4    4    0    0 -0.54235784318E+02  0.17004977221E+02  0.14849505124E+02  0.58746892286E+02  0.00000000000E+00 0.  1.
         -4    1    1    2    0  502  0.10582786444E+03 -0.12597123226E+02  0.14992828178E+03  0.18394758515E+03  0.00000000000E+00 0.  1.
<scales pt_clust_5="13000.00000" pt_clust_6="13000.00000" pt_clust_7="13000.00000" pt_clust_8="13000.00000" pt_clust_9="106.57502"></scales>
<clustering>
<clus scale="   81.389">  5  6 -1 -1</clus>
<clus scale="   91.087">  7  8 -1 -1</clus>
<clus scale="  106.575">  2  9  1 -1</clus>
<clus scale="   98.272">  1  5  2 -1</clus>
<clus scale="  106.575">  2  5  1 -1</clus>
</clustering>
</event>
<event>
 9    2  0.1751298E-004  0.2887812E+03  0.7546771E-02  0.1129800E+00
         21   -1    0    0  501  502  0.00000000000E+00  0.00000000000E+00  0.10912669872E+03  0.10912669872E+03  0.00000000000E+00 0. -1.
          2   -1    0    0  502    0 -0.00000000000E+00 -0.00000000000E+00 -0.10407395179E+04  0.10407395179E+04  0.00000000000E+00 0. -1.
         24    2    1    2    0    0  0.56567148167E+02  0.32809742226E+02 -0.14415567228E+03  0.17982198904E+03  0.85315698753E+02 0.  0.
         23    2    1    2    0    0 -0.29462129304E+03 -0.82687582502E+02 -0.39036034416E+03  0.50437970715E+03  0.91535501775E+02 0.  0.
        -11    1    3    3    0    0  0.50035243765E+02  0.37103791704E+02 -0.37143861167E+02  0.72525053601E+02  0.00000000000E+00 0.  1.
         12    1    3    3    0    0  0.65319044027E+01 -0.42940494777E+01 -0.10701181112E+03  0.10729693544E+03  0.00000000000E+00 0. -1.
        -13    1    4    4    0    0 -0.15370283082E+02 -0.23192148390E+02 -0.11808045857E+02  0.30225011099E+02  0.00000000000E+00 0.  1.
         13    1    4    4    0    0 -0.27925100996E+03 -0.59495434112E+02 -0.37855229830E+03  0.47415469605E+03  0.00000000000E+00 0. -1.
          1    1    1    2  501    0  0.23805414487E+03  0.49877840276E+02 -0.39709680276E+03  0.46566452045E+03  0.00000000000E+00 0. -1.
<scales pt_clust_5="13000.00000" pt_clust_6="13000.00000" pt_clust_7="13000.00000" pt_clust_8="13000.00000" pt_clust_9="273.89031"></scales>
<clustering>
<clus scale="   85.316">  5  6 -1 -1</clus>
<clus scale="   91.536">  7  8 -1 -1</clus>
<clus scale="  107.495">  2  5  1 -1</clus>
<clus scale="  273.890">  1  9  2 -1</clus>
<clus scale="  273.890">  1  5  2 -1</clus>
</clustering>
</event>
<event>
 9    2  0.1751298E-004  0.2379871E+03  0.7546771E-02  0.1121859E+00
          2   -1    0    0  502    0 -0.00000000000E+00  0.00000000000E+00  0.13072760090E+04  0.13072760090E+04  0.00000000000E+00 0. -1.
         21   -1    0    0  501  502  0.00000000000E+00 -0.00000000000E+00 -0.54702456718E+02  0.54702456718E+02  0.00000000000E+00 0.  1.
         23    2    1    2    0    0  0.11269588620E+03 -0.19827043936E+03  0.90169082727E+03  0.93452202338E+03  0.90958970484E+02 0.  0.
         24    2    1    2    0    0 -0.10541133219E+03  0.17389089394E+03  0.32162414001E+03  0.38868155668E+03  0.79257006733E+02 0.  0.
        -11    1    4    4    0    0 -0.82015818334E+02  0.68721716284E+02  0.12558888472E+03  0.16499041400E+03  0.00000000000E+00 0.  1.
         12    1    4    4    0    0 -0.23395513854E+02  0.10516917766E+03  0.19603525529E+03  0.22369114268E+03  0.00000000000E+00 0. -1.
        -13    1    3    3    0    0  0.12194421172E+03 -0.17190562458E+03  0.85024734013E+03  0.87598086391E+03  0.00000000000E+00 0. -1.
         13    1    3    3    0    0 -0.92483255259E+01 -0.26364814775E+02  0.51443487137E+02  0.58541159469E+02  0.00000000000E+00 0.  1.
          1    1    1    2  501    0 -0.72845540096E+01  0.24379545413E+02  0.29258585011E+02  0.38774885667E+02  0.00000000000E+00 0. -1.
<scales pt_clust_5="13000.00000" pt_clust_6="13000.00000" pt_clust_7="13000.00000" pt_clust_8="13000.00000" pt_clust_9="25.44459"></scales>
<clustering>
<clus scale="   25.445">  2  9  1 -1</clus>
<clus scale="   79.257">  5  6 -1 -1</clus>
<clus scale="   90.959">  7  8 -1 -1</clus>
<clus scale="  233.765">  2  5  1 -1</clus>
<clus scale="   25.445">  2  5  1 -1</clus>
</clustering>
</event>
<event>
 9    2  0.1751298E-004  0.1262211E+03  0.7546771E-02  0.1236355E+00
         21   -1    0    0  501  502  0.00000000000E+00  0.00000000000E+00  0.43646209877E+02  0.43646209877E+02  0.00000000000E+00 0.  1.
         -3   -1    0    0    0  501 -0.00000000000E+00 -0.00000000000E+00 -0.12850388202E+04  0.12850388202E+04  0.00000000000E+00 0.  1.
         24    2    1    2    0    0 -0.80284604983E+02 -0.99062979629E+00 -0.91585187875E+03  0.92281320785E+03  0.79705417913E+02 0.  0.
         23    2    1    2    0    0  0.14470870264E+03  0.26615072904E+02 -0.23326494365E+03  0.29045129770E+03  0.91106814650E+02 0.  0.
        -13    1    3    3    0    0 -0.80507164253E+02 -0.82744129956E+01 -0.47106473677E+03  0.47796637500E+03  0.00000000000E+00 0.  1.
         14    1    3    3    0    0  0.22255926958E+00  0.72837831994E+01 -0.44478714198E+03  0.44484683286E+03  0.00000000000E+00 0. -1.
        -13    1    4    4    0    0  0.39647285938E+02  0.19803943662E+02 -0.12786937731E+02  0.46126014822E+02  0.00000000000E+00 0. -1.
         13    1    4    4    0    0  0.10506141670E+03  0.68111292426E+01 -0.22047800592E+03  0.24432528288E+03  0.00000000000E+00 0.  1.
         -4    1    1    2    0  502 -0.64424097653E+02 -0.25624443108E+02 -0.92275787923E+02  0.11542052452E+03  0.00000000000E+00 0.  1.
<scales pt_clust_5="13000.00000" pt_clust_6="13000.00000" pt_clust_7="13000.00000" pt_clust_8="13000.00000" pt_clust_9="69.33308"></scales>
<clustering>
<clus scale="   69.333">  1  9  2 -1</clus>
<clus scale="   79.705">  5  6 -1 -1</clus>
<clus scale="   91.107">  7  8 -1 -1</clus>
<clus scale="  118.255">  2  5  1 -1</clus>
<clus scale="   69.333">  1  5  2 -1</clus>
</clustering>
</event>
<event>
 9    2  0.1751298E-004  0.1974928E+03  0.7546771E-02  0.1152882E+00
          2   -1    0    0  502    0 -0.00000000000E+00  0.00000000000E+00  0.76435804163E+03  0.76435804163E+03  0.00000000000E+00 0. -1.
         21   -1    0    0  501  502  0.00000000000E+00 -0.00000000000E+00 -0.10252674080E+03  0.10252674080E+03  0.00000000000E+00 0.  1.
         24    2    1    2    0    0 -0.12420641075E+03 -0.94889431911E+02  0.37736469728E+03  0.41656186681E+03  0.81782867206E+02 0.  0.
         23    2    1    2    0    0  0.19379184519E+03  0.93343495392E+02  0.29851054409E+03  0.37931759982E+03  0.92222606806E+02 0.  0.
        -13    1    3    3    0    0 -0.65483522374E+02 -0.86551276595E+02  0.17721125732E+03  0.20780530528E+03  0.00000000000E+00 0.  1.
         14    1    3    3    0    0 -0.58722888377E+02 -0.83381553157E+01  0.20015343996E+03  0.20875656153E+03  0.00000000000E+00 0. -1.
        -11    1    4    4    0    0  0.10877526491E+03  0.56093624129E+02  0.24053348935E+03  0.26987944054E+03  0.00000000000E+00 0.  1.
         11    1    4    4    0    0  0.85016580281E+02  0.37249871263E+02  0.57977054743E+02  0.10943815929E+03  0.00000000000E+00 0. -1.
          1    1    1    2  501    0 -0.69585434441E+02  0.15459365188E+01 -0.14043940545E+02  0.71005315802E+02  0.00000000000E+00 0. -1.
<scales pt_clust_5="13000.00000" pt_clust_6="13000.00000" pt_clust_7="13000.00000" pt_clust_8="13000.00000" pt_clust_9="69.60260"></scales>
<clustering>
<clus scale="   69.603">  2  9  1 -1</clus>
<clus scale="   81.783">  5  6 -1 -1</clus>
<clus scale="   92.223">  7  8 -1 -1</clus>
<clus scale="  192.839">  1  5  2 -1</clus>
<clus scale="   69.603">  2  5  1 -1</clus>
</clustering>
</event>
<event>
 9    2  0.1751298E-004  0.1040783E+03  0.7546771E-02  0.1275860E+00
         -3   -1    0    0    0  501 -0.00000000000E+00  0.00000000000E+00  0.18772578063E+03  0.18772578063E+03  0.00000000000E+00 0.  1.
         21   -1    0    0  501  502  0.00000000000E+00 -0.00000000000E+00 -0.12902216265E+03  0.12902216265E+03  0.00000000000E+00 0.  1.
         24    2    1    2    0    0  0.38357580543E+02 -0.37706461121E+02  0.95891020621E+02  0.13898561010E+03  0.85022531030E+02 0.  0.
         23    2    1    2    0    0 -0.45098605677E+02 -0.27918109042E+02 -0.28617593107E+02  0.11123814761E+03  0.93496811726E+02 0.  0.
        -13    1    3    3    0    0  0.44556353473E+02 -0.59406106077E+02  0.55461913184E+02  0.92684291485E+02  0.00000000000E+00 0.  1.
         14    1    3    3    0    0 -0.61987729299E+01  0.21699644955E+02  0.40429107437E+02  0.46301318612E+02  0.00000000000E+00 0. -1.
        -13    1    4    4    0    0  0.25438850941E+02  0.97481729599E+01 -0.10849738548E+02  0.29323690760E+02  0.00000000000E+00 0. -1.
         13    1    4    4    0    0 -0.70537456618E+02 -0.37666282002E+02 -0.17767854559E+02  0.81914456854E+02  0.00000000000E+00 0.  1.
         -4    1    1    2    0  502  0.67410251339E+01  0.65624570164E+02 -0.85698095357E+01  0.66524185561E+02  0.00000000000E+00 0.  1.
<scales pt_clust_5="13000.00000" pt_clust_6="13000.00000" pt_clust_7="13000.00000" pt_clust_8="13000.00000" pt_clust_9="65.96988"></scales>
<clustering>
<clus scale="   65.970">  2  9  1 -1</clus>
<clus scale="   85.023">  5  6 -1 -1</clus>
<clus scale="   93.497">  7  8 -1 -1</clus>
<clus scale="   96.537">  1  5  2 -1</clus>
<clus scale="   65.970">  2  5  1 -1</clus>
</clustering>
</event>
<event>
 9    2  0.1751298E-004  0.1943086E+03  0.7546771E-02  0.1155817E+00
         21   -1    0    0  501  502  0.00000000000E+00  0.00000000000E+00  0.24230513109E+03  0.24230513109E+03  0.00000000000E+00 0. -1.
          4   -1    0    0  502    0 -0.00000000000E+00 -0.00000000000E+00 -0.30355309177E+03  0.30355309177E+03  0.00000000000E+00 0. -1.
         23    2    1    2    0    0 -0.33844669297E+02  0.19681088624E+03 -0.13847288069E+03  0.25989803431E+03  0.92153475087E+02 0.  0.
         24    2    1    2    0    0 -0.10638671066E+02 -0.10463949898E+03  0.11653521627E+03  0.17632610812E+03  0.80298404112E+02 0.  0.
        -11    1    4    4    0    0 -0.34446093304E+02 -0.94361748298E+02  0.68018833032E+02  0.12131460973E+03  0.00000000000E+00 0.  1.
         12    1    4    4    0    0  0.23807422237E+02 -0.10277750685E+02  0.48516383239E+02  0.55011498391E+02  0.00000000000E+00 0. -1.
        -11    1    3    3    0    0  0.14957652138E+02  0.13948287026E+03 -0.11390726137E+03  0.18070436256E+03  0.00000000000E+00 0.  1.
         11    1    3    3    0    0 -0.48802321435E+02  0.57328015982E+02 -0.24565619313E+02  0.79193671755E+02  0.00000000000E+00 0. -1.
          3    1    1    2  501    0  0.44483340363E+02 -0.92171387259E+02 -0.39310296260E+02  0.10963408043E+03  0.00000000000E+00 0. -1.
<scales pt_clust_5="13000.00000" pt_clust_6="13000.00000" pt_clust_7="13000.00000" pt_clust_8="13000.00000" pt_clust_9="102.34424"></scales>
<clustering>
<clus scale="   80.298">  5  6 -1 -1</clus>
<clus scale="   92.153">  7  8 -1 -1</clus>
<clus scale="  102.344">  1  9  2 -1</clus>
<clus scale="  188.975">  1  5  2 -1</clus>
<clus scale="  102.344">  1  5  2 -1</clus>
</clustering>
</event>
<event>
 9    2  0.1751298E-004  0.1419418E+03  0.7546771E-02  0.1211989E+00
         21   -1    0    0  501  502  0.00000000000E+00  0.00000000000E+00  0.53648678508E+02  0.53648678508E+02  0.00000000000E+00 0. -1.
          2   -1    0    0  502    0 -0.00000000000E+00 -0.00000000000E+00 -0.10403635493E+04  0.10403635493E+04  0.00000000000E+00 0. -1.
         23    2    1    2    0    0  0.12100527105E+03  0.42699052019E+01 -0.71583268339E+03  0.73116269776E+03  0.86729189281E+02 0.  0.
         24    2    1    2    0    0 -0.94427891145E+02  0.40736196626E+02 -0.28077101471E+03  0.30965465025E+03  0.80483385712E+02 0.  0.
        -11    1    4    4    0    0 -0.78664050185E+02  0.37611532248E+02 -0.12135820017E+03  0.14943384121E+03  0.00000000000E+00 0.  1.
         12    1    4    4    0    0 -0.15763840961E+02  0.31246643776E+01 -0.15941281454E+03  0.16022080904E+03  0.00000000000E+00 0. -1.
        -11    1    3    3    0    0  0.10626048711E+03 -0.29034780135E+02 -0.58861250739E+03  0.59883135642E+03  0.00000000000E+00 0.  1.
         11    1    3    3    0    0  0.14744783944E+02  0.33304685336E+02 -0.12722017600E+03  0.13233134134E+03  0.00000000000E+00 0. -1.
          1    1    1    2  501    0 -0.26577379909E+02 -0.45006101828E+02  0.98888273646E+01  0.53194879746E+02  0.00000000000E+00 0. -1.
<scales pt_clust_5="13000.00000" pt_clust_6="13000.00000" pt_clust_7="13000.00000" pt_clust_8="13000.00000" pt_clust_9="52.26764"></scales>
<clustering>
<clus scale="   52.268">  1  9  2 -1</clus>
<clus scale="   80.483">  5  6 -1 -1</clus>
<clus scale="   86.729">  7  8 -1 -1</clus>
<clus scale="  138.214">  1  5  2 -1</clus>
<clus scale="   52.268">  1  5  2 -1</clus>
</clustering>
</event>
<event>
 9    2  0.1751298E-004  0.1390011E+03  0.7546771E-02  0.1218791E+00
         -1   -1    0    0    0  501 -0.00000000000E+00  0.00000000000E+00  0.61617762679E+03  0.61617762679E+03  0.00000000000E+00 0.  1.
         21   -1    0    0  501  502  0.00000000000E+00 -0.00000000000E+00 -0.59446948044E+02  0.59446948044E+02  0.00000000000E+00 0. -1.
         24    2    1    2    0    0  0.63877232319E+02  0.97563066592E+02  0.28730671958E+03  0.32023393003E+03  0.80036029707E+02 0.  0.
         23    2    1    2    0    0  0.18865222331E+02 -0.81069196426E+02  0.88345530105E+02  0.15562138034E+03  0.97390811209E+02 0.  0.
        -13    1    3    3    0    0  0.16217596699E+02  0.91862343147E+02  0.19670478181E+03  0.21770271408E+03  0.00000000000E+00 0.  1.
         14    1    3    3    0    0  0.47659635619E+02  0.57007234453E+01  0.90601937774E+02  0.10253121595E+03  0.00000000000E+00 0. -1.
        -13    1    4    4    0    0 -0.24792919690E+02  0.36360287461E+01  0.43728440351E+02  0.50399266535E+02  0.00000000000E+00 0.  1.
         13    1    4    4    0    0  0.43658142021E+02 -0.84705225172E+02  0.44617089754E+02  0.10522211381E+03  0.00000000000E+00 0. -1.
         -2    1    1    2    0  502 -0.82742454650E+02 -0.16493870166E+02  0.18107842906E+03  0.19976926446E+03  0.00000000000E+00 0.  1.
<scales pt_clust_5="13000.00000" pt_clust_6="13000.00000" pt_clust_7="13000.00000" pt_clust_8="13000.00000" pt_clust_9="84.37043"></scales>
<clustering>
<clus scale="   80.036">  5  6 -1 -1</clus>
<clus scale="   84.370">  2  9  1 -1</clus>
<clus scale="   97.391">  7  8 -1 -1</clus>
<clus scale="  127.445">  1  5  2 -1</clus>
<clus scale="   84.370">  2  5  1 -1</clus>
</clustering>
</event>
<event>
 9    2  0.1751298E-004  0.1212361E+03  0.7546771E-02  0.1243986E+00
          2   -1    0    0  502    0 -0.00000000000E+00  0.00000000000E+00  0.12752698350E+04  0.12752698350E+04  0.00000000000E+00 0. -1.
         21   -1    0    0  501  502  0.00000000000E+00 -0.00000000000E+00 -0.26697306357E+02  0.26697306357E+02  0.00000000000E+00 0. -1.
         23    2    1    2    0    0  0.76318394635E+02  0.73095367120E+02  0.71036991795E+03  0.72387017369E+03  0.90527222292E+02 0.  0.
         24    2    1    2    0    0 -0.41793722376E+02  0.11192552833E+02  0.12577258355E+03  0.15572872344E+03  0.80998173201E+02 0.  0.
        -11    1    4    4    0    0  0.23770961750E+02  0.25210007838E+00  0.46907794591E+02  0.52587673179E+02  0.00000000000E+00 0.  1.
         12    1    4    4    0    0 -0.65564684127E+02  0.10940452754E+02  0.78864788964E+02  0.10314105026E+03  0.00000000000E+00 0. -1.
        -13    1    3    3    0    0  0.92101193286E+02  0.36892843787E+02  0.48114477465E+03  0.49126775378E+03  0.00000000000E+00 0. -1.
         13    1    3    3    0    0 -0.15782798650E+02  0.36202523333E+02  0.22922514330E+03  0.23260241991E+03  0.00000000000E+00 0.  1.
          1    1    1    2  501    0 -0.34524672259E+02 -0.84287919953E+02  0.41243002716E+03  0.42236824424E+03  0.00000000000E+00 0. -1.
<scales pt_clust_5="13000.00000" pt_clust_6="13000.00000" pt_clust_7="13000.00000" pt_clust_8="13000.00000" pt_clust_9="91.08466"></scales>
<clustering>
<clus scale="   80.998">  5  6 -1 -1</clus>
<clus scale="   90.527">  7  8 -1 -1</clus>
<clus scale="   91.085">  2  9  1 -1</clus>
<clus scale="  114.297">  2  5  1 -1</clus>
<clus scale="   91.085">  2  5  1 -1</clus>
</clustering>
</event>
<event>
 9    2  0.1751298E-004  0.2563933E+03  0.7546771E-02  0.1109776E+00
         21   -1    0    0  501  502  0.00000000000E+00  0.00000000000E+00  0.85039362994E+03  0.85039362994E+03  0.00000000000E+00 0. -1.
          2   -1    0    0  502    0 -0.00000000000E+00 -0.00000000000E+00 -0.14454408235E+03  0.14454408235E+03  0.00000000000E+00 0. -1.
         24    2    1    2    0    0 -0.22108347111E+02 -0.24340391355E+03  0.24542091589E+03  0.35597623432E+03  0.82179129365E+02 0.  0.
         23    2    1    2    0    0 -0.13051089695E+03  0.22596356895E+03  0.36629400119E+03  0.45880008382E+03  0.90739147530E+02 0.  0.
        -11    1    3    3    0    0 -0.39183740043E+02 -0.70338645832E+02  0.10582846746E+03  0.13297576887E+03  0.00000000000E+00 0.  1.
         12    1    3    3    0    0  0.17075392932E+02 -0.17306526772E+03  0.13959244843E+03  0.22300046546E+03  0.00000000000E+00 0. -1.
        -13    1    4    4    0    0 -0.48190552038E+02  0.92887107039E+02  0.77080828361E+02  0.12996845025E+03  0.00000000000E+00 0.  1.
         13    1    4    4    0    0 -0.82320344915E+02  0.13307646191E+03  0.28921317283E+03  0.32883163357E+03  0.00000000000E+00 0. -1.
          1    1    1    2  501    0  0.15261924406E+03  0.17440344604E+02  0.94134630518E+02  0.18016139415E+03  0.00000000000E+00 0. -1.
<scales pt_clust_5="13000.00000" pt_clust_6="13000.00000" pt_clust_7="13000.00000" pt_clust_8="13000.00000" pt_clust_9="153.61257"></scales>
<clustering>
<clus scale="   82.179">  5  6 -1 -1</clus>
<clus scale="   90.739">  7  8 -1 -1</clus>
<clus scale="  153.613">  1  9  2 -1</clus>
<clus scale="  253.490">  2  5  1 -1</clus>
<clus scale="  153.613">  1  5  2 -1</clus>
</clustering>
</event>
<event>
 9    2  0.1751298E-004  0.1225700E+03  0.7546771E-02  0.1242078E+00
         21   -1    0    0  501  502  0.00000000000E+00  0.00000000000E+00  0.32063149707E+03  0.32063149707E+03  0.00000000000E+00 0.  1.
         -1   -1    0    0    0  501 -0.00000000000E+00 -0.00000000000E+00 -0.54019768573E+02  0.54019768573E+02  0.00000000000E+00 0.  1.
         23    2    1    2    0    0  0.23630109054E+02 -0.69320629989E+02  0.10861615619E+03  0.15951574869E+03  0.91016882491E+02 0.  0.
         24    2    1    2    0    0 -0.20176103714E+02  0.91047566528E+02  0.14174273902E+03  0.18778328644E+03  0.80466291510E+02 0.  0.
        -11    1    4    4    0    0 -0.12024506870E+02  0.82181242517E+02  0.53663417495E+02  0.98884315057E+02  0.00000000000E+00 0.  1.
         12    1    4    4    0    0 -0.81515968436E+01  0.88663240109E+01  0.88079321523E+02  0.88898971380E+02  0.00000000000E+00 0. -1.
        -11    1    3    3    0    0 -0.61562392068E+01 -0.83078174177E+02  0.69734525934E+02  0.10864062966E+03  0.00000000000E+00 0.  1.
         11    1    3    3    0    0  0.29786348261E+02  0.13757544188E+02  0.38881630260E+02  0.50875119031E+02  0.00000000000E+00 0. -1.
         -2    1    1    2    0  502 -0.34540053401E+01 -0.21726936539E+02  0.16252833286E+02  0.27352230514E+02  0.00000000000E+00 0.  1.
<scales pt_clust_5="13000.00000" pt_clust_6="13000.00000" pt_clust_7="13000.00000" pt_clust_8="13000.00000" pt_clust_9="21.99978"></scales>
<clustering>
<clus scale="   22.000">  1  9  2 -1</clus>
<clus scale="   80.466">  5  6 -1 -1</clus>
<clus scale="   91.017">  7  8 -1 -1</clus>
<clus scale="  114.953">  1  5  2 -1</clus>
<clus scale="   22.000">  1  5  2 -1</clus>
</clustering>
</event>
<event>
 9    2  0.1751298E-004  0.8351738E+02  0.7546771E-02  0.1319860E+00
         21   -1    0    0  501  502  0.00000000000E+00  0.00000000000E+00  0.44412491213E+02  0.44412491213E+02  0.00000000000E+00 0.  1.
          2   -1    0    0  502    0 -0.00000000000E+00 -0.00000000000E+00 -0.30211054003E+03  0.30211054003E+03  0.00000000000E+00 0. -1.
         24    2    1    2    0    0  0.33943387133E+01  0.39070037465E+02 -0.10733579374E+03  0.13904302065E+03  0.79208582938E+02 0.  0.
         23    2    1    2    0    0  0.31537572578E+02  0.23791514390E+01 -0.71868750761E+02  0.11208869072E+03  0.79990489469E+02 0.  0.
        -13    1    3    3    0    0 -0.28640908789E+02  0.47188634394E+02 -0.70846771472E+02  0.89812771365E+02  0.00000000000E+00 0.  1.
         14    1    3    3    0    0  0.32035247503E+02 -0.81185969293E+01 -0.36489022264E+02  0.49230249283E+02  0.00000000000E+00 0. -1.
        -11    1    4    4    0    0  0.39453533487E+02  0.28035824733E+02 -0.70093043096E+02  0.85179947543E+02  0.00000000000E+00 0. -1.
         11    1    4    4    0    0 -0.79159609081E+01 -0.25656673294E+02 -0.17757076653E+01  0.26908743176E+02  0.00000000000E+00 0.  1.
          1    1    1    2  501    0 -0.34931911292E+02 -0.41449188904E+02 -0.78493504321E+02  0.95391319877E+02  0.00000000000E+00 0. -1.
<scales pt_clust_5="13000.00000" pt_clust_6="13000.00000" pt_clust_7="13000.00000" pt_clust_8="13000.00000" pt_clust_9="54.20587"></scales>
<clustering>
<clus scale="   54.206">  1  9  2 -1</clus>
<clus scale="   79.209">  5  6 -1 -1</clus>
<clus scale="   79.990">  7  8 -1 -1</clus>
<clus scale="   82.769">  2  5  1 -1</clus>
<clus scale="   54.206">  1  5  2 -1</clus>
</clustering>
</event>
<event>
 9    2  0.1751298E-004  0.9275217E+02  0.7546771E-02  0.1304205E+00
          2   -1    0    0  502    0 -0.00000000000E+00  0.00000000000E+00  0.91613125474E+03  0.91613125474E+03  0.00000000000E+00 0. -1.
         21   -1    0    0  501  502  0.00000000000E+00 -0.00000000000E+00 -0.21991643238E+02  0.21991643238E+02  0.00000000000E+00 0.  1.
         24    2    1    2    0    0  0.18261477218E+02 -0.96490154425E+00  0.37179739422E+03  0.38067257311E+03  0.79648559201E+02 0.  0.
         23    2    1    2    0    0  0.45381324439E+02  0.34032112203E+02  0.20229116579E+03  0.22946172417E+03  0.92267642413E+02 0.  0.
        -13    1    3    3    0    0  0.48477942338E+02 -0.10723924178E+02  0.21009229195E+03  0.21587932874E+03  0.00000000000E+00 0.  1.
         14    1    3    3    0    0 -0.30216465120E+02  0.97590226340E+01  0.16170510227E+03  0.16479324436E+03  0.00000000000E+00 0. -1.
        -11    1    4    4    0    0 -0.14495623970E+02 -0.16971113879E+02  0.16650491228E+02  0.27845658166E+02  0.00000000000E+00 0.  1.
         11    1    4    4    0    0  0.59876948409E+02  0.51003226081E+02  0.18564067456E+03  0.20161606601E+03  0.00000000000E+00 0. -1.
          1    1    1    2  501    0 -0.63642801657E+02 -0.33067210658E+02  0.32005105150E+03  0.32798860070E+03  0.00000000000E+00 0. -1.
<scales pt_clust_5="13000.00000" pt_clust_6="13000.00000" pt_clust_7="13000.00000" pt_clust_8="13000.00000" pt_clust_9="71.72065"></scales>
<clustering>
<clus scale="   71.721">  2  9  1 -1</clus>
<clus scale="   79.649">  5  6 -1 -1</clus>
<clus scale="   80.209">  1  5  2 -1</clus>
<clus scale="   92.268">  7  8 -1 -1</clus>
<clus scale="   71.721">  2  5  1 -1</clus>
</clustering>
</event>
<event>
 9    2  0.1751298E-004  0.1420437E+03  0.7546771E-02  0.1211847E+00
         21   -1    0    0  501  502  0.00000000000E+00  0.00000000000E+00  0.18659717885E+03  0.18659717885E+03  0.00000000000E+00 0. -1.
         -1   -1    0    0    0  501 -0.00000000000E+00 -0.00000000000E+00 -0.46305967142E+03  0.46305967142E+03  0.00000000000E+00 0.  1.
         23    2    1    2    0    0 -0.10723333917E+03 -0.15123172309E+02 -0.36789219340E+03  0.39317755956E+03  0.86696182199E+02 0.  0.
         24    2    1    2    0    0  0.13841363259E+03  0.18891307210E+02  0.15032116276E+01  0.16122603354E+03  0.80475829114E+02 0.  0.
        -13    1    4    4    0    0  0.54997361530E+02  0.66244645277E+01 -0.38942487101E+02  0.67713444803E+02  0.00000000000E+00 0.  1.
         14    1    4    4    0    0  0.83416271063E+02  0.12266842682E+02  0.40445698728E+02  0.93512588741E+02  0.00000000000E+00 0. -1.
        -13    1    3    3    0    0 -0.11901780124E+02 -0.36374529430E+02 -0.71379925301E+02  0.80992916341E+02  0.00000000000E+00 0.  1.
         13    1    3    3    0    0 -0.95331559050E+02  0.21251357121E+02 -0.29651226810E+03  0.31218464322E+03  0.00000000000E+00 0. -1.
         -2    1    1    2    0  502 -0.31180293419E+02 -0.37681349007E+01  0.89926489210E+02  0.95253257162E+02  0.00000000000E+00 0.  1.
<scales pt_clust_5="13000.00000" pt_clust_6="13000.00000" pt_clust_7="13000.00000" pt_clust_8="13000.00000" pt_clust_9="31.40716"></scales>
<clustering>
<clus scale="   31.407">  1  9  2 -1</clus>
<clus scale="   80.476">  5  6 -1 -1</clus>
<clus scale="   86.696">  7  8 -1 -1</clus>
<clus scale="  138.335">  1  5  2 -1</clus>
<clus scale="   31.407">  1  5  2 -1</clus>
</clustering>
</event>
<event>
 9    2  0.1751298E-004  0.9862257E+02  0.7546771E-02  0.1290265E+00
         -1   -1    0    0    0  501 -0.00000000000E+00  0.00000000000E+00  0.39766036398E+03  0.39766036398E+03  0.00000000000E+00 0.  1.
         21   -1    0    0  501  502  0.00000000000E+00 -0.00000000000E+00 -0.41556673101E+02  0.41556673101E+02  0.00000000000E+00 0. -1.
         23    2    1    2    0    0 -0.24021947382E+02  0.38567076403E+02  0.18475820532E+03  0.21161898567E+03  0.92641930709E+02 0.  0.
         24    2    1    2    0    0  0.21875351349E+02  0.16202138294E+01  0.42786691369E+02  0.92887288162E+02  0.79474469198E+02 0.  0.
        -11    1    4    4    0    0  0.47466824501E+02 -0.12852356988E+01  0.46974265773E+02  0.66793210014E+02  0.00000000000E+00 0.  1.
         12    1    4    4    0    0 -0.25591473152E+02  0.29054495282E+01 -0.41875744043E+01  0.26094078149E+02  0.00000000000E+00 0. -1.
        -13    1    3    3    0    0  0.17736123427E+02 -0.22542133983E+02  0.61213095545E+02  0.67600006989E+02  0.00000000000E+00 0.  1.
         13    1    3    3    0    0 -0.41758070809E+02  0.61109210385E+02  0.12354510977E+03  0.14401897868E+03  0.00000000000E+00 0. -1.
         -2    1    1    2    0  502  0.21465960324E+01 -0.40187290232E+02  0.12855879419E+03  0.13471076325E+03  0.00000000000E+00 0.  1.
<scales pt_clust_5="13000.00000" pt_clust_6="13000.00000" pt_clust_7="13000.00000" pt_clust_8="13000.00000" pt_clust_9="40.24460"></scales>
<clustering>
<clus scale="   40.245">  2  9  1 -1</clus>
<clus scale="   79.474">  5  6 -1 -1</clus>
<clus scale="   86.372">  2  5  1 -1</clus>
<clus scale="   92.642">  7  8 -1 -1</clus>
<clus scale="   40.245">  2  5  1 -1</clus>
</clustering>
</event>
<event>
 9    2  0.1751298E-004  0.1002959E+03  0.7546771E-02  0.1284285E+00
         21   -1    0    0  501  502  0.00000000000E+00  0.00000000000E+00  0.50118021200E+02  0.50118021200E+02  0.00000000000E+00 0. -1.
          2   -1    0    0  502    0 -0.00000000000E+00 -0.00000000000E+00 -0.49529269029E+03  0.49529269029E+03  0.00000000000E+00 0. -1.
         23    2    1    2    0    0  0.36508575180E+02  0.99016352796E+01 -0.33640754284E+03  0.35029521019E+03  0.90032110739E+02 0.  0.
         24    2    1    2    0    0 -0.49383587977E+02 -0.51950540680E+02 -0.10574805427E+03  0.15103612748E+03  0.80570859408E+02 0.  0.
        -11    1    4    4    0    0  0.21069557798E+02 -0.21629051234E+02 -0.39262251194E+02  0.49530460243E+02  0.00000000000E+00 0.  1.
         12    1    4    4    0    0 -0.70453145775E+02 -0.30321489446E+02 -0.66485803071E+02  0.10150566724E+03  0.00000000000E+00 0. -1.
        -11    1    3    3    0    0  0.49986610248E+02  0.39629112231E+02 -0.19495996800E+03  0.20513048740E+03  0.00000000000E+00 0. -1.
         11    1    3    3    0    0 -0.13478035067E+02 -0.29727476952E+02 -0.14144757484E+03  0.14516472279E+03  0.00000000000E+00 0.  1.
          1    1    1    2  501    0  0.12875012797E+02  0.42048905401E+02 -0.30190719858E+01  0.44079373811E+02  0.00000000000E+00 0. -1.
<scales pt_clust_5="13000.00000" pt_clust_6="13000.00000" pt_clust_7="13000.00000" pt_clust_8="13000.00000" pt_clust_9="43.97586"></scales>
<clustering>
<clus scale="   43.976">  1  9  2 -1</clus>
<clus scale="   80.571">  5  6 -1 -1</clus>
<clus scale="   90.032">  7  8 -1 -1</clus>
<clus scale="   91.897">  1  5  2 -1</clus>
<clus scale="   43.976">  1  5  2 -1</clus>
</clustering>
</event>
<event>
 9    2  0.1751298E-004  0.1183311E+03  0.7546771E-02  0.1248768E+00
         21   -1    0    0  501  502  0.00000000000E+00  0.00000000000E+00  0.10864354199E+03  0.10864354199E+03  0.00000000000E+00 0. -1.
          2   -1    0    0  502    0 -0.00000000000E+00 -0.00000000000E+00 -0.16853245908E+03  0.16853245908E+03  0.00000000000E+00 0. -1.
         24    2    1    2    0    0 -0.62610308568E+02 -0.51727861029E+02 -0.82569464661E+02  0.14104783123E+03  0.80504359220E+02 0.  0.
         23    2    1    2    0    0  0.42508335173E+02  0.54978028925E+02  0.23514737827E+02  0.11574806192E+03  0.89527251265E+02 0.  0.
        -11    1    3    3    0    0 -0.52107994388E+02 -0.13178231894E+02 -0.85494549515E+02  0.10098627071E+03  0.00000000000E+00 0.  1.
         12    1    3    3    0    0 -0.10502314180E+02 -0.38549629135E+02  0.29250848548E+01  0.40061560516E+02  0.00000000000E+00 0. -1.
        -13    1    4    4    0    0 -0.50198073878E+01  0.61219962135E+02 -0.19729607279E+01  0.61457097264E+02  0.00000000000E+00 0. -1.
         13    1    4    4    0    0  0.47528142560E+02 -0.62419332101E+01  0.25487698555E+02  0.54290964654E+02  0.00000000000E+00 0.  1.
          1    1    1    2  501    0  0.20101973395E+02 -0.32501678962E+01 -0.83419025714E+00  0.20380107927E+02  0.00000000000E+00 0. -1.
<scales pt_clust_5="13000.00000" pt_clust_6="13000.00000" pt_clust_7="13000.00000" pt_clust_8="13000.00000" pt_clust_9="20.36303"></scales>
<clustering>
<clus scale="   20.363">  1  9  2 -1</clus>
<clus scale="   80.504">  5  6 -1 -1</clus>
<clus scale="   89.527">  7  8 -1 -1</clus>
<clus scale="  111.660">  2  5  1 -1</clus>
<clus scale="   20.363">  1  5  2 -1</clus>
</clustering>
</event>
<event>
 9    2  0.1751298E-004  0.9650561E+02  0.7546771E-02  0.1296390E+00
         21   -1    0    0  501  502  0.00000000000E+00  0.00000000000E+00  0.10243076564E+03  0.10243076564E+03  0.00000000000E+00 0. -1.
          2   -1    0    0  502    0 -0.00000000000E+00 -0.00000000000E+00 -0.57148908894E+03  0.57148908894E+03  0.00000000000E+00 0. -1.
         24    2    1    2    0    0 -0.32064091808E+02  0.95557291844E+01 -0.47709979006E+03  0.48432589509E+03  0.76340978713E+02 0.  0.
         23    2    1    2    0    0  0.12486228950E+02  0.17402174293E+01 -0.65108884715E+02  0.11303114185E+03  0.91531076089E+02 0.  0.
        -11    1    3    3    0    0 -0.31497123047E+02  0.29272525479E+02 -0.13554367327E+03  0.14220069224E+03  0.00000000000E+00 0.  1.
         12    1    3    3    0    0 -0.56696876115E+00 -0.19716796294E+02 -0.34155611679E+03  0.34212520285E+03  0.00000000000E+00 0. -1.
        -13    1    4    4    0    0  0.17961238310E+02 -0.26142756709E+02 -0.76192286040E+02  0.82530686789E+02  0.00000000000E+00 0.  1.
         13    1    4    4    0    0 -0.54750093595E+01  0.27882974138E+02  0.11083401325E+02  0.30500455065E+02  0.00000000000E+00 0. -1.
          1    1    1    2  501    0  0.19577862857E+02 -0.11295946614E+02  0.73150351475E+02  0.76562817640E+02  0.00000000000E+00 0. -1.
<scales pt_clust_5="13000.00000" pt_clust_6="13000.00000" pt_clust_7="13000.00000" pt_clust_8="13000.00000" pt_clust_9="22.60290"></scales>
<clustering>
<clus scale="   22.603">  1  9  2 -1</clus>
<clus scale="   76.341">  5  6 -1 -1</clus>
<clus scale="   82.240">  2  5  1 -1</clus>
<clus scale="   91.531">  7  8 -1 -1</clus>
<clus scale="   22.603">  1  5  2 -1</clus>
</clustering>
</event>
<event>
 9    2  0.1751298E-004  0.1143221E+03  0.7546771E-02  0.1256834E+00
         21   -1    0    0  501  502  0.00000000000E+00  0.00000000000E+00  0.11405599465E+03  0.11405599465E+03  0.00000000000E+00 0. -1.
          2   -1    0    0  502    0 -0.00000000000E+00 -0.00000000000E+00 -0.81090327070E+03  0.81090327070E+03  0.00000000000E+00 0. -1.
         24    2    1    2    0    0 -0.63139767313E+02  0.36111147118E+02 -0.73819803980E+03  0.74620476316E+03  0.81206880497E+02 0.  0.
         23    2    1    2    0    0  0.10153078453E+02 -0.12103915069E+02 -0.18204674953E+02  0.95503155866E+02  0.92411324134E+02 0.  0.
        -13    1    3    3    0    0  0.13568385604E+02  0.20197420497E+02 -0.87924157731E+02  0.91228802444E+02  0.00000000000E+00 0.  1.
         14    1    3    3    0    0 -0.76708152917E+02  0.15913726621E+02 -0.65027388206E+03  0.65497596071E+03  0.00000000000E+00 0. -1.
        -13    1    4    4    0    0 -0.41169208851E+02 -0.95797854358E+00 -0.64081999711E+01  0.41675970381E+02  0.00000000000E+00 0. -1.
         13    1    4    4    0    0  0.51322287305E+02 -0.11145936525E+02 -0.11796474982E+02  0.53827185485E+02  0.00000000000E+00 0.  1.
          1    1    1    2  501    0  0.52986688860E+02 -0.24007232050E+02  0.59555438694E+02  0.83251346326E+02  0.00000000000E+00 0. -1.
<scales pt_clust_5="13000.00000" pt_clust_6="13000.00000" pt_clust_7="13000.00000" pt_clust_8="13000.00000" pt_clust_9="58.17161"></scales>
<clustering>
<clus scale="   58.172">  1  9  2 -1</clus>
<clus scale="   81.207">  5  6 -1 -1</clus>
<clus scale="   92.411">  7  8 -1 -1</clus>
<clus scale="  105.472">  2  5  1 -1</clus>
<clus scale="   58.172">  1  5  2 -1</clus>
</clustering>
</event>
<event>
 9    2  0.1751298E-004  0.1561105E+03  0.7546771E-02  0.1194168E+00
         21   -1    0    0  501  502  0.00000000000E+00  0.00000000000E+00  0.27068581409E+02  0.27068581409E+02  0.00000000000E+00 0. -1.
          4   -1    0    0  502    0 -0.00000000000E+00 -0.00000000000E+00 -0.14501631238E+04  0.14501631238E+04  0.00000000000E+00 0. -1.
         24    2    1    2    0    0 -0.82045836731E+02 -0.78059995307E+02 -0.45803745814E+03  0.47809417069E+03  0.77141693017E+02 0.  0.
         23    2    1    2    0    0  0.78073045158E+02  0.14240173575E+03 -0.56183306911E+03  0.59079301205E+03  0.83703827990E+02 0.  0.
        -13    1    3    3    0    0 -0.51251435460E+02  0.15783049085E+01 -0.18902723651E+03  0.19585835909E+03  0.00000000000E+00 0.  1.
         14    1    3    3    0    0 -0.30794401271E+02 -0.79638300215E+02 -0.26901022163E+03  0.28223581161E+03  0.00000000000E+00 0. -1.
        -13    1    4    4    0    0  0.45002675650E+02  0.28045873265E+02 -0.27791906230E+03  0.28293253085E+03  0.00000000000E+00 0.  1.
         13    1    4    4    0    0  0.33070369508E+02  0.11435586249E+03 -0.28391400680E+03  0.30786048120E+03  0.00000000000E+00 0. -1.
          3    1    1    2  501    0  0.39727915726E+01 -0.64341740445E+02 -0.40322401515E+03  0.40834452247E+03  0.00000000000E+00 0. -1.
<scales pt_clust_5="13000.00000" pt_clust_6="13000.00000" pt_clust_7="13000.00000" pt_clust_8="13000.00000" pt_clust_9="64.46431"></scales>
<clustering>
<clus scale="   64.464">  1  9  2 -1</clus>
<clus scale="   77.142">  5  6 -1 -1</clus>
<clus scale="   83.704">  7  8 -1 -1</clus>
<clus scale="  152.692">  2  5  1 -1</clus>
<clus scale="   64.464">  1  5  2 -1</clus>
</clustering>
</event>
<event>
 9    2  0.1751298E-004  0.2729776E+03  0.7546771E-02  0.1099921E+00
         21   -1    0    0  501  502  0.00000000000E+00  0.00000000000E+00  0.64172415604E+02  0.64172415604E+02  0.00000000000E+00 0.  1.
          2   -1    0    0  502    0 -0.00000000000E+00 -0.00000000000E+00 -0.13657002637E+04  0.13657002637E+04  0.00000000000E+00 0. -1.
         24    2    1    2    0    0 -0.11310595877E+03  0.21023078097E+03 -0.59034268664E+03  0.64222775920E+03  0.83439006687E+02 0.  0.
         23    2    1    2    0    0  0.13319896588E+03 -0.24685716801E+03 -0.64774381287E+03  0.71168423376E+03  0.90785326756E+02 0.  0.
        -11    1    3    3    0    0 -0.75200643351E+02  0.12959621855E+03 -0.26003808047E+03  0.30011684378E+03  0.00000000000E+00 0.  1.
         12    1    3    3    0    0 -0.37905315424E+02  0.80634562416E+02 -0.33030460617E+03  0.34211091542E+03  0.00000000000E+00 0. -1.
        -11    1    4    4    0    0  0.88407135195E+02 -0.85497106294E+02 -0.33613935870E+03  0.35793190023E+03  0.00000000000E+00 0.  1.
         11    1    4    4    0    0  0.44791830685E+02 -0.16136006171E+03 -0.31160445418E+03  0.35375233352E+03  0.00000000000E+00 0. -1.
          1    1    1    2  501    0 -0.20093007105E+02  0.36626387037E+02 -0.63441348615E+02  0.75960686385E+02  0.00000000000E+00 0. -1.
<scales pt_clust_5="13000.00000" pt_clust_6="13000.00000" pt_clust_7="13000.00000" pt_clust_8="13000.00000" pt_clust_9="41.77584"></scales>
<clustering>
<clus scale="   41.776">  1  9  2 -1</clus>
<clus scale="   83.439">  5  6 -1 -1</clus>
<clus scale="   90.785">  7  8 -1 -1</clus>
<clus scale="  270.623">  2  5  1 -1</clus>
<clus scale="   41.776">  1  5  2 -1</clus>
</clustering>
</event>
<event>
 9    2  0.1751298E-004  0.1576561E+03  0.7546771E-02  0.1193768E+00
          2   -1    0    0  502    0 -0.00000000000E+00  0.00000000000E+00  0.13842067329E+03  0.13842067329E+03  0.00000000000E+00 0. -1.
         21   -1    0    0  501  502  0.00000000000E+00 -0.00000000000E+00 -0.26604141207E+03  0.26604141207E+03  0.00000000000E+00 0.  1.
         23    2    1    2    0    0 -0.53526666661E+02 -0.12133677088E+03  0.28533535643E+02  0.16394942672E+03  0.92073535029E+02 0.  0.
         24    2    1    2    0    0  0.21493323786E+02  0.11602587909E+03 -0.15261101598E+03  0.20784929526E+03  0.77377256068E+02 0.  0.
        -13    1    4    4    0    0 -0.92495586737E+01  0.81617791461E+02 -0.13586104852E+03  0.15876159083E+03  0.00000000000E+00 0.  1.
         14    1    4    4    0    0  0.30742882460E+02  0.34408087626E+02 -0.16749967457E+02  0.49087704426E+02  0.00000000000E+00 0. -1.
        -11    1    3    3    0    0 -0.40095221769E+02 -0.13625316601E+02 -0.17790284222E+02  0.45932235672E+02  0.00000000000E+00 0.  1.
         11    1    3    3    0    0 -0.13431444893E+02 -0.10771145428E+03  0.46323819865E+02  0.11801719105E+03  0.00000000000E+00 0. -1.
          1    1    1    2  501    0  0.32033342875E+02  0.53108917958E+01 -0.35432584438E+01  0.32663363388E+02  0.00000000000E+00 0. -1.
<scales pt_clust_5="13000.00000" pt_clust_6="13000.00000" pt_clust_7="13000.00000" pt_clust_8="13000.00000" pt_clust_9="32.47063"></scales>
<clustering>
<clus scale="   32.471">  2  9  1 -1</clus>
<clus scale="   77.377">  5  6 -1 -1</clus>
<clus scale="   92.074">  7  8 -1 -1</clus>
<clus scale="  149.550">  2  5  1 -1</clus>
<clus scale="   32.471">  2  5  1 -1</clus>
</clustering>
</event>
<event>
 9    2  0.1751298E-004  0.1193445E+03  0.7546771E-02  0.1249157E+00
         -1   -1    0    0    0  501 -0.00000000000E+00  0.00000000000E+00  0.80350228750E+02  0.80350228750E+02  0.00000000000E+00 0.  1.
         21   -1    0    0  501  502  0.00000000000E+00 -0.00000000000E+00 -0.46628574048E+03  0.46628574048E+03  0.00000000000E+00 0. -1.
         24    2    1    2    0    0  0.19275978952E+02 -0.87165435520E+02  0.11463865467E+01  0.12000862174E+03  0.80195876297E+02 0.  0.
         23    2    1    2    0    0 -0.20202705791E+00  0.57548716874E+01 -0.22421298632E+03  0.24354873589E+03  0.94928205275E+02 0.  0.
        -13    1    3    3    0    0  0.50001910173E+02 -0.51998074543E+02 -0.74581849725E+01  0.72523205253E+02  0.00000000000E+00 0.  1.
         14    1    3    3    0    0 -0.30725931221E+02 -0.35167360977E+02  0.86045715192E+01  0.47485416483E+02  0.00000000000E+00 0. -1.
        -11    1    4    4    0    0 -0.24443801896E+02 -0.30750101706E+02 -0.48286283948E+02  0.62246553507E+02  0.00000000000E+00 0.  1.
         11    1    4    4    0    0  0.24241774838E+02  0.36504973394E+02 -0.17592670237E+03  0.18130218238E+03  0.00000000000E+00 0. -1.
         -2    1    1    2    0  502 -0.19073951894E+02  0.81410563832E+02 -0.16286891196E+03  0.18307861161E+03  0.00000000000E+00 0.  1.
<scales pt_clust_5="13000.00000" pt_clust_6="13000.00000" pt_clust_7="13000.00000" pt_clust_8="13000.00000" pt_clust_9="83.61516"></scales>
<clustering>
<clus scale="   80.196">  5  6 -1 -1</clus>
<clus scale="   83.615">  2  9  1 -1</clus>
<clus scale="   94.928">  7  8 -1 -1</clus>
<clus scale="  107.996">  1  5  2 -1</clus>
<clus scale="   83.615">  2  5  1 -1</clus>
</clustering>
</event>
<event>
 9    2  0.1751298E-004  0.1204150E+03  0.7546771E-02  0.1245216E+00
          2   -1    0    0  502    0 -0.00000000000E+00  0.00000000000E+00  0.15819065727E+03  0.15819065727E+03  0.00000000000E+00 0. -1.
         21   -1    0    0  501  502  0.00000000000E+00 -0.00000000000E+00 -0.27548463247E+03  0.27548463247E+03  0.00000000000E+00 0. -1.
         23    2    1    2    0    0 -0.50895026349E+02  0.47664575022E+02  0.30532727485E+02  0.12070029052E+03  0.93670151405E+02 0.  0.
         24    2    1    2    0    0 -0.20529251611E+02 -0.13625284913E+03 -0.12819915274E+03  0.19749967498E+03  0.59873281047E+02 0.  0.
        -11    1    4    4    0    0 -0.21237294856E+01 -0.53773479279E+02 -0.14317004262E+02  0.55687286805E+02  0.00000000000E+00 0.  1.
         12    1    4    4    0    0 -0.18405522125E+02 -0.82479369854E+02 -0.11388214848E+03  0.14181238817E+03  0.00000000000E+00 0. -1.
        -11    1    3    3    0    0 -0.87346074515E+01  0.23198380642E+02  0.59179036703E+02  0.64160865150E+02  0.00000000000E+00 0.  1.
         11    1    3    3    0    0 -0.42160418897E+02  0.24466194381E+02 -0.28646309218E+02  0.56539425367E+02  0.00000000000E+00 0. -1.
          1    1    1    2  501    0  0.71424277959E+02  0.88588274110E+02 -0.19627549946E+02  0.11547532424E+03  0.00000000000E+00 0. -1.
<scales pt_clust_5="13000.00000" pt_clust_6="13000.00000" pt_clust_7="13000.00000" pt_clust_8="13000.00000" pt_clust_9="113.79509"></scales>
<clustering>
<clus scale="   59.873">  5  6 -1 -1</clus>
<clus scale="   93.670">  7  8 -1 -1</clus>
<clus scale="  113.795">  2  9  1 -1</clus>
<clus scale="  113.795">  2  5  1 -1</clus>
<clus scale="  113.795">  2  5  1 -1</clus>
</clustering>
</event>
<event>
 9    2  0.1751298E-004  0.1531590E+03  0.7546771E-02  0.1212195E+00
         21   -1    0    0  501  502  0.00000000000E+00  0.00000000000E+00  0.84069541657E+02  0.84069541657E+02  0.00000000000E+00 0. -1.
          2   -1    0    0  502    0 -0.00000000000E+00 -0.00000000000E+00 -0.48697304435E+03  0.48697304435E+03  0.00000000000E+00 0. -1.
         23    2    1    2    0    0 -0.15345066390E+02  0.57801240989E+02 -0.10264971458E+03  0.15011557159E+03  0.91767458331E+02 0.  0.
         24    2    1    2    0    0  0.13227152910E+03 -0.80845447074E+02 -0.19599890173E+03  0.26258588125E+03  0.80647577950E+02 0.  0.
        -13    1    4    4    0    0  0.11764907505E+03 -0.35602637845E+02 -0.16528814990E+03  0.20598307012E+03  0.00000000000E+00 0.  1.
         14    1    4    4    0    0  0.14622454057E+02 -0.45242809229E+02 -0.30710751837E+02  0.56602811132E+02  0.00000000000E+00 0. -1.
        -11    1    3    3    0    0  0.38829205155E+02  0.22866902163E+02 -0.41208203489E+02  0.61063232982E+02  0.00000000000E+00 0. -1.
         11    1    3    3    0    0 -0.54174271545E+02  0.34934338826E+02 -0.61441511095E+02  0.89052338612E+02  0.00000000000E+00 0.  1.
          1    1    1    2  501    0 -0.11692646271E+03  0.23044206085E+02 -0.10425488638E+03  0.15834113316E+03  0.00000000000E+00 0. -1.
<scales pt_clust_5="13000.00000" pt_clust_6="13000.00000" pt_clust_7="13000.00000" pt_clust_8="13000.00000" pt_clust_9="130.20619"></scales>
<clustering>
<clus scale="   80.648">  5  6 -1 -1</clus>
<clus scale="   91.767">  7  8 -1 -1</clus>
<clus scale="  109.534">  2  7  1 -1</clus>
<clus scale="  130.206">  1  9  2 -1</clus>
<clus scale="  130.206">  1  5  2 -1</clus>
</clustering>
</event>
<event>
 9    2  0.1751298E-004  0.9657507E+02  0.7546771E-02  0.1291358E+00
          2   -1    0    0  502    0 -0.00000000000E+00  0.00000000000E+00  0.43998150089E+03  0.43998150089E+03  0.00000000000E+00 0. -1.
         21   -1    0    0  501  502  0.00000000000E+00 -0.00000000000E+00 -0.64971877246E+02  0.64971877246E+02  0.00000000000E+00 0.  1.
         24    2    1    2    0    0  0.16387091747E+02 -0.19718266419E+02  0.37781973861E+03  0.38850339871E+03  0.86774357501E+02 0.  0.
         23    2    1    2    0    0 -0.19777831686E+02 -0.58848940121E+00  0.86536718048E+00  0.95536571815E+02  0.93461108210E+02 0.  0.
        -11    1    3    3    0    0 -0.79321321005E+01 -0.48304740422E+02  0.15504019739E+03  0.16258453024E+03  0.00000000000E+00 0.  1.
         12    1    3    3    0    0  0.24319223847E+02  0.28586474003E+02  0.22277954122E+03  0.22591886847E+03  0.00000000000E+00 0. -1.
        -13    1    4    4    0    0 -0.14591791214E+02 -0.41478499536E+02 -0.21167062802E+02  0.48799906170E+02  0.00000000000E+00 0.  1.
         13    1    4    4    0    0 -0.51860404715E+01  0.40890010134E+02  0.22032429983E+02  0.46736665644E+02  0.00000000000E+00 0. -1.
          1    1    1    2  501    0  0.33907399387E+01  0.20306755820E+02 -0.36754821393E+01  0.20913407618E+02  0.00000000000E+00 0. -1.
<scales pt_clust_5="13000.00000" pt_clust_6="13000.00000" pt_clust_7="13000.00000" pt_clust_8="13000.00000" pt_clust_9="20.58790"></scales>
<clustering>
<clus scale="   20.588">  2  9  1 -1</clus>
<clus scale="   86.774">  5  6 -1 -1</clus>
<clus scale="   90.120">  1  5  2 -1</clus>
<clus scale="   93.461">  7  8 -1 -1</clus>
<clus scale="   20.588">  2  5  1 -1</clus>
</clustering>
</event>
<event>
 9    2  0.1751298E-004  0.1029479E+03  0.7546771E-02  0.1281200E+00
         21   -1    0    0  501  502  0.00000000000E+00  0.00000000000E+00  0.24431373174E+03  0.24431373174E+03  0.00000000000E+00 0.  1.
         -1   -1    0    0    0  501 -0.00000000000E+00 -0.00000000000E+00 -0.17889037456E+03  0.17889037456E+03  0.00000000000E+00 0.  1.
         23    2    1    2    0    0 -0.18908880173E+02  0.49130355378E+02 -0.14054163551E+03  0.17598156286E+03  0.91903327392E+02 0.  0.
         24    2    1    2    0    0 -0.18523316833E+02 -0.15701604125E+02  0.91106263203E+02  0.12187830334E+03  0.77228984148E+02 0.  0.
        -13    1    4    4    0    0 -0.33576822200E+02  0.20350924462E+02  0.61050058082E+02  0.72585623283E+02  0.00000000000E+00 0.  1.
         14    1    4    4    0    0  0.15053505366E+02 -0.36052528587E+02  0.30056205121E+02  0.49292680061E+02  0.00000000000E+00 0. -1.
        -11    1    3    3    0    0 -0.56007018663E+02  0.33452631231E+02 -0.94205369402E+02  0.11458846495E+03  0.00000000000E+00 0.  1.
         11    1    3    3    0    0  0.37098138490E+02  0.15677724147E+02 -0.46336266111E+02  0.61393097910E+02  0.00000000000E+00 0. -1.
         -2    1    1    2    0  502  0.37432197006E+02 -0.33428751253E+02  0.11485872949E+03  0.12534424009E+03  0.00000000000E+00 0.  1.
<scales pt_clust_5="13000.00000" pt_clust_6="13000.00000" pt_clust_7="13000.00000" pt_clust_8="13000.00000" pt_clust_9="50.18616"></scales>
<clustering>
<clus scale="   50.186">  1  9  2 -1</clus>
<clus scale="   77.229">  5  6 -1 -1</clus>
<clus scale="   90.091">  1  5  2 -1</clus>
<clus scale="   91.903">  7  8 -1 -1</clus>
<clus scale="   50.186">  1  5  2 -1</clus>
</clustering>
</event>
<event>
 9    2  0.1751298E-004  0.9316730E+02  0.7546771E-02  0.1301535E+00
         21   -1    0    0  501  502  0.00000000000E+00  0.00000000000E+00  0.48905784126E+03  0.48905784126E+03  0.00000000000E+00 0.  1.
          4   -1    0    0  502    0 -0.00000000000E+00 -0.00000000000E+00 -0.35224983987E+02  0.35224983987E+02  0.00000000000E+00 0. -1.
         23    2    1    2    0    0 -0.21044796478E+02 -0.68937928486E+01  0.56251581901E+02  0.10947298448E+03  0.91267113609E+02 0.  0.
         24    2    1    2    0    0 -0.46010525343E+01  0.25418535207E+02  0.25622023418E+03  0.26995191168E+03  0.80981199059E+02 0.  0.
        -11    1    4    4    0    0  0.22131894318E+02 -0.19808681895E+02  0.12768745715E+03  0.13109649629E+03  0.00000000000E+00 0.  1.
         12    1    4    4    0    0 -0.26732946852E+02  0.45227217103E+02  0.12853277703E+03  0.13885541540E+03  0.00000000000E+00 0. -1.
        -13    1    3    3    0    0 -0.28804040672E+02  0.20009799298E+02 -0.10892277856E+02  0.36724740215E+02  0.00000000000E+00 0. -1.
         13    1    3    3    0    0  0.77592441944E+01 -0.26903592146E+02  0.67143859757E+02  0.72748244267E+02  0.00000000000E+00 0.  1.
          3    1    1    2  501    0  0.25645849012E+02 -0.18524742359E+02  0.14136104119E+03  0.14485792908E+03  0.00000000000E+00 0. -1.
<scales pt_clust_5="13000.00000" pt_clust_6="13000.00000" pt_clust_7="13000.00000" pt_clust_8="13000.00000" pt_clust_9="31.63662"></scales>
<clustering>
<clus scale="   31.637">  1  9  2 -1</clus>
<clus scale="   80.981">  5  6 -1 -1</clus>
<clus scale="   83.117">  1  5  2 -1</clus>
<clus scale="   91.267">  7  8 -1 -1</clus>
<clus scale="   31.637">  1  5  2 -1</clus>
</clustering>
</event>
<event>
 9    2  0.1751298E-004  0.1359805E+03  0.7546771E-02  0.1236530E+00
         21   -1    0    0  501  502  0.00000000000E+00  0.00000000000E+00  0.25754701351E+03  0.25754701351E+03  0.00000000000E+00 0.  1.
          4   -1    0    0  502    0 -0.00000000000E+00 -0.00000000000E+00 -0.11704221756E+03  0.11704221756E+03  0.00000000000E+00 0. -1.
         24    2    1    2    0    0 -0.45854252199E+02 -0.13029519779E+02  0.85199183136E+02  0.12704322094E+03  0.81293901066E+02 0.  0.
         23    2    1    2    0    0 -0.24767873600E+02 -0.76301692887E+02  0.35800992568E+01  0.12247371519E+03  0.92474850100E+02 0.  0.
        -11    1    3    3    0    0 -0.10002449395E+02 -0.40601625079E+02  0.16845776190E+02  0.45081272480E+02  0.00000000000E+00 0.  1.
         12    1    3    3    0    0 -0.35851802804E+02  0.27572105300E+02  0.68353406946E+02  0.81961948464E+02  0.00000000000E+00 0. -1.
        -11    1    4    4    0    0 -0.56227314531E+02 -0.37084746488E+02  0.18825760018E+02  0.69937104328E+02  0.00000000000E+00 0.  1.
         11    1    4    4    0    0  0.31459440931E+02 -0.39216946399E+02 -0.15245660761E+02  0.52536610859E+02  0.00000000000E+00 0. -1.
          3    1    1    2  501    0  0.70622125798E+02  0.89331212666E+02  0.51725513559E+02  0.12507229494E+03  0.00000000000E+00 0. -1.
<scales pt_clust_5="13000.00000" pt_clust_6="13000.00000" pt_clust_7="13000.00000" pt_clust_8="13000.00000" pt_clust_9="99.69497"></scales>
<clustering>
<clus scale="   81.294">  5  6 -1 -1</clus>
<clus scale="   92.475">  7  8 -1 -1</clus>
<clus scale="   94.240">  2  5  1 -1</clus>
<clus scale="   99.695">  1  9  2 -1</clus>
<clus scale="   99.695">  1  5  2 -1</clus>
</clustering>
</event>
<event>
 9    2  0.1751298E-004  0.1854918E+03  0.7546771E-02  0.1163911E+00
         21   -1    0    0  501  502  0.00000000000E+00  0.00000000000E+00  0.16726009381E+03  0.16726009381E+03  0.00000000000E+00 0. -1.
          2   -1    0    0  502    0 -0.00000000000E+00 -0.00000000000E+00 -0.11705174893E+04  0.11705174893E+04  0.00000000000E+00 0. -1.
         24    2    1    2    0    0 -0.14364165568E+03 -0.88075899704E+02 -0.83868300644E+03  0.85927264234E+03  0.81055531787E+02 0.  0.
         23    2    1    2    0    0  0.37325193276E+02  0.17276108754E+03 -0.24850837983E+03  0.31875611906E+03  0.92787311497E+02 0.  0.
        -13    1    3    3    0    0 -0.10969413321E+03 -0.23834314308E+02 -0.44495105161E+03  0.45889248821E+03  0.00000000000E+00 0.  1.
         14    1    3    3    0    0 -0.33947522468E+02 -0.64241585396E+02 -0.39373195482E+03  0.40038015414E+03  0.00000000000E+00 0. -1.
        -13    1    4    4    0    0 -0.10834103605E+02  0.14187437508E+03 -0.17213621835E+03  0.22333068256E+03  0.00000000000E+00 0. -1.
         13    1    4    4    0    0  0.48159296881E+02  0.30886712454E+02 -0.76372161481E+02  0.95425436502E+02  0.00000000000E+00 0.  1.
          1    1    1    2  501    0  0.10631646240E+03 -0.84685187833E+02  0.83933990804E+02  0.15974882168E+03  0.00000000000E+00 0. -1.
<scales pt_clust_5="13000.00000" pt_clust_6="13000.00000" pt_clust_7="13000.00000" pt_clust_8="13000.00000" pt_clust_9="135.92193"></scales>
<clustering>
<clus scale="   81.056">  5  6 -1 -1</clus>
<clus scale="   92.787">  7  8 -1 -1</clus>
<clus scale="  135.922">  1  9  2 -1</clus>
<clus scale="  179.910">  2  5  1 -1</clus>
<clus scale="  135.922">  1  5  2 -1</clus>
</clustering>
</event>
<event>
 9    2  0.1751298E-004  0.1224122E+03  0.7546771E-02  0.1256792E+00
         21   -1    0    0  501  502  0.00000000000E+00  0.00000000000E+00  0.73289486705E+03  0.73289486705E+03  0.00000000000E+00 0.  1.
          4   -1    0    0  502    0 -0.00000000000E+00 -0.00000000000E+00 -0.40933023196E+02  0.40933023196E+02  0.00000000000E+00 0. -1.
         24    2    1    2    0    0  0.29716520438E+02  0.92732554909E+01  0.58534580434E+02  0.10401611011E+03  0.80149792275E+02 0.  0.
         23    2    1    2    0    0  0.57070729829E+02 -0.10706539179E+02  0.20224171261E+03  0.22997651514E+03  0.92821274555E+02 0.  0.
        -13    1    3    3    0    0  0.59980241915E+01 -0.35124639604E+02  0.25171900434E+02  0.43627298483E+02  0.00000000000E+00 0.  1.
         14    1    3    3    0    0  0.23718496246E+02  0.44397895095E+02  0.33362680000E+02  0.60388811628E+02  0.00000000000E+00 0. -1.
        -11    1    4    4    0    0 -0.20438089683E+02  0.10586764109E+02  0.83296753455E+02  0.86418425236E+02  0.00000000000E+00 0. -1.
         11    1    4    4    0    0  0.77508819512E+02 -0.21293303288E+02  0.11894495916E+03  0.14355808990E+03  0.00000000000E+00 0.  1.
          3    1    1    2  501    0 -0.86787250267E+02  0.14332836883E+01  0.43118555081E+03  0.43983526500E+03  0.00000000000E+00 0. -1.
<scales pt_clust_5="13000.00000" pt_clust_6="13000.00000" pt_clust_7="13000.00000" pt_clust_8="13000.00000" pt_clust_9="79.80568"></scales>
<clustering>
<clus scale="   80.150">  5  6 -1 -1</clus>
<clus scale="   85.983">  2  5  1 -1</clus>
<clus scale="   79.806">  1  9  2 -1</clus>
<clus scale="   92.821">  7  8 -1 -1</clus>
<clus scale="   79.806">  1  5  2 -1</clus>
</clustering>
</event>
<event>
 9    2  0.1751298E-004  0.1066075E+03  0.7546771E-02  0.1269801E+00
         21   -1    0    0  501  502  0.00000000000E+00  0.00000000000E+00  0.62325549440E+02  0.62325549440E+02  0.00000000000E+00 0.  1.
          2   -1    0    0  502    0 -0.00000000000E+00 -0.00000000000E+00 -0.71708967299E+03  0.71708967299E+03  0.00000000000E+00 0. -1.
         24    2    1    2    0    0  0.25862560386E+02  0.48909842251E+02 -0.51006103265E+03  0.51995086269E+03  0.84413256550E+02 0.  0.
         23    2    1    2    0    0 -0.63556349239E+02 -0.24464289639E+02 -0.17250338015E+03  0.20663195640E+03  0.91112228859E+02 0.  0.
        -13    1    3    3    0    0  0.32834978981E+02 -0.15140235243E+02 -0.16328052368E+03  0.16723603673E+03  0.00000000000E+00 0.  1.
         14    1    3    3    0    0 -0.69724185944E+01  0.64050077493E+02 -0.34678050897E+03  0.35271482595E+03  0.00000000000E+00 0. -1.
        -11    1    4    4    0    0 -0.15738424540E+02 -0.42055874443E+02 -0.26839111928E+02  0.52313788921E+02  0.00000000000E+00 0.  1.
         11    1    4    4    0    0 -0.47817924699E+02  0.17591584804E+02 -0.14566426822E+03  0.15431816748E+03  0.00000000000E+00 0. -1.
          1    1    1    2  501    0  0.37693788853E+02 -0.24445552611E+02  0.27800289249E+02  0.52832403342E+02  0.00000000000E+00 0. -1.
<scales pt_clust_5="13000.00000" pt_clust_6="13000.00000" pt_clust_7="13000.00000" pt_clust_8="13000.00000" pt_clust_9="44.92668"></scales>
<clustering>
<clus scale="   44.927">  1  9  2 -1</clus>
<clus scale="   84.413">  5  6 -1 -1</clus>
<clus scale="   91.112">  7  8 -1 -1</clus>
<clus scale="  100.942">  2  5  1 -1</clus>
<clus scale="   44.927">  1  5  2 -1</clus>
</clustering>
</event>
<event>
 9    2  0.1751298E-004  0.1025906E+03  0.7546771E-02  0.1282256E+00
          2   -1    0    0  502    0 -0.00000000000E+00  0.00000000000E+00  0.17630438720E+03  0.17630438720E+03  0.00000000000E+00 0. -1.
         21   -1    0    0  501  502  0.00000000000E+00 -0.00000000000E+00 -0.13401150056E+03  0.13401150056E+03  0.00000000000E+00 0. -1.
         24    2    1    2    0    0 -0.40468128656E+02  0.14051105558E+02  0.29973308821E+01  0.90675368843E+02  0.79861977925E+02 0.  0.
         23    2    1    2    0    0  0.66994459108E+02 -0.82934035611E+02 -0.20169777868E+02  0.12485322987E+03  0.61767283058E+02 0.  0.
        -11    1    3    3    0    0  0.23859417932E+02  0.57166484157E+01 -0.58146747800E+01  0.25214327989E+02  0.00000000000E+00 0.  1.
         12    1    3    3    0    0 -0.64327546588E+02  0.83344571425E+01  0.88120056622E+01  0.65461040854E+02  0.00000000000E+00 0. -1.
        -11    1    4    4    0    0  0.64168780774E+02 -0.32337519767E+02 -0.53499593473E+01  0.72055323715E+02  0.00000000000E+00 0.  1.
         11    1    4    4    0    0  0.28256783345E+01 -0.50596515843E+02 -0.14819818520E+02  0.52797906157E+02  0.00000000000E+00 0. -1.
          1    1    1    2  501    0 -0.26526330452E+02  0.68882930052E+02  0.59465333627E+02  0.94787289038E+02  0.00000000000E+00 0. -1.
<scales pt_clust_5="13000.00000" pt_clust_6="13000.00000" pt_clust_7="13000.00000" pt_clust_8="13000.00000" pt_clust_9="73.81402"></scales>
<clustering>
<clus scale="   61.767">  7  8 -1 -1</clus>
<clus scale="   73.814">  2  9  1 -1</clus>
<clus scale="   79.862">  5  6 -1 -1</clus>
<clus scale="   89.231">  2  7  1 -1</clus>
<clus scale="   73.814">  2  5  1 -1</clus>
</clustering>
</event>
<event>
 9    2  0.1751298E-004  0.3541377E+03  0.7546771E-02  0.1106116E+00
          2   -1    0    0  502    0 -0.00000000000E+00  0.00000000000E+00  0.28734371532E+04  0.28734371532E+04  0.00000000000E+00 0. -1.
         21   -1    0    0  501  502  0.00000000000E+00 -0.00000000000E+00 -0.82359209629E+02  0.82359209629E+02  0.00000000000E+00 0.  1.
         24    2    1    2    0    0 -0.24127168386E+02  0.62972277245E+02  0.39501719500E+02  0.11277859146E+03  0.81308037077E+02 0.  0.
         23    2    1    2    0    0  0.87331685321E+02 -0.37314837091E+03  0.16890385618E+04  0.17343292201E+04  0.90443630792E+02 0.  0.
        -13    1    3    3    0    0  0.94010386809E+01  0.58327022369E+02 -0.21359874207E+01  0.59118385541E+02  0.00000000000E+00 0.  1.
         14    1    3    3    0    0 -0.33528207067E+02  0.46452548759E+01  0.41637706921E+02  0.53660205922E+02  0.00000000000E+00 0. -1.
        -13    1    4    4    0    0  0.10502639963E+03 -0.32377851392E+03  0.14200482745E+04  0.14602740060E+04  0.00000000000E+00 0.  1.
         13    1    4    4    0    0 -0.17694714305E+02 -0.49369856989E+02  0.26899028730E+03  0.27405521407E+03  0.00000000000E+00 0. -1.
          1    1    1    2  501    0 -0.63204516935E+02  0.31017609366E+03  0.10625376622E+04  0.11086885512E+04  0.00000000000E+00 0. -1.
<scales pt_clust_5="13000.00000" pt_clust_6="13000.00000" pt_clust_7="13000.00000" pt_clust_8="13000.00000" pt_clust_9="342.39376"></scales>
<clustering>
<clus scale="   81.308">  5  6 -1 -1</clus>
<clus scale="   90.444">  7  8 -1 -1</clus>
<clus scale="  105.634">  1  5  2 -1</clus>
<clus scale="  342.394">  2  9  1 -1</clus>
<clus scale="  342.394">  2  5  1 -1</clus>
</clustering>
</event>
<event>
 9    2  0.1751298E-004  0.2274239E+03  0.7546771E-02  0.1155156E+00
         21   -1    0    0  501  502  0.00000000000E+00  0.00000000000E+00  0.99544165070E+03  0.99544165070E+03  0.00000000000E+00 0.  1.
         -1   -1    0    0    0  501 -0.00000000000E+00 -0.00000000000E+00 -0.93534245629E+02  0.93534245629E+02  0.00000000000E+00 0.  1.
         24    2    1    2    0    0  0.31468741910E+02 -0.84371051642E+02  0.35225104813E+03  0.37203501184E+03  0.78870102416E+02 0.  0.
         23    2    1    2    0    0 -0.10231930999E+03  0.24565657650E+03  0.30716553805E+03  0.41721664327E+03  0.94353934136E+02 0.  0.
        -11    1    3    3    0    0  0.74701099059E+01 -0.88979484124E+02  0.21800569238E+03  0.23558360097E+03  0.00000000000E+00 0.  1.
         12    1    3    3    0    0  0.23998632004E+02  0.46084324819E+01  0.13424535575E+03  0.13645141087E+03  0.00000000000E+00 0. -1.
        -13    1    4    4    0    0 -0.18912585337E+02  0.16578276606E+03  0.18046555978E+03  0.24578329820E+03  0.00000000000E+00 0.  1.
         13    1    4    4    0    0 -0.83406724649E+02  0.79873810440E+02  0.12669997827E+03  0.17143334508E+03  0.00000000000E+00 0. -1.
         -2    1    1    2    0  502  0.70850568076E+02 -0.16128552486E+03  0.24249081889E+03  0.29972424122E+03  0.00000000000E+00 0.  1.
<scales pt_clust_5="13000.00000" pt_clust_6="13000.00000" pt_clust_7="13000.00000" pt_clust_8="13000.00000" pt_clust_9="206.92744"></scales>
<clustering>
<clus scale="   78.870">  5  6 -1 -1</clus>
<clus scale="   94.354">  7  8 -1 -1</clus>
<clus scale="  119.705">  2  5  1 -1</clus>
<clus scale="  206.927">  1  9  2 -1</clus>
<clus scale="  206.927">  1  5  2 -1</clus>
</clustering>
</event>
<event>
 9    2  0.1751298E-004  0.8872573E+02  0.7546771E-02  0.1309079E+00
         21   -1    0    0  501  502  0.00000000000E+00  0.00000000000E+00  0.40416654632E+02  0.40416654632E+02  0.00000000000E+00 0. -1.
          2   -1    0    0  502    0 -0.00000000000E+00 -0.00000000000E+00 -0.58127257539E+03  0.58127257539E+03  0.00000000000E+00 0. -1.
         24    2    1    2    0    0  0.47933675348E+01 -0.18757423211E+02 -0.43066238402E+03  0.43852253909E+03  0.80356150847E+02 0.  0.
         23    2    1    2    0    0  0.14540121855E+02  0.56806214028E+02 -0.78632373947E+02  0.13008560870E+03  0.85445036500E+02 0.  0.
        -13    1    3    3    0    0 -0.22728383010E+02  0.14565959778E+02 -0.65991872600E+02  0.71299886590E+02  0.00000000000E+00 0.  1.
         14    1    3    3    0    0  0.27521750545E+02 -0.33323382989E+02 -0.36467051142E+03  0.36722265250E+03  0.00000000000E+00 0. -1.
        -11    1    4    4    0    0  0.30751314526E+02 -0.11036405202E+02 -0.34650144217E+02  0.47624343346E+02  0.00000000000E+00 0.  1.
         11    1    4    4    0    0 -0.16211192671E+02  0.67842619229E+02 -0.43982229730E+02  0.82461265354E+02  0.00000000000E+00 0. -1.
          1    1    1    2  501    0 -0.19333489389E+02 -0.38048790816E+02 -0.31561162789E+02  0.53081082234E+02  0.00000000000E+00 0. -1.
<scales pt_clust_5="13000.00000" pt_clust_6="13000.00000" pt_clust_7="13000.00000" pt_clust_8="13000.00000" pt_clust_9="42.67897"></scales>
<clustering>
<clus scale="   42.679">  1  9  2 -1</clus>
<clus scale="   80.356">  5  6 -1 -1</clus>
<clus scale="   83.836">  2  5  1 -1</clus>
<clus scale="   85.445">  7  8 -1 -1</clus>
<clus scale="   42.679">  1  5  2 -1</clus>
</clustering>
</event>
<event>
 9    2  0.1751298E-004  0.1653292E+03  0.7546771E-02  0.1198650E+00
         21   -1    0    0  501  502  0.00000000000E+00  0.00000000000E+00  0.63419383767E+02  0.63419383767E+02  0.00000000000E+00 0. -1.
         -1   -1    0    0    0  501 -0.00000000000E+00 -0.00000000000E+00 -0.16467381958E+04  0.16467381958E+04  0.00000000000E+00 0.  1.
         23    2    1    2    0    0 -0.40026876827E+02 -0.59524292684E+02 -0.24028209965E+03  0.26705806470E+03  0.91865283000E+02 0.  0.
         24    2    1    2    0    0 -0.13955115540E+03  0.83318758819E+01 -0.10906800021E+03  0.19508200064E+03  0.81346254835E+02 0.  0.
        -11    1    4    4    0    0 -0.18839633072E+02  0.33186313428E+02 -0.20536496795E+02  0.43336022820E+02  0.00000000000E+00 0.  1.
         12    1    4    4    0    0 -0.12071152232E+03 -0.24854437547E+02 -0.88531503412E+02  0.15174597782E+03  0.00000000000E+00 0. -1.
        -13    1    3    3    0    0 -0.41856227424E+02  0.29831686738E+00 -0.39525752770E+02  0.57570112899E+02  0.00000000000E+00 0.  1.
         13    1    3    3    0    0  0.18293505967E+01 -0.59822609551E+02 -0.20075634688E+03  0.20948795180E+03  0.00000000000E+00 0. -1.
         -2    1    1    2    0  502  0.17957803222E+03  0.51192416802E+02 -0.12339687122E+04  0.12480175142E+04  0.00000000000E+00 0.  1.
<scales pt_clust_5="13000.00000" pt_clust_6="13000.00000" pt_clust_7="13000.00000" pt_clust_8="13000.00000" pt_clust_9="143.93247"></scales>
<clustering>
<clus scale="   81.346">  5  6 -1 -1</clus>
<clus scale="   91.865">  7  8 -1 -1</clus>
<clus scale="  116.553">  2  7  1 -1</clus>
<clus scale="  143.932">  1  9  2 -1</clus>
<clus scale="  143.932">  1  5  2 -1</clus>
</clustering>
</event>
<event>
 9    2  0.1751298E-004  0.9805586E+02  0.7546771E-02  0.1291149E+00
          2   -1    0    0  502    0 -0.00000000000E+00  0.00000000000E+00  0.31971444035E+03  0.31971444035E+03  0.00000000000E+00 0. -1.
         21   -1    0    0  501  502  0.00000000000E+00 -0.00000000000E+00 -0.51308997010E+02  0.51308997010E+02  0.00000000000E+00 0.  1.
         24    2    1    2    0    0  0.39828570473E+02  0.14164119457E+02  0.14312050283E+03  0.16970229321E+03  0.80798840859E+02 0.  0.
         23    2    1    2    0    0 -0.21713578976E+01  0.22756161005E+01  0.30548913575E+02  0.98058152892E+02  0.93125034251E+02 0.  0.
        -13    1    3    3    0    0  0.51383395511E+02  0.38020777611E+02  0.90701450025E+02  0.11096209218E+03  0.00000000000E+00 0.  1.
         14    1    3    3    0    0 -0.11554825038E+02 -0.23856658154E+02  0.52419052807E+02  0.58740201030E+02  0.00000000000E+00 0. -1.
        -11    1    4    4    0    0 -0.14327186399E+02  0.30933283022E+02  0.50613055164E+02  0.61023090889E+02  0.00000000000E+00 0. -1.
         11    1    4    4    0    0  0.12155828501E+02 -0.28657666921E+02 -0.20064141588E+02  0.37035062004E+02  0.00000000000E+00 0.  1.
          1    1    1    2  501    0 -0.37657212576E+02 -0.16439735557E+02  0.94736026929E+02  0.10326299125E+03  0.00000000000E+00 0. -1.
<scales pt_clust_5="13000.00000" pt_clust_6="13000.00000" pt_clust_7="13000.00000" pt_clust_8="13000.00000" pt_clust_9="41.08932"></scales>
<clustering>
<clus scale="   41.089">  2  9  1 -1</clus>
<clus scale="   80.799">  5  6 -1 -1</clus>
<clus scale="   86.436">  1  5  2 -1</clus>
<clus scale="   93.125">  7  8 -1 -1</clus>
<clus scale="   41.089">  2  5  1 -1</clus>
</clustering>
</event>
<event>
 9    2  0.1751298E-004  0.1396458E+03  0.7546771E-02  0.1225934E+00
          2   -1    0    0  502    0 -0.00000000000E+00  0.00000000000E+00  0.14367641334E+04  0.14367641334E+04  0.00000000000E+00 0. -1.
         21   -1    0    0  501  502  0.00000000000E+00 -0.00000000000E+00 -0.33512275090E+02  0.33512275090E+02  0.00000000000E+00 0. -1.
         24    2    1    2    0    0 -0.62222008071E+02 -0.39344228774E+02  0.13878337834E+03  0.17600575672E+03  0.79357757466E+02 0.  0.
         23    2    1    2    0    0 -0.81734060765E+02 -0.21244328374E+00  0.46033113720E+03  0.47639233190E+03  0.91457073006E+02 0.  0.
        -13    1    3    3    0    0 -0.56114187501E+02  0.46116008364E+01  0.44378795007E+02  0.71690629425E+02  0.00000000000E+00 0.  1.
         14    1    3    3    0    0 -0.61078205703E+01 -0.43955829611E+02  0.94404583332E+02  0.10431512730E+03  0.00000000000E+00 0. -1.
        -13    1    4    4    0    0 -0.23926234999E+02 -0.43619480524E+02  0.21152872181E+03  0.21730053832E+03  0.00000000000E+00 0.  1.
         13    1    4    4    0    0 -0.57807825766E+02  0.43407037240E+02  0.24880241539E+03  0.25909179359E+03  0.00000000000E+00 0. -1.
          1    1    1    2  501    0  0.14395606884E+03  0.39556672058E+02  0.80413734282E+03  0.81787831991E+03  0.00000000000E+00 0. -1.
<scales pt_clust_5="13000.00000" pt_clust_6="13000.00000" pt_clust_7="13000.00000" pt_clust_8="13000.00000" pt_clust_9="105.52989"></scales>
<clustering>
<clus scale="   79.358">  5  6 -1 -1</clus>
<clus scale="   91.457">  7  8 -1 -1</clus>
<clus scale="  108.246">  1  5  2 -1</clus>
<clus scale="  105.530">  2  9  1 -1</clus>
<clus scale="  105.530">  2  5  1 -1</clus>
</clustering>
</event>
<event>
 9    2  0.1751298E-004  0.1281881E+03  0.7546771E-02  0.1248256E+00
         -1   -1    0    0    0  501 -0.00000000000E+00  0.00000000000E+00  0.46413943808E+03  0.46413943808E+03  0.00000000000E+00 0.  1.
         21   -1    0    0  501  502  0.00000000000E+00 -0.00000000000E+00 -0.67032627000E+02  0.67032627000E+02  0.00000000000E+00 0.  1.
         23    2    1    2    0    0  0.44591955229E+00  0.23253934803E+02  0.28347070415E+02  0.93154753226E+02  0.85634731969E+02 0.  0.
         24    2    1    2    0    0  0.82278651361E+02 -0.71784115628E+02  0.25806441900E+03  0.29155234225E+03  0.80515763603E+02 0.  0.
        -13    1    4    4    0    0  0.88331773406E+02 -0.70552869846E+02  0.26120735467E+03  0.28462166427E+03  0.00000000000E+00 0.  1.
         14    1    4    4    0    0 -0.60531220459E+01 -0.12312457815E+01 -0.31429356659E+01  0.69306779811E+01  0.00000000000E+00 0. -1.
        -13    1    3    3    0    0  0.31275077632E+02 -0.12656470786E+01 -0.14892395725E+02  0.34662887846E+02  0.00000000000E+00 0.  1.
         13    1    3    3    0    0 -0.30829158079E+02  0.24519581882E+02  0.43239466140E+02  0.58491865380E+02  0.00000000000E+00 0. -1.
         -2    1    1    2    0  502 -0.82724570913E+02  0.48530180824E+02  0.11069532166E+03  0.14646496960E+03  0.00000000000E+00 0.  1.
<scales pt_clust_5="13000.00000" pt_clust_6="13000.00000" pt_clust_7="13000.00000" pt_clust_8="13000.00000" pt_clust_9="99.74672"></scales>
<clustering>
<clus scale="   80.516">  5  6 -1 -1</clus>
<clus scale="   85.635">  7  8 -1 -1</clus>
<clus scale="   88.737">  1  7  2 -1</clus>
<clus scale="   99.747">  2  9  1 -1</clus>
<clus scale="   99.747">  2  5  1 -1</clus>
</clustering>
</event>
<event>
 9    2  0.1751298E-004  0.1582135E+03  0.7546771E-02  0.1192195E+00
         21   -1    0    0  501  502  0.00000000000E+00  0.00000000000E+00  0.58433370208E+02  0.58433370208E+02  0.00000000000E+00 0. -1.
          2   -1    0    0  502    0 -0.00000000000E+00 -0.00000000000E+00 -0.56758161785E+03  0.56758161785E+03  0.00000000000E+00 0. -1.
         24    2    1    2    0    0  0.20995518304E+02  0.11862910690E+03 -0.25676282146E+03  0.29512240564E+03  0.81586831248E+02 0.  0.
         23    2    1    2    0    0  0.35492072547E+01 -0.14771669480E+03 -0.18524884706E+03  0.25371841849E+03  0.90681209440E+02 0.  0.
        -13    1    3    3    0    0 -0.19829715844E+02  0.15619761404E+02 -0.15474345684E+02  0.29608275044E+02  0.00000000000E+00 0.  1.
         14    1    3    3    0    0  0.40825234148E+02  0.10300934550E+03 -0.24128847577E+03  0.26551413059E+03  0.00000000000E+00 0. -1.
        -11    1    4    4    0    0  0.28657695465E+02 -0.24077462379E+02 -0.83965073284E+02  0.91929980069E+02  0.00000000000E+00 0.  1.
         11    1    4    4    0    0 -0.25108488210E+02 -0.12363923242E+03 -0.10128377378E+03  0.16178843842E+03  0.00000000000E+00 0. -1.
          1    1    1    2  501    0 -0.24544725558E+02  0.29087587901E+02 -0.67136579123E+02  0.77174163935E+02  0.00000000000E+00 0. -1.
<scales pt_clust_5="13000.00000" pt_clust_6="13000.00000" pt_clust_7="13000.00000" pt_clust_8="13000.00000" pt_clust_9="38.05959"></scales>
<clustering>
<clus scale="   38.060">  1  9  2 -1</clus>
<clus scale="   81.587">  5  6 -1 -1</clus>
<clus scale="   90.681">  7  8 -1 -1</clus>
<clus scale="  153.182">  2  5  1 -1</clus>
<clus scale="   38.060">  1  5  2 -1</clus>
</clustering>
</event>
<event>
 9    2  0.1751298E-004  0.1815302E+03  0.7546771E-02  0.1194779E+00
          2   -1    0    0  502    0 -0.00000000000E+00  0.00000000000E+00  0.26596737615E+03  0.26596737615E+03  0.00000000000E+00 0. -1.
         21   -1    0    0  501  502  0.00000000000E+00 -0.00000000000E+00 -0.16999642821E+03  0.16999642821E+03  0.00000000000E+00 0.  1.
         24    2    1    2    0    0 -0.31934027106E+02  0.41985154272E+02  0.45346449183E+01  0.95923957739E+02  0.79989420533E+02 0.  0.
         23    2    1    2    0    0 -0.58432549252E+02 -0.12805851472E+03  0.57153394861E+01  0.18863698968E+03  0.12545079818E+03 0.  0.
        -11    1    3    3    0    0 -0.57443986638E+02  0.19537409310E+02 -0.42572512410E+01  0.60824716617E+02  0.00000000000E+00 0.  1.
         12    1    3    3    0    0  0.25509959532E+02  0.22447744962E+02  0.87918961592E+01  0.35099241121E+02  0.00000000000E+00 0. -1.
        -11    1    4    4    0    0 -0.71054476059E+02 -0.97893949921E+02  0.52248043789E+02  0.13176426708E+03  0.00000000000E+00 0. -1.
         11    1    4    4    0    0  0.12621926807E+02 -0.30164564796E+02 -0.46532704303E+02  0.56872722596E+02  0.00000000000E+00 0.  1.
          1    1    1    2  501    0  0.90366576359E+02  0.86073360446E+02  0.85720963534E+02  0.15140285694E+03  0.00000000000E+00 0. -1.
<scales pt_clust_5="13000.00000" pt_clust_6="13000.00000" pt_clust_7="13000.00000" pt_clust_8="13000.00000" pt_clust_9="131.20726"></scales>
<clustering>
<clus scale="   79.989">  5  6 -1 -1</clus>
<clus scale="   95.817">  1  5  2 -1</clus>
<clus scale="  125.451">  7  8 -1 -1</clus>
<clus scale="  131.207">  2  9  1 -1</clus>
<clus scale="  131.207">  2  5  1 -1</clus>
</clustering>
</event>
<event>
 9    2  0.1751298E-004  0.2813023E+03  0.7546771E-02  0.1135064E+00
         21   -1    0    0  501  502  0.00000000000E+00  0.00000000000E+00  0.19572241781E+03  0.19572241781E+03  0.00000000000E+00 0. -1.
          2   -1    0    0  502    0 -0.00000000000E+00 -0.00000000000E+00 -0.62440125972E+03  0.62440125972E+03  0.00000000000E+00 0. -1.
         23    2    1    2    0    0  0.51750584832E+02 -0.15598744507E+02  0.22850690155E+02  0.10477559023E+03  0.86800497738E+02 0.  0.
         24    2    1    2    0    0  0.22841026839E+03 -0.73256695014E+02 -0.26898511455E+03  0.36935985458E+03  0.80845013786E+02 0.  0.
        -13    1    4    4    0    0  0.26874627248E+02  0.79598955391E+01 -0.68032767986E+01  0.28842505126E+02  0.00000000000E+00 0.  1.
         14    1    4    4    0    0  0.20153564115E+03 -0.81216590553E+02 -0.26218183775E+03  0.34051734945E+03  0.00000000000E+00 0. -1.
        -13    1    3    3    0    0  0.33177608328E+02  0.32574640048E+02 -0.38413101883E+01  0.46654223095E+02  0.00000000000E+00 0.  1.
         13    1    3    3    0    0  0.18572976503E+02 -0.48173384555E+02  0.26692000343E+02  0.58121367138E+02  0.00000000000E+00 0. -1.
          1    1    1    2  501    0 -0.28016085323E+03  0.88855439521E+02 -0.18254441752E+03  0.34598823272E+03  0.00000000000E+00 0. -1.
<scales pt_clust_5="13000.00000" pt_clust_6="13000.00000" pt_clust_7="13000.00000" pt_clust_8="13000.00000" pt_clust_9="269.43477"></scales>
<clustering>
<clus scale="   80.845">  5  6 -1 -1</clus>
<clus scale="   86.800">  7  8 -1 -1</clus>
<clus scale="  102.254">  2  7  1 -1</clus>
<clus scale="  269.435">  1  9  2 -1</clus>
<clus scale="  269.435">  1  5  2 -1</clus>
</clustering>
</event>
<event>
 9    2  0.1751298E-004  0.1237169E+03  0.7546771E-02  0.1240998E+00
          2   -1    0    0  502    0 -0.00000000000E+00  0.00000000000E+00  0.70100853576E+03  0.70100853576E+03  0.00000000000E+00 0. -1.
         21   -1    0    0  501  502  0.00000000000E+00 -0.00000000000E+00 -0.62968531628E+02  0.62968531628E+02  0.00000000000E+00 0. -1.
         23    2    1    2    0    0 -0.58972332480E+02  0.76444515624E+02  0.40441066493E+03  0.42603071932E+03  0.92912259285E+02 0.  0.
         24    2    1    2    0    0  0.43457129820E+02  0.94836539955E+01  0.31584976393E+01  0.91489088779E+02  0.79886265609E+02 0.  0.
        -13    1    4    4    0    0 -0.91664025016E+01  0.26364430694E+02  0.19276542314E+02  0.33921839930E+02  0.00000000000E+00 0.  1.
         14    1    4    4    0    0  0.52623532321E+02 -0.16880776699E+02 -0.16118044674E+02  0.57567248849E+02  0.00000000000E+00 0. -1.
        -11    1    3    3    0    0 -0.67314069203E+02  0.12138867390E+02  0.23002386979E+03  0.23997815877E+03  0.00000000000E+00 0. -1.
         11    1    3    3    0    0  0.83417367229E+01  0.64305648234E+02  0.17438679514E+03  0.18605256055E+03  0.00000000000E+00 0.  1.
          1    1    1    2  501    0  0.15515202660E+02 -0.85928169620E+02  0.23047084156E+03  0.24645725929E+03  0.00000000000E+00 0. -1.
<scales pt_clust_5="13000.00000" pt_clust_6="13000.00000" pt_clust_7="13000.00000" pt_clust_8="13000.00000" pt_clust_9="87.31769"></scales>
<clustering>
<clus scale="   79.886">  5  6 -1 -1</clus>
<clus scale="   87.318">  2  9  1 -1</clus>
<clus scale="   92.912">  7  8 -1 -1</clus>
<clus scale="  114.259">  2  5  1 -1</clus>
<clus scale="   87.318">  2  5  1 -1</clus>
</clustering>
</event>
<event>
 9    2  0.1751298E-004  0.1044457E+03  0.7546771E-02  0.1275342E+00
          2   -1    0    0  502    0 -0.00000000000E+00  0.00000000000E+00  0.15591994319E+03  0.15591994319E+03  0.00000000000E+00 0. -1.
         21   -1    0    0  501  502  0.00000000000E+00 -0.00000000000E+00 -0.15449375083E+03  0.15449375083E+03  0.00000000000E+00 0. -1.
         23    2    1    2    0    0  0.49819885643E+02 -0.12642754429E+02  0.70449441532E+02  0.12637196570E+03  0.91459770712E+02 0.  0.
         24    2    1    2    0    0 -0.51759874646E+02 -0.26991121256E+02 -0.93410731986E+02  0.13746537190E+03  0.82240855848E+02 0.  0.
        -13    1    4    4    0    0 -0.56657885488E+02 -0.27669443979E+02 -0.23361612191E+02  0.67241944069E+02  0.00000000000E+00 0.  1.
         14    1    4    4    0    0  0.48980108419E+01  0.67832272230E+00 -0.70049119795E+02  0.70223427828E+02  0.00000000000E+00 0. -1.
        -11    1    3    3    0    0 -0.23051760297E+02  0.12600334967E+02  0.90187183916E+01  0.27775697570E+02  0.00000000000E+00 0.  1.
         11    1    3    3    0    0  0.72871645940E+02 -0.25243089396E+02  0.61430723141E+02  0.98596268134E+02  0.00000000000E+00 0. -1.
          1    1    1    2  501    0  0.19399890027E+01  0.39633875686E+02  0.24387482817E+02  0.46576356420E+02  0.00000000000E+00 0. -1.
<scales pt_clust_5="13000.00000" pt_clust_6="13000.00000" pt_clust_7="13000.00000" pt_clust_8="13000.00000" pt_clust_9="39.68135"></scales>
<clustering>
<clus scale="   39.681">  2  9  1 -1</clus>
<clus scale="   82.241">  5  6 -1 -1</clus>
<clus scale="   91.460">  7  8 -1 -1</clus>
<clus scale="   96.476">  2  5  1 -1</clus>
<clus scale="   39.681">  2  5  1 -1</clus>
</clustering>
</event>
<event>
 9    2  0.1751298E-004  0.9985147E+02  0.7546771E-02  0.1284946E+00
         21   -1    0    0  501  502  0.00000000000E+00  0.00000000000E+00  0.10511866053E+03  0.10511866053E+03  0.00000000000E+00 0. -1.
          2   -1    0    0  502    0 -0.00000000000E+00 -0.00000000000E+00 -0.20545645150E+03  0.20545645150E+03  0.00000000000E+00 0. -1.
         24    2    1    2    0    0  0.37507622605E+02 -0.99749959648E+01 -0.14210409614E+03  0.16893758187E+03  0.82704353759E+02 0.  0.
         23    2    1    2    0    0 -0.52410792306E+02 -0.13396222487E+02  0.41215986007E+02  0.11391351222E+03  0.91384795439E+02 0.  0.
        -13    1    3    3    0    0  0.46797696521E+02  0.26386999369E+02 -0.87597894652E+02  0.10276034879E+03  0.00000000000E+00 0.  1.
         14    1    3    3    0    0 -0.92900739163E+01 -0.36361995334E+02 -0.54506201491E+02  0.66177233087E+02  0.00000000000E+00 0. -1.
        -11    1    4    4    0    0 -0.36060326022E+02 -0.52481036343E+02  0.21743451726E+02  0.67285837896E+02  0.00000000000E+00 0. -1.
         11    1    4    4    0    0 -0.16350466284E+02  0.39084813856E+02  0.19472534281E+02  0.46627674328E+02  0.00000000000E+00 0.  1.
          1    1    1    2  501    0  0.14903169701E+02  0.23371218451E+02  0.55031917345E+00  0.27724017931E+02  0.00000000000E+00 0. -1.
<scales pt_clust_5="13000.00000" pt_clust_6="13000.00000" pt_clust_7="13000.00000" pt_clust_8="13000.00000" pt_clust_9="27.71856"></scales>
<clustering>
<clus scale="   27.719">  1  9  2 -1</clus>
<clus scale="   82.704">  5  6 -1 -1</clus>
<clus scale="   91.385">  7  8 -1 -1</clus>
<clus scale="   91.974">  2  5  1 -1</clus>
<clus scale="   27.719">  1  5  2 -1</clus>
</clustering>
</event>
<event>
 9    2  0.1751298E-004  0.1023559E+03  0.7546771E-02  0.1280760E+00
         -1   -1    0    0    0  501 -0.00000000000E+00  0.00000000000E+00  0.53306767138E+03  0.53306767138E+03  0.00000000000E+00 0.  1.
         21   -1    0    0  501  502  0.00000000000E+00 -0.00000000000E+00 -0.43095562798E+02  0.43095562798E+02  0.00000000000E+00 0. -1.
         23    2    1    2    0    0  0.24134967404E+02  0.45858807195E+02  0.35471011849E+03  0.36947946315E+03  0.89500160224E+02 0.  0.
         24    2    1    2    0    0 -0.63181917955E+02 -0.73776491371E+01  0.77134957683E+02  0.12678248337E+03  0.77959040077E+02 0.  0.
        -11    1    4    4    0    0 -0.14411280649E+02  0.26517770445E+02  0.96787435844E+00  0.30196257055E+02  0.00000000000E+00 0.  1.
         12    1    4    4    0    0 -0.48770637305E+02 -0.33895419582E+02  0.76167083324E+02  0.96586226316E+02  0.00000000000E+00 0. -1.
        -13    1    3    3    0    0 -0.26928283339E+02  0.41146752327E+02  0.12993708295E+03  0.13893103756E+03  0.00000000000E+00 0. -1.
         13    1    3    3    0    0  0.51063250742E+02  0.47120548680E+01  0.22477303554E+03  0.23054842559E+03  0.00000000000E+00 0.  1.
         -2    1    1    2    0  502  0.39046950551E+02 -0.38481158058E+02  0.58127032409E+02  0.79901287659E+02  0.00000000000E+00 0.  1.
<scales pt_clust_5="13000.00000" pt_clust_6="13000.00000" pt_clust_7="13000.00000" pt_clust_8="13000.00000" pt_clust_9="54.82211"></scales>
<clustering>
<clus scale="   54.822">  2  9  1 -1</clus>
<clus scale="   77.959">  5  6 -1 -1</clus>
<clus scale="   89.500">  7  8 -1 -1</clus>
<clus scale="   92.434">  2  5  1 -1</clus>
<clus scale="   54.822">  2  5  1 -1</clus>
</clustering>
</event>
<event>
 9    2  0.1751298E-004  0.1007747E+03  0.7546771E-02  0.1283316E+00
          2   -1    0    0  502    0 -0.00000000000E+00  0.00000000000E+00  0.42545981689E+03  0.42545981689E+03  0.00000000000E+00 0. -1.
         21   -1    0    0  501  502  0.00000000000E+00 -0.00000000000E+00 -0.44268149084E+02  0.44268149084E+02  0.00000000000E+00 0.  1.
         23    2    1    2    0    0  0.24842435522E+02  0.37179328780E+02  0.30575416079E+03  0.32132281748E+03  0.88109574413E+02 0.  0.
         24    2    1    2    0    0 -0.25773215715E+02 -0.61351211500E+02  0.53792297026E+02  0.11594499782E+03  0.78239385860E+02 0.  0.
        -11    1    4    4    0    0 -0.42107440997E+02 -0.16353877096E+02  0.17085529104E+01  0.45204037833E+02  0.00000000000E+00 0.  1.
         12    1    4    4    0    0  0.16334225281E+02 -0.44997334405E+02  0.52083744115E+02  0.70740959989E+02  0.00000000000E+00 0. -1.
        -13    1    3    3    0    0  0.50381819279E+02 -0.36629186717E+01  0.14852763352E+03  0.15688276708E+03  0.00000000000E+00 0.  1.
         13    1    3    3    0    0 -0.25539383756E+02  0.40842247452E+02  0.15722652727E+03  0.16444005040E+03  0.00000000000E+00 0. -1.
          1    1    1    2  501    0  0.93078019280E+00  0.24171882720E+02  0.21645209993E+02  0.32460150672E+02  0.00000000000E+00 0. -1.
<scales pt_clust_5="13000.00000" pt_clust_6="13000.00000" pt_clust_7="13000.00000" pt_clust_8="13000.00000" pt_clust_9="24.18980"></scales>
<clustering>
<clus scale="   24.190">  2  9  1 -1</clus>
<clus scale="   78.239">  5  6 -1 -1</clus>
<clus scale="   88.110">  7  8 -1 -1</clus>
<clus scale="   92.269">  2  5  1 -1</clus>
<clus scale="   24.190">  2  5  1 -1</clus>
</clustering>
</event>
<event>
 9    2  0.1751298E-004  0.1676764E+03  0.7546771E-02  0.1203823E+00
         21   -1    0    0  501  502  0.00000000000E+00  0.00000000000E+00  0.52920761480E+03  0.52920761480E+03  0.00000000000E+00 0. -1.
          2   -1    0    0  502    0 -0.00000000000E+00 -0.00000000000E+00 -0.10904128106E+03  0.10904128106E+03  0.00000000000E+00 0. -1.
         23    2    1    2    0    0  0.23421970295E+01 -0.38424079680E+02  0.11289860632E+03  0.15073630212E+03  0.92159870237E+02 0.  0.
         24    2    1    2    0    0  0.14521138456E+03  0.24838737680E+02  0.26264014186E+02  0.16983397027E+03  0.80314817581E+02 0.  0.
        -11    1    4    4    0    0  0.12082728478E+02 -0.23158495688E+02  0.14755497907E+01  0.26162673740E+02  0.00000000000E+00 0.  1.
         12    1    4    4    0    0  0.13312865608E+03  0.47997233369E+02  0.24788464395E+02  0.14367129653E+03  0.00000000000E+00 0. -1.
        -11    1    3    3    0    0 -0.12865789036E+01 -0.64375495077E+02  0.46702245928E+02  0.79542186458E+02  0.00000000000E+00 0. -1.
         11    1    3    3    0    0  0.36287759330E+01  0.25951415398E+02  0.66196360396E+02  0.71194115666E+02  0.00000000000E+00 0.  1.
          1    1    1    2  501    0 -0.14755358159E+03  0.13585341999E+02  0.28100371323E+03  0.31767862346E+03  0.00000000000E+00 0. -1.
<scales pt_clust_5="13000.00000" pt_clust_6="13000.00000" pt_clust_7="13000.00000" pt_clust_8="13000.00000" pt_clust_9="147.19003"></scales>
<clustering>
<clus scale="   80.315">  5  6 -1 -1</clus>
<clus scale="   92.160">  7  8 -1 -1</clus>
<clus scale="   99.877">  2  7  1 -1</clus>
<clus scale="  147.190">  1  9  2 -1</clus>
<clus scale="  147.190">  1  5  2 -1</clus>
</clustering>
</event>
<event>
 9    2  0.1751298E-004  0.2136925E+03  0.7546771E-02  0.1138675E+00
         21   -1    0    0  501  502  0.00000000000E+00  0.00000000000E+00  0.47733811023E+03  0.47733811023E+03  0.00000000000E+00 0.  1.
          2   -1    0    0  502    0 -0.00000000000E+00 -0.00000000000E+00 -0.61201567415E+02  0.61201567415E+02  0.00000000000E+00 0. -1.
         24    2    1    2    0    0  0.22368561263E+02 -0.88337152281E+02  0.21703444493E+03  0.24885085425E+03  0.80740277219E+02 0.  0.
         23    2    1    2    0    0 -0.35871212254E+01 -0.13244220393E+02  0.14872224433E+03  0.17475559318E+03  0.90735519937E+02 0.  0.
        -13    1    3    3    0    0  0.29972556276E+02 -0.73235748358E+02  0.21799779621E+03  0.23191564872E+03  0.00000000000E+00 0.  1.
         14    1    3    3    0    0 -0.76039950129E+01 -0.15101403923E+02 -0.96335127757E+00  0.16935205528E+02  0.00000000000E+00 0. -1.
        -13    1    4    4    0    0  0.39562305243E+02 -0.68011235341E+01  0.10743157079E+03  0.11468641454E+03  0.00000000000E+00 0. -1.
         13    1    4    4    0    0 -0.43149426469E+02 -0.64430968588E+01  0.41290673538E+02  0.60069178644E+02  0.00000000000E+00 0.  1.
          1    1    1    2  501    0 -0.18781440038E+02  0.10158137267E+03  0.50379853555E+02  0.11493323022E+03  0.00000000000E+00 0. -1.
<scales pt_clust_5="13000.00000" pt_clust_6="13000.00000" pt_clust_7="13000.00000" pt_clust_8="13000.00000" pt_clust_9="103.30309"></scales>
<clustering>
<clus scale="   80.740">  5  6 -1 -1</clus>
<clus scale="   90.736">  7  8 -1 -1</clus>
<clus scale="   91.730">  5  7 -1 -1</clus>
<clus scale="  103.303">  1  9  2 -1</clus>
<clus scale="  103.303">  1  5  2 -1</clus>
</clustering>
</event>
<event>
 9    2  0.1751298E-004  0.1108936E+03  0.7546771E-02  0.1265171E+00
         21   -1    0    0  501  502  0.00000000000E+00  0.00000000000E+00  0.16765704764E+03  0.16765704764E+03  0.00000000000E+00 0.  1.
         -1   -1    0    0    0  501 -0.00000000000E+00 -0.00000000000E+00 -0.14494439044E+03  0.14494439044E+03  0.00000000000E+00 0.  1.
         23    2    1    2    0    0 -0.22473070610E+02 -0.30090920835E+02 -0.27111993606E+02  0.10179700831E+03  0.90648046228E+02 0.  0.
         24    2    1    2    0    0 -0.10591622042E+02 -0.67184933922E+02  0.37999739658E+02  0.10738443972E+03  0.73901555298E+02 0.  0.
        -11    1    4    4    0    0  0.21136936455E+02 -0.56772048418E+02  0.42054488634E+02  0.73745613962E+02  0.00000000000E+00 0.  1.
         12    1    4    4    0    0 -0.31728558498E+02 -0.10412885503E+02 -0.40547489756E+01  0.33638825754E+02  0.00000000000E+00 0. -1.
        -13    1    3    3    0    0 -0.48013969585E+01 -0.57128017219E+02 -0.36740914123E+02  0.68092279553E+02  0.00000000000E+00 0.  1.
         13    1    3    3    0    0 -0.17671673651E+02  0.27037096384E+02  0.96289205169E+01  0.33704728760E+02  0.00000000000E+00 0. -1.
         -2    1    1    2    0  502  0.33064692652E+02  0.97275854757E+02  0.11824911142E+02  0.10341999005E+03  0.00000000000E+00 0.  1.
<scales pt_clust_5="13000.00000" pt_clust_6="13000.00000" pt_clust_7="13000.00000" pt_clust_8="13000.00000" pt_clust_9="82.67983"></scales>
<clustering>
<clus scale="   73.902">  5  6 -1 -1</clus>
<clus scale="   90.648">  7  8 -1 -1</clus>
<clus scale="   98.120">  2  7  1 -1</clus>
<clus scale="   82.680">  1  9  2 -1</clus>
<clus scale="   82.680">  1  5  2 -1</clus>
</clustering>
</event>
<event>
 9    2  0.1751298E-004  0.1585618E+03  0.7546771E-02  0.1190709E+00
          2   -1    0    0  502    0 -0.00000000000E+00  0.00000000000E+00  0.41607122351E+03  0.41607122351E+03  0.00000000000E+00 0. -1.
         21   -1    0    0  501  502  0.00000000000E+00 -0.00000000000E+00 -0.98224261098E+02  0.98224261098E+02  0.00000000000E+00 0.  1.
         24    2    1    2    0    0 -0.10422456828E+03 -0.90539918413E+02  0.13895428585E+03  0.21813907943E+03  0.96000661250E+02 0.  0.
         23    2    1    2    0    0  0.59765462660E+02  0.95713069960E+02  0.42740922018E+02  0.15283622574E+03  0.93804174718E+02 0.  0.
        -13    1    3    3    0    0 -0.11345068662E+03 -0.70301819442E+02  0.81144175772E+02  0.15619789171E+03  0.00000000000E+00 0.  1.
         14    1    3    3    0    0  0.92261183447E+01 -0.20238098971E+02  0.57810110076E+02  0.61941187724E+02  0.00000000000E+00 0. -1.
        -13    1    4    4    0    0  0.17836155819E+02  0.72852637869E+02 -0.16445090471E+02  0.76785912116E+02  0.00000000000E+00 0.  1.
         13    1    4    4    0    0  0.41929306841E+02  0.22860432091E+02  0.59186012489E+02  0.76050313621E+02  0.00000000000E+00 0. -1.
          1    1    1    2  501    0  0.44459105616E+02 -0.51731515473E+01  0.13615175454E+03  0.14332017944E+03  0.00000000000E+00 0. -1.
<scales pt_clust_5="13000.00000" pt_clust_6="13000.00000" pt_clust_7="13000.00000" pt_clust_8="13000.00000" pt_clust_9="44.75908"></scales>
<clustering>
<clus scale="   44.759">  2  9  1 -1</clus>
<clus scale="   93.804">  7  8 -1 -1</clus>
<clus scale="   96.001">  5  6 -1 -1</clus>
<clus scale="  157.242">  2  7  1 -1</clus>
<clus scale="   44.759">  2  5  1 -1</clus>
</clustering>
</event>
<event>
 9    2  0.1751298E-004  0.1015473E+03  0.7546771E-02  0.1279320E+00
          2   -1    0    0  502    0 -0.00000000000E+00  0.00000000000E+00  0.40468761787E+03  0.40468761787E+03  0.00000000000E+00 0. -1.
         21   -1    0    0  501  502  0.00000000000E+00 -0.00000000000E+00 -0.17042008167E+03  0.17042008167E+03  0.00000000000E+00 0. -1.
         24    2    1    2    0    0 -0.53971564022E+02 -0.23410638377E+02  0.29948188385E+03  0.31663575333E+03  0.84307851491E+02 0.  0.
         23    2    1    2    0    0  0.22353767767E+02 -0.57829009929E+02  0.45321263557E+02  0.11769663999E+03  0.89188546410E+02 0.  0.
        -13    1    3    3    0    0 -0.70777906728E+01  0.30009996468E+02  0.72511655941E+02  0.78794893591E+02  0.00000000000E+00 0.  1.
         14    1    3    3    0    0 -0.46893773350E+02 -0.53420634845E+02  0.22697022791E+03  0.23784085974E+03  0.00000000000E+00 0. -1.
        -11    1    4    4    0    0  0.36644121280E+01  0.22553906478E+02  0.22510044509E+02  0.32075048207E+02  0.00000000000E+00 0.  1.
         11    1    4    4    0    0  0.18689355639E+02 -0.80382916406E+02  0.22811219048E+02  0.85621591778E+02  0.00000000000E+00 0. -1.
          1    1    1    2  501    0  0.31617796255E+02  0.81239648305E+02 -0.11053561121E+03  0.14077530622E+03  0.00000000000E+00 0. -1.
<scales pt_clust_5="13000.00000" pt_clust_6="13000.00000" pt_clust_7="13000.00000" pt_clust_8="13000.00000" pt_clust_9="87.17549"></scales>
<clustering>
<clus scale="   84.308">  5  6 -1 -1</clus>
<clus scale="   87.175">  2  9  1 -1</clus>
<clus scale="   89.189">  7  8 -1 -1</clus>
<clus scale="   97.289">  1  5  2 -1</clus>
<clus scale="   87.175">  2  5  1 -1</clus>
</clustering>
</event>
<event>
 9    2  0.1751298E-004  0.9518707E+02  0.7546771E-02  0.1295775E+00
          2   -1    0    0  502    0 -0.00000000000E+00  0.00000000000E+00  0.23643778947E+03  0.23643778947E+03  0.00000000000E+00 0. -1.
         21   -1    0    0  501  502  0.00000000000E+00 -0.00000000000E+00 -0.11027734273E+03  0.11027734273E+03  0.00000000000E+00 0.  1.
         23    2    1    2    0    0 -0.20749176509E+02  0.21166778662E+02  0.18431864629E+03  0.20774701131E+03  0.91142177353E+02 0.  0.
         24    2    1    2    0    0  0.28678960465E+02  0.13222880175E+02 -0.54280146671E+02  0.10346362255E+03  0.82225662268E+02 0.  0.
        -13    1    4    4    0    0  0.85979020289E+01  0.47239982767E+02 -0.23931151575E+02  0.53649230254E+02  0.00000000000E+00 0.  1.
         14    1    4    4    0    0  0.20081058437E+02 -0.34017102592E+02 -0.30348995096E+02  0.49814392298E+02  0.00000000000E+00 0. -1.
        -11    1    3    3    0    0 -0.48981349072E+02 -0.12978567636E+02  0.11211009949E+03  0.12302963132E+03  0.00000000000E+00 0. -1.
         11    1    3    3    0    0  0.28232172562E+02  0.34145346298E+02  0.72208546798E+02  0.84717379988E+02  0.00000000000E+00 0.  1.
          1    1    1    2  501    0 -0.79297839561E+01 -0.34389658837E+02 -0.38780528769E+01  0.35504498344E+02  0.00000000000E+00 0. -1.
<scales pt_clust_5="13000.00000" pt_clust_6="13000.00000" pt_clust_7="13000.00000" pt_clust_8="13000.00000" pt_clust_9="35.29207"></scales>
<clustering>
<clus scale="   35.292">  2  9  1 -1</clus>
<clus scale="   82.226">  5  6 -1 -1</clus>
<clus scale="   86.688">  2  5  1 -1</clus>
<clus scale="   91.142">  7  8 -1 -1</clus>
<clus scale="   35.292">  2  5  1 -1</clus>
</clustering>
</event>
<event>
 9    2  0.1751298E-004  0.1171332E+03  0.7546771E-02  0.1260691E+00
         21   -1    0    0  501  502  0.00000000000E+00  0.00000000000E+00  0.11455470298E+03  0.11455470298E+03  0.00000000000E+00 0. -1.
          2   -1    0    0  502    0 -0.00000000000E+00 -0.00000000000E+00 -0.25880327338E+03  0.25880327338E+03  0.00000000000E+00 0. -1.
         24    2    1    2    0    0 -0.77846542865E+01 -0.40420049298E+02 -0.12234166220E+03  0.15240643393E+03  0.81029979428E+02 0.  0.
         23    2    1    2    0    0  0.12704704509E+02 -0.58283855322E+02  0.24574858220E+02  0.11173971939E+03  0.91232800711E+02 0.  0.
        -11    1    3    3    0    0  0.29020336695E+02 -0.97445242287E+01 -0.13444116717E+02  0.33434712031E+02  0.00000000000E+00 0.  1.
         12    1    3    3    0    0 -0.36804990981E+02 -0.30675525069E+02 -0.10889754549E+03  0.11897172190E+03  0.00000000000E+00 0. -1.
        -13    1    4    4    0    0  0.50426254743E+02 -0.45370302414E+02  0.70853546862E+01  0.68201713758E+02  0.00000000000E+00 0.  1.
         13    1    4    4    0    0 -0.37721550234E+02 -0.12913552908E+02  0.17489503533E+02  0.43538005634E+02  0.00000000000E+00 0. -1.
          1    1    1    2  501    0 -0.49200502224E+01  0.98703904620E+02 -0.46481766414E+02  0.10921182303E+03  0.00000000000E+00 0. -1.
<scales pt_clust_5="13000.00000" pt_clust_6="13000.00000" pt_clust_7="13000.00000" pt_clust_8="13000.00000" pt_clust_9="73.46273"></scales>
<clustering>
<clus scale="   81.030">  5  6 -1 -1</clus>
<clus scale="   90.886">  2  5  1 -1</clus>
<clus scale="   73.463">  1  9  2 -1</clus>
<clus scale="   91.233">  7  8 -1 -1</clus>
<clus scale="   73.463">  1  5  2 -1</clus>
</clustering>
</event>
<event>
 9    2  0.1751298E-004  0.2256118E+03  0.7546771E-02  0.1130385E+00
         21   -1    0    0  501  502  0.00000000000E+00  0.00000000000E+00  0.24371208583E+03  0.24371208583E+03  0.00000000000E+00 0. -1.
          2   -1    0    0  502    0 -0.00000000000E+00 -0.00000000000E+00 -0.87857289576E+03  0.87857289576E+03  0.00000000000E+00 0. -1.
         24    2    1    2    0    0  0.19807271288E+03  0.79603395409E+02 -0.77882781238E+03  0.81149438619E+03  0.79880393882E+02 0.  0.
         23    2    1    2    0    0 -0.16599682307E+03 -0.13157895487E+02  0.57927945259E+02  0.19744781209E+03  0.88892722837E+02 0.  0.
        -13    1    3    3    0    0  0.93117731898E+02  0.57560122119E+02 -0.26735883515E+03  0.28890279747E+03  0.00000000000E+00 0.  1.
         14    1    3    3    0    0  0.10495498098E+03  0.22043273290E+02 -0.51146897723E+03  0.52259158872E+03  0.00000000000E+00 0. -1.
        -11    1    4    4    0    0 -0.12099124640E+03  0.15778999942E+02  0.72581948412E+02  0.14197182037E+03  0.00000000000E+00 0. -1.
         11    1    4    4    0    0 -0.45005576675E+02 -0.28936895428E+02 -0.14654003153E+02  0.55475991719E+02  0.00000000000E+00 0.  1.
          1    1    1    2  501    0 -0.32075889809E+02 -0.66445499922E+02  0.86039057193E+02  0.11334278332E+03  0.00000000000E+00 0. -1.
<scales pt_clust_5="13000.00000" pt_clust_6="13000.00000" pt_clust_7="13000.00000" pt_clust_8="13000.00000" pt_clust_9="73.78257"></scales>
<clustering>
<clus scale="   73.783">  1  9  2 -1</clus>
<clus scale="   79.880">  5  6 -1 -1</clus>
<clus scale="   88.893">  7  8 -1 -1</clus>
<clus scale="  222.215">  2  5  1 -1</clus>
<clus scale="   73.783">  1  5  2 -1</clus>
</clustering>
</event>
<event>
 9    2  0.1751298E-004  0.1148647E+03  0.7546771E-02  0.1255703E+00
         -1   -1    0    0    0  501 -0.00000000000E+00  0.00000000000E+00  0.26154327198E+03  0.26154327198E+03  0.00000000000E+00 0.  1.
         21   -1    0    0  501  502  0.00000000000E+00 -0.00000000000E+00 -0.73307007681E+02  0.73307007681E+02  0.00000000000E+00 0. -1.
         24    2    1    2    0    0 -0.75367108507E+02  0.99649662326E+00  0.14894787807E+03  0.18556224169E+03  0.81035060984E+02 0.  0.
         23    2    1    2    0    0  0.51575917839E+02  0.22049834190E+02  0.16199580687E+02  0.10891171993E+03  0.91940555987E+02 0.  0.
        -13    1    3    3    0    0 -0.78000635706E+02 -0.23447328912E+02  0.13393363736E+03  0.15675489026E+03  0.00000000000E+00 0.  1.
         14    1    3    3    0    0  0.26335271991E+01  0.24443825535E+02  0.15014240710E+02  0.28807351430E+02  0.00000000000E+00 0. -1.
        -11    1    4    4    0    0 -0.13623886262E+02  0.37406723525E+02 -0.74644340006E+00  0.39817463750E+02  0.00000000000E+00 0. -1.
         11    1    4    4    0    0  0.65199804101E+02 -0.15356889335E+02  0.16946024087E+02  0.69094256181E+02  0.00000000000E+00 0.  1.
         -2    1    1    2    0  502  0.23791190668E+02 -0.23046330813E+02  0.23088805542E+02  0.40376318043E+02  0.00000000000E+00 0.  1.
<scales pt_clust_5="13000.00000" pt_clust_6="13000.00000" pt_clust_7="13000.00000" pt_clust_8="13000.00000" pt_clust_9="33.12333"></scales>
<clustering>
<clus scale="   33.123">  2  9  1 -1</clus>
<clus scale="   81.035">  5  6 -1 -1</clus>
<clus scale="   91.941">  7  8 -1 -1</clus>
<clus scale="  106.337">  1  5  2 -1</clus>
<clus scale="   33.123">  2  5  1 -1</clus>
</clustering>
</event>
<event>
 9    2  0.1751298E-004  0.1222181E+03  0.7546771E-02  0.1243791E+00
         21   -1    0    0  501  502  0.00000000000E+00  0.00000000000E+00  0.60305900432E+03  0.60305900432E+03  0.00000000000E+00 0.  1.
          2   -1    0    0  502    0 -0.00000000000E+00 -0.00000000000E+00 -0.21128042872E+03  0.21128042872E+03  0.00000000000E+00 0. -1.
         24    2    1    2    0    0  0.53701086955E+02 -0.55093687272E+02 -0.17035365033E+03  0.20291476863E+03  0.78961484474E+02 0.  0.
         23    2    1    2    0    0 -0.63503336571E+02  0.10387199088E+03  0.23472632202E+03  0.28026000308E+03  0.92882500144E+02 0.  0.
        -11    1    3    3    0    0  0.18796590498E+02  0.13808868277E+02 -0.10913252071E+02  0.25750645200E+02  0.00000000000E+00 0.  1.
         12    1    3    3    0    0  0.34904496457E+02 -0.68902555549E+02 -0.15944039825E+03  0.17716412343E+03  0.00000000000E+00 0. -1.
        -11    1    4    4    0    0 -0.55356957525E+02  0.33658512851E+02  0.48081890711E+02  0.80679343379E+02  0.00000000000E+00 0. -1.
         11    1    4    4    0    0 -0.81463790464E+01  0.70213478033E+02  0.18664443131E+03  0.19958065970E+03  0.00000000000E+00 0.  1.
          1    1    1    2  501    0  0.98022496164E+01 -0.48778303612E+02  0.32740590391E+03  0.33116466134E+03  0.00000000000E+00 0. -1.
<scales pt_clust_5="13000.00000" pt_clust_6="13000.00000" pt_clust_7="13000.00000" pt_clust_8="13000.00000" pt_clust_9="49.75346"></scales>
<clustering>
<clus scale="   49.753">  1  9  2 -1</clus>
<clus scale="   78.961">  5  6 -1 -1</clus>
<clus scale="   92.883">  7  8 -1 -1</clus>
<clus scale="  112.005">  2  5  1 -1</clus>
<clus scale="   49.753">  1  5  2 -1</clus>
</clustering>
</event>
<event>
 9    2  0.1751298E-004  0.1217520E+03  0.7546771E-02  0.1242992E+00
         21   -1    0    0  501  502  0.00000000000E+00  0.00000000000E+00  0.60077230399E+02  0.60077230399E+02  0.00000000000E+00 0. -1.
          2   -1    0    0  502    0 -0.00000000000E+00 -0.00000000000E+00 -0.33173197755E+03  0.33173197755E+03  0.00000000000E+00 0. -1.
         23    2    1    2    0    0 -0.15976293011E+02  0.98072089464E+02 -0.13436531179E+03  0.19003826682E+03  0.90482756217E+02 0.  0.
         24    2    1    2    0    0  0.19843011716E-01 -0.64375475157E+02 -0.71011593687E+02  0.12572607011E+03  0.81364587326E+02 0.  0.
        -11    1    4    4    0    0  0.20872593740E+01 -0.77562156006E+02 -0.31012186642E+02  0.83558365328E+02  0.00000000000E+00 0.  1.
         12    1    4    4    0    0 -0.20674163623E+01  0.13186680849E+02 -0.39999407045E+02  0.42167704777E+02  0.00000000000E+00 0. -1.
        -13    1    3    3    0    0 -0.36544960190E+02  0.36654376651E+02 -0.10865135253E+03  0.12035029643E+03  0.00000000000E+00 0.  1.
         13    1    3    3    0    0  0.20568667179E+02  0.61417712813E+02 -0.25713959260E+02  0.69687970393E+02  0.00000000000E+00 0. -1.
          1    1    1    2  501    0  0.15956449999E+02 -0.33696614307E+02 -0.66277841670E+02  0.76044871022E+02  0.00000000000E+00 0. -1.
<scales pt_clust_5="13000.00000" pt_clust_6="13000.00000" pt_clust_7="13000.00000" pt_clust_8="13000.00000" pt_clust_9="37.28366"></scales>
<clustering>
<clus scale="   37.284">  1  9  2 -1</clus>
<clus scale="   81.365">  5  6 -1 -1</clus>
<clus scale="   90.483">  7  8 -1 -1</clus>
<clus scale="  115.137">  1  5  2 -1</clus>
<clus scale="   37.284">  1  5  2 -1</clus>
</clustering>
</event>
<event>
 9    2  0.1751298E-004  0.1050319E+03  0.7546771E-02  0.1274569E+00
          2   -1    0    0  502    0 -0.00000000000E+00  0.00000000000E+00  0.35126724578E+03  0.35126724578E+03  0.00000000000E+00 0. -1.
         21   -1    0    0  501  502  0.00000000000E+00 -0.00000000000E+00 -0.80734720414E+02  0.80734720414E+02  0.00000000000E+00 0.  1.
         23    2    1    2    0    0 -0.57795218847E+01  0.42943073190E+02  0.10080801586E+03  0.14323134006E+03  0.92062208891E+02 0.  0.
         24    2    1    2    0    0  0.61298615943E+02 -0.53411846101E+02  0.60210742867E+01  0.11559216409E+03  0.81944795098E+02 0.  0.
        -11    1    4    4    0    0  0.21349370119E+02  0.50727169246E+00 -0.31994068571E+02  0.38466522494E+02  0.00000000000E+00 0.  1.
         12    1    4    4    0    0  0.39949245824E+02 -0.53919117794E+02  0.38015142858E+02  0.77125641599E+02  0.00000000000E+00 0. -1.
        -11    1    3    3    0    0 -0.33342835700E+02  0.59910847743E+02  0.76660589975E+02  0.10284892039E+03  0.00000000000E+00 0.  1.
         11    1    3    3    0    0  0.27563313815E+02 -0.16967774553E+02  0.24147425883E+02  0.40382419671E+02  0.00000000000E+00 0. -1.
          1    1    1    2  501    0 -0.55519094059E+02  0.10468772911E+02  0.16370343522E+03  0.17317846204E+03  0.00000000000E+00 0. -1.
<scales pt_clust_5="13000.00000" pt_clust_6="13000.00000" pt_clust_7="13000.00000" pt_clust_8="13000.00000" pt_clust_9="56.49751"></scales>
<clustering>
<clus scale="   56.498">  2  9  1 -1</clus>
<clus scale="   81.945">  5  6 -1 -1</clus>
<clus scale="   92.062">  7  8 -1 -1</clus>
<clus scale="   96.287">  2  5  1 -1</clus>
<clus scale="   56.498">  2  5  1 -1</clus>
</clustering>
</event>
<event>
 9    2  0.1751298E-004  0.1053641E+03  0.7546771E-02  0.1270635E+00
          2   -1    0    0  502    0 -0.00000000000E+00  0.00000000000E+00  0.37956000386E+03  0.37956000386E+03  0.00000000000E+00 0. -1.
         21   -1    0    0  501  502  0.00000000000E+00 -0.00000000000E+00 -0.13153407495E+03  0.13153407495E+03  0.00000000000E+00 0. -1.
         24    2    1    2    0    0 -0.70984624299E+02 -0.74985091447E+01  0.26503281009E+03  0.28621770148E+03  0.81136537329E+02 0.  0.
         23    2    1    2    0    0  0.49146349712E+02 -0.73935525524E+02  0.38163248990E+02  0.12411847191E+03  0.77891821597E+02 0.  0.
        -13    1    3    3    0    0 -0.11656270150E+02  0.25519391542E+02  0.27941598117E+02  0.39595970550E+02  0.00000000000E+00 0.  1.
         14    1    3    3    0    0 -0.59328354150E+02 -0.33017900686E+02  0.23709121198E+03  0.24662173093E+03  0.00000000000E+00 0. -1.
        -11    1    4    4    0    0 -0.10420830452E+02 -0.46178231351E+02 -0.14938464446E+01  0.47363005978E+02  0.00000000000E+00 0. -1.
         11    1    4    4    0    0  0.59567180164E+02 -0.27757294173E+02  0.39657095435E+02  0.76755465935E+02  0.00000000000E+00 0.  1.
          1    1    1    2  501    0  0.21838274587E+02  0.81434034668E+02 -0.55170130176E+02  0.10075790541E+03  0.00000000000E+00 0. -1.
<scales pt_clust_5="13000.00000" pt_clust_6="13000.00000" pt_clust_7="13000.00000" pt_clust_8="13000.00000" pt_clust_9="84.31140"></scales>
<clustering>
<clus scale="   77.892">  7  8 -1 -1</clus>
<clus scale="   81.137">  5  6 -1 -1</clus>
<clus scale="   84.311">  2  9  1 -1</clus>
<clus scale="  102.886">  2  7  1 -1</clus>
<clus scale="   84.311">  2  5  1 -1</clus>
</clustering>
</event>
<event>
 9    2  0.1751298E-004  0.9854402E+02  0.7546771E-02  0.1290302E+00
          2   -1    0    0  502    0 -0.00000000000E+00  0.00000000000E+00  0.10146508144E+03  0.10146508144E+03  0.00000000000E+00 0. -1.
         21   -1    0    0  501  502  0.00000000000E+00 -0.00000000000E+00 -0.16809831493E+03  0.16809831493E+03  0.00000000000E+00 0.  1.
         24    2    1    2    0    0 -0.10307503667E+02 -0.37471382279E+02  0.13326894430E+02  0.92308935351E+02  0.82661867319E+02 0.  0.
         23    2    1    2    0    0  0.28325238697E+02 -0.17063584261E+02 -0.51481231591E+02  0.11314713783E+03  0.95176008201E+02 0.  0.
        -13    1    3    3    0    0 -0.26945172080E+02  0.18192953583E+02  0.10411168129E+02  0.34138223157E+02  0.00000000000E+00 0.  1.
         14    1    3    3    0    0  0.16637668413E+02 -0.55664335862E+02  0.29157263018E+01  0.58170712193E+02  0.00000000000E+00 0. -1.
        -13    1    4    4    0    0 -0.13123047957E+02  0.18136168741E+02 -0.54261544682E+02  0.58697957678E+02  0.00000000000E+00 0.  1.
         13    1    4    4    0    0  0.41448286653E+02 -0.35199753002E+02  0.27803130908E+01  0.54449180148E+02  0.00000000000E+00 0. -1.
          1    1    1    2  501    0 -0.18017735029E+02  0.54534966540E+02 -0.28478896323E+02  0.64107323192E+02  0.00000000000E+00 0. -1.
<scales pt_clust_5="13000.00000" pt_clust_6="13000.00000" pt_clust_7="13000.00000" pt_clust_8="13000.00000" pt_clust_9="57.43432"></scales>
<clustering>
<clus scale="   57.434">  2  9  1 -1</clus>
<clus scale="   82.662">  5  6 -1 -1</clus>
<clus scale="   86.518">  1  5  2 -1</clus>
<clus scale="   95.176">  7  8 -1 -1</clus>
<clus scale="   57.434">  2  5  1 -1</clus>
</clustering>
</event>
<event>
 9    2  0.1751298E-004  0.1652692E+03  0.7546771E-02  0.1202240E+00
         21   -1    0    0  501  502  0.00000000000E+00  0.00000000000E+00  0.55145415237E+02  0.55145415237E+02  0.00000000000E+00 0. -1.
          2   -1    0    0  502    0 -0.00000000000E+00 -0.00000000000E+00 -0.12644418641E+04  0.12644418641E+04  0.00000000000E+00 0. -1.
         24    2    1    2    0    0  0.70857828752E+02  0.12176411324E+02 -0.75644153242E+03  0.76410332381E+03  0.80504661988E+02 0.  0.
         23    2    1    2    0    0 -0.99200398477E+02  0.11800626849E+03 -0.31997361539E+03  0.36731309819E+03  0.93646137620E+02 0.  0.
        -13    1    3    3    0    0  0.21098762176E+02 -0.26937084768E+02 -0.12840564272E+03  0.13288631752E+03  0.00000000000E+00 0.  1.
         14    1    3    3    0    0  0.49759066575E+02  0.39113496092E+02 -0.62803588970E+03  0.63121700629E+03  0.00000000000E+00 0. -1.
        -13    1    4    4    0    0 -0.20339472585E+02  0.48892810102E+02 -0.20488418770E+03  0.21161694496E+03  0.00000000000E+00 0.  1.
         13    1    4    4    0    0 -0.78860925893E+02  0.69113458387E+02 -0.11508942769E+03  0.15569615323E+03  0.00000000000E+00 0. -1.
          1    1    1    2  501    0  0.28342569726E+02 -0.13018267981E+03 -0.13288130104E+03  0.18817085733E+03  0.00000000000E+00 0. -1.
<scales pt_clust_5="13000.00000" pt_clust_6="13000.00000" pt_clust_7="13000.00000" pt_clust_8="13000.00000" pt_clust_9="136.17748"></scales>
<clustering>
<clus scale="   80.505">  5  6 -1 -1</clus>
<clus scale="   93.646">  7  8 -1 -1</clus>
<clus scale="  107.936">  2  5  1 -1</clus>
<clus scale="  136.177">  1  9  2 -1</clus>
<clus scale="  136.177">  1  5  2 -1</clus>
</clustering>
</event>
<event>
 9    2  0.1751298E-004  0.1125683E+03  0.7546771E-02  0.1259895E+00
         21   -1    0    0  501  502  0.00000000000E+00  0.00000000000E+00  0.16955135853E+03  0.16955135853E+03  0.00000000000E+00 0.  1.
          2   -1    0    0  502    0 -0.00000000000E+00 -0.00000000000E+00 -0.60668745270E+03  0.60668745270E+03  0.00000000000E+00 0. -1.
         24    2    1    2    0    0 -0.43625615710E+02 -0.46488771494E+02 -0.52012574968E+03  0.53027708652E+03  0.81231722790E+02 0.  0.
         23    2    1    2    0    0  0.27762836774E+02  0.77730256555E+02 -0.30439349518E+02  0.12724442469E+03  0.91933789908E+02 0.  0.
        -13    1    3    3    0    0  0.17805381321E+02 -0.29756583568E+02 -0.11294093479E+03  0.11814457508E+03  0.00000000000E+00 0.  1.
         14    1    3    3    0    0 -0.61430997031E+02 -0.16732187925E+02 -0.40718481489E+03  0.41213251144E+03  0.00000000000E+00 0. -1.
        -11    1    4    4    0    0  0.13847202784E+02  0.97930819192E+02 -0.26567083217E+02  0.10241093830E+03  0.00000000000E+00 0.  1.
         11    1    4    4    0    0  0.13915633990E+02 -0.20200562638E+02 -0.38722663010E+01  0.24833486395E+02  0.00000000000E+00 0. -1.
          1    1    1    2  501    0  0.15862778936E+02 -0.31241485061E+02  0.11342900503E+03  0.11871730003E+03  0.00000000000E+00 0. -1.
<scales pt_clust_5="13000.00000" pt_clust_6="13000.00000" pt_clust_7="13000.00000" pt_clust_8="13000.00000" pt_clust_9="35.03795"></scales>
<clustering>
<clus scale="   35.038">  1  9  2 -1</clus>
<clus scale="   81.232">  5  6 -1 -1</clus>
<clus scale="   91.934">  7  8 -1 -1</clus>
<clus scale="  104.011">  2  5  1 -1</clus>
<clus scale="   35.038">  1  5  2 -1</clus>
</clustering>
</event>
<event>
 9    2  0.1751298E-004  0.1008582E+03  0.7546771E-02  0.1283141E+00
          4   -1    0    0  502    0 -0.00000000000E+00  0.00000000000E+00  0.23103785534E+03  0.23103785534E+03  0.00000000000E+00 0. -1.
         21   -1    0    0  501  502  0.00000000000E+00 -0.00000000000E+00 -0.83542269863E+02  0.83542269863E+02  0.00000000000E+00 0. -1.
         23    2    1    2    0    0 -0.28927760327E+02 -0.30376603571E+02  0.14747480866E+03  0.17749869560E+03  0.89428263912E+02 0.  0.
         24    2    1    2    0    0  0.61087062935E+02  0.24351386978E+02  0.72101085273E+01  0.10358201962E+03  0.79703386485E+02 0.  0.
        -13    1    4    4    0    0  0.48387722020E+02  0.48113163536E+02  0.23414292778E+02  0.72142063001E+02  0.00000000000E+00 0.  1.
         14    1    4    4    0    0  0.12699340915E+02 -0.23761776557E+02 -0.16204184251E+02  0.31439956617E+02  0.00000000000E+00 0. -1.
        -11    1    3    3    0    0 -0.52306190892E+02 -0.43397414471E+02  0.80369704223E+02  0.10525475070E+03  0.00000000000E+00 0.  1.
         11    1    3    3    0    0  0.23378430565E+02  0.13020810900E+02  0.67105104439E+02  0.72243944894E+02  0.00000000000E+00 0. -1.
          3    1    1    2  501    0 -0.32159302608E+02  0.60252165928E+01 -0.71893317120E+01  0.33499409990E+02  0.00000000000E+00 0. -1.
<scales pt_clust_5="13000.00000" pt_clust_6="13000.00000" pt_clust_7="13000.00000" pt_clust_8="13000.00000" pt_clust_9="32.71886"></scales>
<clustering>
<clus scale="   32.719">  2  9  1 -1</clus>
<clus scale="   79.703">  5  6 -1 -1</clus>
<clus scale="   89.428">  7  8 -1 -1</clus>
<clus scale="   92.345">  2  5  1 -1</clus>
<clus scale="   32.719">  2  5  1 -1</clus>
</clustering>
</event>
<event>
 9    2  0.1751298E-004  0.1146983E+03  0.7546771E-02  0.1256360E+00
         21   -1    0    0  501  502  0.00000000000E+00  0.00000000000E+00  0.33023446158E+02  0.33023446158E+02  0.00000000000E+00 0.  1.
          2   -1    0    0  502    0 -0.00000000000E+00 -0.00000000000E+00 -0.63413681366E+03  0.63413681366E+03  0.00000000000E+00 0. -1.
         23    2    1    2    0    0 -0.78412860361E+02  0.27972539511E+01 -0.36502900747E+03  0.38432224828E+03  0.91109894769E+02 0.  0.
         24    2    1    2    0    0  0.48608625294E+02 -0.21593338057E+02 -0.85071987266E+02  0.12776924636E+03  0.79111734892E+02 0.  0.
        -11    1    4    4    0    0  0.81036331925E+01  0.28409938877E+02 -0.37523250091E+02  0.47757594112E+02  0.00000000000E+00 0.  1.
         12    1    4    4    0    0  0.40504992101E+02 -0.50003276933E+02 -0.47548737174E+02  0.80011652252E+02  0.00000000000E+00 0. -1.
        -11    1    3    3    0    0 -0.12308093712E+02  0.40988152398E+02 -0.10716589309E+03  0.11539517516E+03  0.00000000000E+00 0. -1.
         11    1    3    3    0    0 -0.66104766649E+02 -0.38190898447E+02 -0.25786311438E+03  0.26892707312E+03  0.00000000000E+00 0.  1.
          1    1    1    2  501    0  0.29804235067E+02  0.18796084106E+02 -0.15101237276E+03  0.15506876518E+03  0.00000000000E+00 0. -1.
<scales pt_clust_5="13000.00000" pt_clust_6="13000.00000" pt_clust_7="13000.00000" pt_clust_8="13000.00000" pt_clust_9="35.23615"></scales>
<clustering>
<clus scale="   35.236">  1  9  2 -1</clus>
<clus scale="   79.112">  5  6 -1 -1</clus>
<clus scale="   91.110">  7  8 -1 -1</clus>
<clus scale="  105.420">  1  5  2 -1</clus>
<clus scale="   35.236">  1  5  2 -1</clus>
</clustering>
</event>
<event>
 9    2  0.1751298E-004  0.9430650E+02  0.7546771E-02  0.1295303E+00
         21   -1    0    0  501  502  0.00000000000E+00  0.00000000000E+00  0.11686301049E+03  0.11686301049E+03  0.00000000000E+00 0.  1.
          2   -1    0    0  502    0 -0.00000000000E+00 -0.00000000000E+00 -0.13485416325E+03  0.13485416325E+03  0.00000000000E+00 0. -1.
         23    2    1    2    0    0  0.18755061502E+02  0.18259245230E+02 -0.70450525458E+02  0.11895596312E+03  0.92206790723E+02 0.  0.
         24    2    1    2    0    0 -0.16388710421E+01 -0.70677376169E+01  0.13893024837E+02  0.89108295412E+02  0.87719059267E+02 0.  0.
        -11    1    4    4    0    0 -0.47577667763E+01  0.22618403609E+02 -0.28854586623E+02  0.36970470591E+02  0.00000000000E+00 0.  1.
         12    1    4    4    0    0  0.31188957342E+01 -0.29686141226E+02  0.42747611460E+02  0.52137824821E+02  0.00000000000E+00 0. -1.
        -13    1    3    3    0    0  0.45550769491E+02 -0.15933382043E+02 -0.54212088790E+02  0.72578893871E+02  0.00000000000E+00 0. -1.
         13    1    3    3    0    0 -0.26795707989E+02  0.34192627273E+02 -0.16238436668E+02  0.46377069246E+02  0.00000000000E+00 0.  1.
          1    1    1    2  501    0 -0.17116190460E+02 -0.11191507613E+02  0.38566347869E+02  0.43652915212E+02  0.00000000000E+00 0. -1.
<scales pt_clust_5="13000.00000" pt_clust_6="13000.00000" pt_clust_7="13000.00000" pt_clust_8="13000.00000" pt_clust_9="20.45028"></scales>
<clustering>
<clus scale="   20.450">  1  9  2 -1</clus>
<clus scale="   87.719">  5  6 -1 -1</clus>
<clus scale="   89.924">  1  5  2 -1</clus>
<clus scale="   92.207">  7  8 -1 -1</clus>
<clus scale="   20.450">  1  5  2 -1</clus>
</clustering>
</event>
<event>
 9    2  0.1751298E-004  0.2053365E+03  0.7546771E-02  0.1170196E+00
         21   -1    0    0  501  502  0.00000000000E+00  0.00000000000E+00  0.91553700237E+02  0.91553700237E+02  0.00000000000E+00 0. -1.
          2   -1    0    0  502    0 -0.00000000000E+00 -0.00000000000E+00 -0.96831562981E+03  0.96831562981E+03  0.00000000000E+00 0. -1.
         24    2    1    2    0    0  0.78350914110E+02 -0.25630005529E+02 -0.49719355269E+03  0.51027113968E+03  0.79871423098E+02 0.  0.
         23    2    1    2    0    0  0.61833407047E+02  0.16544447966E+03 -0.19790330742E+03  0.28089402490E+03  0.92414761056E+02 0.  0.
        -13    1    3    3    0    0  0.82605964504E+01 -0.33628263026E+02 -0.80258466453E+02  0.87410062151E+02  0.00000000000E+00 0.  1.
         14    1    3    3    0    0  0.70090317659E+02  0.79982574970E+01 -0.41693508624E+03  0.42286107753E+03  0.00000000000E+00 0. -1.
        -11    1    4    4    0    0  0.36935961244E+02  0.16905689985E+03 -0.16190809447E+03  0.23697833588E+03  0.00000000000E+00 0. -1.
         11    1    4    4    0    0  0.24897445803E+02 -0.36124201924E+01 -0.35995212948E+02  0.43915689023E+02  0.00000000000E+00 0.  1.
          1    1    1    2  501    0 -0.14018432116E+03 -0.13981447413E+03 -0.18166506946E+03  0.26870416546E+03  0.00000000000E+00 0. -1.
<scales pt_clust_5="13000.00000" pt_clust_6="13000.00000" pt_clust_7="13000.00000" pt_clust_8="13000.00000" pt_clust_9="183.36472"></scales>
<clustering>
<clus scale="   79.871">  5  6 -1 -1</clus>
<clus scale="   92.415">  7  8 -1 -1</clus>
<clus scale="  114.783">  2  5  1 -1</clus>
<clus scale="  183.365">  1  9  2 -1</clus>
<clus scale="  183.365">  1  5  2 -1</clus>
</clustering>
</event>
<event>
 9    2  0.1751298E-004  0.2527925E+03  0.7546771E-02  0.1111994E+00
         21   -1    0    0  501  502  0.00000000000E+00  0.00000000000E+00  0.31778104233E+02  0.31778104233E+02  0.00000000000E+00 0.  1.
          2   -1    0    0  502    0 -0.00000000000E+00 -0.00000000000E+00 -0.28066239615E+04  0.28066239615E+04  0.00000000000E+00 0. -1.
         24    2    1    2    0    0 -0.17718473966E+03  0.14228515006E+03 -0.16184816600E+04  0.16364932258E+04  0.83592454659E+02 0.  0.
         23    2    1    2    0    0  0.16760749415E+03 -0.19460597994E+03 -0.91610899838E+03  0.95583618101E+03  0.91669779630E+02 0.  0.
        -13    1    3    3    0    0 -0.50779095786E+02  0.64241600235E+02 -0.35574420013E+03  0.36504716913E+03  0.00000000000E+00 0.  1.
         14    1    3    3    0    0 -0.12640564387E+03  0.78043549828E+02 -0.12627374599E+04  0.12714460567E+04  0.00000000000E+00 0. -1.
        -11    1    4    4    0    0  0.24845317441E+02  0.68456461377E+01 -0.82960084427E+02  0.86870756172E+02  0.00000000000E+00 0. -1.
         11    1    4    4    0    0  0.14276217670E+03 -0.20145162608E+03 -0.83314891396E+03  0.86896542484E+03  0.00000000000E+00 0.  1.
          1    1    1    2  501    0  0.95772455152E+01  0.52320829875E+02 -0.24025519888E+03  0.24607265890E+03  0.00000000000E+00 0. -1.
<scales pt_clust_5="13000.00000" pt_clust_6="13000.00000" pt_clust_7="13000.00000" pt_clust_8="13000.00000" pt_clust_9="53.19016"></scales>
<clustering>
<clus scale="   53.190">  1  9  2 -1</clus>
<clus scale="   83.592">  5  6 -1 -1</clus>
<clus scale="   91.670">  7  8 -1 -1</clus>
<clus scale="  249.977">  2  5  1 -1</clus>
<clus scale="   53.190">  1  5  2 -1</clus>
</clustering>
</event>
<event>
 9    2  0.1751298E-004  0.9725344E+02  0.7546771E-02  0.1292254E+00
         -3   -1    0    0    0  501 -0.00000000000E+00  0.00000000000E+00  0.94722619527E+02  0.94722619527E+02  0.00000000000E+00 0.  1.
         21   -1    0    0  501  502  0.00000000000E+00 -0.00000000000E+00 -0.13842966764E+03  0.13842966764E+03  0.00000000000E+00 0. -1.
         23    2    1    2    0    0  0.45207015250E+02 -0.83541530047E+01  0.59748838912E+01  0.10302131027E+03  0.92001222997E+02 0.  0.
         24    2    1    2    0    0 -0.85502158107E+01  0.12546005097E+02 -0.42298771248E+02  0.92503810751E+02  0.80853327205E+02 0.  0.
        -13    1    4    4    0    0 -0.34901672652E+02  0.10055227773E+02  0.65856055515E+01  0.36913473962E+02  0.00000000000E+00 0.  1.
         14    1    4    4    0    0  0.26351456841E+02  0.24907773243E+01 -0.48884376799E+02  0.55590336790E+02  0.00000000000E+00 0. -1.
        -13    1    3    3    0    0  0.10226925556E+02 -0.18685909420E+02 -0.39408766380E+02  0.44797366940E+02  0.00000000000E+00 0.  1.
         13    1    3    3    0    0  0.34980089694E+02  0.10331756415E+02  0.45383650271E+02  0.58223943335E+02  0.00000000000E+00 0. -1.
         -4    1    1    2    0  502 -0.36656799440E+02 -0.41918520924E+01 -0.73831607590E+01  0.37627166142E+02  0.00000000000E+00 0.  1.
<scales pt_clust_5="13000.00000" pt_clust_6="13000.00000" pt_clust_7="13000.00000" pt_clust_8="13000.00000" pt_clust_9="36.89570"></scales>
<clustering>
<clus scale="   36.896">  2  9  1 -1</clus>
<clus scale="   80.853">  5  6 -1 -1</clus>
<clus scale="   86.783">  2  5  1 -1</clus>
<clus scale="   92.001">  7  8 -1 -1</clus>
<clus scale="   36.896">  2  5  1 -1</clus>
</clustering>
</event>
<event>
 9    2  0.1751298E-004  0.1246003E+03  0.7546771E-02  0.1242670E+00
          2   -1    0    0  502    0 -0.00000000000E+00  0.00000000000E+00  0.11383800355E+04  0.11383800355E+04  0.00000000000E+00 0. -1.
         21   -1    0    0  501  502  0.00000000000E+00 -0.00000000000E+00 -0.54673163251E+02  0.54673163251E+02  0.00000000000E+00 0.  1.
         24    2    1    2    0    0  0.48077242527E+02 -0.55864238096E+02  0.15762588008E+03  0.19114482377E+03  0.79108730465E+02 0.  0.
         23    2    1    2    0    0 -0.27793454282E+02 -0.75680562735E+02  0.80201890340E+02  0.14562166972E+03  0.90957703368E+02 0.  0.
        -13    1    3    3    0    0  0.61824461694E+02 -0.21715846999E+02  0.68894364261E+02  0.95080363385E+02  0.00000000000E+00 0.  1.
         14    1    3    3    0    0 -0.13747219167E+02 -0.34148391096E+02  0.88731515817E+02  0.96064460382E+02  0.00000000000E+00 0. -1.
        -13    1    4    4    0    0 -0.84434502619E+01 -0.57124020231E+02 -0.33817336780E+01  0.57843596554E+02  0.00000000000E+00 0.  1.
         13    1    4    4    0    0 -0.19350004020E+02 -0.18556542505E+02  0.83583624018E+02  0.87778073169E+02  0.00000000000E+00 0. -1.
          1    1    1    2  501    0 -0.20283788245E+02  0.13154480083E+03  0.84587910186E+03  0.85628670529E+03  0.00000000000E+00 0. -1.
<scales pt_clust_5="13000.00000" pt_clust_6="13000.00000" pt_clust_7="13000.00000" pt_clust_8="13000.00000" pt_clust_9="85.15832"></scales>
<clustering>
<clus scale="   79.109">  5  6 -1 -1</clus>
<clus scale="   90.958">  7  8 -1 -1</clus>
<clus scale="  108.122">  1  5  2 -1</clus>
<clus scale="   85.158">  2  9  1 -1</clus>
<clus scale="   85.158">  2  5  1 -1</clus>
</clustering>
</event>
<event>
 9    2  0.1751298E-004  0.1994262E+03  0.7546771E-02  0.1151424E+00
          2   -1    0    0  502    0 -0.00000000000E+00  0.00000000000E+00  0.57557971625E+03  0.57557971625E+03  0.00000000000E+00 0. -1.
         21   -1    0    0  501  502  0.00000000000E+00 -0.00000000000E+00 -0.74883762411E+03  0.74883762411E+03  0.00000000000E+00 0. -1.
         23    2    1    2    0    0 -0.15342873767E+03 -0.93103662487E+02  0.53270788423E+03  0.56976831969E+03  0.93003111176E+02 0.  0.
         24    2    1    2    0    0  0.13791419357E+03  0.98197743480E+01 -0.30020264811E+03  0.34013649237E+03  0.80339596398E+02 0.  0.
        -11    1    4    4    0    0  0.13290335846E+03  0.12456836442E+02 -0.30486091993E+03  0.33280423069E+03  0.00000000000E+00 0.  1.
         12    1    4    4    0    0  0.50108351088E+01 -0.26370620942E+01  0.46582718174E+01  0.73322616770E+01  0.00000000000E+00 0. -1.
        -13    1    3    3    0    0 -0.11629945153E+03 -0.38032438590E+02  0.23734077271E+03  0.26702560027E+03  0.00000000000E+00 0.  1.
         13    1    3    3    0    0 -0.37129286142E+02 -0.55071223897E+02  0.29536711153E+03  0.30274271942E+03  0.00000000000E+00 0. -1.
          1    1    1    2  501    0  0.15514544096E+02  0.83283888139E+02 -0.40576314398E+03  0.41451252830E+03  0.00000000000E+00 0. -1.
<scales pt_clust_5="13000.00000" pt_clust_6="13000.00000" pt_clust_7="13000.00000" pt_clust_8="13000.00000" pt_clust_9="84.71663"></scales>
<clustering>
<clus scale="   80.340">  5  6 -1 -1</clus>
<clus scale="   84.717">  2  9  1 -1</clus>
<clus scale="   93.003">  7  8 -1 -1</clus>
<clus scale="  193.845">  2  5  1 -1</clus>
<clus scale="   84.717">  2  5  1 -1</clus>
</clustering>
</event>
<event>
 9    2  0.1751298E-004  0.9262576E+02  0.7546771E-02  0.1305834E+00
         21   -1    0    0  501  502  0.00000000000E+00  0.00000000000E+00  0.49023022763E+02  0.49023022763E+02  0.00000000000E+00 0.  1.
          2   -1    0    0  502    0 -0.00000000000E+00 -0.00000000000E+00 -0.38440473371E+03  0.38440473371E+03  0.00000000000E+00 0. -1.
         23    2    1    2    0    0  0.24924571565E+02 -0.10109066453E+02 -0.27600869993E+03  0.29165302878E+03  0.90317546837E+02 0.  0.
         24    2    1    2    0    0  0.86832618673E+00 -0.20758035100E+02 -0.11223701804E+02  0.79033931473E+02  0.75423741821E+02 0.  0.
        -11    1    4    4    0    0  0.35966075008E+02 -0.78244289597E+01  0.69338744058E+01  0.37454757432E+02  0.00000000000E+00 0.  1.
         12    1    4    4    0    0 -0.35097748821E+02 -0.12933606140E+02 -0.18157576209E+02  0.41579174041E+02  0.00000000000E+00 0. -1.
        -11    1    3    3    0    0  0.40159699473E+02 -0.28317486250E+02 -0.25579476741E+03  0.26047196494E+03  0.00000000000E+00 0. -1.
         11    1    3    3    0    0 -0.15235127909E+02  0.18208419797E+02 -0.20213932528E+02  0.31181063839E+02  0.00000000000E+00 0.  1.
          1    1    1    2  501    0 -0.25792897751E+02  0.30867101553E+02 -0.48149309208E+02  0.62740796217E+02  0.00000000000E+00 0. -1.
<scales pt_clust_5="13000.00000" pt_clust_6="13000.00000" pt_clust_7="13000.00000" pt_clust_8="13000.00000" pt_clust_9="40.22501"></scales>
<clustering>
<clus scale="   40.225">  1  9  2 -1</clus>
<clus scale="   75.424">  5  6 -1 -1</clus>
<clus scale="   78.173">  1  5  2 -1</clus>
<clus scale="   90.318">  7  8 -1 -1</clus>
<clus scale="   40.225">  1  5  2 -1</clus>
</clustering>
</event>
<event>
 9    2  0.1751298E-004  0.1191632E+03  0.7546771E-02  0.1260206E+00
         21   -1    0    0  501  502  0.00000000000E+00  0.00000000000E+00  0.19176874148E+02  0.19176874148E+02  0.00000000000E+00 0.  1.
          2   -1    0    0  502    0 -0.00000000000E+00 -0.00000000000E+00 -0.10283113709E+04  0.10283113709E+04  0.00000000000E+00 0. -1.
         24    2    1    2    0    0 -0.26176771851E+02  0.23269871478E+01 -0.30939338933E+03  0.32078044226E+03  0.80530643346E+02 0.  0.
         23    2    1    2    0    0  0.39275880648E+02  0.45997747913E+02 -0.34545641892E+03  0.36890267821E+03  0.11441442656E+03 0.  0.
        -13    1    3    3    0    0  0.24893906720E+02  0.62414016478E+01 -0.48145046783E+02  0.54558291909E+02  0.00000000000E+00 0.  1.
         14    1    3    3    0    0 -0.51070678571E+02 -0.39144145000E+01 -0.26124834255E+03  0.26622215035E+03  0.00000000000E+00 0. -1.
        -13    1    4    4    0    0  0.16238387260E+02 -0.31166497672E+02 -0.41117107476E+02  0.54089299544E+02  0.00000000000E+00 0.  1.
         13    1    4    4    0    0  0.23037493388E+02  0.77164245585E+02 -0.30433931144E+03  0.31481337866E+03  0.00000000000E+00 0. -1.
          1    1    1    2  501    0 -0.13099108797E+02 -0.48324735061E+02 -0.35428468847E+03  0.35780512455E+03  0.00000000000E+00 0. -1.
<scales pt_clust_5="13000.00000" pt_clust_6="13000.00000" pt_clust_7="13000.00000" pt_clust_8="13000.00000" pt_clust_9="50.06864"></scales>
<clustering>
<clus scale="   50.069">  1  9  2 -1</clus>
<clus scale="   80.531">  5  6 -1 -1</clus>
<clus scale="   87.146">  2  5  1 -1</clus>
<clus scale="  114.414">  7  8 -1 -1</clus>
<clus scale="   50.069">  1  5  2 -1</clus>
</clustering>
</event>
<event>
 9    2  0.1751298E-004  0.1484566E+03  0.7546771E-02  0.1207720E+00
          2   -1    0    0  502    0 -0.00000000000E+00  0.00000000000E+00  0.20233541626E+03  0.20233541626E+03  0.00000000000E+00 0. -1.
         21   -1    0    0  501  502  0.00000000000E+00 -0.00000000000E+00 -0.29312269199E+03  0.29312269199E+03  0.00000000000E+00 0.  1.
         23    2    1    2    0    0 -0.21069978767E+02 -0.98034255855E+02  0.51648424224E+02  0.15330220929E+03  0.10382364047E+03 0.  0.
         24    2    1    2    0    0 -0.40590841981E+02  0.13913347047E+03 -0.19183265099E+03  0.25309827140E+03  0.79077366798E+02 0.  0.
        -11    1    4    4    0    0 -0.35358011235E+02  0.11021634681E+03 -0.19143616374E+03  0.22370882158E+03  0.00000000000E+00 0.  1.
         12    1    4    4    0    0 -0.52328307462E+01  0.28917123663E+02 -0.39648724600E+00  0.29389449820E+02  0.00000000000E+00 0. -1.
        -13    1    3    3    0    0  0.24721829933E+02 -0.94540213035E+02  0.42063234511E+02  0.10638767059E+03  0.00000000000E+00 0.  1.
         13    1    3    3    0    0 -0.45791808700E+02 -0.34940428192E+01  0.95851897130E+01  0.46914538696E+02  0.00000000000E+00 0. -1.
          1    1    1    2  501    0  0.61660820748E+02 -0.41099214620E+02  0.49396951034E+02  0.89057627574E+02  0.00000000000E+00 0. -1.
<scales pt_clust_5="13000.00000" pt_clust_6="13000.00000" pt_clust_7="13000.00000" pt_clust_8="13000.00000" pt_clust_9="74.10268"></scales>
<clustering>
<clus scale="   74.103">  2  9  1 -1</clus>
<clus scale="   79.077">  5  6 -1 -1</clus>
<clus scale="  103.824">  7  8 -1 -1</clus>
<clus scale="  132.338">  2  5  1 -1</clus>
<clus scale="   74.103">  2  5  1 -1</clus>
</clustering>
</event>
<event>
 9    2  0.1751298E-004  0.9955224E+02  0.7546771E-02  0.1287458E+00
          2   -1    0    0  502    0 -0.00000000000E+00  0.00000000000E+00  0.24319483031E+03  0.24319483031E+03  0.00000000000E+00 0. -1.
         21   -1    0    0  501  502  0.00000000000E+00 -0.00000000000E+00 -0.14276022196E+03  0.14276022196E+03  0.00000000000E+00 0.  1.
         24    2    1    2    0    0  0.27922944953E+00 -0.39052106451E+02  0.15539748965E+03  0.17884400982E+03  0.79445925451E+02 0.  0.
         23    2    1    2    0    0  0.28027288284E+02  0.38112708650E+02 -0.10655608630E+03  0.14825528474E+03  0.91582326224E+02 0.  0.
        -11    1    3    3    0    0 -0.26487552665E+02  0.81051199123E+01  0.23826938533E+02  0.36537739597E+02  0.00000000000E+00 0.  1.
         12    1    3    3    0    0  0.26766782115E+02 -0.47157226363E+02  0.13157055111E+03  0.14230627022E+03  0.00000000000E+00 0. -1.
        -13    1    4    4    0    0  0.37694405861E+02 -0.15317326419E+02 -0.18253853945E+02  0.44594751997E+02  0.00000000000E+00 0.  1.
         13    1    4    4    0    0 -0.96671175771E+01  0.53430035069E+02 -0.88302232353E+02  0.10366053274E+03  0.00000000000E+00 0. -1.
          1    1    1    2  501    0 -0.28306517734E+02  0.93939780098E+00  0.51593204999E+02  0.58855757717E+02  0.00000000000E+00 0. -1.
<scales pt_clust_5="13000.00000" pt_clust_6="13000.00000" pt_clust_7="13000.00000" pt_clust_8="13000.00000" pt_clust_9="28.32212"></scales>
<clustering>
<clus scale="   28.322">  2  9  1 -1</clus>
<clus scale="   79.446">  5  6 -1 -1</clus>
<clus scale="   88.515">  1  5  2 -1</clus>
<clus scale="   91.582">  7  8 -1 -1</clus>
<clus scale="   28.322">  2  5  1 -1</clus>
</clustering>
</event>
<event>
 9    2  0.1751298E-004  0.1323779E+03  0.7546771E-02  0.1240491E+00
         21   -1    0    0  501  502  0.00000000000E+00  0.00000000000E+00  0.13194009852E+02  0.13194009852E+02  0.00000000000E+00 0. -1.
          2   -1    0    0  502    0 -0.00000000000E+00 -0.00000000000E+00 -0.20754687177E+04  0.20754687177E+04  0.00000000000E+00 0. -1.
         24    2    1    2    0    0  0.46577104229E+02  0.18092364064E+02 -0.75820176024E+03  0.76403499687E+03  0.79892471115E+02 0.  0.
         23    2    1    2    0    0  0.33153272520E+01  0.78208185287E+02 -0.65987287382E+03  0.67136148665E+03  0.95741968366E+02 0.  0.
        -13    1    3    3    0    0  0.44947663002E+02 -0.45225127790E+00 -0.17979492091E+03  0.18532865544E+03  0.00000000000E+00 0.  1.
         14    1    3    3    0    0  0.16294412272E+01  0.18544615342E+02 -0.57840683933E+03  0.57870634144E+03  0.00000000000E+00 0. -1.
        -13    1    4    4    0    0 -0.60764150016E+01 -0.21611863696E+02 -0.91535149143E+02  0.94247965497E+02  0.00000000000E+00 0.  1.
         13    1    4    4    0    0  0.93917422536E+01  0.99820048983E+02 -0.56833772468E+03  0.57711352115E+03  0.00000000000E+00 0. -1.
          1    1    1    2  501    0 -0.49892431481E+02 -0.96300549352E+02 -0.64420007381E+03  0.65326624405E+03  0.00000000000E+00 0. -1.
<scales pt_clust_5="13000.00000" pt_clust_6="13000.00000" pt_clust_7="13000.00000" pt_clust_8="13000.00000" pt_clust_9="91.41881"></scales>
<clustering>
<clus scale="   79.892">  5  6 -1 -1</clus>
<clus scale="   94.231">  2  5  1 -1</clus>
<clus scale="   91.419">  1  9  2 -1</clus>
<clus scale="   95.742">  7  8 -1 -1</clus>
<clus scale="   91.419">  1  5  2 -1</clus>
</clustering>
</event>
<event>
 9    2  0.1751298E-004  0.1611200E+03  0.7546771E-02  0.1191342E+00
         21   -1    0    0  501  502  0.00000000000E+00  0.00000000000E+00  0.42068062050E+03  0.42068062050E+03  0.00000000000E+00 0.  1.
          2   -1    0    0  502    0 -0.00000000000E+00 -0.00000000000E+00 -0.84940187574E+02  0.84940187574E+02  0.00000000000E+00 0. -1.
         24    2    1    2    0    0 -0.24490681493E+02  0.10627455146E+03  0.11952750458E+03  0.17467056156E+03  0.65794429541E+02 0.  0.
         23    2    1    2    0    0  0.18860830848E+02 -0.16573659215E+03  0.17222991720E+03  0.25677521857E+03  0.91902228334E+02 0.  0.
        -11    1    3    3    0    0  0.13621565525E+02  0.46570786916E+02  0.19932345359E+02  0.52456492762E+02  0.00000000000E+00 0.  1.
         12    1    3    3    0    0 -0.38112247018E+02  0.59703764544E+02  0.99595159219E+02  0.12221406880E+03  0.00000000000E+00 0. -1.
        -11    1    4    4    0    0  0.42613946728E+02 -0.48950739742E+02  0.30831888764E+02  0.71852131087E+02  0.00000000000E+00 0. -1.
         11    1    4    4    0    0 -0.23753115880E+02 -0.11678585241E+03  0.14139802844E+03  0.18492308748E+03  0.00000000000E+00 0.  1.
          1    1    1    2  501    0  0.56298506453E+01  0.59462040687E+02  0.43983011144E+02  0.74175027942E+02  0.00000000000E+00 0. -1.
<scales pt_clust_5="13000.00000" pt_clust_6="13000.00000" pt_clust_7="13000.00000" pt_clust_8="13000.00000" pt_clust_9="59.72799"></scales>
<clustering>
<clus scale="   59.728">  1  9  2 -1</clus>
<clus scale="   65.794">  5  6 -1 -1</clus>
<clus scale="   91.902">  7  8 -1 -1</clus>
<clus scale="  147.792">  2  5  1 -1</clus>
<clus scale="   59.728">  1  5  2 -1</clus>
</clustering>
</event>
<event>
 9    2  0.1751298E-004  0.1566655E+03  0.7546771E-02  0.1194369E+00
          2   -1    0    0  502    0 -0.00000000000E+00  0.00000000000E+00  0.14353389226E+03  0.14353389226E+03  0.00000000000E+00 0. -1.
         21   -1    0    0  501  502  0.00000000000E+00 -0.00000000000E+00 -0.42137453932E+03  0.42137453932E+03  0.00000000000E+00 0.  1.
         24    2    1    2    0    0  0.92743521133E+02 -0.78991477681E+02  0.54268397670E+02  0.15528697288E+03  0.79548543049E+02 0.  0.
         23    2    1    2    0    0 -0.13902665958E+03  0.89883572679E+02 -0.29028005879E+03  0.34629349724E+03  0.90825134108E+02 0.  0.
        -11    1    3    3    0    0  0.18264934119E+02 -0.64596853714E+02  0.39866807290E+02  0.78075115444E+02  0.00000000000E+00 0.  1.
         12    1    3    3    0    0  0.74478587014E+02 -0.14394623966E+02  0.14401590380E+02  0.77211857433E+02  0.00000000000E+00 0. -1.
        -11    1    4    4    0    0 -0.15133577912E+02 -0.15042914257E+02 -0.13022591419E+02  0.24998046664E+02  0.00000000000E+00 0. -1.
         11    1    4    4    0    0 -0.12389308167E+03  0.10492648694E+03 -0.27725746737E+03  0.32129545057E+03  0.00000000000E+00 0.  1.
          1    1    1    2  501    0  0.46283138451E+02 -0.10892094998E+02 -0.41828985936E+02  0.63327961461E+02  0.00000000000E+00 0. -1.
<scales pt_clust_5="13000.00000" pt_clust_6="13000.00000" pt_clust_7="13000.00000" pt_clust_8="13000.00000" pt_clust_9="47.54752"></scales>
<clustering>
<clus scale="   47.548">  2  9  1 -1</clus>
<clus scale="   79.549">  5  6 -1 -1</clus>
<clus scale="   90.825">  7  8 -1 -1</clus>
<clus scale="  150.409">  1  5  2 -1</clus>
<clus scale="   47.548">  2  5  1 -1</clus>
</clustering>
</event>
<event>
 9    2  0.1751298E-004  0.1310891E+03  0.7546771E-02  0.1228833E+00
         21   -1    0    0  501  502  0.00000000000E+00  0.00000000000E+00  0.67083440332E+03  0.67083440332E+03  0.00000000000E+00 0.  1.
          2   -1    0    0  502    0 -0.00000000000E+00 -0.00000000000E+00 -0.27644690452E+03  0.27644690452E+03  0.00000000000E+00 0. -1.
         23    2    1    2    0    0  0.86104899508E+02 -0.41413749939E+02 -0.24721757168E+03  0.27997602136E+03  0.90226893930E+02 0.  0.
         24    2    1    2    0    0 -0.97467529210E+02 -0.14429343238E+02  0.46455885982E+03  0.48131356322E+03  0.78356152965E+02 0.  0.
        -13    1    4    4    0    0 -0.81480778016E+02  0.62948060204E+01  0.43138363243E+03  0.43905646572E+03  0.00000000000E+00 0.  1.
         14    1    4    4    0    0 -0.15986751194E+02 -0.20724149259E+02  0.33175227389E+02  0.42257097493E+02  0.00000000000E+00 0. -1.
        -13    1    3    3    0    0  0.51880346409E+02 -0.89361546878E+00 -0.38464313230E+02  0.64590032391E+02  0.00000000000E+00 0.  1.
         13    1    3    3    0    0  0.34224553099E+02 -0.40520134471E+02 -0.20875325845E+03  0.21538598897E+03  0.00000000000E+00 0. -1.
          1    1    1    2  501    0  0.11362629702E+02  0.55843093178E+02  0.17704621067E+03  0.18599172326E+03  0.00000000000E+00 0. -1.
<scales pt_clust_5="13000.00000" pt_clust_6="13000.00000" pt_clust_7="13000.00000" pt_clust_8="13000.00000" pt_clust_9="56.98737"></scales>
<clustering>
<clus scale="   56.987">  1  9  2 -1</clus>
<clus scale="   78.356">  5  6 -1 -1</clus>
<clus scale="   90.227">  7  8 -1 -1</clus>
<clus scale="  123.220">  1  5  2 -1</clus>
<clus scale="   56.987">  1  5  2 -1</clus>
</clustering>
</event>
<event>
 9    2  0.1751298E-004  0.9497133E+02  0.7546771E-02  0.1295869E+00
         -1   -1    0    0    0  501 -0.00000000000E+00  0.00000000000E+00  0.23957752209E+03  0.23957752209E+03  0.00000000000E+00 0.  1.
         21   -1    0    0  501  502  0.00000000000E+00 -0.00000000000E+00 -0.13161186027E+03  0.13161186027E+03  0.00000000000E+00 0. -1.
         23    2    1    2    0    0  0.36730315152E+01 -0.45915270616E+01  0.68002673683E+02  0.11481130049E+03  0.92318458669E+02 0.  0.
         24    2    1    2    0    0 -0.90621676928E+02  0.10174771675E+02 -0.49495496457E+02  0.13150190309E+03  0.80790668018E+02 0.  0.
        -11    1    4    4    0    0 -0.30158719941E+02  0.42400694553E+02 -0.12000060037E+02  0.53398209033E+02  0.00000000000E+00 0.  1.
         12    1    4    4    0    0 -0.60462956987E+02 -0.32225922879E+02 -0.37495436420E+02  0.78103694057E+02  0.00000000000E+00 0. -1.
        -13    1    3    3    0    0  0.36208671227E+02  0.28458912890E+02  0.36172797002E+02  0.58561496206E+02  0.00000000000E+00 0. -1.
         13    1    3    3    0    0 -0.32535639712E+02 -0.33050439952E+02  0.31829876681E+02  0.56249804284E+02  0.00000000000E+00 0.  1.
         -2    1    1    2    0  502  0.86948645412E+02 -0.55832446129E+01  0.89458484596E+02  0.12487617878E+03  0.00000000000E+00 0.  1.
<scales pt_clust_5="13000.00000" pt_clust_6="13000.00000" pt_clust_7="13000.00000" pt_clust_8="13000.00000" pt_clust_9="87.12776"></scales>
<clustering>
<clus scale="   80.791">  5  6 -1 -1</clus>
<clus scale="   87.128">  2  9  1 -1</clus>
<clus scale="   87.128">  2  5  1 -1</clus>
<clus scale="   92.318">  7  8 -1 -1</clus>
<clus scale="   87.128">  2  5  1 -1</clus>
</clustering>
</event>
<event>
 9    2  0.1751298E-004  0.9634404E+02  0.7546771E-02  0.1294540E+00
         -1   -1    0    0    0  501 -0.00000000000E+00  0.00000000000E+00  0.14523962700E+03  0.14523962700E+03  0.00000000000E+00 0.  1.
         21   -1    0    0  501  502  0.00000000000E+00 -0.00000000000E+00 -0.18777916646E+03  0.18777916646E+03  0.00000000000E+00 0. -1.
         24    2    1    2    0    0  0.28508641640E+02 -0.16119135617E+02  0.11115932048E+03  0.14063779783E+03  0.79687053324E+02 0.  0.
         23    2    1    2    0    0 -0.64880005380E+01  0.18347741278E+02 -0.12967161972E+03  0.15971321962E+03  0.91185798231E+02 0.  0.
        -13    1    3    3    0    0  0.34631771306E+02  0.25864620707E+02  0.63672202334E+02  0.76957699668E+02  0.00000000000E+00 0.  1.
         14    1    3    3    0    0 -0.61231296661E+01 -0.41983756324E+02  0.47487118144E+02  0.63680098159E+02  0.00000000000E+00 0. -1.
        -11    1    4    4    0    0  0.97707298818E+01 -0.34448600464E+02 -0.68461886821E+02  0.77260618580E+02  0.00000000000E+00 0. -1.
         11    1    4    4    0    0 -0.16258730420E+02  0.52796341743E+02 -0.61209732897E+02  0.82452601036E+02  0.00000000000E+00 0.  1.
         -2    1    1    2    0  502 -0.22020641102E+02 -0.22286056619E+01 -0.24027240211E+02  0.32667776017E+02  0.00000000000E+00 0.  1.
<scales pt_clust_5="13000.00000" pt_clust_6="13000.00000" pt_clust_7="13000.00000" pt_clust_8="13000.00000" pt_clust_9="22.13313"></scales>
<clustering>
<clus scale="   22.133">  2  9  1 -1</clus>
<clus scale="   79.687">  5  6 -1 -1</clus>
<clus scale="   85.542">  1  5  2 -1</clus>
<clus scale="   91.186">  7  8 -1 -1</clus>
<clus scale="   22.133">  2  5  1 -1</clus>
</clustering>
</event>
<event>
 9    2  0.1751298E-004  0.1062876E+03  0.7546771E-02  0.1274760E+00
         21   -1    0    0  501  502  0.00000000000E+00  0.00000000000E+00  0.30076273305E+02  0.30076273305E+02  0.00000000000E+00 0.  1.
          2   -1    0    0  502    0 -0.00000000000E+00 -0.00000000000E+00 -0.78078230193E+03  0.78078230193E+03  0.00000000000E+00 0. -1.
         23    2    1    2    0    0 -0.35646731048E+02 -0.69722964979E+02 -0.33403354496E+03  0.35497740806E+03  0.91096486189E+02 0.  0.
         24    2    1    2    0    0  0.43036419013E+02 -0.56348638174E+01 -0.10914206199E+03  0.13916620052E+03  0.74641520745E+02 0.  0.
        -11    1    4    4    0    0  0.49693459281E+02 -0.31914406429E+02 -0.70607866851E+02  0.92051290563E+02  0.00000000000E+00 0.  1.
         12    1    4    4    0    0 -0.66570402680E+01  0.26279542611E+02 -0.38534195142E+02  0.47114909957E+02  0.00000000000E+00 0. -1.
        -13    1    3    3    0    0  0.28760954317E+02 -0.22350636906E+02 -0.14939603504E+03  0.15377229513E+03  0.00000000000E+00 0.  1.
         13    1    3    3    0    0 -0.64407685365E+02 -0.47372328074E+02 -0.18463750991E+03  0.20120511293E+03  0.00000000000E+00 0. -1.
          1    1    1    2  501    0 -0.73896879647E+01  0.75357828797E+02 -0.30753042168E+03  0.31671496666E+03  0.00000000000E+00 0. -1.
<scales pt_clust_5="13000.00000" pt_clust_6="13000.00000" pt_clust_7="13000.00000" pt_clust_8="13000.00000" pt_clust_9="75.71932"></scales>
<clustering>
<clus scale="   74.642">  5  6 -1 -1</clus>
<clus scale="   75.719">  1  9  2 -1</clus>
<clus scale="   91.096">  7  8 -1 -1</clus>
<clus scale="   92.573">  1  5  2 -1</clus>
<clus scale="   75.719">  1  5  2 -1</clus>
</clustering>
</event>
<event>
 9    2  0.1751298E-004  0.2762444E+03  0.7546771E-02  0.1098148E+00
         21   -1    0    0  501  502  0.00000000000E+00  0.00000000000E+00  0.21999737882E+03  0.21999737882E+03  0.00000000000E+00 0. -1.
          2   -1    0    0  502    0 -0.00000000000E+00 -0.00000000000E+00 -0.15933947997E+04  0.15933947997E+04  0.00000000000E+00 0. -1.
         23    2    1    2    0    0  0.16165843575E+03  0.28062206936E+03 -0.11332892923E+04  0.11820882508E+04  0.90032311040E+02 0.  0.
         24    2    1    2    0    0 -0.13793161060E+03 -0.13762051638E+03 -0.37692262198E+03  0.43197853558E+03  0.81057118789E+02 0.  0.
        -13    1    4    4    0    0 -0.35549133198E+02 -0.44615072094E+02 -0.45899626465E+02  0.73218995068E+02  0.00000000000E+00 0.  1.
         14    1    4    4    0    0 -0.10238247741E+03 -0.93005444283E+02 -0.33102299551E+03  0.35875954051E+03  0.00000000000E+00 0. -1.
        -11    1    3    3    0    0  0.32588108942E+02  0.12117436976E+03 -0.33096031657E+03  0.35394906960E+03  0.00000000000E+00 0. -1.
         11    1    3    3    0    0  0.12907032681E+03  0.15944769960E+03 -0.80232897570E+03  0.82813918119E+03  0.00000000000E+00 0.  1.
          1    1    1    2  501    0 -0.23726825149E+02 -0.14300155298E+03  0.13681449333E+03  0.19932539219E+03  0.00000000000E+00 0. -1.
<scales pt_clust_5="13000.00000" pt_clust_6="13000.00000" pt_clust_7="13000.00000" pt_clust_8="13000.00000" pt_clust_9="144.95657"></scales>
<clustering>
<clus scale="   81.057">  5  6 -1 -1</clus>
<clus scale="   90.032">  7  8 -1 -1</clus>
<clus scale="  144.957">  1  9  2 -1</clus>
<clus scale="  273.451">  1  5  2 -1</clus>
<clus scale="  144.957">  1  5  2 -1</clus>
</clustering>
</event>
<event>
 9    2  0.1751298E-004  0.1434622E+03  0.7546771E-02  0.1231783E+00
         21   -1    0    0  501  502  0.00000000000E+00  0.00000000000E+00  0.66823589257E+02  0.66823589257E+02  0.00000000000E+00 0. -1.
          2   -1    0    0  502    0 -0.00000000000E+00 -0.00000000000E+00 -0.65448917735E+03  0.65448917735E+03  0.00000000000E+00 0. -1.
         24    2    1    2    0    0  0.59993171192E+01 -0.31616630144E+02 -0.34287230987E+03  0.35409887761E+03  0.82395334445E+02 0.  0.
         23    2    1    2    0    0  0.17348165435E+02 -0.97498570678E+02 -0.78598437838E+02  0.15546742505E+03  0.90473618771E+02 0.  0.
        -13    1    3    3    0    0 -0.21285760135E+02  0.98887385582E+01 -0.34343964414E+02  0.41597819973E+02  0.00000000000E+00 0.  1.
         14    1    3    3    0    0  0.27285077254E+02 -0.41505368702E+02 -0.30852834546E+03  0.31250105764E+03  0.00000000000E+00 0. -1.
        -11    1    4    4    0    0  0.49446949079E+02 -0.27749767966E+02 -0.41025363631E+02  0.69986647701E+02  0.00000000000E+00 0.  1.
         11    1    4    4    0    0 -0.32098783644E+02 -0.69748802712E+02 -0.37573074207E+02  0.85480777351E+02  0.00000000000E+00 0. -1.
          1    1    1    2  501    0 -0.23347482554E+02  0.12911520082E+03 -0.16619484038E+03  0.21174646395E+03  0.00000000000E+00 0. -1.
<scales pt_clust_5="13000.00000" pt_clust_6="13000.00000" pt_clust_7="13000.00000" pt_clust_8="13000.00000" pt_clust_9="111.33702"></scales>
<clustering>
<clus scale="   82.395">  5  6 -1 -1</clus>
<clus scale="   88.457">  2  5  1 -1</clus>
<clus scale="   90.474">  7  8 -1 -1</clus>
<clus scale="  111.337">  1  9  2 -1</clus>
<clus scale="  111.337">  1  5  2 -1</clus>
</clustering>
</event>
<event>
 9    2  0.1751298E-004  0.1507118E+03  0.7546771E-02  0.1201359E+00
          2   -1    0    0  502    0 -0.00000000000E+00  0.00000000000E+00  0.33539167096E+03  0.33539167096E+03  0.00000000000E+00 0. -1.
         21   -1    0    0  501  502  0.00000000000E+00 -0.00000000000E+00 -0.16972316875E+03  0.16972316875E+03  0.00000000000E+00 0. -1.
         24    2    1    2    0    0  0.12455113202E+03  0.38389573307E+02  0.20595906756E+03  0.25623383550E+03  0.79056290856E+02 0.  0.
         23    2    1    2    0    0 -0.10492066616E+03 -0.16164880472E+02  0.55031297305E+02  0.14905340451E+03  0.88987775364E+02 0.  0.
        -11    1    3    3    0    0  0.33902144578E+02  0.28147009267E+02  0.18566177779E+02  0.47815400186E+02  0.00000000000E+00 0.  1.
         12    1    3    3    0    0  0.90648987439E+02  0.10242564040E+02  0.18739288978E+03  0.20841843532E+03  0.00000000000E+00 0. -1.
        -11    1    4    4    0    0 -0.57348004209E+02 -0.52717681544E+02  0.38104528550E+02  0.86717372136E+02  0.00000000000E+00 0. -1.
         11    1    4    4    0    0 -0.47572661949E+02  0.36552801073E+02  0.16926768755E+02  0.62336032371E+02  0.00000000000E+00 0.  1.
          1    1    1    2  501    0 -0.19630465859E+02 -0.22224692836E+02 -0.95321862649E+02  0.99827599692E+02  0.00000000000E+00 0. -1.
<scales pt_clust_5="13000.00000" pt_clust_6="13000.00000" pt_clust_7="13000.00000" pt_clust_8="13000.00000" pt_clust_9="29.65286"></scales>
<clustering>
<clus scale="   29.653">  2  9  1 -1</clus>
<clus scale="   79.056">  5  6 -1 -1</clus>
<clus scale="   88.988">  7  8 -1 -1</clus>
<clus scale="  145.069">  1  5  2 -1</clus>
<clus scale="   29.653">  2  5  1 -1</clus>
</clustering>
</event>
<event>
 9    2  0.1751298E-004  0.6658337E+03  0.7546771E-02  0.1013558E+00
          2   -1    0    0  502    0 -0.00000000000E+00  0.00000000000E+00  0.70079539138E+03  0.70079539138E+03  0.00000000000E+00 0. -1.
         21   -1    0    0  501  502  0.00000000000E+00 -0.00000000000E+00 -0.98000709277E+03  0.98000709277E+03  0.00000000000E+00 0. -1.
         23    2    1    2    0    0  0.16130958938E+03 -0.66090101427E+02 -0.20176342818E+03  0.29350997352E+03  0.12268226633E+03 0.  0.
         24    2    1    2    0    0 -0.11295621954E+03  0.70258855497E+03  0.10396238109E+03  0.72368256854E+03  0.80737217047E+02 0.  0.
        -13    1    4    4    0    0 -0.28240098240E+02  0.25556451240E+03  0.74749112915E+02  0.26776510794E+03  0.00000000000E+00 0.  1.
         14    1    4    4    0    0 -0.84716121299E+02  0.44702404257E+03  0.29213268176E+02  0.45591746060E+03  0.00000000000E+00 0. -1.
        -13    1    3    3    0    0 -0.87977998167E+01 -0.33538022453E+02 -0.12238906041E+02  0.36769430955E+02  0.00000000000E+00 0.  1.
         13    1    3    3    0    0  0.17010738920E+03 -0.32552078974E+02 -0.18952452214E+03  0.25674054257E+03  0.00000000000E+00 0. -1.
          1    1    1    2  501    0 -0.48353369844E+02 -0.63649845355E+03 -0.18141065429E+03  0.66360994208E+03  0.00000000000E+00 0. -1.
<scales pt_clust_5="13000.00000" pt_clust_6="13000.00000" pt_clust_7="13000.00000" pt_clust_8="13000.00000" pt_clust_9="660.92057"></scales>
<clustering>
<clus scale="   80.737">  5  6 -1 -1</clus>
<clus scale="  122.682">  7  8 -1 -1</clus>
<clus scale="  213.166">  1  7  2 -1</clus>
<clus scale="  660.921">  2  9  1 -1</clus>
<clus scale="  660.921">  2  5  1 -1</clus>
</clustering>
</event>
<event>
 9    2  0.1751298E-004  0.1025898E+03  0.7546771E-02  0.1279012E+00
          2   -1    0    0  502    0 -0.00000000000E+00  0.00000000000E+00  0.96152597017E+03  0.96152597017E+03  0.00000000000E+00 0. -1.
         21   -1    0    0  501  502  0.00000000000E+00 -0.00000000000E+00 -0.21235055817E+02  0.21235055817E+02  0.00000000000E+00 0. -1.
         24    2    1    2    0    0  0.41874090810E+02  0.27466187842E+02  0.68657570954E+03  0.69328834031E+03  0.82186902363E+02 0.  0.
         23    2    1    2    0    0 -0.44401576467E+02  0.56478848006E+01  0.15394769499E+03  0.18432285920E+03  0.90948474632E+02 0.  0.
        -11    1    3    3    0    0  0.25765965154E+01 -0.20030808704E+02  0.52948061808E+02  0.56668945607E+02  0.00000000000E+00 0.  1.
         12    1    3    3    0    0  0.39297494295E+02  0.47496996546E+02  0.63362764773E+03  0.63661939470E+03  0.00000000000E+00 0. -1.
        -13    1    4    4    0    0 -0.12646151130E+02 -0.28394391912E+02  0.94153379058E+01  0.32477918935E+02  0.00000000000E+00 0. -1.
         13    1    4    4    0    0 -0.31755425336E+02  0.34042276712E+02  0.14453235708E+03  0.15184494027E+03  0.00000000000E+00 0.  1.
          1    1    1    2  501    0  0.25274856562E+01 -0.33114072642E+02  0.99767509824E+02  0.10514982647E+03  0.00000000000E+00 0. -1.
<scales pt_clust_5="13000.00000" pt_clust_6="13000.00000" pt_clust_7="13000.00000" pt_clust_8="13000.00000" pt_clust_9="33.21039"></scales>
<clustering>
<clus scale="   33.210">  2  9  1 -1</clus>
<clus scale="   82.187">  5  6 -1 -1</clus>
<clus scale="   90.948">  7  8 -1 -1</clus>
<clus scale="   94.909">  1  5  2 -1</clus>
<clus scale="   33.210">  2  5  1 -1</clus>
</clustering>
</event>
<event>
 9    2  0.1751298E-004  0.1740334E+03  0.7546771E-02  0.1174595E+00
          4   -1    0    0  502    0 -0.00000000000E+00  0.00000000000E+00  0.11079759626E+04  0.11079759626E+04  0.00000000000E+00 0. -1.
         21   -1    0    0  501  502  0.00000000000E+00 -0.00000000000E+00 -0.63019241419E+02  0.63019241419E+02  0.00000000000E+00 0. -1.
         24    2    1    2    0    0 -0.17766949769E+02  0.14413396369E+03  0.33977357422E+03  0.37819937619E+03  0.80612793162E+02 0.  0.
         23    2    1    2    0    0 -0.51272079980E+02 -0.16339963185E+03  0.18243433528E+03  0.26515591869E+03  0.87733167351E+02 0.  0.
        -13    1    3    3    0    0  0.29989400178E+02  0.34441862311E+02  0.78068000549E+02  0.90444561540E+02  0.00000000000E+00 0.  1.
         14    1    3    3    0    0 -0.47756349947E+02  0.10969210138E+03  0.26170557367E+03  0.28775481465E+03  0.00000000000E+00 0. -1.
        -13    1    4    4    0    0 -0.98941881628E+01 -0.33682353535E+02 -0.28526547162E+01  0.35221208639E+02  0.00000000000E+00 0.  1.
         13    1    4    4    0    0 -0.41377891817E+02 -0.12971727832E+03  0.18528699000E+03  0.22993471006E+03  0.00000000000E+00 0. -1.
          3    1    1    2  501    0  0.69039029749E+02  0.19265668162E+02  0.52274881172E+03  0.52763990918E+03  0.00000000000E+00 0. -1.
<scales pt_clust_5="13000.00000" pt_clust_6="13000.00000" pt_clust_7="13000.00000" pt_clust_8="13000.00000" pt_clust_9="71.67677"></scales>
<clustering>
<clus scale="   71.677">  2  9  1 -1</clus>
<clus scale="   80.613">  5  6 -1 -1</clus>
<clus scale="   87.733">  7  8 -1 -1</clus>
<clus scale="  170.555">  1  5  2 -1</clus>
<clus scale="   71.677">  2  5  1 -1</clus>
</clustering>
</event>
<event>
 9    2  0.1751298E-004  0.1585873E+03  0.7546771E-02  0.1191962E+00
         21   -1    0    0  501  502  0.00000000000E+00  0.00000000000E+00  0.43953681552E+02  0.43953681552E+02  0.00000000000E+00 0. -1.
          2   -1    0    0  502    0 -0.00000000000E+00 -0.00000000000E+00 -0.74724806791E+03  0.74724806791E+03  0.00000000000E+00 0. -1.
         23    2    1    2    0    0 -0.10461883243E+03 -0.97406421409E+02 -0.37459521105E+03  0.41122655083E+03  0.91392521243E+02 0.  0.
         24    2    1    2    0    0  0.96973727774E+02  0.60137532910E+02 -0.18904773939E+03  0.23523425339E+03  0.81090563296E+02 0.  0.
        -13    1    4    4    0    0  0.52718951749E+02 -0.12990879036E+02 -0.79832463149E+02  0.96546739894E+02  0.00000000000E+00 0.  1.
         14    1    4    4    0    0  0.44254776025E+02  0.73128411947E+02 -0.10921527624E+03  0.13868751350E+03  0.00000000000E+00 0. -1.
        -11    1    3    3    0    0 -0.97246235631E+02 -0.39123832506E+02 -0.28889797960E+03  0.30732645059E+03  0.00000000000E+00 0. -1.
         11    1    3    3    0    0 -0.73725967971E+01 -0.58282588903E+02 -0.85697231445E+02  0.10390010024E+03  0.00000000000E+00 0.  1.
          1    1    1    2  501    0  0.76451046544E+01  0.37268888498E+02 -0.13965143592E+03  0.14474094524E+03  0.00000000000E+00 0. -1.
<scales pt_clust_5="13000.00000" pt_clust_6="13000.00000" pt_clust_7="13000.00000" pt_clust_8="13000.00000" pt_clust_9="38.04496"></scales>
<clustering>
<clus scale="   38.045">  1  9  2 -1</clus>
<clus scale="   81.091">  5  6 -1 -1</clus>
<clus scale="   91.393">  7  8 -1 -1</clus>
<clus scale="  152.882">  1  5  2 -1</clus>
<clus scale="   38.045">  1  5  2 -1</clus>
</clustering>
</event>
<event>
 9    2  0.1751298E-004  0.6334467E+03  0.7546771E-02  0.9839124E-01
          2   -1    0    0  502    0 -0.00000000000E+00  0.00000000000E+00  0.98385302995E+03  0.98385302995E+03  0.00000000000E+00 0. -1.
         21   -1    0    0  501  502  0.00000000000E+00 -0.00000000000E+00 -0.10814102083E+04  0.10814102083E+04  0.00000000000E+00 0.  1.
         24    2    1    2    0    0  0.28333446345E+03 -0.63666432466E+03  0.52085237946E+03  0.87375609356E+03  0.80886521609E+02 0.  0.
         23    2    1    2    0    0  0.17000239729E+03  0.49742427988E+03 -0.41209886706E+03  0.67433579929E+03  0.92582745030E+02 0.  0.
        -13    1    3    3    0    0  0.76885119430E+02 -0.24758998955E+03  0.22384659303E+03  0.34251922826E+03  0.00000000000E+00 0.  1.
         14    1    3    3    0    0  0.20644934402E+03 -0.38907433511E+03  0.29700578643E+03  0.53123686531E+03  0.00000000000E+00 0. -1.
        -13    1    4    4    0    0  0.11512305776E+03  0.43221463079E+03 -0.36243286236E+03  0.57569122385E+03  0.00000000000E+00 0.  1.
         13    1    4    4    0    0  0.54879339531E+02  0.65209649082E+02 -0.49666004703E+02  0.98644575441E+02  0.00000000000E+00 0. -1.
          1    1    1    2  501    0 -0.45333686074E+03  0.13924004478E+03 -0.20631069072E+03  0.51717134538E+03  0.00000000000E+00 0. -1.
<scales pt_clust_5="13000.00000" pt_clust_6="13000.00000" pt_clust_7="13000.00000" pt_clust_8="13000.00000" pt_clust_9="474.23844"></scales>
<clustering>
<clus scale="   80.887">  5  6 -1 -1</clus>
<clus scale="   92.583">  7  8 -1 -1</clus>
<clus scale="  474.238">  2  9  1 -1</clus>
<clus scale="  631.843">  1  5  2 -1</clus>
<clus scale="  474.238">  2  5  1 -1</clus>
</clustering>
</event>
<event>
 9    2  0.1751298E-004  0.3570037E+03  0.7546771E-02  0.1077471E+00
          2   -1    0    0  502    0 -0.00000000000E+00  0.00000000000E+00  0.84931496088E+03  0.84931496088E+03  0.00000000000E+00 0. -1.
         21   -1    0    0  501  502  0.00000000000E+00 -0.00000000000E+00 -0.30136184459E+03  0.30136184459E+03  0.00000000000E+00 0. -1.
         23    2    1    2    0    0 -0.17309699910E+03  0.96993653239E+02  0.20519455172E+01  0.21935657143E+03  0.93502700926E+02 0.  0.
         24    2    1    2    0    0 -0.33201218507E+01  0.30372040524E+03  0.19305834191E+03  0.36900998240E+03  0.81484575004E+02 0.  0.
        -13    1    4    4    0    0  0.21156257444E+02  0.40760610479E+02  0.82148937147E+01  0.46652964262E+02  0.00000000000E+00 0.  1.
         14    1    4    4    0    0 -0.24476379295E+02  0.26295979476E+03  0.18484344819E+03  0.32235701814E+03  0.00000000000E+00 0. -1.
        -13    1    3    3    0    0 -0.11790607032E+03  0.91476175922E+02 -0.34193647698E+02  0.15309780443E+03  0.00000000000E+00 0.  1.
         13    1    3    3    0    0 -0.55190928784E+02  0.55174773166E+01  0.36245593215E+02  0.66258766993E+02  0.00000000000E+00 0. -1.
          1    1    1    2  501    0  0.17641712095E+03 -0.40071405848E+03  0.35284282886E+03  0.56231025164E+03  0.00000000000E+00 0. -1.
<scales pt_clust_5="13000.00000" pt_clust_6="13000.00000" pt_clust_7="13000.00000" pt_clust_8="13000.00000" pt_clust_9="347.58022"></scales>
<clustering>
<clus scale="   81.485">  5  6 -1 -1</clus>
<clus scale="   93.503">  7  8 -1 -1</clus>
<clus scale="  219.347">  1  7  2 -1</clus>
<clus scale="  347.580">  2  9  1 -1</clus>
<clus scale="  347.580">  2  5  1 -1</clus>
</clustering>
</event>
<event>
 9    2  0.1751298E-004  0.9569939E+02  0.7546771E-02  0.1295704E+00
         21   -1    0    0  501  502  0.00000000000E+00  0.00000000000E+00  0.25358012353E+02  0.25358012353E+02  0.00000000000E+00 0.  1.
         -1   -1    0    0    0  501 -0.00000000000E+00 -0.00000000000E+00 -0.47242455397E+03  0.47242455397E+03  0.00000000000E+00 0.  1.
         24    2    1    2    0    0  0.24167939150E+02 -0.35277535191E+02 -0.21308961049E+03  0.23174596284E+03  0.80438892459E+02 0.  0.
         23    2    1    2    0    0 -0.27283384954E+01  0.96708708551E+01 -0.15304074627E+03  0.17848077128E+03  0.91284972056E+02 0.  0.
        -11    1    3    3    0    0  0.50476199673E+02 -0.76461267700E+01 -0.98047692079E+02  0.11054257058E+03  0.00000000000E+00 0.  1.
         12    1    3    3    0    0 -0.26308260523E+02 -0.27631408421E+02 -0.11504191841E+03  0.12120339226E+03  0.00000000000E+00 0. -1.
        -11    1    4    4    0    0 -0.15296723633E+02 -0.29914495552E+02 -0.19983883241E+02  0.39092485050E+02  0.00000000000E+00 0.  1.
         11    1    4    4    0    0  0.12568385138E+02  0.39585366407E+02 -0.13305686303E+03  0.13938828623E+03  0.00000000000E+00 0. -1.
         -2    1    1    2    0  502 -0.21439600655E+02  0.25606664336E+02 -0.80936184855E+02  0.87555832207E+02  0.00000000000E+00 0.  1.
<scales pt_clust_5="13000.00000" pt_clust_6="13000.00000" pt_clust_7="13000.00000" pt_clust_8="13000.00000" pt_clust_9="33.39699"></scales>
<clustering>
<clus scale="   33.397">  1  9  2 -1</clus>
<clus scale="   80.439">  5  6 -1 -1</clus>
<clus scale="   85.416">  2  5  1 -1</clus>
<clus scale="   91.285">  7  8 -1 -1</clus>
<clus scale="   33.397">  1  5  2 -1</clus>
</clustering>
</event>
<event>
 9    2  0.1751298E-004  0.1364633E+03  0.7546771E-02  0.1220807E+00
          2   -1    0    0  502    0 -0.00000000000E+00  0.00000000000E+00  0.16358142634E+04  0.16358142634E+04  0.00000000000E+00 0. -1.
         21   -1    0    0  501  502  0.00000000000E+00 -0.00000000000E+00 -0.23898600667E+02  0.23898600667E+02  0.00000000000E+00 0.  1.
         24    2    1    2    0    0  0.91685898007E+02  0.13031683205E+01  0.88432365620E+03  0.89267561422E+03  0.80208610285E+02 0.  0.
         23    2    1    2    0    0 -0.14025786718E+03  0.26016722447E+02  0.39545836729E+03  0.43026081520E+03  0.91585532049E+02 0.  0.
        -13    1    3    3    0    0  0.56650374934E+02 -0.28525994824E+02  0.30487682716E+03  0.31140468382E+03  0.00000000000E+00 0.  1.
         14    1    3    3    0    0  0.35035523074E+02  0.29829163145E+02  0.57944682904E+03  0.58127093041E+03  0.00000000000E+00 0. -1.
        -11    1    4    4    0    0 -0.36794072480E+02  0.43112261080E+02  0.20668381926E+03  0.21431442315E+03  0.00000000000E+00 0.  1.
         11    1    4    4    0    0 -0.10346379470E+03 -0.17095538633E+02  0.18877454803E+03  0.21594639205E+03  0.00000000000E+00 0. -1.
          1    1    1    2  501    0  0.48571969171E+02 -0.27319890767E+02  0.33213363919E+03  0.33677643460E+03  0.00000000000E+00 0. -1.
<scales pt_clust_5="13000.00000" pt_clust_6="13000.00000" pt_clust_7="13000.00000" pt_clust_8="13000.00000" pt_clust_9="55.72805"></scales>
<clustering>
<clus scale="   55.728">  2  9  1 -1</clus>
<clus scale="   80.209">  5  6 -1 -1</clus>
<clus scale="   91.586">  7  8 -1 -1</clus>
<clus scale="  129.104">  1  5  2 -1</clus>
<clus scale="   55.728">  2  5  1 -1</clus>
</clustering>
</event>
<event>
 9    2  0.1751298E-004  0.9022663E+02  0.7546771E-02  0.1306233E+00
         21   -1    0    0  501  502  0.00000000000E+00  0.00000000000E+00  0.54116047412E+02  0.54116047412E+02  0.00000000000E+00 0.  1.
          2   -1    0    0  502    0 -0.00000000000E+00 -0.00000000000E+00 -0.25581484604E+03  0.25581484604E+03  0.00000000000E+00 0. -1.
         24    2    1    2    0    0  0.13584367666E+02  0.35758142663E+02 -0.14433882818E+03  0.16934571800E+03  0.79881756824E+02 0.  0.
         23    2    1    2    0    0  0.34785759559E+01 -0.46004587681E+01 -0.59337443108E+02  0.10500630940E+03  0.86441472383E+02 0.  0.
        -11    1    3    3    0    0  0.36643422701E+02 -0.93620171897E+01 -0.58226937102E+02  0.69431721838E+02  0.00000000000E+00 0.  1.
         12    1    3    3    0    0 -0.23059055035E+02  0.45120159853E+02 -0.86111891082E+02  0.99913996167E+02  0.00000000000E+00 0. -1.
        -11    1    4    4    0    0  0.33930311040E+02 -0.15006933663E+02  0.45526028363E+00  0.37103656520E+02  0.00000000000E+00 0.  1.
         11    1    4    4    0    0 -0.30451735084E+02  0.10406474895E+02 -0.59792703391E+02  0.67902652880E+02  0.00000000000E+00 0. -1.
          1    1    1    2  501    0 -0.17062943621E+02 -0.31157683895E+02  0.19774726688E+01  0.35578866043E+02  0.00000000000E+00 0. -1.
<scales pt_clust_5="13000.00000" pt_clust_6="13000.00000" pt_clust_7="13000.00000" pt_clust_8="13000.00000" pt_clust_9="35.52387"></scales>
<clustering>
<clus scale="   35.524">  1  9  2 -1</clus>
<clus scale="   79.882">  5  6 -1 -1</clus>
<clus scale="   83.963">  2  5  1 -1</clus>
<clus scale="   86.441">  7  8 -1 -1</clus>
<clus scale="   35.524">  1  5  2 -1</clus>
</clustering>
</event>
<event>
 9    2  0.1751298E-004  0.1500013E+03  0.7546771E-02  0.1202051E+00
          2   -1    0    0  502    0 -0.00000000000E+00  0.00000000000E+00  0.11961545300E+04  0.11961545300E+04  0.00000000000E+00 0. -1.
         21   -1    0    0  501  502  0.00000000000E+00 -0.00000000000E+00 -0.43401715496E+02  0.43401715496E+02  0.00000000000E+00 0.  1.
         24    2    1    2    0    0  0.60842966820E+02  0.61325021896E+02  0.17683432028E+03  0.21287994716E+03  0.81147212835E+02 0.  0.
         23    2    1    2    0    0 -0.52654878621E+02 -0.15813265884E+03  0.39916006958E+03  0.44179251180E+03  0.89852035599E+02 0.  0.
        -13    1    3    3    0    0  0.51289876005E+02  0.46901333071E+02  0.51868152447E+02  0.86721921466E+02  0.00000000000E+00 0.  1.
         14    1    3    3    0    0  0.95530908150E+01  0.14423688825E+02  0.12496616784E+03  0.12615802569E+03  0.00000000000E+00 0. -1.
        -13    1    4    4    0    0 -0.13248738525E+02 -0.14022682422E+03  0.34369917017E+03  0.37144072323E+03  0.00000000000E+00 0.  1.
         13    1    4    4    0    0 -0.39406140097E+02 -0.17905834619E+02  0.55460899417E+02  0.70351788569E+02  0.00000000000E+00 0. -1.
          1    1    1    2  501    0 -0.81880881989E+01  0.96807636943E+02  0.57675842466E+03  0.58488378655E+03  0.00000000000E+00 0. -1.
<scales pt_clust_5="13000.00000" pt_clust_6="13000.00000" pt_clust_7="13000.00000" pt_clust_8="13000.00000" pt_clust_9="97.15335"></scales>
<clustering>
<clus scale="   81.147">  5  6 -1 -1</clus>
<clus scale="   89.852">  7  8 -1 -1</clus>
<clus scale="   97.153">  2  9  1 -1</clus>
<clus scale="  144.955">  1  5  2 -1</clus>
<clus scale="   97.153">  2  5  1 -1</clus>
</clustering>
</event>
<event>
 9    2  0.1751298E-004  0.1760142E+03  0.7546771E-02  0.1196554E+00
          2   -1    0    0  502    0 -0.00000000000E+00  0.00000000000E+00  0.31130815940E+03  0.31130815940E+03  0.00000000000E+00 0. -1.
         21   -1    0    0  501  502  0.00000000000E+00 -0.00000000000E+00 -0.48434265665E+03  0.48434265665E+03  0.00000000000E+00 0. -1.
         24    2    1    2    0    0 -0.65129231666E+02  0.54643632278E+01  0.18809768128E+03  0.21354940416E+03  0.77142298573E+02 0.  0.
         23    2    1    2    0    0  0.14961278090E+03 -0.63124288773E+02 -0.42348199989E+03  0.46231144017E+03  0.89589081037E+02 0.  0.
        -13    1    3    3    0    0  0.11978446573E+01 -0.25994729029E+02  0.67798072006E+02  0.72620515950E+02  0.00000000000E+00 0.  1.
         14    1    3    3    0    0 -0.66327076323E+02  0.31459092257E+02  0.12029960928E+03  0.14092888821E+03  0.00000000000E+00 0. -1.
        -13    1    4    4    0    0  0.12632170949E+03 -0.79611718088E+02 -0.29425824438E+03  0.32997441466E+03  0.00000000000E+00 0. -1.
         13    1    4    4    0    0  0.23291071410E+02  0.16487429316E+02 -0.12922375551E+03  0.13233702551E+03  0.00000000000E+00 0.  1.
          1    1    1    2  501    0 -0.84483549233E+02  0.57659925545E+02  0.62349821348E+02  0.11978997173E+03  0.00000000000E+00 0. -1.
<scales pt_clust_5="13000.00000" pt_clust_6="13000.00000" pt_clust_7="13000.00000" pt_clust_8="13000.00000" pt_clust_9="151.50844"></scales>
<clustering>
<clus scale="   77.142">  5  6 -1 -1</clus>
<clus scale="   89.589">  7  8 -1 -1</clus>
<clus scale="  101.107">  1  5  2 -1</clus>
<clus scale="  151.508">  2  9  1 -1</clus>
<clus scale="  151.508">  2  5  1 -1</clus>
</clustering>
</event>
<event>
 9    2  0.1751298E-004  0.2022911E+03  0.7546771E-02  0.1177570E+00
         21   -1    0    0  501  502  0.00000000000E+00  0.00000000000E+00  0.23849923320E+03  0.23849923320E+03  0.00000000000E+00 0. -1.
          2   -1    0    0  502    0 -0.00000000000E+00 -0.00000000000E+00 -0.36760137606E+03  0.36760137606E+03  0.00000000000E+00 0. -1.
         24    2    1    2    0    0 -0.51385262614E+02 -0.35656094772E+02 -0.18667410506E+03  0.21249757700E+03  0.79976224121E+02 0.  0.
         23    2    1    2    0    0 -0.24313319119E+02 -0.15639452199E+03  0.92994581392E+01  0.18160315177E+03  0.88559814903E+02 0.  0.
        -11    1    3    3    0    0 -0.93183095328E+01 -0.51168668782E+02 -0.67814765549E+02  0.85462892438E+02  0.00000000000E+00 0.  1.
         12    1    3    3    0    0 -0.42066953082E+02  0.15512574010E+02 -0.11885933951E+03  0.12703468457E+03  0.00000000000E+00 0. -1.
        -11    1    4    4    0    0  0.13272474609E+02 -0.13457822786E+03  0.20370134982E+02  0.13675671974E+03  0.00000000000E+00 0. -1.
         11    1    4    4    0    0 -0.37585793728E+02 -0.21816294136E+02 -0.11070676843E+02  0.44846432029E+02  0.00000000000E+00 0.  1.
          1    1    1    2  501    0  0.75698581733E+02  0.19205061676E+03  0.48272504065E+02  0.21199988048E+03  0.00000000000E+00 0. -1.
<scales pt_clust_5="13000.00000" pt_clust_6="13000.00000" pt_clust_7="13000.00000" pt_clust_8="13000.00000" pt_clust_9="181.87605"></scales>
<clustering>
<clus scale="   79.976">  5  6 -1 -1</clus>
<clus scale="   88.560">  7  8 -1 -1</clus>
<clus scale="  101.528">  2  5  1 -1</clus>
<clus scale="  181.876">  1  9  2 -1</clus>
<clus scale="  181.876">  1  5  2 -1</clus>
</clustering>
</event>
<event>
 9    2  0.1751298E-004  0.1308266E+03  0.7546771E-02  0.1247202E+00
         21   -1    0    0  501  502  0.00000000000E+00  0.00000000000E+00  0.20256389010E+03  0.20256389010E+03  0.00000000000E+00 0. -1.
          2   -1    0    0  502    0 -0.00000000000E+00 -0.00000000000E+00 -0.32492213159E+03  0.32492213159E+03  0.00000000000E+00 0. -1.
         24    2    1    2    0    0 -0.17044111799E+02 -0.27944396775E+02  0.13580536322E+03  0.16034993265E+03  0.78724920858E+02 0.  0.
         23    2    1    2    0    0  0.49728923890E+02 -0.72976709137E+02 -0.56918261383E+02  0.13964311164E+03  0.91988826501E+02 0.  0.
        -13    1    3    3    0    0 -0.21910328258E+02 -0.16599323646E+02  0.37778647777E+01  0.27746572620E+02  0.00000000000E+00 0.  1.
         14    1    3    3    0    0  0.48662164592E+01 -0.11345073129E+02  0.13202749844E+03  0.13260336003E+03  0.00000000000E+00 0. -1.
        -11    1    4    4    0    0  0.29841395762E+02 -0.31766327495E+02  0.21692592103E+02  0.48684463802E+02  0.00000000000E+00 0.  1.
         11    1    4    4    0    0  0.19887528128E+02 -0.41210381642E+02 -0.78610853486E+02  0.90958647835E+02  0.00000000000E+00 0. -1.
          1    1    1    2  501    0 -0.32684812091E+02  0.10092110591E+03 -0.20124534332E+03  0.22749297740E+03  0.00000000000E+00 0. -1.
<scales pt_clust_5="13000.00000" pt_clust_6="13000.00000" pt_clust_7="13000.00000" pt_clust_8="13000.00000" pt_clust_9="93.02506"></scales>
<clustering>
<clus scale="   78.725">  5  6 -1 -1</clus>
<clus scale="   85.258">  2  5  1 -1</clus>
<clus scale="   91.989">  7  8 -1 -1</clus>
<clus scale="   93.025">  1  9  2 -1</clus>
<clus scale="   93.025">  1  5  2 -1</clus>
</clustering>
</event>
<event>
 9    2  0.1751298E-004  0.1146296E+03  0.7546771E-02  0.1254463E+00
         21   -1    0    0  501  502  0.00000000000E+00  0.00000000000E+00  0.26335567239E+03  0.26335567239E+03  0.00000000000E+00 0. -1.
          2   -1    0    0  502    0 -0.00000000000E+00 -0.00000000000E+00 -0.72777988727E+02  0.72777988727E+02  0.00000000000E+00 0. -1.
         24    2    1    2    0    0  0.52234704698E+02 -0.50218657823E+02  0.28697603879E+02  0.11299209828E+03  0.81812491941E+02 0.  0.
         23    2    1    2    0    0 -0.27595712022E+02  0.74340722444E+02  0.11880161558E+03  0.16796268971E+03  0.88371799421E+02 0.  0.
        -11    1    3    3    0    0 -0.14489688113E+01 -0.51536592766E+02  0.29275956787E+02  0.59289135180E+02  0.00000000000E+00 0.  1.
         12    1    3    3    0    0  0.53683673509E+02  0.13179349436E+01 -0.57835290801E+00  0.53702963103E+02  0.00000000000E+00 0. -1.
        -13    1    4    4    0    0 -0.64810068960E+01  0.57338994240E+02  0.13546803324E+02  0.59272924604E+02  0.00000000000E+00 0.  1.
         13    1    4    4    0    0 -0.21114705126E+02  0.17001728204E+02  0.10525481226E+03  0.10868976510E+03  0.00000000000E+00 0. -1.
          1    1    1    2  501    0 -0.24638992676E+02 -0.24122064622E+02  0.43078464200E+02  0.55178873127E+02  0.00000000000E+00 0. -1.
<scales pt_clust_5="13000.00000" pt_clust_6="13000.00000" pt_clust_7="13000.00000" pt_clust_8="13000.00000" pt_clust_9="34.48121"></scales>
<clustering>
<clus scale="   34.481">  1  9  2 -1</clus>
<clus scale="   81.812">  5  6 -1 -1</clus>
<clus scale="   88.372">  7  8 -1 -1</clus>
<clus scale="  109.652">  2  5  1 -1</clus>
<clus scale="   34.481">  1  5  2 -1</clus>
</clustering>
</event>
<event>
 9    2  0.1751298E-004  0.1826066E+03  0.7546771E-02  0.1166792E+00
          2   -1    0    0  502    0 -0.00000000000E+00  0.00000000000E+00  0.87941648199E+03  0.87941648199E+03  0.00000000000E+00 0. -1.
         21   -1    0    0  501  502  0.00000000000E+00 -0.00000000000E+00 -0.73243314835E+02  0.73243314835E+02  0.00000000000E+00 0. -1.
         23    2    1    2    0    0 -0.14385189130E+03  0.11461280931E+03  0.64020763629E+03  0.67249522602E+03  0.92490803682E+02 0.  0.
         24    2    1    2    0    0  0.66152149488E+02 -0.91569457582E+02  0.13555498229E+03  0.19360218058E+03  0.79659140468E+02 0.  0.
        -13    1    4    4    0    0  0.45893774697E+02 -0.22946262602E+02  0.15078222620E+02  0.53480111450E+02  0.00000000000E+00 0.  1.
         14    1    4    4    0    0  0.20258374791E+02 -0.68623194980E+02  0.12047675967E+03  0.14012206913E+03  0.00000000000E+00 0. -1.
        -13    1    3    3    0    0 -0.88272493119E+02  0.96830573837E+02  0.54742360013E+03  0.56288612618E+03  0.00000000000E+00 0. -1.
         13    1    3    3    0    0 -0.55579398180E+02  0.17782235473E+02  0.92784036161E+02  0.10960909984E+03  0.00000000000E+00 0.  1.
          1    1    1    2  501    0  0.77699741811E+02 -0.23043351728E+02  0.30410548577E+02  0.86562390223E+02  0.00000000000E+00 0. -1.
<scales pt_clust_5="13000.00000" pt_clust_6="13000.00000" pt_clust_7="13000.00000" pt_clust_8="13000.00000" pt_clust_9="81.04472"></scales>
<clustering>
<clus scale="   79.659">  5  6 -1 -1</clus>
<clus scale="   81.045">  2  9  1 -1</clus>
<clus scale="   92.491">  7  8 -1 -1</clus>
<clus scale="  176.455">  2  5  1 -1</clus>
<clus scale="   81.045">  2  5  1 -1</clus>
</clustering>
</event>
<event>
 9    2  0.1751298E-004  0.1407269E+03  0.7546771E-02  0.1214627E+00
         21   -1    0    0  501  502  0.00000000000E+00  0.00000000000E+00  0.92666181815E+02  0.92666181815E+02  0.00000000000E+00 0. -1.
          2   -1    0    0  502    0 -0.00000000000E+00 -0.00000000000E+00 -0.34204239756E+03  0.34204239756E+03  0.00000000000E+00 0. -1.
         23    2    1    2    0    0  0.85042209140E+02 -0.32929302167E+02 -0.83157006487E+02  0.15339893315E+03  0.91102297920E+02 0.  0.
         24    2    1    2    0    0 -0.13381938825E+03  0.22032433414E+01 -0.74634160361E+02  0.17309169451E+03  0.80485985494E+02 0.  0.
        -13    1    4    4    0    0 -0.32009343529E+02  0.17341931049E+02 -0.58503853403E+02  0.68906033906E+02  0.00000000000E+00 0.  1.
         14    1    4    4    0    0 -0.10181004472E+03 -0.15138687707E+02 -0.16130306957E+02  0.10418566060E+03  0.00000000000E+00 0. -1.
        -11    1    3    3    0    0  0.10833413143E+02  0.27493431769E+02 -0.52802666434E+01  0.30018874839E+02  0.00000000000E+00 0.  1.
         11    1    3    3    0    0  0.74208795997E+02 -0.60422733936E+02 -0.77876739843E+02  0.12338005831E+03  0.00000000000E+00 0. -1.
          1    1    1    2  501    0  0.48777179113E+02  0.30726058826E+02 -0.91585048895E+02  0.10821795172E+03  0.00000000000E+00 0. -1.
<scales pt_clust_5="13000.00000" pt_clust_6="13000.00000" pt_clust_7="13000.00000" pt_clust_8="13000.00000" pt_clust_9="57.64813"></scales>
<clustering>
<clus scale="   57.648">  1  9  2 -1</clus>
<clus scale="   80.486">  5  6 -1 -1</clus>
<clus scale="   91.102">  7  8 -1 -1</clus>
<clus scale="  134.099">  1  5  2 -1</clus>
<clus scale="   57.648">  1  5  2 -1</clus>
</clustering>
</event>
<event>
 9    2  0.1751298E-004  0.1450339E+03  0.7546771E-02  0.1209247E+00
          2   -1    0    0  502    0 -0.00000000000E+00  0.00000000000E+00  0.11042454843E+04  0.11042454843E+04  0.00000000000E+00 0. -1.
         21   -1    0    0  501  502  0.00000000000E+00 -0.00000000000E+00 -0.47341427378E+02  0.47341427378E+02  0.00000000000E+00 0. -1.
         24    2    1    2    0    0  0.34938448060E+02 -0.96311111167E+02  0.56972476561E+03  0.58502208914E+03  0.84664106564E+02 0.  0.
         23    2    1    2    0    0 -0.91286072386E+02  0.86016341119E+02  0.48395548685E+03  0.50919383709E+03  0.96610002242E+02 0.  0.
        -11    1    3    3    0    0 -0.19340995903E+01 -0.76160489331E+02  0.22075049203E+03  0.23352717317E+03  0.00000000000E+00 0.  1.
         12    1    3    3    0    0  0.36872547650E+02 -0.20150621837E+02  0.34897427358E+03  0.35149491597E+03  0.00000000000E+00 0. -1.
        -11    1    4    4    0    0  0.33717174008E+01  0.50619366324E+02  0.23683822452E+03  0.24221072090E+03  0.00000000000E+00 0.  1.
         11    1    4    4    0    0 -0.94657789787E+02  0.35396974795E+02  0.24711726232E+03  0.26698311619E+03  0.00000000000E+00 0. -1.
          1    1    1    2  501    0  0.56347624327E+02  0.10294770048E+02  0.32238044777E+01  0.57370985462E+02  0.00000000000E+00 0. -1.
<scales pt_clust_5="13000.00000" pt_clust_6="13000.00000" pt_clust_7="13000.00000" pt_clust_8="13000.00000" pt_clust_9="57.28034"></scales>
<clustering>
<clus scale="   57.280">  2  9  1 -1</clus>
<clus scale="   84.664">  5  6 -1 -1</clus>
<clus scale="   96.610">  7  8 -1 -1</clus>
<clus scale="  137.366">  1  5  2 -1</clus>
<clus scale="   57.280">  2  5  1 -1</clus>
</clustering>
</event>
<event>
 9    2  0.1751298E-004  0.9240575E+02  0.7546771E-02  0.1302915E+00
         21   -1    0    0  501  502  0.00000000000E+00  0.00000000000E+00  0.44016070333E+03  0.44016070333E+03  0.00000000000E+00 0. -1.
          4   -1    0    0  502    0 -0.00000000000E+00 -0.00000000000E+00 -0.15362525810E+03  0.15362525810E+03  0.00000000000E+00 0. -1.
         24    2    1    2    0    0 -0.71358487712E+01 -0.77997620150E+01 -0.95079939543E+02  0.12606020303E+03  0.82092772273E+02 0.  0.
         23    2    1    2    0    0  0.53661817759E+00  0.79423379124E+02  0.37660374424E+03  0.39562437899E+03  0.91541837235E+02 0.  0.
        -13    1    3    3    0    0  0.23605756845E+02  0.10910078329E+02 -0.17864657499E+01  0.26066319748E+02  0.00000000000E+00 0.  1.
         14    1    3    3    0    0 -0.30741605616E+02 -0.18709840344E+02 -0.93293473793E+02  0.99993883283E+02  0.00000000000E+00 0. -1.
        -13    1    4    4    0    0  0.26953698279E+02  0.78065768446E+02  0.34329716738E+03  0.35309164700E+03  0.00000000000E+00 0. -1.
         13    1    4    4    0    0 -0.26417080102E+02  0.13576106779E+01  0.33306576861E+02  0.42532731984E+02  0.00000000000E+00 0.  1.
          3    1    1    2  501    0  0.65992305936E+01 -0.71623617109E+02  0.50116405372E+01  0.72101379412E+02  0.00000000000E+00 0. -1.
<scales pt_clust_5="13000.00000" pt_clust_6="13000.00000" pt_clust_7="13000.00000" pt_clust_8="13000.00000" pt_clust_9="71.92703"></scales>
<clustering>
<clus scale="   71.927">  1  9  2 -1</clus>
<clus scale="   82.093">  5  6 -1 -1</clus>
<clus scale="   83.055">  2  5  1 -1</clus>
<clus scale="   91.542">  7  8 -1 -1</clus>
<clus scale="   71.927">  1  5  2 -1</clus>
</clustering>
</event>
<event>
 9    2  0.1751298E-004  0.1705916E+03  0.7546771E-02  0.1205333E+00
         21   -1    0    0  501  502  0.00000000000E+00  0.00000000000E+00  0.18106175997E+03  0.18106175997E+03  0.00000000000E+00 0. -1.
          4   -1    0    0  502    0 -0.00000000000E+00 -0.00000000000E+00 -0.44557917019E+03  0.44557917019E+03  0.00000000000E+00 0. -1.
         24    2    1    2    0    0  0.26137167985E+02  0.30793609737E+02 -0.46274379432E+02  0.10281061083E+03  0.82445773434E+02 0.  0.
         23    2    1    2    0    0 -0.61671778085E+02  0.11148371363E+03 -0.31244218705E+03  0.34953451817E+03  0.91226271055E+02 0.  0.
        -13    1    3    3    0    0 -0.84169498726E+01  0.28516465102E+02  0.14333566960E+02  0.33007347195E+02  0.00000000000E+00 0.  1.
         14    1    3    3    0    0  0.34554117857E+02  0.22771446354E+01 -0.60607946392E+02  0.69803263637E+02  0.00000000000E+00 0. -1.
        -11    1    4    4    0    0 -0.31315992049E+02  0.71662720138E+01 -0.15468499270E+03  0.15798573916E+03  0.00000000000E+00 0.  1.
         11    1    4    4    0    0 -0.30355786036E+02  0.10431744162E+03 -0.15775719435E+03  0.19154877901E+03  0.00000000000E+00 0. -1.
          3    1    1    2  501    0  0.35534610100E+02 -0.14227732337E+03  0.94199156264E+02  0.17429580116E+03  0.00000000000E+00 0. -1.
<scales pt_clust_5="13000.00000" pt_clust_6="13000.00000" pt_clust_7="13000.00000" pt_clust_8="13000.00000" pt_clust_9="144.15013"></scales>
<clustering>
<clus scale="   82.446">  5  6 -1 -1</clus>
<clus scale="   91.226">  7  8 -1 -1</clus>
<clus scale="   91.808">  2  5  1 -1</clus>
<clus scale="  144.150">  1  9  2 -1</clus>
<clus scale="  144.150">  1  5  2 -1</clus>
</clustering>
</event>
<event>
 9    2  0.1751298E-004  0.9443716E+02  0.7546771E-02  0.1298573E+00
         21   -1    0    0  501  502  0.00000000000E+00  0.00000000000E+00  0.29726001131E+03  0.29726001131E+03  0.00000000000E+00 0.  1.
          2   -1    0    0  502    0 -0.00000000000E+00 -0.00000000000E+00 -0.65047691144E+02  0.65047691144E+02  0.00000000000E+00 0. -1.
         24    2    1    2    0    0  0.55573070714E+02 -0.11459601733E+02  0.45265308099E+02  0.10659858453E+03  0.78068056507E+02 0.  0.
         23    2    1    2    0    0  0.18305388185E+02 -0.36407688084E+01  0.13993071324E+03  0.16684641351E+03  0.88931314845E+02 0.  0.
        -13    1    3    3    0    0  0.47827495713E+02 -0.39822115295E+02  0.14217580341E+02  0.63838936422E+02  0.00000000000E+00 0.  1.
         14    1    3    3    0    0  0.77455750008E+01  0.28362513562E+02  0.31047727758E+02  0.42759648111E+02  0.00000000000E+00 0. -1.
        -11    1    4    4    0    0  0.16342356183E+02 -0.43365651623E+02  0.10131527791E+03  0.11141112101E+03  0.00000000000E+00 0.  1.
         11    1    4    4    0    0  0.19630320021E+01  0.39724882814E+02  0.38615435325E+02  0.55435292500E+02  0.00000000000E+00 0. -1.
          1    1    1    2  501    0 -0.73878458899E+02  0.15100370542E+02  0.47016298834E+02  0.88862704415E+02  0.00000000000E+00 0. -1.
<scales pt_clust_5="13000.00000" pt_clust_6="13000.00000" pt_clust_7="13000.00000" pt_clust_8="13000.00000" pt_clust_9="75.40593"></scales>
<clustering>
<clus scale="   75.406">  1  9  2 -1</clus>
<clus scale="   78.068">  5  6 -1 -1</clus>
<clus scale="   84.287">  2  5  1 -1</clus>
<clus scale="   88.931">  7  8 -1 -1</clus>
<clus scale="   75.406">  1  5  2 -1</clus>
</clustering>
</event>
<event>
 9    2  0.1751298E-004  0.1153437E+03  0.7546771E-02  0.1254448E+00
          2   -1    0    0  502    0 -0.00000000000E+00  0.00000000000E+00  0.11006856108E+04  0.11006856108E+04  0.00000000000E+00 0. -1.
         21   -1    0    0  501  502  0.00000000000E+00 -0.00000000000E+00 -0.37586568618E+02  0.37586568618E+02  0.00000000000E+00 0. -1.
         24    2    1    2    0    0  0.28757215224E+02 -0.78116139815E+02  0.57314539935E+03  0.58497943753E+03  0.82317585016E+02 0.  0.
         23    2    1    2    0    0 -0.95477312665E+01  0.30625546817E+00  0.48381529930E+02  0.10450625227E+03  0.92138652913E+02 0.  0.
        -11    1    3    3    0    0  0.46961674629E+02 -0.34957278272E+02  0.18562210989E+03  0.19463550002E+03  0.00000000000E+00 0.  1.
         12    1    3    3    0    0 -0.18204459404E+02 -0.43158861543E+02  0.38752328947E+03  0.39034393751E+03  0.00000000000E+00 0. -1.
        -11    1    4    4    0    0 -0.29359419230E+01 -0.45762784304E+02  0.20296324100E+02  0.50147711356E+02  0.00000000000E+00 0.  1.
         11    1    4    4    0    0 -0.66117893435E+01  0.46069039773E+02  0.28085205829E+02  0.54358540915E+02  0.00000000000E+00 0. -1.
          1    1    1    2  501    0 -0.19209483958E+02  0.77809884346E+02  0.44157211291E+03  0.44878648964E+03  0.00000000000E+00 0. -1.
<scales pt_clust_5="13000.00000" pt_clust_6="13000.00000" pt_clust_7="13000.00000" pt_clust_8="13000.00000" pt_clust_9="80.14605"></scales>
<clustering>
<clus scale="   80.146">  2  9  1 -1</clus>
<clus scale="   82.318">  5  6 -1 -1</clus>
<clus scale="   92.139">  7  8 -1 -1</clus>
<clus scale="  107.661">  1  5  2 -1</clus>
<clus scale="   80.146">  2  5  1 -1</clus>
</clustering>
</event>
<event>
 9    2  0.1751298E-004  0.1065873E+03  0.7546771E-02  0.1271804E+00
         21   -1    0    0  501  502  0.00000000000E+00  0.00000000000E+00  0.70502009918E+03  0.70502009918E+03  0.00000000000E+00 0.  1.
          2   -1    0    0  502    0 -0.00000000000E+00 -0.00000000000E+00 -0.10719419565E+03  0.10719419565E+03  0.00000000000E+00 0. -1.
         23    2    1    2    0    0  0.48819345080E+02 -0.24428005662E+02 -0.72147987884E+02  0.12833673092E+03  0.91021582233E+02 0.  0.
         24    2    1    2    0    0 -0.53685962514E+02  0.51284110297E+02  0.50131897951E+03  0.51302846783E+03  0.79782498359E+02 0.  0.
        -11    1    4    4    0    0 -0.53629688098E+02  0.37837830610E+02  0.18280117611E+03  0.19422696738E+03  0.00000000000E+00 0.  1.
         12    1    4    4    0    0 -0.56274415748E-01  0.13446279687E+02  0.31851780340E+03  0.31880150045E+03  0.00000000000E+00 0. -1.
        -11    1    3    3    0    0  0.69601023758E+02 -0.34575465208E+02 -0.70865258885E+02  0.10517438005E+03  0.00000000000E+00 0. -1.
         11    1    3    3    0    0 -0.20781678678E+02  0.10147459546E+02 -0.12827289988E+01  0.23162350865E+02  0.00000000000E+00 0.  1.
          1    1    1    2  501    0  0.48666174337E+01 -0.26856104635E+02  0.16865491191E+03  0.17084909609E+03  0.00000000000E+00 0. -1.
<scales pt_clust_5="13000.00000" pt_clust_6="13000.00000" pt_clust_7="13000.00000" pt_clust_8="13000.00000" pt_clust_9="27.29348"></scales>
<clustering>
<clus scale="   27.293">  1  9  2 -1</clus>
<clus scale="   79.782">  5  6 -1 -1</clus>
<clus scale="   91.022">  7  8 -1 -1</clus>
<clus scale="   97.166">  1  5  2 -1</clus>
<clus scale="   27.293">  1  5  2 -1</clus>
</clustering>
</event>
<event>
 9    2  0.1751298E-004  0.9461043E+02  0.7546771E-02  0.1295820E+00
         -1   -1    0    0    0  501 -0.00000000000E+00  0.00000000000E+00  0.30686362620E+03  0.30686362620E+03  0.00000000000E+00 0.  1.
         21   -1    0    0  501  502  0.00000000000E+00 -0.00000000000E+00 -0.47025364387E+03  0.47025364387E+03  0.00000000000E+00 0.  1.
         23    2    1    2    0    0  0.26157054651E+02 -0.63116586844E+01  0.22212778701E+03  0.24073584685E+03  0.88819849424E+02 0.  0.
         24    2    1    2    0    0 -0.60997364791E+02 -0.42988085647E+02  0.31325456392E+02  0.11518952360E+03  0.81967604032E+02 0.  0.
        -11    1    4    4    0    0 -0.92623569858E+01 -0.48884287299E+02  0.38119502926E+02  0.62678236295E+02  0.00000000000E+00 0.  1.
         12    1    4    4    0    0 -0.51735007805E+02  0.58962016520E+01 -0.67940465341E+01  0.52511287308E+02  0.00000000000E+00 0. -1.
        -11    1    3    3    0    0  0.48889205152E+02 -0.10445111105E+02  0.20739080317E+03  0.21333119783E+03  0.00000000000E+00 0.  1.
         11    1    3    3    0    0 -0.22732150501E+02  0.41334524209E+01  0.14736983843E+02  0.27404649024E+02  0.00000000000E+00 0. -1.
         -2    1    1    2    0  502  0.34840310140E+02  0.49299744332E+02 -0.41684326107E+03  0.42119189962E+03  0.00000000000E+00 0.  1.
<scales pt_clust_5="13000.00000" pt_clust_6="13000.00000" pt_clust_7="13000.00000" pt_clust_8="13000.00000" pt_clust_9="60.36814"></scales>
<clustering>
<clus scale="   60.368">  2  9  1 -1</clus>
<clus scale="   81.968">  5  6 -1 -1</clus>
<clus scale="   88.209">  2  5  1 -1</clus>
<clus scale="   88.820">  7  8 -1 -1</clus>
<clus scale="   60.368">  2  5  1 -1</clus>
</clustering>
</event>
<event>
 9    2  0.1751298E-004  0.1218037E+03  0.7546771E-02  0.1244461E+00
         21   -1    0    0  501  502  0.00000000000E+00  0.00000000000E+00  0.16994749728E+03  0.16994749728E+03  0.00000000000E+00 0.  1.
         -3   -1    0    0    0  501 -0.00000000000E+00 -0.00000000000E+00 -0.21228255743E+03  0.21228255743E+03  0.00000000000E+00 0.  1.
         23    2    1    2    0    0 -0.57425543896E+02 -0.58790264503E+02 -0.85901576338E+02  0.15022482006E+03  0.91839139010E+02 0.  0.
         24    2    1    2    0    0  0.10670627965E+03 -0.21341925998E+02  0.24654777289E+02  0.13604997038E+03  0.77846184713E+02 0.  0.
        -13    1    4    4    0    0  0.49293733419E+02 -0.49227509006E+02  0.82708961063E+01  0.70154312196E+02  0.00000000000E+00 0.  1.
         14    1    4    4    0    0  0.57412546234E+02  0.27885583008E+02  0.16383881183E+02  0.65895658183E+02  0.00000000000E+00 0. -1.
        -11    1    3    3    0    0 -0.62849955251E+02 -0.78976196895E+02 -0.61917799078E+02  0.11841102311E+03  0.00000000000E+00 0. -1.
         11    1    3    3    0    0  0.54244113549E+01  0.20185932392E+02 -0.23983777260E+02  0.31813796956E+02  0.00000000000E+00 0.  1.
         -4    1    1    2    0  502 -0.49280735757E+02  0.80132190500E+02  0.18911738902E+02  0.95955264261E+02  0.00000000000E+00 0.  1.
<scales pt_clust_5="13000.00000" pt_clust_6="13000.00000" pt_clust_7="13000.00000" pt_clust_8="13000.00000" pt_clust_9="94.07316"></scales>
<clustering>
<clus scale="   77.846">  5  6 -1 -1</clus>
<clus scale="   91.839">  7  8 -1 -1</clus>
<clus scale="   94.073">  1  9  2 -1</clus>
<clus scale="  111.632">  1  5  2 -1</clus>
<clus scale="   94.073">  1  5  2 -1</clus>
</clustering>
</event>
<event>
 9    2  0.1751298E-004  0.1460636E+03  0.7546771E-02  0.1229242E+00
          2   -1    0    0  502    0 -0.00000000000E+00  0.00000000000E+00  0.55197059601E+03  0.55197059601E+03  0.00000000000E+00 0. -1.
         21   -1    0    0  501  502  0.00000000000E+00 -0.00000000000E+00 -0.14918680705E+03  0.14918680705E+03  0.00000000000E+00 0. -1.
         24    2    1    2    0    0 -0.22497244634E+02 -0.29375853941E+02  0.93708111051E+01  0.88821537764E+02  0.80202161188E+02 0.  0.
         23    2    1    2    0    0 -0.13105307090E+02 -0.80170032674E+02  0.46208572798E+03  0.47823221295E+03  0.92649049026E+02 0.  0.
        -13    1    3    3    0    0 -0.28231332383E+02  0.19630354267E+02  0.17874149606E+02  0.38753634165E+02  0.00000000000E+00 0.  1.
         14    1    3    3    0    0  0.57340877492E+01 -0.49006208208E+02 -0.85033385013E+01  0.50067903600E+02  0.00000000000E+00 0. -1.
        -11    1    4    4    0    0 -0.46346778740E+02 -0.76523577193E+02  0.32064509487E+03  0.33289211260E+03  0.00000000000E+00 0. -1.
         11    1    4    4    0    0  0.33241471650E+02 -0.36464554807E+01  0.14144063311E+03  0.14534010035E+03  0.00000000000E+00 0.  1.
          1    1    1    2  501    0  0.35602551724E+02  0.10954588661E+03 -0.68672750121E+02  0.13410365235E+03  0.00000000000E+00 0. -1.
<scales pt_clust_5="13000.00000" pt_clust_6="13000.00000" pt_clust_7="13000.00000" pt_clust_8="13000.00000" pt_clust_9="112.91906"></scales>
<clustering>
<clus scale="   80.202">  5  6 -1 -1</clus>
<clus scale="   88.326">  1  5  2 -1</clus>
<clus scale="   92.649">  7  8 -1 -1</clus>
<clus scale="  112.919">  2  9  1 -1</clus>
<clus scale="  112.919">  2  5  1 -1</clus>
</clustering>
</event>
<event>
 9    2  0.1751298E-004  0.1021021E+03  0.7546771E-02  0.1285058E+00
          2   -1    0    0  502    0 -0.00000000000E+00  0.00000000000E+00  0.14353302861E+04  0.14353302861E+04  0.00000000000E+00 0. -1.
         21   -1    0    0  501  502  0.00000000000E+00 -0.00000000000E+00 -0.16471444525E+02  0.16471444525E+02  0.00000000000E+00 0. -1.
         24    2    1    2    0    0  0.23995084697E+02 -0.64511178999E+02  0.11544462068E+04  0.11593276956E+04  0.80976570423E+02 0.  0.
         23    2    1    2    0    0 -0.40557441254E+02  0.30377120761E+02  0.22344594206E+03  0.23663752820E+03  0.59173940427E+02 0.  0.
        -11    1    3    3    0    0 -0.19473768448E+02 -0.10825361153E+02  0.92824980517E+02  0.95461474479E+02  0.00000000000E+00 0.  1.
         12    1    3    3    0    0  0.43468853144E+02 -0.53685817846E+02  0.10616212263E+04  0.10638662211E+04  0.00000000000E+00 0. -1.
        -11    1    4    4    0    0  0.46505334116E+01  0.25407201770E+02  0.13203227554E+03  0.13453503316E+03  0.00000000000E+00 0.  1.
         11    1    4    4    0    0 -0.45207974666E+02  0.49699189914E+01  0.91413666511E+02  0.10210249504E+03  0.00000000000E+00 0. -1.
          1    1    1    2  501    0  0.16562356557E+02  0.34134058238E+02  0.40966692667E+02  0.55836506826E+02  0.00000000000E+00 0. -1.
<scales pt_clust_5="13000.00000" pt_clust_6="13000.00000" pt_clust_7="13000.00000" pt_clust_8="13000.00000" pt_clust_9="37.94003"></scales>
<clustering>
<clus scale="   37.940">  2  9  1 -1</clus>
<clus scale="   59.174">  7  8 -1 -1</clus>
<clus scale="   80.977">  5  6 -1 -1</clus>
<clus scale="   85.844">  2  7  1 -1</clus>
<clus scale="   37.940">  2  5  1 -1</clus>
</clustering>
</event>
<event>
 9    2  0.1751298E-004  0.1261022E+03  0.7546771E-02  0.1249312E+00
          2   -1    0    0  502    0 -0.00000000000E+00  0.00000000000E+00  0.18235314620E+03  0.18235314620E+03  0.00000000000E+00 0. -1.
         21   -1    0    0  501  502  0.00000000000E+00 -0.00000000000E+00 -0.24654632067E+03  0.24654632067E+03  0.00000000000E+00 0.  1.
         23    2    1    2    0    0  0.40290575455E+01 -0.72716367764E+01  0.10394613492E+03  0.13832542934E+03  0.90884627044E+02 0.  0.
         24    2    1    2    0    0  0.95178297168E+02  0.50989604600E+02 -0.11154654264E+03  0.16827889785E+03  0.64933106023E+02 0.  0.
        -13    1    4    4    0    0  0.89804440742E+02  0.63937814601E+02 -0.88788980920E+02  0.14154986699E+03  0.00000000000E+00 0.  1.
         14    1    4    4    0    0  0.53738564263E+01 -0.12948210002E+02 -0.22757561719E+02  0.26729030857E+02  0.00000000000E+00 0. -1.
        -13    1    3    3    0    0  0.16197512286E+02  0.21331727089E+02 -0.30015737800E+01  0.26952020889E+02  0.00000000000E+00 0. -1.
         13    1    3    3    0    0 -0.12168454740E+02 -0.28603363866E+02  0.10694770870E+03  0.11137340845E+03  0.00000000000E+00 0.  1.
          1    1    1    2  501    0 -0.99207354714E+02 -0.43717967823E+02 -0.56592766750E+02  0.12229513968E+03  0.00000000000E+00 0. -1.
<scales pt_clust_5="13000.00000" pt_clust_6="13000.00000" pt_clust_7="13000.00000" pt_clust_8="13000.00000" pt_clust_9="108.09935"></scales>
<clustering>
<clus scale="   64.933">  5  6 -1 -1</clus>
<clus scale="   90.885">  7  8 -1 -1</clus>
<clus scale="   91.264">  1  7  2 -1</clus>
<clus scale="  108.099">  2  9  1 -1</clus>
<clus scale="  108.099">  2  5  1 -1</clus>
</clustering>
</event>
<event>
 9    2  0.1751298E-004  0.9403879E+02  0.7546771E-02  0.1301071E+00
          2   -1    0    0  502    0 -0.00000000000E+00  0.00000000000E+00  0.14403311111E+03  0.14403311111E+03  0.00000000000E+00 0. -1.
         21   -1    0    0  501  502  0.00000000000E+00 -0.00000000000E+00 -0.10651037759E+03  0.10651037759E+03  0.00000000000E+00 0. -1.
         24    2    1    2    0    0  0.21000198822E+02  0.14364769461E+02  0.25901441901E+02  0.88143827313E+02  0.80318706716E+02 0.  0.
         23    2    1    2    0    0  0.34904829014E+01  0.17908575009E+02 -0.34641449675E+02  0.10090491782E+03  0.92999311152E+02 0.  0.
        -13    1    3    3    0    0  0.43346926622E+02  0.26578001808E+00 -0.90962415886E+01  0.44291853626E+02  0.00000000000E+00 0.  1.
         14    1    3    3    0    0 -0.22346727799E+02  0.14098989443E+02  0.34997683490E+02  0.43851973687E+02  0.00000000000E+00 0. -1.
        -13    1    4    4    0    0  0.30276984266E+02  0.30797041560E+02  0.12689896500E+02  0.45013187160E+02  0.00000000000E+00 0. -1.
         13    1    4    4    0    0 -0.26786501365E+02 -0.12888466552E+02 -0.47331346175E+02  0.55891730660E+02  0.00000000000E+00 0.  1.
          1    1    1    2  501    0 -0.24490681724E+02 -0.32273344469E+02  0.46262741288E+02  0.61494743564E+02  0.00000000000E+00 0. -1.
<scales pt_clust_5="13000.00000" pt_clust_6="13000.00000" pt_clust_7="13000.00000" pt_clust_8="13000.00000" pt_clust_9="40.51375"></scales>
<clustering>
<clus scale="   40.514">  2  9  1 -1</clus>
<clus scale="   80.319">  5  6 -1 -1</clus>
<clus scale="   81.520">  1  5  2 -1</clus>
<clus scale="   92.999">  7  8 -1 -1</clus>
<clus scale="   40.514">  2  5  1 -1</clus>
</clustering>
</event>
<event>
 9    2  0.1751298E-004  0.1320975E+03  0.7546771E-02  0.1229105E+00
         21   -1    0    0  501  502  0.00000000000E+00  0.00000000000E+00  0.12726512298E+03  0.12726512298E+03  0.00000000000E+00 0. -1.
          2   -1    0    0  502    0 -0.00000000000E+00 -0.00000000000E+00 -0.47079475524E+03  0.47079475524E+03  0.00000000000E+00 0. -1.
         23    2    1    2    0    0  0.10926626635E+03 -0.56200383598E+02 -0.34404874701E+03  0.37772662035E+03  0.95970095982E+02 0.  0.
         24    2    1    2    0    0 -0.25433652632E+02  0.43862280583E+02 -0.64716894280E+02  0.11339461761E+03  0.78097967667E+02 0.  0.
        -11    1    4    4    0    0 -0.34451563998E+02  0.47129588148E+02 -0.11728972110E+02  0.59545588650E+02  0.00000000000E+00 0.  1.
         12    1    4    4    0    0  0.90179113664E+01 -0.32673075652E+01 -0.52987922170E+02  0.53849028960E+02  0.00000000000E+00 0. -1.
        -11    1    3    3    0    0  0.16430732505E+02 -0.47931633396E+02 -0.19872546234E+03  0.20508344602E+03  0.00000000000E+00 0. -1.
         11    1    3    3    0    0  0.92835533843E+02 -0.82687502017E+01 -0.14532328467E+03  0.17264317432E+03  0.00000000000E+00 0.  1.
          1    1    1    2  501    0 -0.83832613716E+02  0.12338103016E+02  0.65236009030E+02  0.10693864027E+03  0.00000000000E+00 0. -1.
<scales pt_clust_5="13000.00000" pt_clust_6="13000.00000" pt_clust_7="13000.00000" pt_clust_8="13000.00000" pt_clust_9="84.73568"></scales>
<clustering>
<clus scale="   78.098">  5  6 -1 -1</clus>
<clus scale="   84.736">  1  9  2 -1</clus>
<clus scale="   95.970">  7  8 -1 -1</clus>
<clus scale="  119.745">  1  5  2 -1</clus>
<clus scale="   84.736">  1  5  2 -1</clus>
</clustering>
</event>
<event>
 9    2  0.1751298E-004  0.1249380E+03  0.7546771E-02  0.1253908E+00
         21   -1    0    0  501  502  0.00000000000E+00  0.00000000000E+00  0.56178902965E+02  0.56178902965E+02  0.00000000000E+00 0. -1.
          2   -1    0    0  502    0 -0.00000000000E+00 -0.00000000000E+00 -0.43547915265E+03  0.43547915265E+03  0.00000000000E+00 0. -1.
         24    2    1    2    0    0 -0.27043122870E+02  0.17419859416E+02 -0.18197469314E+03  0.20111405147E+03  0.79355470872E+02 0.  0.
         23    2    1    2    0    0 -0.58316948533E+02 -0.42822326303E+02 -0.14543726933E+03  0.18747111021E+03  0.93588459429E+02 0.  0.
        -13    1    3    3    0    0 -0.12292440952E+02  0.21435682997E+02 -0.72919635858E+01  0.25763643823E+02  0.00000000000E+00 0.  1.
         14    1    3    3    0    0 -0.14750681919E+02 -0.40158235811E+01 -0.17468272956E+03  0.17535040765E+03  0.00000000000E+00 0. -1.
        -13    1    4    4    0    0  0.31580251859E+01  0.20101536217E+02 -0.65569559425E+02  0.68654293417E+02  0.00000000000E+00 0.  1.
         13    1    4    4    0    0 -0.61474973719E+02 -0.62923862521E+02 -0.79867709904E+02  0.11881681680E+03  0.00000000000E+00 0. -1.
          1    1    1    2  501    0  0.85360071403E+02  0.25402466887E+02 -0.51888287213E+02  0.10307289393E+03  0.00000000000E+00 0. -1.
<scales pt_clust_5="13000.00000" pt_clust_6="13000.00000" pt_clust_7="13000.00000" pt_clust_8="13000.00000" pt_clust_9="82.76896"></scales>
<clustering>
<clus scale="   79.355">  5  6 -1 -1</clus>
<clus scale="   85.628">  2  5  1 -1</clus>
<clus scale="   82.769">  1  9  2 -1</clus>
<clus scale="   93.588">  7  8 -1 -1</clus>
<clus scale="   82.769">  1  5  2 -1</clus>
</clustering>
</event>
<event>
 9    2  0.1751298E-004  0.1323127E+03  0.7546771E-02  0.1240856E+00
         21   -1    0    0  501  502  0.00000000000E+00  0.00000000000E+00  0.36237663758E+03  0.36237663758E+03  0.00000000000E+00 0.  1.
         -1   -1    0    0    0  501 -0.00000000000E+00 -0.00000000000E+00 -0.11580690980E+03  0.11580690980E+03  0.00000000000E+00 0.  1.
         23    2    1    2    0    0 -0.15915308676E+02 -0.12835231289E+02 -0.43569582934E+02  0.10331076230E+03  0.91415342463E+02 0.  0.
         24    2    1    2    0    0 -0.84583447288E+02  0.52780488400E+02  0.16291961619E+03  0.20789831341E+03  0.82089998593E+02 0.  0.
        -13    1    4    4    0    0 -0.92704262609E+02  0.40949229412E+02  0.16475640404E+03  0.19343110497E+03  0.00000000000E+00 0.  1.
         14    1    4    4    0    0  0.81208153211E+01  0.11831258989E+02 -0.18367878474E+01  0.14467208450E+02  0.00000000000E+00 0. -1.
        -13    1    3    3    0    0  0.32742834006E+02 -0.27468047616E+02 -0.17256808619E+02  0.46091043190E+02  0.00000000000E+00 0. -1.
         13    1    3    3    0    0 -0.48658142682E+02  0.14632816327E+02 -0.26312774315E+02  0.57219719110E+02  0.00000000000E+00 0.  1.
         -2    1    1    2    0  502  0.10049875596E+03 -0.39945257111E+02  0.12721969451E+03  0.16697447166E+03  0.00000000000E+00 0.  1.
<scales pt_clust_5="13000.00000" pt_clust_6="13000.00000" pt_clust_7="13000.00000" pt_clust_8="13000.00000" pt_clust_9="103.76846"></scales>
<clustering>
<clus scale="   82.090">  5  6 -1 -1</clus>
<clus scale="   91.415">  7  8 -1 -1</clus>
<clus scale="   93.674">  2  7  1 -1</clus>
<clus scale="  103.768">  1  9  2 -1</clus>
<clus scale="  103.768">  1  5  2 -1</clus>
</clustering>
</event>
<event>
 9    2  0.1751298E-004  0.1404265E+03  0.7546771E-02  0.1215309E+00
          2   -1    0    0  502    0 -0.00000000000E+00  0.00000000000E+00  0.31998095025E+03  0.31998095025E+03  0.00000000000E+00 0. -1.
         21   -1    0    0  501  502  0.00000000000E+00 -0.00000000000E+00 -0.19611078058E+03  0.19611078058E+03  0.00000000000E+00 0.  1.
         23    2    1    2    0    0 -0.77579055422E+02  0.10944767293E+03  0.27813576718E+02  0.16508760084E+03  0.92103300447E+02 0.  0.
         24    2    1    2    0    0  0.26937029079E+02 -0.50387152832E+02 -0.99777838092E+02  0.14028183821E+03  0.80367334481E+02 0.  0.
        -13    1    4    4    0    0  0.27082134048E+02 -0.45835908042E+02 -0.11374679706E+03  0.12558943544E+03  0.00000000000E+00 0.  1.
         14    1    4    4    0    0 -0.14510496874E+00 -0.45512447898E+01  0.13968958972E+02  0.14692402776E+02  0.00000000000E+00 0. -1.
        -13    1    3    3    0    0 -0.90604699509E+02  0.60573085628E+02  0.33909610535E+02  0.11414101788E+03  0.00000000000E+00 0.  1.
         13    1    3    3    0    0  0.13025644087E+02  0.48874587300E+02 -0.60960338169E+01  0.50946582967E+02  0.00000000000E+00 0. -1.
          1    1    1    2  501    0  0.50642026342E+02 -0.59060520096E+02  0.19583443104E+03  0.21072229177E+03  0.00000000000E+00 0. -1.
<scales pt_clust_5="13000.00000" pt_clust_6="13000.00000" pt_clust_7="13000.00000" pt_clust_8="13000.00000" pt_clust_9="77.79952"></scales>
<clustering>
<clus scale="   77.800">  2  9  1 -1</clus>
<clus scale="   80.367">  5  6 -1 -1</clus>
<clus scale="   92.103">  7  8 -1 -1</clus>
<clus scale="  133.024">  2  5  1 -1</clus>
<clus scale="   77.800">  2  5  1 -1</clus>
</clustering>
</event>
<event>
 9    2  0.1751298E-004  0.1258339E+03  0.7546771E-02  0.1236649E+00
          2   -1    0    0  502    0 -0.00000000000E+00  0.00000000000E+00  0.75458136791E+03  0.75458136791E+03  0.00000000000E+00 0. -1.
         21   -1    0    0  501  502  0.00000000000E+00 -0.00000000000E+00 -0.25702353078E+03  0.25702353078E+03  0.00000000000E+00 0. -1.
         24    2    1    2    0    0  0.72447806618E+02  0.49960212355E+02  0.71534899771E+03  0.72519807046E+03  0.80270451452E+02 0.  0.
         23    2    1    2    0    0 -0.31174035743E+02 -0.77773421531E+02 -0.10099014476E+03  0.15944393576E+03  0.90569496579E+02 0.  0.
        -13    1    3    3    0    0  0.44477043485E+02  0.54280467181E+02  0.27066233998E+03  0.27961165712E+03  0.00000000000E+00 0.  1.
         14    1    3    3    0    0  0.27970763133E+02 -0.43202548257E+01  0.44468665773E+03  0.44558641334E+03  0.00000000000E+00 0. -1.
        -13    1    4    4    0    0 -0.31520074006E+02 -0.12327750566E+02 -0.85833447105E+02  0.92265210894E+02  0.00000000000E+00 0. -1.
         13    1    4    4    0    0  0.34603826311E+00 -0.65445670965E+02 -0.15156697652E+02  0.67178724863E+02  0.00000000000E+00 0.  1.
          1    1    1    2  501    0 -0.41273770875E+02  0.27813209176E+02 -0.11680101582E+03  0.12696289247E+03  0.00000000000E+00 0. -1.
<scales pt_clust_5="13000.00000" pt_clust_6="13000.00000" pt_clust_7="13000.00000" pt_clust_8="13000.00000" pt_clust_9="49.77046"></scales>
<clustering>
<clus scale="   49.770">  2  9  1 -1</clus>
<clus scale="   80.270">  5  6 -1 -1</clus>
<clus scale="   90.569">  7  8 -1 -1</clus>
<clus scale="  118.637">  1  5  2 -1</clus>
<clus scale="   49.770">  2  5  1 -1</clus>
</clustering>
</event>
<event>
 9    2  0.1751298E-004  0.1026570E+03  0.7546771E-02  0.1280607E+00
         21   -1    0    0  501  502  0.00000000000E+00  0.00000000000E+00  0.22870350713E+03  0.22870350713E+03  0.00000000000E+00 0.  1.
         -1   -1    0    0    0  501 -0.00000000000E+00 -0.00000000000E+00 -0.26520504238E+03  0.26520504238E+03  0.00000000000E+00 0.  1.
         24    2    1    2    0    0 -0.37025791602E+02  0.20421596901E+02 -0.18108591483E+03  0.20249396971E+03  0.80148289781E+02 0.  0.
         23    2    1    2    0    0  0.62836621753E+02  0.35796265206E+01 -0.28081515280E+02  0.11518810924E+03  0.92295580880E+02 0.  0.
        -13    1    3    3    0    0 -0.43053111418E+02  0.46658407364E+02 -0.13331743700E+03  0.14766216980E+03  0.00000000000E+00 0.  1.
         14    1    3    3    0    0  0.60273198166E+01 -0.26236810464E+02 -0.47768477825E+02  0.54831799909E+02  0.00000000000E+00 0. -1.
        -11    1    4    4    0    0  0.24203041263E+02 -0.36000482190E+02 -0.39549192207E+02  0.58702304286E+02  0.00000000000E+00 0.  1.
         11    1    4    4    0    0  0.38633580489E+02  0.39580108710E+02  0.11467676927E+02  0.56485804952E+02  0.00000000000E+00 0. -1.
         -2    1    1    2    0  502 -0.25810830151E+02 -0.24001223421E+02  0.17266589486E+03  0.17622647056E+03  0.00000000000E+00 0.  1.
<scales pt_clust_5="13000.00000" pt_clust_6="13000.00000" pt_clust_7="13000.00000" pt_clust_8="13000.00000" pt_clust_9="35.24568"></scales>
<clustering>
<clus scale="   35.246">  1  9  2 -1</clus>
<clus scale="   80.148">  5  6 -1 -1</clus>
<clus scale="   91.890">  2  5  1 -1</clus>
<clus scale="   92.296">  7  8 -1 -1</clus>
<clus scale="   35.246">  1  5  2 -1</clus>
</clustering>
</event>
<event>
 9    2  0.1751298E-004  0.1049708E+03  0.7546771E-02  0.1274101E+00
         21   -1    0    0  501  502  0.00000000000E+00  0.00000000000E+00  0.53762908583E+02  0.53762908583E+02  0.00000000000E+00 0. -1.
          2   -1    0    0  502    0 -0.00000000000E+00 -0.00000000000E+00 -0.31562735394E+03  0.31562735394E+03  0.00000000000E+00 0. -1.
         24    2    1    2    0    0  0.45990626251E+02 -0.31942206847E+02 -0.19880293435E+03  0.22244911290E+03  0.82616940406E+02 0.  0.
         23    2    1    2    0    0 -0.23991409195E+02  0.36369620474E+02 -0.70325321515E+02  0.12335449056E+03  0.91500505395E+02 0.  0.
        -11    1    3    3    0    0  0.70093221720E+01 -0.54372898178E+02 -0.11059265936E+03  0.12343532297E+03  0.00000000000E+00 0.  1.
         12    1    3    3    0    0  0.38981304079E+02  0.22430691331E+02 -0.88210274987E+02  0.99013789922E+02  0.00000000000E+00 0. -1.
        -11    1    4    4    0    0 -0.58038039277E+02  0.11516617949E+02 -0.42334844147E+02  0.72754969047E+02  0.00000000000E+00 0.  1.
         11    1    4    4    0    0  0.34046630082E+02  0.24853002525E+02 -0.27990477368E+02  0.50599521517E+02  0.00000000000E+00 0. -1.
          1    1    1    2  501    0 -0.21999217056E+02 -0.44274136266E+01  0.72638105077E+01  0.23586659059E+02  0.00000000000E+00 0. -1.
<scales pt_clust_5="13000.00000" pt_clust_6="13000.00000" pt_clust_7="13000.00000" pt_clust_8="13000.00000" pt_clust_9="22.44031"></scales>
<clustering>
<clus scale="   22.440">  1  9  2 -1</clus>
<clus scale="   82.617">  5  6 -1 -1</clus>
<clus scale="   91.501">  7  8 -1 -1</clus>
<clus scale="   97.325">  2  5  1 -1</clus>
<clus scale="   22.440">  1  5  2 -1</clus>
</clustering>
</event>
<event>
 9    2  0.1751298E-004  0.9274125E+02  0.7546771E-02  0.1302622E+00
          2   -1    0    0  502    0 -0.00000000000E+00  0.00000000000E+00  0.30550746056E+03  0.30550746056E+03  0.00000000000E+00 0. -1.
         21   -1    0    0  501  502  0.00000000000E+00 -0.00000000000E+00 -0.72691231369E+02  0.72691231369E+02  0.00000000000E+00 0.  1.
         24    2    1    2    0    0 -0.74918410323E+01  0.22099671671E+02  0.12104802639E+03  0.14736317408E+03  0.80738820970E+02 0.  0.
         23    2    1    2    0    0  0.35743590815E+02  0.30925914754E+02 -0.14859090139E+01  0.10263111846E+03  0.91087441846E+02 0.  0.
        -13    1    3    3    0    0 -0.20464610253E+02  0.49007247121E+02  0.65818492252E+02  0.84572953510E+02  0.00000000000E+00 0.  1.
         14    1    3    3    0    0  0.12972769221E+02 -0.26907575450E+02  0.55229534140E+02  0.62790220570E+02  0.00000000000E+00 0. -1.
        -13    1    4    4    0    0  0.15361534248E+02 -0.16374686886E+02  0.33528096929E+02  0.40351460800E+02  0.00000000000E+00 0. -1.
         13    1    4    4    0    0  0.20382056567E+02  0.47300601640E+02 -0.35014005943E+02  0.62279657655E+02  0.00000000000E+00 0.  1.
          1    1    1    2  501    0 -0.28251749783E+02 -0.53025586425E+02  0.11325411182E+03  0.12820439940E+03  0.00000000000E+00 0. -1.
<scales pt_clust_5="13000.00000" pt_clust_6="13000.00000" pt_clust_7="13000.00000" pt_clust_8="13000.00000" pt_clust_9="60.08226"></scales>
<clustering>
<clus scale="   60.082">  2  9  1 -1</clus>
<clus scale="   80.739">  5  6 -1 -1</clus>
<clus scale="   82.600">  1  5  2 -1</clus>
<clus scale="   91.087">  7  8 -1 -1</clus>
<clus scale="   60.082">  2  5  1 -1</clus>
</clustering>
</event>
<event>
 9    2  0.1751298E-004  0.1801477E+03  0.7546771E-02  0.1169252E+00
         21   -1    0    0  501  502  0.00000000000E+00  0.00000000000E+00  0.16211389766E+03  0.16211389766E+03  0.00000000000E+00 0. -1.
          2   -1    0    0  502    0 -0.00000000000E+00 -0.00000000000E+00 -0.58699803744E+03  0.58699803744E+03  0.00000000000E+00 0. -1.
         24    2    1    2    0    0  0.11199786163E+01 -0.15700119056E+03 -0.48828880836E+03  0.51889020801E+03  0.78552271823E+02 0.  0.
         23    2    1    2    0    0 -0.36062509827E+02  0.13604299969E+03  0.80055407387E+02  0.18620498760E+03  0.91952307081E+02 0.  0.
        -11    1    3    3    0    0  0.89429748861E+00 -0.27105317274E+02 -0.22225543285E+02  0.35063838450E+02  0.00000000000E+00 0.  1.
         12    1    3    3    0    0  0.22568112772E+00 -0.12989587329E+03 -0.46606326507E+03  0.48382636956E+03  0.00000000000E+00 0. -1.
        -13    1    4    4    0    0 -0.46678554431E+02  0.40189610595E+02  0.11628122655E+01  0.61607177957E+02  0.00000000000E+00 0.  1.
         13    1    4    4    0    0  0.10616044603E+02  0.95853389091E+02  0.78892595122E+02  0.12459780964E+03  0.00000000000E+00 0. -1.
          1    1    1    2  501    0  0.34942531211E+02  0.20958190878E+02 -0.16650738816E+02  0.44016739491E+02  0.00000000000E+00 0. -1.
<scales pt_clust_5="13000.00000" pt_clust_6="13000.00000" pt_clust_7="13000.00000" pt_clust_8="13000.00000" pt_clust_9="40.74587"></scales>
<clustering>
<clus scale="   40.746">  1  9  2 -1</clus>
<clus scale="   78.552">  5  6 -1 -1</clus>
<clus scale="   91.952">  7  8 -1 -1</clus>
<clus scale="  173.691">  2  5  1 -1</clus>
<clus scale="   40.746">  1  5  2 -1</clus>
</clustering>
</event>
<event>
 9    2  0.1751298E-004  0.1188695E+03  0.7546771E-02  0.1247931E+00
         21   -1    0    0  501  502  0.00000000000E+00  0.00000000000E+00  0.79692007265E+02  0.79692007265E+02  0.00000000000E+00 0. -1.
          2   -1    0    0  502    0 -0.00000000000E+00 -0.00000000000E+00 -0.39340704011E+03  0.39340704011E+03  0.00000000000E+00 0. -1.
         24    2    1    2    0    0  0.86519400043E+02  0.58882590409E+02 -0.24041222158E+03  0.27485660804E+03  0.82433929061E+02 0.  0.
         23    2    1    2    0    0 -0.35449994189E+02  0.77984224887E+01 -0.53020180579E+02  0.11183742326E+03  0.91536616782E+02 0.  0.
        -13    1    3    3    0    0  0.18248214047E+02  0.23248289997E+02 -0.16301642781E+03  0.16567388461E+03  0.00000000000E+00 0.  1.
         14    1    3    3    0    0  0.68271185997E+02  0.35634300413E+02 -0.77395793766E+02  0.10918272343E+03  0.00000000000E+00 0. -1.
        -13    1    4    4    0    0  0.62430927222E+01 -0.36528958244E+02 -0.14372491294E+02  0.39748075465E+02  0.00000000000E+00 0.  1.
         13    1    4    4    0    0 -0.41693086911E+02  0.44327380733E+02 -0.38647689285E+02  0.72089347797E+02  0.00000000000E+00 0. -1.
          1    1    1    2  501    0 -0.51069405855E+02 -0.66681012898E+02 -0.20282630688E+02  0.86405016076E+02  0.00000000000E+00 0. -1.
<scales pt_clust_5="13000.00000" pt_clust_6="13000.00000" pt_clust_7="13000.00000" pt_clust_8="13000.00000" pt_clust_9="83.99072"></scales>
<clustering>
<clus scale="   82.434">  5  6 -1 -1</clus>
<clus scale="   83.991">  1  9  2 -1</clus>
<clus scale="   91.537">  7  8 -1 -1</clus>
<clus scale="  112.011">  2  5  1 -1</clus>
<clus scale="   83.991">  1  5  2 -1</clus>
</clustering>
</event>
<event>
 9    2  0.1751298E-004  0.1026071E+03  0.7546771E-02  0.1279220E+00
          4   -1    0    0  502    0 -0.00000000000E+00  0.00000000000E+00  0.58762847460E+02  0.58762847460E+02  0.00000000000E+00 0. -1.
         21   -1    0    0  501  502  0.00000000000E+00 -0.00000000000E+00 -0.27938202336E+03  0.27938202336E+03  0.00000000000E+00 0.  1.
         24    2    1    2    0    0 -0.28551484043E+02  0.29165946518E+02 -0.25947959915E+02  0.95933791976E+02  0.82850203028E+02 0.  0.
         23    2    1    2    0    0  0.56314449481E+02 -0.20598524624E+02 -0.12310109793E+03  0.16496818424E+03  0.92005462141E+02 0.  0.
        -11    1    3    3    0    0 -0.12441452865E+02  0.42838554314E+02  0.17263655068E+02  0.47832679952E+02  0.00000000000E+00 0.  1.
         12    1    3    3    0    0 -0.16110031178E+02 -0.13672607796E+02 -0.43211614983E+02  0.48101112024E+02  0.00000000000E+00 0. -1.
        -11    1    4    4    0    0  0.24407685937E+02 -0.35635470567E+02 -0.12228194566E+03  0.12968614471E+03  0.00000000000E+00 0.  1.
         11    1    4    4    0    0  0.31906763544E+02  0.15036945943E+02 -0.81915226910E+00  0.35282039533E+02  0.00000000000E+00 0. -1.
          3    1    1    2  501    0 -0.27762965438E+02 -0.85674218938E+01 -0.71570118054E+02  0.77242894600E+02  0.00000000000E+00 0. -1.
<scales pt_clust_5="13000.00000" pt_clust_6="13000.00000" pt_clust_7="13000.00000" pt_clust_8="13000.00000" pt_clust_9="29.05483"></scales>
<clustering>
<clus scale="   29.055">  2  9  1 -1</clus>
<clus scale="   82.850">  5  6 -1 -1</clus>
<clus scale="   92.005">  7  8 -1 -1</clus>
<clus scale="   94.485">  1  5  2 -1</clus>
<clus scale="   29.055">  2  5  1 -1</clus>
</clustering>
</event>
<event>
 9    2  0.1751298E-004  0.1323004E+03  0.7546771E-02  0.1244657E+00
         21   -1    0    0  501  502  0.00000000000E+00  0.00000000000E+00  0.12248985539E+03  0.12248985539E+03  0.00000000000E+00 0.  1.
          2   -1    0    0  502    0 -0.00000000000E+00 -0.00000000000E+00 -0.30495449461E+03  0.30495449461E+03  0.00000000000E+00 0. -1.
         24    2    1    2    0    0  0.25679389638E+02 -0.33975173700E+02  0.51551711693E+02  0.10092945792E+03  0.75600482912E+02 0.  0.
         23    2    1    2    0    0  0.69539249668E+02 -0.98412596456E+01 -0.11330562293E+03  0.16664760665E+03  0.10000351483E+03 0.  0.
        -13    1    3    3    0    0  0.32053563651E+02 -0.33311069699E+02  0.68596526297E+02  0.82719657441E+02  0.00000000000E+00 0.  1.
         14    1    3    3    0    0 -0.63741740123E+01 -0.66410400128E+00 -0.17044814604E+02  0.18209800475E+02  0.00000000000E+00 0. -1.
        -11    1    4    4    0    0  0.31292505593E+02 -0.33458418047E+02 -0.11274102300E+03  0.12169315885E+03  0.00000000000E+00 0.  1.
         11    1    4    4    0    0  0.38246744075E+02  0.23617158401E+02 -0.56459992471E+00  0.44954447793E+02  0.00000000000E+00 0. -1.
          1    1    1    2  501    0 -0.95218639306E+02  0.43816433346E+02 -0.12071072798E+03  0.15986728544E+03  0.00000000000E+00 0. -1.
<scales pt_clust_5="13000.00000" pt_clust_6="13000.00000" pt_clust_7="13000.00000" pt_clust_8="13000.00000" pt_clust_9="86.61819"></scales>
<clustering>
<clus scale="   75.600">  5  6 -1 -1</clus>
<clus scale="   86.771">  2  5  1 -1</clus>
<clus scale="   86.618">  1  9  2 -1</clus>
<clus scale="  100.004">  7  8 -1 -1</clus>
<clus scale="   86.618">  1  5  2 -1</clus>
</clustering>
</event>
<event>
 9    2  0.1751298E-004  0.1701474E+03  0.7546771E-02  0.1181456E+00
          2   -1    0    0  502    0 -0.00000000000E+00  0.00000000000E+00  0.19290009717E+04  0.19290009717E+04  0.00000000000E+00 0. -1.
         21   -1    0    0  501  502  0.00000000000E+00 -0.00000000000E+00 -0.37394716042E+02  0.37394716042E+02  0.00000000000E+00 0. -1.
         23    2    1    2    0    0 -0.34878682290E+02 -0.13007187005E+03  0.74699487745E+03  0.76434640530E+03  0.89938125971E+02 0.  0.
         24    2    1    2    0    0  0.17590232943E+03  0.10376415311E+03  0.53471138134E+03  0.57550497339E+03  0.59842159839E+02 0.  0.
        -13    1    4    4    0    0  0.47354089633E+02  0.36956846793E+02  0.93635917432E+02  0.11124703755E+03  0.00000000000E+00 0.  1.
         14    1    4    4    0    0  0.12854823980E+03  0.66807306319E+02  0.44107546391E+03  0.46425793585E+03  0.00000000000E+00 0. -1.
        -11    1    3    3    0    0 -0.65478426739E+02 -0.93871566266E+02  0.51673742597E+03  0.52926067558E+03  0.00000000000E+00 0. -1.
         11    1    3    3    0    0  0.30599744449E+02 -0.36200303780E+02  0.23025745149E+03  0.23508572972E+03  0.00000000000E+00 0.  1.
          1    1    1    2  501    0 -0.14102364714E+03  0.26307716934E+02  0.60989999684E+03  0.62654430902E+03  0.00000000000E+00 0. -1.
<scales pt_clust_5="13000.00000" pt_clust_6="13000.00000" pt_clust_7="13000.00000" pt_clust_8="13000.00000" pt_clust_9="143.45656"></scales>
<clustering>
<clus scale="   59.842">  5  6 -1 -1</clus>
<clus scale="   89.938">  7  8 -1 -1</clus>
<clus scale="  143.457">  2  9  1 -1</clus>
<clus scale="  156.340">  2  5  1 -1</clus>
<clus scale="  143.457">  2  5  1 -1</clus>
</clustering>
</event>
<event>
 9    2  0.1751298E-004  0.1353726E+03  0.7546771E-02  0.1237861E+00
         21   -1    0    0  501  502  0.00000000000E+00  0.00000000000E+00  0.52291717766E+03  0.52291717766E+03  0.00000000000E+00 0. -1.
         -1   -1    0    0    0  501 -0.00000000000E+00 -0.00000000000E+00 -0.50819753823E+02  0.50819753823E+02  0.00000000000E+00 0.  1.
         24    2    1    2    0    0  0.29555747046E+02 -0.36677077952E+02  0.15424373345E+03  0.18008886342E+03  0.80138125684E+02 0.  0.
         23    2    1    2    0    0  0.60735860798E+02 -0.13944260246E+01  0.22523051754E+03  0.25881088473E+03  0.11208701446E+03 0.  0.
        -11    1    3    3    0    0  0.73661537617E+01  0.25703137376E+02  0.43232620970E+02  0.50832774941E+02  0.00000000000E+00 0.  1.
         12    1    3    3    0    0  0.22189593285E+02 -0.62380215328E+02  0.11101111248E+03  0.12925608848E+03  0.00000000000E+00 0. -1.
        -13    1    4    4    0    0  0.34109716820E+02 -0.37769884422E+02  0.31382763648E+02  0.59790591275E+02  0.00000000000E+00 0.  1.
         13    1    4    4    0    0  0.26626143978E+02  0.36375458398E+02  0.19384775389E+03  0.19902029345E+03  0.00000000000E+00 0. -1.
         -2    1    1    2    0  502 -0.90291607844E+02  0.38071503976E+02  0.92623172846E+02  0.13483718334E+03  0.00000000000E+00 0.  1.
<scales pt_clust_5="13000.00000" pt_clust_6="13000.00000" pt_clust_7="13000.00000" pt_clust_8="13000.00000" pt_clust_9="75.90946"></scales>
<clustering>
<clus scale="   80.138">  5  6 -1 -1</clus>
<clus scale="   92.956">  2  5  1 -1</clus>
<clus scale="   75.909">  1  9  2 -1</clus>
<clus scale="  112.087">  7  8 -1 -1</clus>
<clus scale="   75.909">  1  5  2 -1</clus>
</clustering>
</event>
<event>
 9    2  0.1751298E-004  0.2726660E+03  0.7546771E-02  0.1100144E+00
         21   -1    0    0  501  502  0.00000000000E+00  0.00000000000E+00  0.24279458476E+03  0.24279458476E+03  0.00000000000E+00 0. -1.
          2   -1    0    0  502    0 -0.00000000000E+00 -0.00000000000E+00 -0.13704438015E+04  0.13704438015E+04  0.00000000000E+00 0. -1.
         24    2    1    2    0    0 -0.18950131019E+03  0.62340376720E+02 -0.34596122103E+02  0.21734151466E+03  0.79015018790E+02 0.  0.
         23    2    1    2    0    0  0.36224639333E+03  0.47994913720E+02 -0.10980487568E+03  0.39151059125E+03  0.87735233025E+02 0.  0.
        -13    1    3    3    0    0 -0.12003833186E+03 -0.16387760520E+01 -0.16354630788E+02  0.12115841139E+03  0.00000000000E+00 0.  1.
         14    1    3    3    0    0 -0.69462978332E+02  0.63979152772E+02 -0.18241491315E+02  0.96183103265E+02  0.00000000000E+00 0. -1.
        -11    1    4    4    0    0  0.10989772372E+03 -0.25433926395E+02 -0.38547427764E+02  0.11920695650E+03  0.00000000000E+00 0.  1.
         11    1    4    4    0    0  0.25234866961E+03  0.73428840114E+02 -0.71257447914E+02  0.27230363475E+03  0.00000000000E+00 0. -1.
          1    1    1    2  501    0 -0.17274508314E+03 -0.11033529044E+03 -0.98324821898E+03  0.10043862804E+04  0.00000000000E+00 0. -1.
<scales pt_clust_5="13000.00000" pt_clust_6="13000.00000" pt_clust_7="13000.00000" pt_clust_8="13000.00000" pt_clust_9="204.97508"></scales>
<clustering>
<clus scale="   79.015">  5  6 -1 -1</clus>
<clus scale="   87.735">  7  8 -1 -1</clus>
<clus scale="  204.975">  1  9  2 -1</clus>
<clus scale="  269.986">  2  5  1 -1</clus>
<clus scale="  204.975">  1  5  2 -1</clus>
</clustering>
</event>
<event>
 9    2  0.1751298E-004  0.2133457E+03  0.7546771E-02  0.1171987E+00
         21   -1    0    0  501  502  0.00000000000E+00  0.00000000000E+00  0.10418235304E+03  0.10418235304E+03  0.00000000000E+00 0.  1.
          2   -1    0    0  502    0 -0.00000000000E+00 -0.00000000000E+00 -0.13873287980E+04  0.13873287980E+04  0.00000000000E+00 0. -1.
         24    2    1    2    0    0  0.18750542591E+02  0.40694605103E+02  0.26508081052E+02  0.10174852689E+03  0.87421110899E+02 0.  0.
         23    2    1    2    0    0  0.17688828449E+03  0.35323695442E+02 -0.34229604978E+03  0.39989609062E+03  0.10105972962E+03 0.  0.
        -13    1    3    3    0    0  0.22134715420E+02  0.67560909835E+02  0.17576284601E+02  0.73234882022E+02  0.00000000000E+00 0.  1.
         14    1    3    3    0    0 -0.33841728291E+01 -0.26866304732E+02  0.89317964506E+01  0.28513644865E+02  0.00000000000E+00 0. -1.
        -11    1    4    4    0    0  0.14914326494E+03  0.38926289612E+02 -0.33813510047E+03  0.37161043536E+03  0.00000000000E+00 0.  1.
         11    1    4    4    0    0  0.27745019547E+02 -0.36025941705E+01 -0.41609493112E+01  0.28285655262E+02  0.00000000000E+00 0. -1.
          1    1    1    2  501    0 -0.19563882708E+03 -0.76018300544E+02 -0.96735847624E+03  0.98986653355E+03  0.00000000000E+00 0. -1.
<scales pt_clust_5="13000.00000" pt_clust_6="13000.00000" pt_clust_7="13000.00000" pt_clust_8="13000.00000" pt_clust_9="187.89183"></scales>
<clustering>
<clus scale="   87.421">  5  6 -1 -1</clus>
<clus scale="   98.235">  2  5  1 -1</clus>
<clus scale="  101.060">  7  8 -1 -1</clus>
<clus scale="  187.892">  1  9  2 -1</clus>
<clus scale="  187.892">  1  5  2 -1</clus>
</clustering>
</event>
<event>
 9    2  0.1751298E-004  0.1298476E+03  0.7546771E-02  0.1241492E+00
          4   -1    0    0  502    0 -0.00000000000E+00  0.00000000000E+00  0.67212878480E+02  0.67212878480E+02  0.00000000000E+00 0. -1.
         21   -1    0    0  501  502  0.00000000000E+00 -0.00000000000E+00 -0.11048129280E+04  0.11048129280E+04  0.00000000000E+00 0. -1.
         24    2    1    2    0    0  0.31915065745E+02 -0.41397478330E+02  0.11238481065E+02  0.98486087668E+02  0.82709632897E+02 0.  0.
         23    2    1    2    0    0  0.64997237869E+02 -0.18885786538E+02 -0.50503818532E+03  0.51789155484E+03  0.92556901847E+02 0.  0.
        -13    1    3    3    0    0 -0.17999532509E+02  0.14182597440E+02 -0.17096164501E+00  0.22916336282E+02  0.00000000000E+00 0.  1.
         14    1    3    3    0    0  0.49914598254E+02 -0.55580075771E+02  0.11409442710E+02  0.75569751386E+02  0.00000000000E+00 0. -1.
        -13    1    4    4    0    0  0.27442137751E+02 -0.54943463633E+02 -0.23586599652E+03  0.24373063704E+03  0.00000000000E+00 0. -1.
         13    1    4    4    0    0  0.37555100117E+02  0.36057677096E+02 -0.26917218881E+03  0.27416091780E+03  0.00000000000E+00 0.  1.
          3    1    1    2  501    0 -0.96912303614E+02  0.60283264868E+02 -0.54380034528E+03  0.55564816399E+03  0.00000000000E+00 0. -1.
<scales pt_clust_5="13000.00000" pt_clust_6="13000.00000" pt_clust_7="13000.00000" pt_clust_8="13000.00000" pt_clust_9="91.06941"></scales>
<clustering>
<clus scale="   82.710">  5  6 -1 -1</clus>
<clus scale="   92.557">  7  8 -1 -1</clus>
<clus scale="   97.843">  1  5  2 -1</clus>
<clus scale="   91.069">  2  9  1 -1</clus>
<clus scale="   91.069">  2  5  1 -1</clus>
</clustering>
</event>
<event>
 9    2  0.1751298E-004  0.1338093E+03  0.7546771E-02  0.1225443E+00
         21   -1    0    0  501  502  0.00000000000E+00  0.00000000000E+00  0.21163803449E+03  0.21163803449E+03  0.00000000000E+00 0. -1.
          4   -1    0    0  502    0 -0.00000000000E+00 -0.00000000000E+00 -0.16549461779E+03  0.16549461779E+03  0.00000000000E+00 0. -1.
         24    2    1    2    0    0  0.49021087401E+02  0.59401490960E+02 -0.20975560446E+02  0.11209579611E+03  0.78701265758E+02 0.  0.
         23    2    1    2    0    0 -0.12613745736E+03 -0.61338076282E+02  0.91423385252E+01  0.16853827844E+03  0.92997587029E+02 0.  0.
        -13    1    3    3    0    0  0.53523232798E+02  0.75974368404E+02 -0.17222083487E+02  0.94516883482E+02  0.00000000000E+00 0.  1.
         14    1    3    3    0    0 -0.45021453967E+01 -0.16572877445E+02 -0.37534769584E+01  0.17578912630E+02  0.00000000000E+00 0. -1.
        -11    1    4    4    0    0 -0.26550839910E+02 -0.46628763452E+02 -0.28872196826E+02  0.60932687702E+02  0.00000000000E+00 0.  1.
         11    1    4    4    0    0 -0.99586617455E+02 -0.14709312829E+02  0.38014535351E+02  0.10760559074E+03  0.00000000000E+00 0. -1.
          3    1    1    2  501    0  0.77116369964E+02  0.19365853220E+01  0.57976638618E+02  0.96498577733E+02  0.00000000000E+00 0. -1.
<scales pt_clust_5="13000.00000" pt_clust_6="13000.00000" pt_clust_7="13000.00000" pt_clust_8="13000.00000" pt_clust_9="77.14068"></scales>
<clustering>
<clus scale="   77.141">  1  9  2 -1</clus>
<clus scale="   78.701">  5  6 -1 -1</clus>
<clus scale="   92.998">  7  8 -1 -1</clus>
<clus scale="  124.299">  2  5  1 -1</clus>
<clus scale="   77.141">  1  5  2 -1</clus>
</clustering>
</event>
<event>
 9    2  0.1751298E-004  0.2313361E+03  0.7546771E-02  0.1137699E+00
         21   -1    0    0  501  502  0.00000000000E+00  0.00000000000E+00  0.13697099349E+03  0.13697099349E+03  0.00000000000E+00 0. -1.
          2   -1    0    0  502    0 -0.00000000000E+00 -0.00000000000E+00 -0.12133984941E+04  0.12133984941E+04  0.00000000000E+00 0. -1.
         24    2    1    2    0    0 -0.10341785444E+03  0.11146971655E+03 -0.42019465623E+01  0.17251021720E+03  0.81371790921E+02 0.  0.
         23    2    1    2    0    0  0.10643779509E+03  0.16149722750E+03 -0.40478241161E+03  0.45674872341E+03  0.85791822860E+02 0.  0.
        -11    1    3    3    0    0 -0.82895319728E+02  0.73475419047E+02 -0.38597697373E+02  0.11730325434E+03  0.00000000000E+00 0.  1.
         12    1    3    3    0    0 -0.20522534712E+02  0.37994297502E+02  0.34395750811E+02  0.55206962854E+02  0.00000000000E+00 0. -1.
        -11    1    4    4    0    0 -0.13668991934E+02  0.26724325321E+02 -0.43182342152E+02  0.52590356322E+02  0.00000000000E+00 0.  1.
         11    1    4    4    0    0  0.12010678703E+03  0.13477290218E+03 -0.36160006946E+03  0.40415836708E+03  0.00000000000E+00 0. -1.
          1    1    1    2  501    0 -0.30199406549E+01 -0.27296694405E+03 -0.66744314248E+03  0.72111054703E+03  0.00000000000E+00 0. -1.
<scales pt_clust_5="13000.00000" pt_clust_6="13000.00000" pt_clust_7="13000.00000" pt_clust_8="13000.00000" pt_clust_9="214.83993"></scales>
<clustering>
<clus scale="   81.372">  5  6 -1 -1</clus>
<clus scale="   85.792">  7  8 -1 -1</clus>
<clus scale="  172.459">  2  5  1 -1</clus>
<clus scale="  214.840">  1  9  2 -1</clus>
<clus scale="  214.840">  1  5  2 -1</clus>
</clustering>
</event>
<event>
 9    2  0.1751298E-004  0.1468101E+03  0.7546771E-02  0.1206927E+00
         -1   -1    0    0    0  501 -0.00000000000E+00  0.00000000000E+00  0.23201286364E+03  0.23201286364E+03  0.00000000000E+00 0.  1.
         21   -1    0    0  501  502  0.00000000000E+00 -0.00000000000E+00 -0.14958091072E+03  0.14958091072E+03  0.00000000000E+00 0.  1.
         24    2    1    2    0    0 -0.51274973893E+02 -0.10619644008E+03  0.89002246702E+02  0.16857600314E+03  0.81176733641E+02 0.  0.
         23    2    1    2    0    0 -0.12379897701E+02  0.11470271331E+03 -0.76523479687E+01  0.14878794791E+03  0.93644651243E+02 0.  0.
        -13    1    3    3    0    0 -0.51138241636E+02 -0.17131675501E+02  0.37567593153E+02  0.65726236149E+02  0.00000000000E+00 0.  1.
         14    1    3    3    0    0 -0.13673225728E+00 -0.89064764576E+02  0.51434653549E+02  0.10284976699E+03  0.00000000000E+00 0. -1.
        -11    1    4    4    0    0 -0.34862158780E+02  0.95108635075E+02 -0.36135231358E+02  0.10754895409E+03  0.00000000000E+00 0.  1.
         11    1    4    4    0    0  0.22482261079E+02  0.19594078233E+02  0.28482883390E+02  0.41238993819E+02  0.00000000000E+00 0. -1.
         -2    1    1    2    0  502  0.63654871594E+02 -0.85062732313E+01  0.10820541864E+01  0.64229823316E+02  0.00000000000E+00 0.  1.
<scales pt_clust_5="13000.00000" pt_clust_6="13000.00000" pt_clust_7="13000.00000" pt_clust_8="13000.00000" pt_clust_9="64.22071"></scales>
<clustering>
<clus scale="   64.221">  2  9  1 -1</clus>
<clus scale="   81.177">  5  6 -1 -1</clus>
<clus scale="   93.645">  7  8 -1 -1</clus>
<clus scale="  139.189">  1  5  2 -1</clus>
<clus scale="   64.221">  2  5  1 -1</clus>
</clustering>
</event>
<event>
 9    2  0.1751298E-004  0.9269273E+02  0.7546771E-02  0.1306334E+00
         21   -1    0    0  501  502  0.00000000000E+00  0.00000000000E+00  0.38831367332E+03  0.38831367332E+03  0.00000000000E+00 0. -1.
         -3   -1    0    0    0  501 -0.00000000000E+00 -0.00000000000E+00 -0.45327184119E+02  0.45327184119E+02  0.00000000000E+00 0.  1.
         24    2    1    2    0    0 -0.91006601338E+00 -0.19350895429E+01  0.35048580373E+02  0.84329678599E+02  0.76671500016E+02 0.  0.
         23    2    1    2    0    0  0.49197236440E+02  0.35899099824E+01  0.26422891098E+03  0.28415854458E+03  0.92173236531E+02 0.  0.
        -13    1    3    3    0    0  0.19912742345E+02  0.91017626061E+01 -0.16654540981E+02  0.27508782698E+02  0.00000000000E+00 0.  1.
         14    1    3    3    0    0 -0.20822808358E+02 -0.11036852149E+02  0.51703121354E+02  0.56820895901E+02  0.00000000000E+00 0. -1.
        -11    1    4    4    0    0  0.40170610526E+01 -0.39055896483E+02  0.13787837890E+03  0.14335950334E+03  0.00000000000E+00 0.  1.
         11    1    4    4    0    0  0.45180175388E+02  0.42645806465E+02  0.12635053208E+03  0.14079904124E+03  0.00000000000E+00 0. -1.
         -4    1    1    2    0  502 -0.48287170427E+02 -0.16548204395E+01  0.43708997852E+02  0.65152634265E+02  0.00000000000E+00 0.  1.
<scales pt_clust_5="13000.00000" pt_clust_6="13000.00000" pt_clust_7="13000.00000" pt_clust_8="13000.00000" pt_clust_9="48.31554"></scales>
<clustering>
<clus scale="   48.316">  1  9  2 -1</clus>
<clus scale="   76.672">  5  6 -1 -1</clus>
<clus scale="   77.295">  2  5  1 -1</clus>
<clus scale="   92.173">  7  8 -1 -1</clus>
<clus scale="   48.316">  1  5  2 -1</clus>
</clustering>
</event>
<event>
 9    2  0.1751298E-004  0.1675706E+03  0.7546771E-02  0.1200253E+00
         21   -1    0    0  501  502  0.00000000000E+00  0.00000000000E+00  0.14254689547E+03  0.14254689547E+03  0.00000000000E+00 0. -1.
          2   -1    0    0  502    0 -0.00000000000E+00 -0.00000000000E+00 -0.32397770789E+03  0.32397770789E+03  0.00000000000E+00 0. -1.
         24    2    1    2    0    0  0.53780664403E+02  0.40731670699E+02 -0.62568791924E+01  0.10828545362E+03  0.84469888521E+02 0.  0.
         23    2    1    2    0    0 -0.15222596593E+03 -0.88836149557E+02 -0.10036377305E+03  0.22556632530E+03  0.98704984651E+02 0.  0.
        -11    1    3    3    0    0  0.46463287929E+02  0.44445684556E+02  0.30113703576E+02  0.71000641855E+02  0.00000000000E+00 0.  1.
         12    1    3    3    0    0  0.73173764742E+01 -0.37140138565E+01 -0.36370582769E+02  0.37284811764E+02  0.00000000000E+00 0. -1.
        -11    1    4    4    0    0  0.10615521990E+02 -0.21591242297E+02 -0.29249957732E+01  0.24236886172E+02  0.00000000000E+00 0.  1.
         11    1    4    4    0    0 -0.16284148792E+03 -0.67244907259E+02 -0.97438777279E+02  0.20132943913E+03  0.00000000000E+00 0. -1.
          1    1    1    2  501    0  0.98445301529E+02  0.48104478857E+02 -0.74810160173E+02  0.13267282444E+03  0.00000000000E+00 0. -1.
<scales pt_clust_5="13000.00000" pt_clust_6="13000.00000" pt_clust_7="13000.00000" pt_clust_8="13000.00000" pt_clust_9="135.41502"></scales>
<clustering>
<clus scale="   84.470">  5  6 -1 -1</clus>
<clus scale="   98.705">  7  8 -1 -1</clus>
<clus scale="  108.105">  2  5  1 -1</clus>
<clus scale="  135.415">  1  9  2 -1</clus>
<clus scale="  135.415">  1  5  2 -1</clus>
</clustering>
</event>
<event>
 9    2  0.1751298E-004  0.1064535E+03  0.7546771E-02  0.1272454E+00
         21   -1    0    0  501  502  0.00000000000E+00  0.00000000000E+00  0.42232286118E+03  0.42232286118E+03  0.00000000000E+00 0. -1.
          2   -1    0    0  502    0 -0.00000000000E+00 -0.00000000000E+00 -0.27903872086E+03  0.27903872086E+03  0.00000000000E+00 0. -1.
         24    2    1    2    0    0  0.54036979658E+02 -0.11696258590E+02 -0.25939420542E+03  0.27691492716E+03  0.79622392857E+02 0.  0.
         23    2    1    2    0    0 -0.24367657792E+02  0.58603091341E+01  0.22523430478E+03  0.24444466978E+03  0.91621932765E+02 0.  0.
        -11    1    3    3    0    0 -0.54439360238E+01 -0.32512911165E+02 -0.10828336498E+03  0.11319016283E+03  0.00000000000E+00 0.  1.
         12    1    3    3    0    0  0.59480915682E+02  0.20816652574E+02 -0.15111084045E+03  0.16372476433E+03  0.00000000000E+00 0. -1.
        -13    1    4    4    0    0  0.34070568991E+02 -0.44058399824E+01  0.63961414245E+02  0.72603564716E+02  0.00000000000E+00 0.  1.
         13    1    4    4    0    0 -0.58438226783E+02  0.10266149116E+02  0.16127289054E+03  0.17184110506E+03  0.00000000000E+00 0. -1.
          1    1    1    2  501    0 -0.29669321866E+02  0.58359494563E+01  0.17744404096E+03  0.18000198509E+03  0.00000000000E+00 0. -1.
<scales pt_clust_5="13000.00000" pt_clust_6="13000.00000" pt_clust_7="13000.00000" pt_clust_8="13000.00000" pt_clust_9="30.23784"></scales>
<clustering>
<clus scale="   30.238">  1  9  2 -1</clus>
<clus scale="   79.622">  5  6 -1 -1</clus>
<clus scale="   91.622">  7  8 -1 -1</clus>
<clus scale="   96.320">  2  5  1 -1</clus>
<clus scale="   30.238">  1  5  2 -1</clus>
</clustering>
</event>
<event>
 9    2  0.1751298E-004  0.1018234E+03  0.7546771E-02  0.1282878E+00
         21   -1    0    0  501  502  0.00000000000E+00  0.00000000000E+00  0.17185725697E+03  0.17185725697E+03  0.00000000000E+00 0. -1.
          2   -1    0    0  502    0 -0.00000000000E+00 -0.00000000000E+00 -0.11392651950E+03  0.11392651950E+03  0.00000000000E+00 0. -1.
         24    2    1    2    0    0 -0.49530684212E+02 -0.13267083793E+01 -0.63482314184E+02  0.11226608888E+03  0.78221618914E+02 0.  0.
         23    2    1    2    0    0  0.24695844759E+02 -0.11033093083E+02  0.84722460613E+02  0.12752058536E+03  0.91389225113E+02 0.  0.
        -11    1    3    3    0    0 -0.16227736596E+02  0.18566668935E+02  0.11981409852E+02  0.27415594329E+02  0.00000000000E+00 0.  1.
         12    1    3    3    0    0 -0.33302947616E+02 -0.19893377314E+02 -0.75463724036E+02  0.84850494555E+02  0.00000000000E+00 0. -1.
        -13    1    4    4    0    0  0.24734686693E+02 -0.33068310036E+02  0.13845146721E+01  0.41318697164E+02  0.00000000000E+00 0.  1.
         13    1    4    4    0    0 -0.38841933453E-01  0.22035216953E+02  0.83337945941E+02  0.86201888196E+02  0.00000000000E+00 0. -1.
          1    1    1    2  501    0  0.24834839453E+02  0.12359801462E+02  0.36690591043E+02  0.45997102234E+02  0.00000000000E+00 0. -1.
<scales pt_clust_5="13000.00000" pt_clust_6="13000.00000" pt_clust_7="13000.00000" pt_clust_8="13000.00000" pt_clust_9="27.74047"></scales>
<clustering>
<clus scale="   27.740">  1  9  2 -1</clus>
<clus scale="   78.222">  5  6 -1 -1</clus>
<clus scale="   90.192">  2  5  1 -1</clus>
<clus scale="   91.389">  7  8 -1 -1</clus>
<clus scale="   27.740">  1  5  2 -1</clus>
</clustering>
</event>
<event>
 9    2  0.1751298E-004  0.1834923E+03  0.7546771E-02  0.1193327E+00
         -3   -1    0    0    0  501 -0.00000000000E+00  0.00000000000E+00  0.24541199030E+03  0.24541199030E+03  0.00000000000E+00 0.  1.
         21   -1    0    0  501  502  0.00000000000E+00 -0.00000000000E+00 -0.32129569889E+03  0.32129569889E+03  0.00000000000E+00 0.  1.
         24    2    1    2    0    0 -0.19136402624E+02 -0.41678083638E+02 -0.28394548640E+02  0.99901048820E+02  0.84087481838E+02 0.  0.
         23    2    1    2    0    0 -0.60974318873E+02  0.17428438724E+03  0.11998992994E+03  0.23865887026E+03  0.92019334207E+02 0.  0.
        -13    1    3    3    0    0 -0.38622338017E+02 -0.56997889471E+02 -0.29911573776E+02  0.75067613815E+02  0.00000000000E+00 0.  1.
         14    1    3    3    0    0  0.19485935393E+02  0.15319805833E+02  0.15170251361E+01  0.24833435006E+02  0.00000000000E+00 0. -1.
        -13    1    4    4    0    0 -0.50902499771E+02  0.69351388505E+02  0.99034002251E+02  0.13118084148E+03  0.00000000000E+00 0.  1.
         13    1    4    4    0    0 -0.10071819102E+02  0.10493299874E+03  0.20955927689E+02  0.10747802878E+03  0.00000000000E+00 0. -1.
         -4    1    1    2    0  502  0.80110721497E+02 -0.13260630361E+03 -0.16747908989E+03  0.22814777011E+03  0.00000000000E+00 0.  1.
<scales pt_clust_5="13000.00000" pt_clust_6="13000.00000" pt_clust_7="13000.00000" pt_clust_8="13000.00000" pt_clust_9="158.75092"></scales>
<clustering>
<clus scale="   84.087">  5  6 -1 -1</clus>
<clus scale="   92.019">  7  8 -1 -1</clus>
<clus scale="   95.781">  1  5  2 -1</clus>
<clus scale="  158.751">  2  9  1 -1</clus>
<clus scale="  158.751">  2  5  1 -1</clus>
</clustering>
</event>
<event>
 9    2  0.1751298E-004  0.1242242E+03  0.7546771E-02  0.1239883E+00
          2   -1    0    0  502    0 -0.00000000000E+00  0.00000000000E+00  0.12971018893E+04  0.12971018893E+04  0.00000000000E+00 0. -1.
         21   -1    0    0  501  502  0.00000000000E+00 -0.00000000000E+00 -0.46899492815E+02  0.46899492815E+02  0.00000000000E+00 0. -1.
         24    2    1    2    0    0 -0.15621015315E+02  0.84674135079E+02  0.11132930718E+04  0.11194743702E+04  0.79922941580E+02 0.  0.
         23    2    1    2    0    0  0.26385640345E+02 -0.43244826405E+02  0.29973440629E+02  0.10934216885E+03  0.92146544797E+02 0.  0.
        -11    1    3    3    0    0 -0.37410105036E+01  0.20304950451E+02  0.49024610653E+02  0.53194911618E+02  0.00000000000E+00 0.  1.
         12    1    3    3    0    0 -0.11880004811E+02  0.64369184628E+02  0.10642684611E+04  0.10662794586E+04  0.00000000000E+00 0. -1.
        -13    1    4    4    0    0  0.57995204641E+01 -0.60384150661E+02  0.47743698866E+02  0.77196767226E+02  0.00000000000E+00 0.  1.
         13    1    4    4    0    0  0.20586119881E+02  0.17139324256E+02 -0.17770258237E+02  0.32145401623E+02  0.00000000000E+00 0. -1.
          1    1    1    2  501    0 -0.10764625030E+02 -0.41429308674E+02  0.10693588408E+03  0.11518484307E+03  0.00000000000E+00 0. -1.
<scales pt_clust_5="13000.00000" pt_clust_6="13000.00000" pt_clust_7="13000.00000" pt_clust_8="13000.00000" pt_clust_9="42.80496"></scales>
<clustering>
<clus scale="   42.805">  2  9  1 -1</clus>
<clus scale="   79.923">  5  6 -1 -1</clus>
<clus scale="   92.147">  7  8 -1 -1</clus>
<clus scale="  115.448">  1  5  2 -1</clus>
<clus scale="   42.805">  2  5  1 -1</clus>
</clustering>
</event>
<event>
 9    2  0.1751298E-004  0.1550487E+03  0.7546771E-02  0.1196725E+00
          2   -1    0    0  502    0 -0.00000000000E+00  0.00000000000E+00  0.39640890913E+03  0.39640890913E+03  0.00000000000E+00 0. -1.
         21   -1    0    0  501  502  0.00000000000E+00 -0.00000000000E+00 -0.13255896089E+03  0.13255896089E+03  0.00000000000E+00 0.  1.
         23    2    1    2    0    0 -0.55150794712E+02 -0.11219954773E+03  0.15499062840E+03  0.21979207798E+03  0.93038239351E+02 0.  0.
         24    2    1    2    0    0  0.12990739237E+03  0.61392552813E+02 -0.43524838046E+01  0.16430753426E+03  0.79580434574E+02 0.  0.
        -11    1    4    4    0    0  0.73336615460E+02 -0.85740500778E+01 -0.79317857841E+01  0.74260936754E+02  0.00000000000E+00 0.  1.
         12    1    4    4    0    0  0.56570776912E+02  0.69966602891E+02  0.35793019795E+01  0.90046597510E+02  0.00000000000E+00 0. -1.
        -13    1    3    3    0    0 -0.10688844972E+02 -0.82834511667E+02  0.14232772797E+03  0.16502420998E+03  0.00000000000E+00 0. -1.
         13    1    3    3    0    0 -0.44461949740E+02 -0.29365036064E+02  0.12662900428E+02  0.54767867998E+02  0.00000000000E+00 0.  1.
          1    1    1    2  501    0 -0.74756597659E+02  0.50806994919E+02  0.11321180365E+03  0.14486825778E+03  0.00000000000E+00 0. -1.
<scales pt_clust_5="13000.00000" pt_clust_6="13000.00000" pt_clust_7="13000.00000" pt_clust_8="13000.00000" pt_clust_9="90.38754"></scales>
<clustering>
<clus scale="   79.580">  5  6 -1 -1</clus>
<clus scale="   90.388">  2  9  1 -1</clus>
<clus scale="   93.038">  7  8 -1 -1</clus>
<clus scale="  147.367">  2  5  1 -1</clus>
<clus scale="   90.388">  2  5  1 -1</clus>
</clustering>
</event>
<event>
 9    2  0.1751298E-004  0.1101751E+03  0.7546771E-02  0.1264368E+00
         21   -1    0    0  501  502  0.00000000000E+00  0.00000000000E+00  0.16149669752E+03  0.16149669752E+03  0.00000000000E+00 0. -1.
          2   -1    0    0  502    0 -0.00000000000E+00 -0.00000000000E+00 -0.53452288545E+03  0.53452288545E+03  0.00000000000E+00 0. -1.
         24    2    1    2    0    0 -0.66725436638E+02  0.61751116552E+01 -0.47864670405E+03  0.48997161479E+03  0.80492857479E+02 0.  0.
         23    2    1    2    0    0  0.13628032672E+02  0.27619955448E+02  0.17393806097E+02  0.97671802759E+02  0.91042030679E+02 0.  0.
        -13    1    3    3    0    0 -0.21207922817E+02  0.38224260408E+02 -0.13658570962E+03  0.14341034184E+03  0.00000000000E+00 0.  1.
         14    1    3    3    0    0 -0.45517513822E+02 -0.32049148753E+02 -0.34206099443E+03  0.34656127295E+03  0.00000000000E+00 0. -1.
        -11    1    4    4    0    0  0.36389813553E+02 -0.12867311636E+02 -0.14605838810E+02  0.41268835293E+02  0.00000000000E+00 0.  1.
         11    1    4    4    0    0 -0.22761780881E+02  0.40487267084E+02  0.31999644907E+02  0.56402967465E+02  0.00000000000E+00 0. -1.
          1    1    1    2  501    0  0.53097403966E+02 -0.33795067103E+02  0.88226710022E+02  0.10837616541E+03  0.00000000000E+00 0. -1.
<scales pt_clust_5="13000.00000" pt_clust_6="13000.00000" pt_clust_7="13000.00000" pt_clust_8="13000.00000" pt_clust_9="62.93998"></scales>
<clustering>
<clus scale="   62.940">  1  9  2 -1</clus>
<clus scale="   80.493">  5  6 -1 -1</clus>
<clus scale="   91.042">  7  8 -1 -1</clus>
<clus scale="  101.632">  2  5  1 -1</clus>
<clus scale="   62.940">  1  5  2 -1</clus>
</clustering>
</event>
<event>
 9    2  0.1751298E-004  0.1400747E+03  0.7546771E-02  0.1228526E+00
         -3   -1    0    0    0  501 -0.00000000000E+00  0.00000000000E+00  0.12255691933E+04  0.12255691933E+04  0.00000000000E+00 0.  1.
         21   -1    0    0  501  502  0.00000000000E+00 -0.00000000000E+00 -0.15835502592E+03  0.15835502592E+03  0.00000000000E+00 0.  1.
         24    2    1    2    0    0 -0.45407539445E+02  0.50986317312E+02  0.10005852250E+04  0.10061570959E+04  0.80745650580E+02 0.  0.
         23    2    1    2    0    0 -0.22660722322E+02 -0.35770379772E+02  0.19254091763E+03  0.23382741879E+03  0.12573873076E+03 0.  0.
        -13    1    3    3    0    0 -0.37801957901E+02 -0.73588808108E+01  0.21900975791E+03  0.22236999620E+03  0.00000000000E+00 0.  1.
         14    1    3    3    0    0 -0.76055815447E+01  0.58345198123E+02  0.78157546704E+03  0.78378709972E+03  0.00000000000E+00 0. -1.
        -11    1    4    4    0    0 -0.21264301641E+02  0.31247847954E+02  0.14941198086E+03  0.15411858600E+03  0.00000000000E+00 0.  1.
         11    1    4    4    0    0 -0.13964206812E+01 -0.67018227726E+02  0.43128936771E+02  0.79708832793E+02  0.00000000000E+00 0. -1.
         -4    1    1    2    0  502  0.68068261768E+02 -0.15215937541E+02 -0.12591197523E+03  0.14393970447E+03  0.00000000000E+00 0.  1.
<scales pt_clust_5="13000.00000" pt_clust_6="13000.00000" pt_clust_7="13000.00000" pt_clust_8="13000.00000" pt_clust_9="69.74821"></scales>
<clustering>
<clus scale="   69.748">  2  9  1 -1</clus>
<clus scale="   80.746">  5  6 -1 -1</clus>
<clus scale="  101.639">  1  5  2 -1</clus>
<clus scale="  125.739">  7  8 -1 -1</clus>
<clus scale="   69.748">  2  5  1 -1</clus>
</clustering>
</event>
<event>
 9    2  0.1751298E-004  0.9686168E+02  0.7546771E-02  0.1291327E+00
         -1   -1    0    0    0  501 -0.00000000000E+00  0.00000000000E+00  0.17378154966E+03  0.17378154966E+03  0.00000000000E+00 0.  1.
         21   -1    0    0  501  502  0.00000000000E+00 -0.00000000000E+00 -0.20168168490E+03  0.20168168490E+03  0.00000000000E+00 0. -1.
         24    2    1    2    0    0 -0.27198453089E+02  0.14351574531E+02  0.13249448331E+03  0.15925787221E+03  0.82840558988E+02 0.  0.
         23    2    1    2    0    0  0.46391348843E+02 -0.36142551966E+02 -0.92562411054E+02  0.14241903355E+03  0.90867705302E+02 0.  0.
        -11    1    3    3    0    0 -0.82354948986E+01  0.46924405919E+02  0.94000970633E+02  0.10538456114E+03  0.00000000000E+00 0.  1.
         12    1    3    3    0    0 -0.18962958191E+02 -0.32572831388E+02  0.38493512674E+02  0.53873311073E+02  0.00000000000E+00 0. -1.
        -11    1    4    4    0    0 -0.10234566721E+02 -0.46894268808E+02 -0.26800525485E+02  0.54973511524E+02  0.00000000000E+00 0.  1.
         11    1    4    4    0    0  0.56625915565E+02  0.10751716843E+02 -0.65761885569E+02  0.87445522025E+02  0.00000000000E+00 0. -1.
         -2    1    1    2    0  502 -0.19192895754E+02  0.21790977435E+02 -0.67832207494E+02  0.73786328805E+02  0.00000000000E+00 0.  1.
<scales pt_clust_5="13000.00000" pt_clust_6="13000.00000" pt_clust_7="13000.00000" pt_clust_8="13000.00000" pt_clust_9="29.03815"></scales>
<clustering>
<clus scale="   29.038">  2  9  1 -1</clus>
<clus scale="   82.841">  5  6 -1 -1</clus>
<clus scale="   89.375">  1  5  2 -1</clus>
<clus scale="   90.868">  7  8 -1 -1</clus>
<clus scale="   29.038">  2  5  1 -1</clus>
</clustering>
</event>
<event>
 9    2  0.1751298E-004  0.1375284E+03  0.7546771E-02  0.1227125E+00
          2   -1    0    0  502    0 -0.00000000000E+00  0.00000000000E+00  0.87625132097E+03  0.87625132097E+03  0.00000000000E+00 0. -1.
         21   -1    0    0  501  502  0.00000000000E+00 -0.00000000000E+00 -0.27759168439E+02  0.27759168439E+02  0.00000000000E+00 0. -1.
         24    2    1    2    0    0 -0.66159937868E+02  0.16165666814E+01  0.47813328022E+03  0.48985507258E+03  0.83467405677E+02 0.  0.
         23    2    1    2    0    0  0.87768096688E+02 -0.18183842012E+00  0.36294073877E+03  0.39126437758E+03  0.11686984831E+03 0.  0.
        -11    1    3    3    0    0  0.19908349565E+02 -0.25480330325E+01  0.77181533473E+02  0.79748504462E+02  0.00000000000E+00 0.  1.
         12    1    3    3    0    0 -0.86068287433E+02  0.41645997139E+01  0.40095174675E+03  0.41010656812E+03  0.00000000000E+00 0. -1.
        -11    1    4    4    0    0  0.60487313551E+02  0.59535564919E+01  0.35768538006E+03  0.36281261148E+03  0.00000000000E+00 0. -1.
         11    1    4    4    0    0  0.27280783137E+02 -0.61353949120E+01  0.52553587060E+01  0.28451766103E+02  0.00000000000E+00 0.  1.
          1    1    1    2  501    0 -0.21608158820E+02 -0.14347282613E+01  0.74181335444E+01  0.22891039252E+02  0.00000000000E+00 0. -1.
<scales pt_clust_5="13000.00000" pt_clust_6="13000.00000" pt_clust_7="13000.00000" pt_clust_8="13000.00000" pt_clust_9="21.65574"></scales>
<clustering>
<clus scale="   21.656">  2  9  1 -1</clus>
<clus scale="   83.467">  5  6 -1 -1</clus>
<clus scale="  110.555">  1  5  2 -1</clus>
<clus scale="  116.870">  7  8 -1 -1</clus>
<clus scale="   21.656">  2  5  1 -1</clus>
</clustering>
</event>
<event>
 9    2  0.1751298E-004  0.1464321E+03  0.7546771E-02  0.1229432E+00
          2   -1    0    0  502    0 -0.00000000000E+00  0.00000000000E+00  0.95519242816E+03  0.95519242816E+03  0.00000000000E+00 0. -1.
         21   -1    0    0  501  502  0.00000000000E+00 -0.00000000000E+00 -0.53657378720E+02  0.53657378720E+02  0.00000000000E+00 0. -1.
         24    2    1    2    0    0 -0.22261676910E+02  0.25099895765E+02  0.48723422274E+03  0.49499636952E+03  0.80614086838E+02 0.  0.
         23    2    1    2    0    0  0.86284583643E+02  0.72864268103E+02  0.35366784211E+03  0.38204953450E+03  0.90148063391E+02 0.  0.
        -11    1    3    3    0    0 -0.18011256634E+02  0.17050355717E+02  0.36262445703E+02  0.43932732261E+02  0.00000000000E+00 0.  1.
         12    1    3    3    0    0 -0.42504202762E+01  0.80495400481E+01  0.45097177704E+03  0.45106363726E+03  0.00000000000E+00 0. -1.
        -11    1    4    4    0    0  0.38975682931E+02  0.84696633397E+02  0.19663426350E+03  0.21761814527E+03  0.00000000000E+00 0.  1.
         11    1    4    4    0    0  0.47308900712E+02 -0.11832365294E+02  0.15703357861E+03  0.16443138923E+03  0.00000000000E+00 0. -1.
          1    1    1    2  501    0 -0.64022906733E+02 -0.97964163868E+02  0.60632984591E+02  0.13180390286E+03  0.00000000000E+00 0. -1.
<scales pt_clust_5="13000.00000" pt_clust_6="13000.00000" pt_clust_7="13000.00000" pt_clust_8="13000.00000" pt_clust_9="115.39360"></scales>
<clustering>
<clus scale="   80.614">  5  6 -1 -1</clus>
<clus scale="   87.317">  1  5  2 -1</clus>
<clus scale="   90.148">  7  8 -1 -1</clus>
<clus scale="  115.394">  2  9  1 -1</clus>
<clus scale="  115.394">  2  5  1 -1</clus>
</clustering>
</event>
<event>
 9    2  0.1751298E-004  0.9938487E+02  0.7546771E-02  0.1281687E+00
         21   -1    0    0  501  502  0.00000000000E+00  0.00000000000E+00  0.16277942431E+03  0.16277942431E+03  0.00000000000E+00 0.  1.
          2   -1    0    0  502    0 -0.00000000000E+00 -0.00000000000E+00 -0.22758978080E+03  0.22758978080E+03  0.00000000000E+00 0. -1.
         23    2    1    2    0    0 -0.21176615361E+02  0.95650887875E+01  0.39420241463E+02  0.10042807385E+03  0.89397441905E+02 0.  0.
         24    2    1    2    0    0 -0.65435478816E+01 -0.81800146956E+02  0.38848199526E+02  0.12728242916E+03  0.89205112546E+02 0.  0.
        -13    1    4    4    0    0  0.17110022972E+02 -0.90228772826E+02  0.43706004473E+02  0.10170643617E+03  0.00000000000E+00 0.  1.
         14    1    4    4    0    0 -0.23653570853E+02  0.84286258704E+01 -0.48578049471E+01  0.25575992983E+02  0.00000000000E+00 0. -1.
        -11    1    3    3    0    0  0.29422989107E+02 -0.17939094027E+02  0.18807918649E+02  0.39258899455E+02  0.00000000000E+00 0. -1.
         11    1    3    3    0    0 -0.50599604469E+02  0.27504182815E+02  0.20612322815E+02  0.61169174398E+02  0.00000000000E+00 0.  1.
          1    1    1    2  501    0  0.27720163243E+02  0.72235058168E+02 -0.14307879749E+03  0.16265870210E+03  0.00000000000E+00 0. -1.
<scales pt_clust_5="13000.00000" pt_clust_6="13000.00000" pt_clust_7="13000.00000" pt_clust_8="13000.00000" pt_clust_9="77.37129"></scales>
<clustering>
<clus scale="   77.371">  1  9  2 -1</clus>
<clus scale="   89.205">  5  6 -1 -1</clus>
<clus scale="   89.397">  7  8 -1 -1</clus>
<clus scale="   99.212">  1  5  2 -1</clus>
<clus scale="   77.371">  1  5  2 -1</clus>
</clustering>
</event>
<event>
 9    2  0.1751298E-004  0.1831845E+03  0.7546771E-02  0.1165581E+00
         21   -1    0    0  501  502  0.00000000000E+00  0.00000000000E+00  0.11169507340E+03  0.11169507340E+03  0.00000000000E+00 0.  1.
          2   -1    0    0  502    0 -0.00000000000E+00 -0.00000000000E+00 -0.58146096835E+03  0.58146096835E+03  0.00000000000E+00 0. -1.
         23    2    1    2    0    0  0.16292924249E+03  0.15181159750E+02 -0.46803967537E+03  0.50378574619E+03  0.89233035728E+02 0.  0.
         24    2    1    2    0    0 -0.14094016330E+03 -0.21544487777E+02  0.77030084250E+01  0.16461303627E+03  0.81913495751E+02 0.  0.
        -11    1    4    4    0    0 -0.14154430813E+03 -0.16999882070E+02  0.26726297998E+02  0.14504510388E+03  0.00000000000E+00 0.  1.
         12    1    4    4    0    0  0.60414482531E+00 -0.45446057068E+01 -0.19023289573E+02  0.19567932394E+02  0.00000000000E+00 0. -1.
        -13    1    3    3    0    0  0.87399583741E+02  0.45100940126E+02 -0.18761656864E+03  0.21183191182E+03  0.00000000000E+00 0.  1.
         13    1    3    3    0    0  0.75529658752E+02 -0.29919780375E+02 -0.28042310673E+03  0.29195383436E+03  0.00000000000E+00 0. -1.
          1    1    1    2  501    0 -0.21989079190E+02  0.63633280264E+01 -0.94292279979E+01  0.24757259295E+02  0.00000000000E+00 0. -1.
<scales pt_clust_5="13000.00000" pt_clust_6="13000.00000" pt_clust_7="13000.00000" pt_clust_8="13000.00000" pt_clust_9="22.89130"></scales>
<clustering>
<clus scale="   22.891">  1  9  2 -1</clus>
<clus scale="   81.913">  5  6 -1 -1</clus>
<clus scale="   89.233">  7  8 -1 -1</clus>
<clus scale="  179.733">  1  5  2 -1</clus>
<clus scale="   22.891">  1  5  2 -1</clus>
</clustering>
</event>
<event>
 9    2  0.1751298E-004  0.1436043E+03  0.7546771E-02  0.1214827E+00
         21   -1    0    0  501  502  0.00000000000E+00  0.00000000000E+00  0.22287224423E+03  0.22287224423E+03  0.00000000000E+00 0. -1.
          4   -1    0    0  502    0 -0.00000000000E+00 -0.00000000000E+00 -0.43431939906E+03  0.43431939906E+03  0.00000000000E+00 0. -1.
         24    2    1    2    0    0  0.47186348646E+02 -0.82682383782E+02 -0.30281074673E+03  0.32739445503E+03  0.80186362667E+02 0.  0.
         23    2    1    2    0    0 -0.11971599874E+03  0.46123916469E+02 -0.43754326253E+02  0.17214591652E+03  0.10611521796E+03 0.  0.
        -11    1    3    3    0    0  0.68631447897E+02 -0.75063835206E+02 -0.24669414016E+03  0.26683862874E+03  0.00000000000E+00 0.  1.
         12    1    3    3    0    0 -0.21445099252E+02 -0.76185485755E+01 -0.56116606570E+02  0.60555826287E+02  0.00000000000E+00 0. -1.
        -13    1    4    4    0    0  0.12643620159E+01  0.25723379883E+02 -0.42211386069E+02  0.49447871519E+02  0.00000000000E+00 0.  1.
         13    1    4    4    0    0 -0.12098036076E+03  0.20400536586E+02 -0.15429401842E+01  0.12269804500E+03  0.00000000000E+00 0. -1.
          3    1    1    2  501    0  0.72529650094E+02  0.36558467313E+02  0.13511791816E+03  0.15765127175E+03  0.00000000000E+00 0. -1.
<scales pt_clust_5="13000.00000" pt_clust_6="13000.00000" pt_clust_7="13000.00000" pt_clust_8="13000.00000" pt_clust_9="81.22236"></scales>
<clustering>
<clus scale="   80.186">  5  6 -1 -1</clus>
<clus scale="   81.222">  1  9  2 -1</clus>
<clus scale="  106.115">  7  8 -1 -1</clus>
<clus scale="  125.665">  2  5  1 -1</clus>
<clus scale="   81.222">  1  5  2 -1</clus>
</clustering>
</event>
<event>
 9    2  0.1751298E-004  0.1072267E+03  0.7546771E-02  0.1274968E+00
         -3   -1    0    0    0  501 -0.00000000000E+00  0.00000000000E+00  0.42235146794E+03  0.42235146794E+03  0.00000000000E+00 0.  1.
         21   -1    0    0  501  502  0.00000000000E+00 -0.00000000000E+00 -0.37692506806E+02  0.37692506806E+02  0.00000000000E+00 0.  1.
         24    2    1    2    0    0  0.37958112878E+02  0.88686199964E+01  0.20303785196E+03  0.22142005152E+03  0.79265371576E+02 0.  0.
         23    2    1    2    0    0 -0.38526826575E+02 -0.43128954562E+02  0.10718762983E+03  0.15668225613E+03  0.98568343347E+02 0.  0.
        -11    1    3    3    0    0  0.51736238170E+02 -0.19729547142E+02  0.11065210680E+03  0.12373270428E+03  0.00000000000E+00 0.  1.
         12    1    3    3    0    0 -0.13778125292E+02  0.28598167139E+02  0.92385745167E+02  0.97687347237E+02  0.00000000000E+00 0. -1.
        -11    1    4    4    0    0  0.32790670146E+02 -0.22442954420E+02  0.32142468142E+02  0.51108243073E+02  0.00000000000E+00 0. -1.
         11    1    4    4    0    0 -0.71317496721E+02 -0.20686000142E+02  0.75045161690E+02  0.10557401306E+03  0.00000000000E+00 0.  1.
         -4    1    1    2    0  502  0.56871369729E+00  0.34260334566E+02  0.74433479342E+02  0.81941667098E+02  0.00000000000E+00 0.  1.
<scales pt_clust_5="13000.00000" pt_clust_6="13000.00000" pt_clust_7="13000.00000" pt_clust_8="13000.00000" pt_clust_9="34.26507"></scales>
<clustering>
<clus scale="   34.265">  2  9  1 -1</clus>
<clus scale="   79.265">  5  6 -1 -1</clus>
<clus scale="   89.804">  1  5  2 -1</clus>
<clus scale="   98.568">  7  8 -1 -1</clus>
<clus scale="   34.265">  2  5  1 -1</clus>
</clustering>
</event>
<event>
 9    2  0.1751298E-004  0.9253784E+02  0.7546771E-02  0.1304679E+00
          2   -1    0    0  502    0 -0.00000000000E+00  0.00000000000E+00  0.53523048082E+03  0.53523048082E+03  0.00000000000E+00 0. -1.
         21   -1    0    0  501  502  0.00000000000E+00 -0.00000000000E+00 -0.32761843648E+02  0.32761843648E+02  0.00000000000E+00 0. -1.
         24    2    1    2    0    0  0.17651571005E+02  0.38369996693E+01  0.11211520532E+03  0.13828706712E+03  0.78912566439E+02 0.  0.
         23    2    1    2    0    0  0.17442282917E+02 -0.26278953509E+02  0.11112377226E+03  0.14738554024E+03  0.91537905151E+02 0.  0.
        -11    1    3    3    0    0  0.10725627475E+02  0.33579275397E+02  0.18486388831E+02  0.39803936902E+02  0.00000000000E+00 0.  1.
         12    1    3    3    0    0  0.69259435299E+01 -0.29742275728E+02  0.93628816493E+02  0.98483130216E+02  0.00000000000E+00 0. -1.
        -11    1    4    4    0    0 -0.27292532145E+02 -0.33112426054E+02  0.84784062609E+02  0.95024482859E+02  0.00000000000E+00 0. -1.
         11    1    4    4    0    0  0.44734815061E+02  0.68334725449E+01  0.26339709653E+02  0.52361057382E+02  0.00000000000E+00 0.  1.
          1    1    1    2  501    0 -0.35093853922E+02  0.22441953840E+02  0.27922965959E+03  0.28231971711E+03  0.00000000000E+00 0. -1.
<scales pt_clust_5="13000.00000" pt_clust_6="13000.00000" pt_clust_7="13000.00000" pt_clust_8="13000.00000" pt_clust_9="41.65599"></scales>
<clustering>
<clus scale="   41.656">  2  9  1 -1</clus>
<clus scale="   78.913">  5  6 -1 -1</clus>
<clus scale="   80.070">  1  5  2 -1</clus>
<clus scale="   91.538">  7  8 -1 -1</clus>
<clus scale="   41.656">  2  5  1 -1</clus>
</clustering>
</event>
<event>
 9    2  0.1751298E-004  0.1405098E+03  0.7546771E-02  0.1214611E+00
         21   -1    0    0  501  502  0.00000000000E+00  0.00000000000E+00  0.77835736474E+02  0.77835736474E+02  0.00000000000E+00 0.  1.
          2   -1    0    0  502    0 -0.00000000000E+00 -0.00000000000E+00 -0.34673246141E+03  0.34673246141E+03  0.00000000000E+00 0. -1.
         23    2    1    2    0    0  0.41747538168E+02 -0.11154124357E+03 -0.19909576148E+03  0.24882682282E+03  0.89951984710E+02 0.  0.
         24    2    1    2    0    0 -0.51139321711E+02  0.74460062290E+02 -0.41046344291E+02  0.12788693195E+03  0.80689118738E+02 0.  0.
        -11    1    4    4    0    0 -0.34279428542E+02  0.62132200575E+02  0.10997640266E+02  0.71808339772E+02  0.00000000000E+00 0.  1.
         12    1    4    4    0    0 -0.16859893170E+02  0.12327861715E+02 -0.52043984556E+02  0.56078592178E+02  0.00000000000E+00 0. -1.
        -11    1    3    3    0    0  0.35865324023E+02 -0.32628378301E+02 -0.18933258274E+02  0.52051904928E+02  0.00000000000E+00 0.  1.
         11    1    3    3    0    0  0.58822141449E+01 -0.78912865266E+02 -0.18016250321E+03  0.19677491789E+03  0.00000000000E+00 0. -1.
          1    1    1    2  501    0  0.93917835438E+01  0.37081181276E+02 -0.28754619163E+02  0.47854443118E+02  0.00000000000E+00 0. -1.
<scales pt_clust_5="13000.00000" pt_clust_6="13000.00000" pt_clust_7="13000.00000" pt_clust_8="13000.00000" pt_clust_9="38.25205"></scales>
<clustering>
<clus scale="   38.252">  1  9  2 -1</clus>
<clus scale="   80.689">  5  6 -1 -1</clus>
<clus scale="   89.952">  7  8 -1 -1</clus>
<clus scale="  134.768">  1  5  2 -1</clus>
<clus scale="   38.252">  1  5  2 -1</clus>
</clustering>
</event>
<event>
 9    2  0.1751298E-004  0.3977316E+03  0.7546771E-02  0.1094416E+00
          2   -1    0    0  502    0 -0.00000000000E+00  0.00000000000E+00  0.40285805738E+03  0.40285805738E+03  0.00000000000E+00 0. -1.
         21   -1    0    0  501  502  0.00000000000E+00 -0.00000000000E+00 -0.66630285456E+03  0.66630285456E+03  0.00000000000E+00 0. -1.
         23    2    1    2    0    0  0.59989792711E+01 -0.41404046919E+02  0.77171887096E+02  0.12711151298E+03  0.91932332291E+02 0.  0.
         24    2    1    2    0    0 -0.27667448070E+03 -0.24896744518E+03  0.51682079067E+02  0.38394622730E+03  0.78804258323E+02 0.  0.
        -13    1    4    4    0    0 -0.10589745534E+03 -0.12809206363E+03  0.53863053584E+02  0.17470854689E+03  0.00000000000E+00 0.  1.
         14    1    4    4    0    0 -0.17077702536E+03 -0.12087538155E+03 -0.21809745176E+01  0.20923768041E+03  0.00000000000E+00 0. -1.
        -11    1    3    3    0    0 -0.15930904144E+02  0.25443184894E+02  0.29784906383E+02  0.42288178167E+02  0.00000000000E+00 0. -1.
         11    1    3    3    0    0  0.21929883415E+02 -0.66847231814E+02  0.47386980713E+02  0.84823334813E+02  0.00000000000E+00 0.  1.
          1    1    1    2  501    0  0.27067550143E+03  0.29037149210E+03 -0.39229876335E+03  0.55810317166E+03  0.00000000000E+00 0. -1.
<scales pt_clust_5="13000.00000" pt_clust_6="13000.00000" pt_clust_7="13000.00000" pt_clust_8="13000.00000" pt_clust_9="389.84655"></scales>
<clustering>
<clus scale="   78.804">  5  6 -1 -1</clus>
<clus scale="   91.932">  7  8 -1 -1</clus>
<clus scale="  101.004">  1  7  2 -1</clus>
<clus scale="  389.847">  2  9  1 -1</clus>
<clus scale="  389.847">  2  5  1 -1</clus>
</clustering>
</event>
<event>
 9    2  0.1751298E-004  0.1045667E+03  0.7546771E-02  0.1273869E+00
         21   -1    0    0  501  502  0.00000000000E+00  0.00000000000E+00  0.46331589967E+03  0.46331589967E+03  0.00000000000E+00 0. -1.
          2   -1    0    0  502    0 -0.00000000000E+00 -0.00000000000E+00 -0.41021445107E+02  0.41021445107E+02  0.00000000000E+00 0. -1.
         23    2    1    2    0    0  0.54945230750E+02 -0.70409184297E+01  0.10885739708E+03  0.15070293606E+03  0.88277342075E+02 0.  0.
         24    2    1    2    0    0 -0.55367666138E+02 -0.28802242235E+02  0.12462260351E+03  0.16144749801E+03  0.81482229329E+02 0.  0.
        -11    1    4    4    0    0 -0.53382160711E+02  0.17531141353E+02  0.65199025573E+02  0.86069210145E+02  0.00000000000E+00 0.  1.
         12    1    4    4    0    0 -0.19855054269E+01 -0.46333383588E+02  0.59423577940E+02  0.75378287867E+02  0.00000000000E+00 0. -1.
        -13    1    3    3    0    0  0.32537258819E+02  0.27631617631E+02  0.10392507627E+02  0.43933856184E+02  0.00000000000E+00 0.  1.
         13    1    3    3    0    0  0.22407971931E+02 -0.34672536061E+02  0.98464889451E+02  0.10676907988E+03  0.00000000000E+00 0. -1.
          1    1    1    2  501    0  0.42243538758E+00  0.35843160664E+02  0.18881445398E+03  0.19218691071E+03  0.00000000000E+00 0. -1.
<scales pt_clust_5="13000.00000" pt_clust_6="13000.00000" pt_clust_7="13000.00000" pt_clust_8="13000.00000" pt_clust_9="35.84565"></scales>
<clustering>
<clus scale="   35.846">  1  9  2 -1</clus>
<clus scale="   81.482">  5  6 -1 -1</clus>
<clus scale="   88.277">  7  8 -1 -1</clus>
<clus scale="   98.897">  1  5  2 -1</clus>
<clus scale="   35.846">  1  5  2 -1</clus>
</clustering>
</event>
<event>
 9    2  0.1751298E-004  0.1483203E+03  0.7546771E-02  0.1206197E+00
          2   -1    0    0  502    0 -0.00000000000E+00  0.00000000000E+00  0.11911149920E+04  0.11911149920E+04  0.00000000000E+00 0. -1.
         21   -1    0    0  501  502  0.00000000000E+00 -0.00000000000E+00 -0.31991837062E+02  0.31991837062E+02  0.00000000000E+00 0.  1.
         24    2    1    2    0    0  0.92186441711E+02 -0.12540248532E+03  0.63141727987E+03  0.65457538324E+03  0.74545473767E+02 0.  0.
         23    2    1    2    0    0 -0.46569366445E+02  0.47938887658E+02  0.22388141694E+03  0.25168632929E+03  0.93574978804E+02 0.  0.
        -11    1    3    3    0    0  0.50642838793E+02 -0.11525420834E+03  0.52509155327E+03  0.53997163719E+03  0.00000000000E+00 0.  1.
         12    1    3    3    0    0  0.41543602919E+02 -0.10148276979E+02  0.10632572661E+03  0.11460374604E+03  0.00000000000E+00 0. -1.
        -11    1    4    4    0    0 -0.69460987765E+01  0.56083357188E+02  0.58137583977E+02  0.81077554924E+02  0.00000000000E+00 0.  1.
         11    1    4    4    0    0 -0.39623267669E+02 -0.81444695305E+01  0.16574383296E+03  0.17060877436E+03  0.00000000000E+00 0. -1.
          1    1    1    2  501    0 -0.45617075266E+02  0.77463597660E+02  0.30382445812E+03  0.31684511653E+03  0.00000000000E+00 0. -1.
<scales pt_clust_5="13000.00000" pt_clust_6="13000.00000" pt_clust_7="13000.00000" pt_clust_8="13000.00000" pt_clust_9="89.89736"></scales>
<clustering>
<clus scale="   74.545">  5  6 -1 -1</clus>
<clus scale="   89.897">  2  9  1 -1</clus>
<clus scale="   93.575">  7  8 -1 -1</clus>
<clus scale="  137.112">  1  5  2 -1</clus>
<clus scale="   89.897">  2  5  1 -1</clus>
</clustering>
</event>
<event>
 9    2  0.1751298E-004  0.1084656E+03  0.7546771E-02  0.1268146E+00
         21   -1    0    0  501  502  0.00000000000E+00  0.00000000000E+00  0.90998571866E+02  0.90998571866E+02  0.00000000000E+00 0. -1.
          2   -1    0    0  502    0 -0.00000000000E+00 -0.00000000000E+00 -0.17775809165E+03  0.17775809165E+03  0.00000000000E+00 0. -1.
         23    2    1    2    0    0  0.37690391623E+02 -0.13676612901E+02 -0.15231120292E+02  0.10228945742E+03  0.92862967392E+02 0.  0.
         24    2    1    2    0    0 -0.71218267421E+02  0.94225981610E+01 -0.29669872942E+02  0.11266803006E+03  0.81565658625E+02 0.  0.
        -13    1    4    4    0    0 -0.93426967740E+01 -0.24204401881E+02 -0.33225798019E+02  0.42155577417E+02  0.00000000000E+00 0.  1.
         14    1    4    4    0    0 -0.61875570647E+02  0.33627000042E+02  0.35559250769E+01  0.70512452644E+02  0.00000000000E+00 0. -1.
        -11    1    3    3    0    0  0.60604727679E+02  0.12841659290E+02 -0.23538507233E+02  0.66271430897E+02  0.00000000000E+00 0. -1.
         11    1    3    3    0    0 -0.22914336056E+02 -0.26518272191E+02  0.83073869408E+01  0.36018026524E+02  0.00000000000E+00 0.  1.
          1    1    1    2  501    0  0.33527875798E+02  0.42540147398E+01 -0.41858526548E+02  0.53799176032E+02  0.00000000000E+00 0. -1.
<scales pt_clust_5="13000.00000" pt_clust_6="13000.00000" pt_clust_7="13000.00000" pt_clust_8="13000.00000" pt_clust_9="33.79669"></scales>
<clustering>
<clus scale="   33.797">  1  9  2 -1</clus>
<clus scale="   81.566">  5  6 -1 -1</clus>
<clus scale="   92.863">  7  8 -1 -1</clus>
<clus scale="   98.966">  1  5  2 -1</clus>
<clus scale="   33.797">  1  5  2 -1</clus>
</clustering>
</event>
<event>
 9    2  0.1751298E-004  0.9911199E+02  0.7546771E-02  0.1288019E+00
          2   -1    0    0  502    0 -0.00000000000E+00  0.00000000000E+00  0.41460669133E+03  0.41460669133E+03  0.00000000000E+00 0. -1.
         21   -1    0    0  501  502  0.00000000000E+00 -0.00000000000E+00 -0.51875405238E+02  0.51875405238E+02  0.00000000000E+00 0.  1.
         24    2    1    2    0    0  0.29854325558E+02 -0.19424129878E+02  0.29750440805E+03  0.31022736459E+03  0.80396314312E+02 0.  0.
         23    2    1    2    0    0 -0.31064436694E+02  0.44083671671E+02  0.25359949579E+02  0.10936198888E+03  0.91698136478E+02 0.  0.
        -11    1    3    3    0    0 -0.17059106013E+02  0.16535480573E+02  0.44887092399E+02  0.50786674234E+02  0.00000000000E+00 0.  1.
         12    1    3    3    0    0  0.46913431571E+02 -0.35959610451E+02  0.25261731565E+03  0.25944069035E+03  0.00000000000E+00 0. -1.
        -11    1    4    4    0    0 -0.27254627274E+02 -0.21720798830E+02 -0.75935140309E+01  0.35668883708E+02  0.00000000000E+00 0.  1.
         11    1    4    4    0    0 -0.38098094199E+01  0.65804470501E+02  0.32953463610E+02  0.73693105170E+02  0.00000000000E+00 0. -1.
          1    1    1    2  501    0  0.12101111354E+01 -0.24659541793E+02  0.39866928467E+02  0.46892743104E+02  0.00000000000E+00 0. -1.
<scales pt_clust_5="13000.00000" pt_clust_6="13000.00000" pt_clust_7="13000.00000" pt_clust_8="13000.00000" pt_clust_9="24.68923"></scales>
<clustering>
<clus scale="   24.689">  2  9  1 -1</clus>
<clus scale="   80.396">  5  6 -1 -1</clus>
<clus scale="   88.759">  1  5  2 -1</clus>
<clus scale="   91.698">  7  8 -1 -1</clus>
<clus scale="   24.689">  2  5  1 -1</clus>
</clustering>
</event>
<event>
 9    2  0.1751298E-004  0.1314014E+03  0.7546771E-02  0.1227403E+00
          2   -1    0    0  502    0 -0.00000000000E+00  0.00000000000E+00  0.58232478719E+03  0.58232478719E+03  0.00000000000E+00 0. -1.
         21   -1    0    0  501  502  0.00000000000E+00 -0.00000000000E+00 -0.72578842911E+02  0.72578842911E+02  0.00000000000E+00 0. -1.
         23    2    1    2    0    0  0.36602957595E+02  0.10055887909E+03  0.43667270168E+03  0.45828979790E+03  0.88851706755E+02 0.  0.
         24    2    1    2    0    0 -0.65608471404E+02 -0.35238879654E+02  0.32885008358E+02  0.11461922062E+03  0.80683900509E+02 0.  0.
        -13    1    4    4    0    0 -0.10031330520E+02 -0.21242127884E+02 -0.24200700788E+02  0.33727281356E+02  0.00000000000E+00 0.  1.
         14    1    4    4    0    0 -0.55577140884E+02 -0.13996751769E+02  0.57085709146E+02  0.80891939262E+02  0.00000000000E+00 0. -1.
        -13    1    3    3    0    0 -0.27845418478E+02  0.23611597173E+02  0.15583708613E+03  0.16005646587E+03  0.00000000000E+00 0.  1.
         13    1    3    3    0    0  0.64448376073E+02  0.76947281916E+02  0.28083561555E+03  0.29823333203E+03  0.00000000000E+00 0. -1.
          1    1    1    2  501    0  0.29005513809E+02 -0.65319999436E+02  0.40188234237E+02  0.81994611583E+02  0.00000000000E+00 0. -1.
<scales pt_clust_5="13000.00000" pt_clust_6="13000.00000" pt_clust_7="13000.00000" pt_clust_8="13000.00000" pt_clust_9="71.47043"></scales>
<clustering>
<clus scale="   71.470">  2  9  1 -1</clus>
<clus scale="   80.684">  5  6 -1 -1</clus>
<clus scale="   88.852">  7  8 -1 -1</clus>
<clus scale="  126.022">  2  5  1 -1</clus>
<clus scale="   71.470">  2  5  1 -1</clus>
</clustering>
</event>
<event>
 9    2  0.1751298E-004  0.9783565E+02  0.7546771E-02  0.1289073E+00
         21   -1    0    0  501  502  0.00000000000E+00  0.00000000000E+00  0.42779750311E+02  0.42779750311E+02  0.00000000000E+00 0.  1.
          2   -1    0    0  502    0 -0.00000000000E+00 -0.00000000000E+00 -0.41023377834E+03  0.41023377834E+03  0.00000000000E+00 0. -1.
         23    2    1    2    0    0 -0.26882846917E+02  0.25430557777E+02 -0.29173781355E+03  0.30720594399E+03  0.88854597184E+02 0.  0.
         24    2    1    2    0    0  0.37426347281E+02 -0.43488720885E+02 -0.45228846362E+02  0.10883810712E+03  0.80672701106E+02 0.  0.
        -13    1    4    4    0    0  0.13260666405E+02 -0.34605090748E+02  0.17535459511E+02  0.40998169708E+02  0.00000000000E+00 0.  1.
         14    1    4    4    0    0  0.24165680876E+02 -0.88836301368E+01 -0.62764305873E+02  0.67839937414E+02  0.00000000000E+00 0. -1.
        -11    1    3    3    0    0 -0.88577422444E+01 -0.33230776498E+02 -0.12010272780E+03  0.12492961751E+03  0.00000000000E+00 0.  1.
         11    1    3    3    0    0 -0.18025104672E+02  0.58661334275E+02 -0.17163508575E+03  0.18227632649E+03  0.00000000000E+00 0. -1.
          1    1    1    2  501    0 -0.10543500365E+02  0.18058163108E+02 -0.30487368109E+02  0.36969477532E+02  0.00000000000E+00 0. -1.
<scales pt_clust_5="13000.00000" pt_clust_6="13000.00000" pt_clust_7="13000.00000" pt_clust_8="13000.00000" pt_clust_9="20.91084"></scales>
<clustering>
<clus scale="   20.911">  1  9  2 -1</clus>
<clus scale="   80.673">  5  6 -1 -1</clus>
<clus scale="   88.855">  7  8 -1 -1</clus>
<clus scale="   90.470">  1  5  2 -1</clus>
<clus scale="   20.911">  1  5  2 -1</clus>
</clustering>
</event>
<event>
 9    2  0.1751298E-004  0.1383637E+03  0.7546771E-02  0.1218348E+00
         21   -1    0    0  501  502  0.00000000000E+00  0.00000000000E+00  0.17517127214E+03  0.17517127214E+03  0.00000000000E+00 0. -1.
          2   -1    0    0  502    0 -0.00000000000E+00 -0.00000000000E+00 -0.26407736887E+03  0.26407736887E+03  0.00000000000E+00 0. -1.
         23    2    1    2    0    0 -0.48191662373E+02 -0.63612189010E+02 -0.36618831026E+02  0.12696172980E+03  0.91702754238E+02 0.  0.
         24    2    1    2    0    0  0.57400405241E+02  0.15515738866E+03  0.33538600382E+02  0.18646400466E+03  0.79217204819E+02 0.  0.
        -13    1    4    4    0    0 -0.12355122295E+02  0.19950038881E+02  0.24695318040E+02  0.34066285846E+02  0.00000000000E+00 0.  1.
         14    1    4    4    0    0  0.69755527535E+02  0.13520734978E+03  0.88432823417E+01  0.15239771881E+03  0.00000000000E+00 0. -1.
        -13    1    3    3    0    0 -0.42525280803E+02  0.71801490591E+01 -0.35621329485E+02  0.55935973775E+02  0.00000000000E+00 0.  1.
         13    1    3    3    0    0 -0.56663815697E+01 -0.70792338069E+02 -0.99750154022E+00  0.71025756023E+02  0.00000000000E+00 0. -1.
          1    1    1    2  501    0 -0.92087428680E+01 -0.91545199650E+02 -0.85825866087E+02  0.12582290655E+03  0.00000000000E+00 0. -1.
<scales pt_clust_5="13000.00000" pt_clust_6="13000.00000" pt_clust_7="13000.00000" pt_clust_8="13000.00000" pt_clust_9="92.00724"></scales>
<clustering>
<clus scale="   79.217">  5  6 -1 -1</clus>
<clus scale="   91.703">  7  8 -1 -1</clus>
<clus scale="   92.007">  1  9  2 -1</clus>
<clus scale="  130.424">  1  5  2 -1</clus>
<clus scale="   92.007">  1  5  2 -1</clus>
</clustering>
</event>
<event>
 9    2  0.1751298E-004  0.1297341E+03  0.7546771E-02  0.1231161E+00
          2   -1    0    0  502    0 -0.00000000000E+00  0.00000000000E+00  0.62032464452E+02  0.62032464452E+02  0.00000000000E+00 0. -1.
         21   -1    0    0  501  502  0.00000000000E+00 -0.00000000000E+00 -0.52314959853E+03  0.52314959853E+03  0.00000000000E+00 0. -1.
         23    2    1    2    0    0 -0.94974125574E+02 -0.30776678870E+02 -0.63789354354E+02  0.15068230431E+03  0.93106318859E+02 0.  0.
         24    2    1    2    0    0  0.49070413415E+02  0.64103939853E+02 -0.21335790641E+03  0.24198282072E+03  0.80727125034E+02 0.  0.
        -11    1    4    4    0    0  0.57559343155E+02  0.74273877432E+02 -0.14810579080E+03  0.17539957846E+03  0.00000000000E+00 0.  1.
         12    1    4    4    0    0 -0.84889297406E+01 -0.10169937579E+02 -0.65252115611E+02  0.66583242263E+02  0.00000000000E+00 0. -1.
        -13    1    3    3    0    0 -0.58477189176E+01 -0.30629664227E+02  0.12273228718E+02  0.33511256174E+02  0.00000000000E+00 0. -1.
         13    1    3    3    0    0 -0.89126406656E+02 -0.14701464257E+00 -0.76062583072E+02  0.11717104813E+03  0.00000000000E+00 0.  1.
          1    1    1    2  501    0  0.45903712159E+02 -0.33327260983E+02 -0.18396987331E+03  0.19251693795E+03  0.00000000000E+00 0. -1.
<scales pt_clust_5="13000.00000" pt_clust_6="13000.00000" pt_clust_7="13000.00000" pt_clust_8="13000.00000" pt_clust_9="56.72616"></scales>
<clustering>
<clus scale="   56.726">  2  9  1 -1</clus>
<clus scale="   80.727">  5  6 -1 -1</clus>
<clus scale="   93.106">  7  8 -1 -1</clus>
<clus scale="  121.157">  2  5  1 -1</clus>
<clus scale="   56.726">  2  5  1 -1</clus>
</clustering>
</event>
<event>
 9    2  0.1751298E-004  0.1238400E+03  0.7546771E-02  0.1239580E+00
         21   -1    0    0  501  502  0.00000000000E+00  0.00000000000E+00  0.16726370453E+03  0.16726370453E+03  0.00000000000E+00 0.  1.
         -1   -1    0    0    0  501 -0.00000000000E+00 -0.00000000000E+00 -0.34486594426E+03  0.34486594426E+03  0.00000000000E+00 0.  1.
         24    2    1    2    0    0  0.82268048471E+02 -0.29209367405E+02 -0.28681241651E+03  0.31055346367E+03  0.80999213509E+02 0.  0.
         23    2    1    2    0    0 -0.71003799550E+02  0.44889458402E+01  0.31394586836E+02  0.11915501925E+03  0.90280719674E+02 0.  0.
        -11    1    3    3    0    0  0.95295883117E+02 -0.16693108343E+02 -0.26570430886E+03  0.28276977376E+03  0.00000000000E+00 0.  1.
         12    1    3    3    0    0 -0.13027834646E+02 -0.12516259062E+02 -0.21108107654E+02  0.27783689914E+02  0.00000000000E+00 0. -1.
        -13    1    4    4    0    0 -0.10548066178E+02 -0.29147712789E+02  0.38703914532E+02  0.49586730695E+02  0.00000000000E+00 0.  1.
         13    1    4    4    0    0 -0.60455733372E+02  0.33636658629E+02 -0.73093276965E+01  0.69568288556E+02  0.00000000000E+00 0. -1.
         -2    1    1    2    0  502 -0.11264248921E+02  0.24720421565E+02  0.77815589936E+02  0.82421165869E+02  0.00000000000E+00 0.  1.
<scales pt_clust_5="13000.00000" pt_clust_6="13000.00000" pt_clust_7="13000.00000" pt_clust_8="13000.00000" pt_clust_9="27.16583"></scales>
<clustering>
<clus scale="   27.166">  1  9  2 -1</clus>
<clus scale="   80.999">  5  6 -1 -1</clus>
<clus scale="   90.281">  7  8 -1 -1</clus>
<clus scale="  117.246">  2  5  1 -1</clus>
<clus scale="   27.166">  1  5  2 -1</clus>
</clustering>
</event>
<event>
 9    2  0.1751298E-004  0.9370045E+02  0.7546771E-02  0.1298216E+00
          2   -1    0    0  502    0 -0.00000000000E+00  0.00000000000E+00  0.36763090773E+03  0.36763090773E+03  0.00000000000E+00 0. -1.
         21   -1    0    0  501  502  0.00000000000E+00 -0.00000000000E+00 -0.12829716487E+03  0.12829716487E+03  0.00000000000E+00 0. -1.
         23    2    1    2    0    0 -0.15549540716E+02  0.25680018435E+02  0.32465711088E+03  0.33808170523E+03  0.89418947684E+02 0.  0.
         24    2    1    2    0    0 -0.27488145115E+02 -0.17411867767E+02 -0.63654291912E+02  0.10895717044E+03  0.82225451361E+02 0.  0.
        -13    1    4    4    0    0  0.20840138554E+02 -0.64630134857E+01 -0.54312295869E+02  0.58531251489E+02  0.00000000000E+00 0.  1.
         14    1    4    4    0    0 -0.48328283669E+02 -0.10948854281E+02 -0.93419960423E+01  0.50425918956E+02  0.00000000000E+00 0. -1.
        -11    1    3    3    0    0  0.86832329718E+01  0.53561726628E+02  0.23354828208E+03  0.23976875767E+03  0.00000000000E+00 0. -1.
         11    1    3    3    0    0 -0.24232773688E+02 -0.27881708193E+02  0.91108828802E+02  0.98312947561E+02  0.00000000000E+00 0.  1.
          1    1    1    2  501    0  0.43037685831E+02 -0.82681506682E+01 -0.21669076103E+02  0.48889196928E+02  0.00000000000E+00 0. -1.
<scales pt_clust_5="13000.00000" pt_clust_6="13000.00000" pt_clust_7="13000.00000" pt_clust_8="13000.00000" pt_clust_9="43.82470"></scales>
<clustering>
<clus scale="   43.825">  2  9  1 -1</clus>
<clus scale="   82.225">  5  6 -1 -1</clus>
<clus scale="   86.862">  2  5  1 -1</clus>
<clus scale="   89.419">  7  8 -1 -1</clus>
<clus scale="   43.825">  2  5  1 -1</clus>
</clustering>
</event>
<event>
 9    2  0.1751298E-004  0.2318903E+03  0.7546771E-02  0.1128461E+00
          2   -1    0    0  502    0 -0.00000000000E+00  0.00000000000E+00  0.17225513235E+03  0.17225513235E+03  0.00000000000E+00 0. -1.
         21   -1    0    0  501  502  0.00000000000E+00 -0.00000000000E+00 -0.72892410860E+03  0.72892410860E+03  0.00000000000E+00 0. -1.
         24    2    1    2    0    0 -0.55262868191E+02  0.14782900266E+03 -0.16644235684E+03  0.24282228384E+03  0.79700719894E+02 0.  0.
         23    2    1    2    0    0  0.19922105722E+03 -0.22229887909E+03 -0.37763990545E+03  0.49578959245E+03  0.11869962303E+03 0.  0.
        -13    1    3    3    0    0 -0.40915074202E+02  0.12248163363E+03 -0.16999402160E+03  0.21348011911E+03  0.00000000000E+00 0.  1.
         14    1    3    3    0    0 -0.14347793988E+02  0.25347369025E+02  0.35516647566E+01  0.29342164736E+02  0.00000000000E+00 0. -1.
        -13    1    4    4    0    0  0.72886410338E+02 -0.60800856097E+02 -0.21173007357E+03  0.23203188782E+03  0.00000000000E+00 0.  1.
         13    1    4    4    0    0  0.12633464688E+03 -0.16149802300E+03 -0.16590983188E+03  0.26375770463E+03  0.00000000000E+00 0. -1.
          1    1    1    2  501    0 -0.14395818903E+03  0.74469876435E+02 -0.12586713956E+02  0.16256736466E+03  0.00000000000E+00 0. -1.
<scales pt_clust_5="13000.00000" pt_clust_6="13000.00000" pt_clust_7="13000.00000" pt_clust_8="13000.00000" pt_clust_9="162.07945"></scales>
<clustering>
<clus scale="   79.701">  5  6 -1 -1</clus>
<clus scale="  118.700">  7  8 -1 -1</clus>
<clus scale="  162.079">  2  9  1 -1</clus>
<clus scale="  214.559">  1  5  2 -1</clus>
<clus scale="  162.079">  2  5  1 -1</clus>
</clustering>
</event>
<event>
 9    2  0.1751298E-004  0.3230432E+03  0.7546771E-02  0.1074257E+00
          2   -1    0    0  502    0 -0.00000000000E+00  0.00000000000E+00  0.21390491252E+03  0.21390491252E+03  0.00000000000E+00 0. -1.
         21   -1    0    0  501  502  0.00000000000E+00 -0.00000000000E+00 -0.42123264270E+03  0.42123264270E+03  0.00000000000E+00 0. -1.
         24    2    1    2    0    0 -0.72269773670E+02  0.79750789330E+02 -0.78933924869E+01  0.13355967357E+03  0.78694168624E+02 0.  0.
         23    2    1    2    0    0 -0.14572319544E+02  0.16526480727E+03 -0.30970213154E+02  0.19181288527E+03  0.91149436827E+02 0.  0.
        -11    1    3    3    0    0 -0.21354555923E+02  0.25464948213E+01 -0.31473384164E+02  0.38119228813E+02  0.00000000000E+00 0.  1.
         12    1    3    3    0    0 -0.50915217747E+02  0.77204294509E+02  0.23579991677E+02  0.95440444762E+02  0.00000000000E+00 0. -1.
        -11    1    4    4    0    0 -0.34074684183E+02  0.34657169619E+02  0.16737483638E+02  0.51403763157E+02  0.00000000000E+00 0.  1.
         11    1    4    4    0    0  0.19502364640E+02  0.13060763765E+03 -0.47707696791E+02  0.14040912211E+03  0.00000000000E+00 0. -1.
          1    1    1    2  501    0  0.86842093214E+02 -0.24501559660E+03 -0.16846412454E+03  0.30976499639E+03  0.00000000000E+00 0. -1.
<scales pt_clust_5="13000.00000" pt_clust_6="13000.00000" pt_clust_7="13000.00000" pt_clust_8="13000.00000" pt_clust_9="259.95036"></scales>
<clustering>
<clus scale="   78.694">  5  6 -1 -1</clus>
<clus scale="   91.149">  7  8 -1 -1</clus>
<clus scale="  115.099">  5  7 -1 -1</clus>
<clus scale="  259.950">  2  9  1 -1</clus>
<clus scale="  259.950">  2  5  1 -1</clus>
</clustering>
</event>
<event>
 9    2  0.1751298E-004  0.1081165E+03  0.7546771E-02  0.1270400E+00
         21   -1    0    0  501  502  0.00000000000E+00  0.00000000000E+00  0.19597598008E+02  0.19597598008E+02  0.00000000000E+00 0.  1.
          2   -1    0    0  502    0 -0.00000000000E+00 -0.00000000000E+00 -0.25859700799E+04  0.25859700799E+04  0.00000000000E+00 0. -1.
         24    2    1    2    0    0 -0.30100336673E+02  0.29515679348E+02 -0.20874930931E+04  0.20904515459E+04  0.10287393481E+03 0.  0.
         23    2    1    2    0    0 -0.46984173185E+02  0.59422880094E+01 -0.21083771029E+03  0.23396558421E+03  0.89691310598E+02 0.  0.
        -11    1    3    3    0    0 -0.74276625183E+01 -0.18746083060E+02 -0.89345102500E+02  0.91592211139E+02  0.00000000000E+00 0.  1.
         12    1    3    3    0    0 -0.22672674155E+02  0.48261762407E+02 -0.19981479906E+04  0.19988593347E+04  0.00000000000E+00 0. -1.
        -13    1    4    4    0    0 -0.11061823055E+02 -0.20389670564E+02 -0.54829968986E+01  0.23836229777E+02  0.00000000000E+00 0.  1.
         13    1    4    4    0    0 -0.35922350130E+02  0.26331958574E+02 -0.20535471339E+03  0.21012935443E+03  0.00000000000E+00 0. -1.
          1    1    1    2  501    0  0.77084509858E+02 -0.35457967357E+02 -0.26804167851E+03  0.28115054780E+03  0.00000000000E+00 0. -1.
<scales pt_clust_5="13000.00000" pt_clust_6="13000.00000" pt_clust_7="13000.00000" pt_clust_8="13000.00000" pt_clust_9="84.84862"></scales>
<clustering>
<clus scale="   84.849">  1  9  2 -1</clus>
<clus scale="   89.691">  7  8 -1 -1</clus>
<clus scale="   95.659">  1  7  2 -1</clus>
<clus scale="  102.874">  5  6 -1 -1</clus>
<clus scale="   84.849">  1  5  2 -1</clus>
</clustering>
</event>
<event>
 9    2  0.1751298E-004  0.4270934E+03  0.7546771E-02  0.1044466E+00
         -3   -1    0    0    0  501 -0.00000000000E+00  0.00000000000E+00  0.39119360563E+03  0.39119360563E+03  0.00000000000E+00 0.  1.
         21   -1    0    0  501  502  0.00000000000E+00 -0.00000000000E+00 -0.18816059801E+04  0.18816059801E+04  0.00000000000E+00 0.  1.
         24    2    1    2    0    0  0.27273744385E+03  0.15134862701E+03  0.15601315952E+03  0.35794273051E+03  0.80565328802E+02 0.  0.
         23    2    1    2    0    0 -0.30067691725E+03  0.28811690316E+03 -0.38625498065E+03  0.57996345501E+03  0.11724649511E+03 0.  0.
        -13    1    3    3    0    0  0.24733665952E+03  0.14137165830E+03  0.11191254729E+03  0.30608134075E+03  0.00000000000E+00 0.  1.
         14    1    3    3    0    0  0.25400784331E+02  0.99769687165E+01  0.44100612227E+02  0.51861389763E+02  0.00000000000E+00 0. -1.
        -11    1    4    4    0    0 -0.29898402913E+03  0.24089290819E+03 -0.35766528985E+03  0.52473355378E+03  0.00000000000E+00 0.  1.
         11    1    4    4    0    0 -0.16928881270E+01  0.47223994966E+02 -0.28589690796E+02  0.55229901236E+02  0.00000000000E+00 0. -1.
         -4    1    1    2    0  502  0.27939473402E+02 -0.43946553017E+03 -0.12601705533E+04  0.13348934002E+04  0.00000000000E+00 0.  1.
<scales pt_clust_5="13000.00000" pt_clust_6="13000.00000" pt_clust_7="13000.00000" pt_clust_8="13000.00000" pt_clust_9="410.68488"></scales>
<clustering>
<clus scale="   80.565">  5  6 -1 -1</clus>
<clus scale="  117.246">  7  8 -1 -1</clus>
<clus scale="  322.154">  1  5  2 -1</clus>
<clus scale="  410.685">  2  9  1 -1</clus>
<clus scale="  410.685">  2  5  1 -1</clus>
</clustering>
</event>
<event>
 9    2  0.1751298E-004  0.9720208E+02  0.7546771E-02  0.1289987E+00
         21   -1    0    0  501  502  0.00000000000E+00  0.00000000000E+00  0.93387308407E+02  0.93387308407E+02  0.00000000000E+00 0.  1.
          4   -1    0    0  502    0 -0.00000000000E+00 -0.00000000000E+00 -0.22367245627E+03  0.22367245627E+03  0.00000000000E+00 0. -1.
         24    2    1    2    0    0  0.43125990922E+02  0.22915447005E+02 -0.12671036315E+03  0.15908004547E+03  0.82861184715E+02 0.  0.
         23    2    1    2    0    0  0.12217517243E+02 -0.72728103458E+01  0.24036159725E+02  0.94183479272E+02  0.89947925466E+02 0.  0.
        -11    1    3    3    0    0  0.48056129860E+02 -0.18143589504E+02 -0.90743102313E+02  0.10427316085E+03  0.00000000000E+00 0.  1.
         12    1    3    3    0    0 -0.49301389382E+01  0.41059036509E+02 -0.35967260832E+02  0.54806884611E+02  0.00000000000E+00 0. -1.
        -13    1    4    4    0    0  0.19416359054E+02 -0.42895186274E+02  0.32062949986E+02  0.56965118856E+02  0.00000000000E+00 0.  1.
         13    1    4    4    0    0 -0.71988418106E+01  0.35622375928E+02 -0.80267902617E+01  0.37218360417E+02  0.00000000000E+00 0. -1.
          3    1    1    2  501    0 -0.55343508165E+02 -0.15642636659E+02 -0.27610944447E+02  0.63796239943E+02  0.00000000000E+00 0. -1.
<scales pt_clust_5="13000.00000" pt_clust_6="13000.00000" pt_clust_7="13000.00000" pt_clust_8="13000.00000" pt_clust_9="57.51173"></scales>
<clustering>
<clus scale="   57.512">  1  9  2 -1</clus>
<clus scale="   82.861">  5  6 -1 -1</clus>
<clus scale="   89.948">  7  8 -1 -1</clus>
<clus scale="   90.684">  2  5  1 -1</clus>
<clus scale="   57.512">  1  5  2 -1</clus>
</clustering>
</event>
<event>
 9    2  0.1751298E-004  0.9410007E+02  0.7546771E-02  0.1299243E+00
         21   -1    0    0  501  502  0.00000000000E+00  0.00000000000E+00  0.13568101446E+03  0.13568101446E+03  0.00000000000E+00 0. -1.
          2   -1    0    0  502    0 -0.00000000000E+00 -0.00000000000E+00 -0.63666768419E+03  0.63666768419E+03  0.00000000000E+00 0. -1.
         24    2    1    2    0    0 -0.19728309689E+02 -0.20471376406E+02 -0.57554539569E+03  0.58175859460E+03  0.79889150921E+02 0.  0.
         23    2    1    2    0    0  0.80036136868E+01 -0.49432433803E+02  0.55299812196E+02  0.11714000577E+03  0.90311064547E+02 0.  0.
        -13    1    3    3    0    0  0.56151123189E+01 -0.46677608207E+02 -0.27218567223E+03  0.27621616311E+03  0.00000000000E+00 0.  1.
         14    1    3    3    0    0 -0.25343422008E+02  0.26206231802E+02 -0.30335972346E+03  0.30554243149E+03  0.00000000000E+00 0. -1.
        -11    1    4    4    0    0  0.48307934947E+02 -0.23470402986E+02  0.39472130796E+02  0.66652573129E+02  0.00000000000E+00 0. -1.
         11    1    4    4    0    0 -0.40304321260E+02 -0.25962030817E+02  0.15827681400E+02  0.50487432643E+02  0.00000000000E+00 0.  1.
          1    1    1    2  501    0  0.11724696003E+02  0.69903810208E+02  0.19258913768E+02  0.73450098281E+02  0.00000000000E+00 0. -1.
<scales pt_clust_5="13000.00000" pt_clust_6="13000.00000" pt_clust_7="13000.00000" pt_clust_8="13000.00000" pt_clust_9="70.88026"></scales>
<clustering>
<clus scale="   70.880">  1  9  2 -1</clus>
<clus scale="   79.889">  5  6 -1 -1</clus>
<clus scale="   84.149">  2  5  1 -1</clus>
<clus scale="   90.311">  7  8 -1 -1</clus>
<clus scale="   70.880">  1  5  2 -1</clus>
</clustering>
</event>
<event>
 9    2  0.1751298E-004  0.1919178E+03  0.7546771E-02  0.1157937E+00
         21   -1    0    0  501  502  0.00000000000E+00  0.00000000000E+00  0.92023889502E+02  0.92023889502E+02  0.00000000000E+00 0. -1.
          2   -1    0    0  502    0 -0.00000000000E+00 -0.00000000000E+00 -0.87410094842E+03  0.87410094842E+03  0.00000000000E+00 0. -1.
         24    2    1    2    0    0 -0.15924119622E+03 -0.64886001067E+02 -0.58188080151E+03  0.61179233152E+03  0.78336696547E+02 0.  0.
         23    2    1    2    0    0  0.17444350820E+03 -0.17796641799E+02 -0.92776584104E+02  0.21792680296E+03  0.90207199694E+02 0.  0.
        -11    1    3    3    0    0 -0.66254849778E+02 -0.68113163498E+02 -0.32367016966E+03  0.33732993773E+03  0.00000000000E+00 0.  1.
         12    1    3    3    0    0 -0.92986346437E+02  0.32271624318E+01 -0.25821063185E+03  0.27446239379E+03  0.00000000000E+00 0. -1.
        -13    1    4    4    0    0  0.79926602845E+01 -0.29272551475E+02 -0.14602642044E+02  0.33674946814E+02  0.00000000000E+00 0.  1.
         13    1    4    4    0    0  0.16645084792E+03  0.11475909676E+02 -0.78173942061E+02  0.18425185614E+03  0.00000000000E+00 0. -1.
          1    1    1    2  501    0 -0.15202311987E+02  0.82682642865E+02 -0.10741967330E+03  0.13640570345E+03  0.00000000000E+00 0. -1.
<scales pt_clust_5="13000.00000" pt_clust_6="13000.00000" pt_clust_7="13000.00000" pt_clust_8="13000.00000" pt_clust_9="84.06860"></scales>
<clustering>
<clus scale="   78.337">  5  6 -1 -1</clus>
<clus scale="   84.069">  1  9  2 -1</clus>
<clus scale="   90.207">  7  8 -1 -1</clus>
<clus scale="  186.633">  2  5  1 -1</clus>
<clus scale="   84.069">  1  5  2 -1</clus>
</clustering>
</event>
<event>
 9    2  0.1751298E-004  0.9248719E+02  0.7546771E-02  0.1303508E+00
         21   -1    0    0  501  502  0.00000000000E+00  0.00000000000E+00  0.25104926503E+03  0.25104926503E+03  0.00000000000E+00 0. -1.
          4   -1    0    0  502    0 -0.00000000000E+00 -0.00000000000E+00 -0.64470774160E+02  0.64470774160E+02  0.00000000000E+00 0. -1.
         24    2    1    2    0    0  0.36993583388E+01  0.73306795964E+01 -0.15070451952E+01  0.82250999679E+02  0.81826228359E+02 0.  0.
         23    2    1    2    0    0 -0.62845125671E+01  0.32280825055E+02  0.13970460727E+03  0.17068734415E+03  0.92386391834E+02 0.  0.
        -11    1    3    3    0    0 -0.19225306919E+02 -0.22227129069E+02 -0.24570652309E+02  0.38306326471E+02  0.00000000000E+00 0.  1.
         12    1    3    3    0    0  0.22924665258E+02  0.29557808666E+02  0.23063607114E+02  0.43944673208E+02  0.00000000000E+00 0. -1.
        -11    1    4    4    0    0  0.17596639899E+02  0.18945553995E+02 -0.24059079338E+01  0.25968522193E+02  0.00000000000E+00 0.  1.
         11    1    4    4    0    0 -0.23881152466E+02  0.13335271060E+02  0.14211051520E+03  0.14471882195E+03  0.00000000000E+00 0. -1.
          3    1    1    2  501    0  0.25851542283E+01 -0.39611504652E+02  0.48380928802E+02  0.62581695366E+02  0.00000000000E+00 0. -1.
<scales pt_clust_5="13000.00000" pt_clust_6="13000.00000" pt_clust_7="13000.00000" pt_clust_8="13000.00000" pt_clust_9="39.69577"></scales>
<clustering>
<clus scale="   39.696">  1  9  2 -1</clus>
<clus scale="   81.826">  5  6 -1 -1</clus>
<clus scale="   81.940">  2  5  1 -1</clus>
<clus scale="   92.386">  7  8 -1 -1</clus>
<clus scale="   39.696">  1  5  2 -1</clus>
</clustering>
</event>
<event>
 9    2  0.1751298E-004  0.1876207E+03  0.7546771E-02  0.1162314E+00
          4   -1    0    0  502    0 -0.00000000000E+00  0.00000000000E+00  0.33147096256E+03  0.33147096256E+03  0.00000000000E+00 0. -1.
         21   -1    0    0  501  502  0.00000000000E+00 -0.00000000000E+00 -0.21242234904E+03  0.21242234904E+03  0.00000000000E+00 0. -1.
         24    2    1    2    0    0 -0.18538830618E+02  0.12828851964E+03 -0.19042021035E+02  0.15370768221E+03  0.80385449516E+02 0.  0.
         23    2    1    2    0    0  0.13816971817E+03 -0.15884739813E+03  0.44897633911E+02  0.23549131896E+03  0.95482966356E+02 0.  0.
        -13    1    3    3    0    0 -0.30544177108E+02  0.95847470029E+02  0.18908183181E+02  0.10235821246E+03  0.00000000000E+00 0.  1.
         14    1    3    3    0    0  0.12005346490E+02  0.32441049613E+02 -0.37950204215E+02  0.51349469757E+02  0.00000000000E+00 0. -1.
        -13    1    4    4    0    0  0.96980839779E+02 -0.10624391775E+03  0.74981654707E+02  0.16221991828E+03  0.00000000000E+00 0. -1.
         13    1    4    4    0    0  0.41188878388E+02 -0.52603480379E+02 -0.30084020796E+02  0.73271400684E+02  0.00000000000E+00 0.  1.
          3    1    1    2  501    0 -0.11963088755E+03  0.30558878489E+02  0.93193000641E+02  0.15469431043E+03  0.00000000000E+00 0. -1.
<scales pt_clust_5="13000.00000" pt_clust_6="13000.00000" pt_clust_7="13000.00000" pt_clust_8="13000.00000" pt_clust_9="123.47230"></scales>
<clustering>
<clus scale="   80.385">  5  6 -1 -1</clus>
<clus scale="   95.483">  7  8 -1 -1</clus>
<clus scale="  123.472">  2  9  1 -1</clus>
<clus scale="  180.406">  1  5  2 -1</clus>
<clus scale="  123.472">  2  5  1 -1</clus>
</clustering>
</event>
<event>
 9    2  0.1751298E-004  0.1435004E+03  0.7546771E-02  0.1229006E+00
         21   -1    0    0  501  502  0.00000000000E+00  0.00000000000E+00  0.24301841541E+03  0.24301841541E+03  0.00000000000E+00 0. -1.
          2   -1    0    0  502    0 -0.00000000000E+00 -0.00000000000E+00 -0.20104398135E+03  0.20104398135E+03  0.00000000000E+00 0. -1.
         24    2    1    2    0    0  0.40367471281E+01 -0.44060720498E+02  0.32235664455E+02  0.98994497796E+02  0.82481089425E+02 0.  0.
         23    2    1    2    0    0 -0.20939184358E+02 -0.90165661188E+02 -0.11465383719E+03  0.16128559691E+03  0.65568631899E+02 0.  0.
        -11    1    3    3    0    0  0.92826016043E+01  0.23406124695E+02  0.32915690211E+01  0.25393853437E+02  0.00000000000E+00 0.  1.
         12    1    3    3    0    0 -0.52458544762E+01 -0.67466845193E+02  0.28944095434E+02  0.73600644359E+02  0.00000000000E+00 0. -1.
        -11    1    4    4    0    0  0.22567972278E+02 -0.46974533302E+02 -0.54004696408E+02  0.75049499571E+02  0.00000000000E+00 0.  1.
         11    1    4    4    0    0 -0.43507156636E+02 -0.43191127886E+02 -0.60649140782E+02  0.86236097339E+02  0.00000000000E+00 0. -1.
          1    1    1    2  501    0  0.16902437230E+02  0.13422638169E+03  0.12439260679E+03  0.18378230206E+03  0.00000000000E+00 0. -1.
<scales pt_clust_5="13000.00000" pt_clust_6="13000.00000" pt_clust_7="13000.00000" pt_clust_8="13000.00000" pt_clust_9="127.64446"></scales>
<clustering>
<clus scale="   65.569">  7  8 -1 -1</clus>
<clus scale="   82.481">  5  6 -1 -1</clus>
<clus scale="   93.599">  2  5  1 -1</clus>
<clus scale="  127.644">  1  9  2 -1</clus>
<clus scale="  127.644">  1  5  2 -1</clus>
</clustering>
</event>
<event>
 9    2  0.1751298E-004  0.1335956E+03  0.7546771E-02  0.1246302E+00
          2   -1    0    0  502    0 -0.00000000000E+00  0.00000000000E+00  0.44920577901E+03  0.44920577901E+03  0.00000000000E+00 0. -1.
         21   -1    0    0  501  502  0.00000000000E+00 -0.00000000000E+00 -0.57163549687E+02  0.57163549687E+02  0.00000000000E+00 0. -1.
         24    2    1    2    0    0 -0.14506762418E+02 -0.48663932596E+01  0.66306881998E+02  0.10508579132E+03  0.80076794378E+02 0.  0.
         23    2    1    2    0    0  0.72711136505E+02  0.77785457358E+02  0.21382689110E+03  0.25558370331E+03  0.90904363446E+02 0.  0.
        -11    1    3    3    0    0  0.11472179345E+02 -0.37229427715E+02  0.40607179391E+02  0.56272410692E+02  0.00000000000E+00 0.  1.
         12    1    3    3    0    0 -0.25978941763E+02  0.32363034456E+02  0.25699702607E+02  0.48813380628E+02  0.00000000000E+00 0. -1.
        -11    1    4    4    0    0 -0.13829881681E+02  0.25750745066E+02  0.96276666222E+02  0.10061591801E+03  0.00000000000E+00 0.  1.
         11    1    4    4    0    0  0.86541018186E+02  0.52034712291E+02  0.11755022488E+03  0.15496778530E+03  0.00000000000E+00 0. -1.
          1    1    1    2  501    0 -0.58204374087E+02 -0.72919064098E+02  0.11190845622E+03  0.14569983406E+03  0.00000000000E+00 0. -1.
<scales pt_clust_5="13000.00000" pt_clust_6="13000.00000" pt_clust_7="13000.00000" pt_clust_8="13000.00000" pt_clust_9="97.89882"></scales>
<clustering>
<clus scale="   80.077">  5  6 -1 -1</clus>
<clus scale="   81.526">  1  5  2 -1</clus>
<clus scale="   90.904">  7  8 -1 -1</clus>
<clus scale="   97.899">  2  9  1 -1</clus>
<clus scale="   97.899">  2  5  1 -1</clus>
</clustering>
</event>
<event>
 9    2  0.1751298E-004  0.3069039E+03  0.7546771E-02  0.1129530E+00
         21   -1    0    0  501  502  0.00000000000E+00  0.00000000000E+00  0.40426109024E+03  0.40426109024E+03  0.00000000000E+00 0. -1.
          2   -1    0    0  502    0 -0.00000000000E+00 -0.00000000000E+00 -0.30796793842E+03  0.30796793842E+03  0.00000000000E+00 0. -1.
         24    2    1    2    0    0 -0.22828369977E+02 -0.30653609136E+02 -0.34993663714E+02  0.96703993611E+02  0.81647582030E+02 0.  0.
         23    2    1    2    0    0 -0.27911489310E+03  0.52260004216E+02  0.69033503038E+02  0.30647480395E+03  0.92330652152E+02 0.  0.
        -11    1    3    3    0    0  0.12506478676E+02  0.20494469186E+02  0.24470449673E+01  0.24133447851E+02  0.00000000000E+00 0.  1.
         12    1    3    3    0    0 -0.35334848654E+02 -0.51148078322E+02 -0.37440708681E+02  0.72570545760E+02  0.00000000000E+00 0. -1.
        -13    1    4    4    0    0 -0.18805020104E+03  0.13303833994E+01  0.14162521791E+02  0.18858744670E+03  0.00000000000E+00 0.  1.
         13    1    4    4    0    0 -0.91064692060E+02  0.50929620816E+02  0.54870981247E+02  0.11788735725E+03  0.00000000000E+00 0. -1.
          1    1    1    2  501    0  0.30194326308E+03 -0.21606395080E+02  0.62253312492E+02  0.30905023110E+03  0.00000000000E+00 0. -1.
<scales pt_clust_5="13000.00000" pt_clust_6="13000.00000" pt_clust_7="13000.00000" pt_clust_8="13000.00000" pt_clust_9="292.68612"></scales>
<clustering>
<clus scale="   81.648">  5  6 -1 -1</clus>
<clus scale="   90.150">  2  5  1 -1</clus>
<clus scale="   92.331">  7  8 -1 -1</clus>
<clus scale="  292.686">  1  9  2 -1</clus>
<clus scale="  292.686">  1  5  2 -1</clus>
</clustering>
</event>
<event>
 9    2  0.1751298E-004  0.4499393E+03  0.7546771E-02  0.1027740E+00
         21   -1    0    0  501  502  0.00000000000E+00  0.00000000000E+00  0.87820166223E+03  0.87820166223E+03  0.00000000000E+00 0.  1.
         -1   -1    0    0    0  501 -0.00000000000E+00 -0.00000000000E+00 -0.23791726338E+03  0.23791726338E+03  0.00000000000E+00 0.  1.
         24    2    1    2    0    0  0.65540590345E+02  0.26069042631E+03  0.65699209771E+02  0.28791355550E+03  0.79515796670E+02 0.  0.
         23    2    1    2    0    0 -0.14080077087E+02  0.13158545712E+03  0.60277844324E+02  0.17932895815E+03  0.10494034313E+03 0.  0.
        -13    1    3    3    0    0  0.45041866628E+02  0.23879974769E+03  0.35921351263E+02  0.24565103851E+03  0.00000000000E+00 0.  1.
         14    1    3    3    0    0  0.20498723717E+02  0.21890678627E+02  0.29777858508E+02  0.42262516987E+02  0.00000000000E+00 0. -1.
        -13    1    4    4    0    0  0.29336392801E+02  0.71497198257E+00  0.20584968013E+02  0.35845167535E+02  0.00000000000E+00 0.  1.
         13    1    4    4    0    0 -0.43416469888E+02  0.13087048514E+03  0.39692876311E+02  0.14348379061E+03  0.00000000000E+00 0. -1.
         -2    1    1    2    0  502 -0.51460513258E+02 -0.39227588344E+03  0.51430734475E+03  0.64887641197E+03  0.00000000000E+00 0.  1.
<scales pt_clust_5="13000.00000" pt_clust_6="13000.00000" pt_clust_7="13000.00000" pt_clust_8="13000.00000" pt_clust_9="395.63690"></scales>
<clustering>
<clus scale="   79.516">  5  6 -1 -1</clus>
<clus scale="  104.940">  7  8 -1 -1</clus>
<clus scale="  114.989">  5  7 -1 -1</clus>
<clus scale="  395.637">  1  9  2 -1</clus>
<clus scale="  395.637">  1  5  2 -1</clus>
</clustering>
</event>
<event>
 9    2  0.1751298E-004  0.1078453E+03  0.7546771E-02  0.1269988E+00
         -1   -1    0    0    0  501 -0.00000000000E+00  0.00000000000E+00  0.17376222132E+02  0.17376222132E+02  0.00000000000E+00 0.  1.
         21   -1    0    0  501  502  0.00000000000E+00 -0.00000000000E+00 -0.16889074203E+04  0.16889074203E+04  0.00000000000E+00 0. -1.
         23    2    1    2    0    0 -0.44160854923E+02 -0.41014391705E+02 -0.28093576323E+03  0.30129369854E+03  0.90667680478E+02 0.  0.
         24    2    1    2    0    0 -0.35601354170E+02 -0.51587807017E+01 -0.71632522372E+03  0.72445023926E+03  0.10204045074E+03 0.  0.
        -13    1    4    4    0    0 -0.36819977012E+02  0.12277813030E+02 -0.91640652505E+02  0.99521176598E+02  0.00000000000E+00 0.  1.
         14    1    4    4    0    0  0.12186228420E+01 -0.17436593732E+02 -0.62468457122E+03  0.62492906266E+03  0.00000000000E+00 0. -1.
        -11    1    3    3    0    0 -0.71027038265E+02 -0.17658649867E+02 -0.19445890674E+03  0.20777616440E+03  0.00000000000E+00 0. -1.
         11    1    3    3    0    0  0.26866183342E+02 -0.23355741838E+02 -0.86476856488E+02  0.93517534144E+02  0.00000000000E+00 0.  1.
         -2    1    1    2    0  502  0.79762209093E+02  0.46173172407E+02 -0.67427021122E+03  0.68053970464E+03  0.00000000000E+00 0.  1.
<scales pt_clust_5="13000.00000" pt_clust_6="13000.00000" pt_clust_7="13000.00000" pt_clust_8="13000.00000" pt_clust_9="92.16275"></scales>
<clustering>
<clus scale="   90.668">  7  8 -1 -1</clus>
<clus scale="   92.163">  2  9  1 -1</clus>
<clus scale="   97.154">  1  7  2 -1</clus>
<clus scale="  102.040">  5  6 -1 -1</clus>
<clus scale="   92.163">  2  5  1 -1</clus>
</clustering>
</event>
<event>
 9    2  0.1751298E-004  0.1246510E+03  0.7546771E-02  0.1239780E+00
         21   -1    0    0  501  502  0.00000000000E+00  0.00000000000E+00  0.44034021317E+02  0.44034021317E+02  0.00000000000E+00 0.  1.
          2   -1    0    0  502    0 -0.00000000000E+00 -0.00000000000E+00 -0.63266419412E+03  0.63266419412E+03  0.00000000000E+00 0. -1.
         23    2    1    2    0    0 -0.93920893368E+02 -0.23458796512E+02 -0.36476988626E+03  0.38893672595E+03  0.94038595915E+02 0.  0.
         24    2    1    2    0    0  0.36963630677E+02  0.45741662617E+02 -0.68224932176E+02  0.12054002130E+03  0.80103967900E+02 0.  0.
        -13    1    4    4    0    0  0.20469807414E+02  0.12563225461E+02  0.15772487508E+02  0.28733586824E+02  0.00000000000E+00 0.  1.
         14    1    4    4    0    0  0.16493823263E+02  0.33178437156E+02 -0.83997419684E+02  0.91806434478E+02  0.00000000000E+00 0. -1.
        -13    1    3    3    0    0 -0.10209736990E+03 -0.13970601599E+01 -0.22348106116E+03  0.24570227800E+03  0.00000000000E+00 0.  1.
         13    1    3    3    0    0  0.81764765345E+01 -0.22061736352E+02 -0.14128882510E+03  0.14323444794E+03  0.00000000000E+00 0. -1.
          1    1    1    2  501    0  0.56957262691E+02 -0.22282866105E+02 -0.15563535437E+03  0.16722146819E+03  0.00000000000E+00 0. -1.
<scales pt_clust_5="13000.00000" pt_clust_6="13000.00000" pt_clust_7="13000.00000" pt_clust_8="13000.00000" pt_clust_9="61.16093"></scales>
<clustering>
<clus scale="   61.161">  1  9  2 -1</clus>
<clus scale="   80.104">  5  6 -1 -1</clus>
<clus scale="   94.039">  7  8 -1 -1</clus>
<clus scale="  114.504">  1  5  2 -1</clus>
<clus scale="   61.161">  1  5  2 -1</clus>
</clustering>
</event>
<event>
 9    2  0.1751298E-004  0.4782686E+03  0.7546771E-02  0.1045920E+00
         21   -1    0    0  501  502  0.00000000000E+00  0.00000000000E+00  0.34690878836E+03  0.34690878836E+03  0.00000000000E+00 0. -1.
          2   -1    0    0  502    0 -0.00000000000E+00 -0.00000000000E+00 -0.23422611261E+04  0.23422611261E+04  0.00000000000E+00 0. -1.
         23    2    1    2    0    0 -0.18829664746E+03 -0.67742158588E+02 -0.97155316889E+03  0.99615237220E+03  0.91429542046E+02 0.  0.
         24    2    1    2    0    0 -0.18923927310E+03  0.37382122833E+03 -0.11191599743E+04  0.11977282819E+04  0.80499539300E+02 0.  0.
        -13    1    4    4    0    0 -0.71553616127E+02  0.97022846746E+02 -0.24068510622E+03  0.26918891717E+03  0.00000000000E+00 0.  1.
         14    1    4    4    0    0 -0.11768565697E+03  0.27679838158E+03 -0.87847486808E+03  0.92853936468E+03  0.00000000000E+00 0. -1.
        -13    1    3    3    0    0 -0.60514920884E+02 -0.32029534166E+01 -0.14280331290E+03  0.15512930328E+03  0.00000000000E+00 0.  1.
         13    1    3    3    0    0 -0.12778172658E+03 -0.64539205171E+02 -0.82874985600E+03  0.84102306893E+03  0.00000000000E+00 0. -1.
          1    1    1    2  501    0  0.37753592056E+03 -0.30607906974E+03  0.95360805463E+02  0.49528926040E+03  0.00000000000E+00 0. -1.
<scales pt_clust_5="13000.00000" pt_clust_6="13000.00000" pt_clust_7="13000.00000" pt_clust_8="13000.00000" pt_clust_9="471.44535"></scales>
<clustering>
<clus scale="   80.500">  5  6 -1 -1</clus>
<clus scale="   91.430">  7  8 -1 -1</clus>
<clus scale="  220.009">  2  7  1 -1</clus>
<clus scale="  471.445">  1  9  2 -1</clus>
<clus scale="  471.445">  1  5  2 -1</clus>
</clustering>
</event>
<event>
 9    2  0.1751298E-004  0.2972883E+03  0.7546771E-02  0.1087103E+00
         21   -1    0    0  501  502  0.00000000000E+00  0.00000000000E+00  0.11363995223E+04  0.11363995223E+04  0.00000000000E+00 0. -1.
         -1   -1    0    0    0  501 -0.00000000000E+00 -0.00000000000E+00 -0.10697072023E+03  0.10697072023E+03  0.00000000000E+00 0.  1.
         24    2    1    2    0    0 -0.16375068239E+03 -0.22591796114E+03  0.40145786403E+03  0.49544747936E+03  0.80290578915E+02 0.  0.
         23    2    1    2    0    0  0.24186206131E+03  0.16819926408E+03  0.48103890812E+03  0.57179253600E+03  0.93594999641E+02 0.  0.
        -11    1    3    3    0    0 -0.72111070288E+02 -0.40526475936E+02  0.13202257628E+03  0.15579589968E+03  0.00000000000E+00 0.  1.
         12    1    3    3    0    0 -0.91639612104E+02 -0.18539148521E+03  0.26943528775E+03  0.33965157968E+03  0.00000000000E+00 0. -1.
        -13    1    4    4    0    0  0.13454491496E+03  0.46318240657E+02  0.17703057016E+03  0.22712889805E+03  0.00000000000E+00 0.  1.
         13    1    4    4    0    0  0.10731714635E+03  0.12188102342E+03  0.30400833797E+03  0.34466363795E+03  0.00000000000E+00 0. -1.
         -2    1    1    2    0  502 -0.78111378917E+02  0.57718697069E+02  0.14693202994E+03  0.17613022719E+03  0.00000000000E+00 0.  1.
<scales pt_clust_5="13000.00000" pt_clust_6="13000.00000" pt_clust_7="13000.00000" pt_clust_8="13000.00000" pt_clust_9="97.12279"></scales>
<clustering>
<clus scale="   80.291">  5  6 -1 -1</clus>
<clus scale="   93.595">  7  8 -1 -1</clus>
<clus scale="   97.123">  1  9  2 -1</clus>
<clus scale="  293.372">  2  5  1 -1</clus>
<clus scale="   97.123">  1  5  2 -1</clus>
</clustering>
</event>
<event>
 9    2  0.1751298E-004  0.1215320E+03  0.7546771E-02  0.1244133E+00
          4   -1    0    0  502    0 -0.00000000000E+00  0.00000000000E+00  0.93425327461E+02  0.93425327461E+02  0.00000000000E+00 0. -1.
         21   -1    0    0  501  502  0.00000000000E+00 -0.00000000000E+00 -0.73078859067E+03  0.73078859067E+03  0.00000000000E+00 0. -1.
         23    2    1    2    0    0  0.57876576618E+01 -0.81065137041E+02  0.12639845822E+02  0.12373618759E+03  0.92443631437E+02 0.  0.
         24    2    1    2    0    0  0.36945478222E+02  0.53245716098E+02 -0.64019199840E+03  0.64855183164E+03  0.81077795153E+02 0.  0.
        -11    1    4    4    0    0 -0.16815784533E+02  0.39796398785E+02 -0.18389322811E+03  0.18890008817E+03  0.00000000000E+00 0.  1.
         12    1    4    4    0    0  0.53761262755E+02  0.13449317313E+02 -0.45629877029E+03  0.45965174347E+03  0.00000000000E+00 0. -1.
        -11    1    3    3    0    0 -0.27533445070E+01 -0.47134141397E+02 -0.39081815623E+02  0.61291080131E+02  0.00000000000E+00 0.  1.
         11    1    3    3    0    0  0.85410021688E+01 -0.33930995645E+02  0.51721661446E+02  0.62445107464E+02  0.00000000000E+00 0. -1.
          3    1    1    2  501    0 -0.42733135884E+02  0.27819420943E+02 -0.98111106303E+01  0.51925898894E+02  0.00000000000E+00 0. -1.
<scales pt_clust_5="13000.00000" pt_clust_6="13000.00000" pt_clust_7="13000.00000" pt_clust_8="13000.00000" pt_clust_9="50.99062"></scales>
<clustering>
<clus scale="   50.991">  2  9  1 -1</clus>
<clus scale="   81.078">  5  6 -1 -1</clus>
<clus scale="   92.444">  7  8 -1 -1</clus>
<clus scale="  113.127">  2  5  1 -1</clus>
<clus scale="   50.991">  2  5  1 -1</clus>
</clustering>
</event>
<event>
 9    2  0.1751298E-004  0.1438099E+03  0.7546771E-02  0.1210549E+00
         -3   -1    0    0    0  501 -0.00000000000E+00  0.00000000000E+00  0.16735511155E+03  0.16735511155E+03  0.00000000000E+00 0.  1.
         21   -1    0    0  501  502  0.00000000000E+00 -0.00000000000E+00 -0.41041011714E+03  0.41041011714E+03  0.00000000000E+00 0. -1.
         23    2    1    2    0    0 -0.19801416441E+02  0.11422280833E+03  0.10653096388E+03  0.18189653839E+03  0.91096423526E+02 0.  0.
         24    2    1    2    0    0 -0.20278435678E+02 -0.76497299102E+02 -0.30481377708E+03  0.32491689114E+03  0.79978095296E+02 0.  0.
        -11    1    4    4    0    0 -0.35828889719E+02 -0.39222409477E+02 -0.76979757671E+02  0.93530689267E+02  0.00000000000E+00 0.  1.
         12    1    4    4    0    0  0.15550454041E+02 -0.37274889626E+02 -0.22783401941E+03  0.23138620187E+03  0.00000000000E+00 0. -1.
        -11    1    3    3    0    0 -0.72452280308E+01  0.37264098034E+02 -0.12178479807E+02  0.39867551993E+02  0.00000000000E+00 0. -1.
         11    1    3    3    0    0 -0.12556188410E+02  0.76958710292E+02  0.11870944369E+03  0.14202898640E+03  0.00000000000E+00 0.  1.
         -4    1    1    2    0  502  0.40079852119E+02 -0.37725509224E+02 -0.44772192386E+02  0.70951799153E+02  0.00000000000E+00 0.  1.
<scales pt_clust_5="13000.00000" pt_clust_6="13000.00000" pt_clust_7="13000.00000" pt_clust_8="13000.00000" pt_clust_9="55.04188"></scales>
<clustering>
<clus scale="   55.042">  2  9  1 -1</clus>
<clus scale="   79.978">  5  6 -1 -1</clus>
<clus scale="   91.096">  7  8 -1 -1</clus>
<clus scale="  137.037">  2  5  1 -1</clus>
<clus scale="   55.042">  2  5  1 -1</clus>
</clustering>
</event>
<event>
 9    2  0.1751298E-004  0.1102360E+03  0.7546771E-02  0.1265201E+00
         21   -1    0    0  501  502  0.00000000000E+00  0.00000000000E+00  0.16452411535E+03  0.16452411535E+03  0.00000000000E+00 0.  1.
          2   -1    0    0  502    0 -0.00000000000E+00 -0.00000000000E+00 -0.14242308005E+03  0.14242308005E+03  0.00000000000E+00 0. -1.
         24    2    1    2    0    0  0.47350701113E+02  0.41116659508E+02 -0.29547277993E+02  0.10618128712E+03  0.80428573984E+02 0.  0.
         23    2    1    2    0    0  0.29178358991E+01 -0.68397271550E+02  0.76356486620E+02  0.13846300757E+03  0.93032203533E+02 0.  0.
        -11    1    3    3    0    0  0.43113312060E+02  0.59275836055E+02 -0.25127535025E+01  0.73339596038E+02  0.00000000000E+00 0.  1.
         12    1    3    3    0    0  0.42373890538E+01 -0.18159176548E+02 -0.27034524490E+02  0.32841691084E+02  0.00000000000E+00 0. -1.
        -11    1    4    4    0    0  0.23216328707E+02 -0.80201298135E+02  0.78860538440E+02  0.11484872948E+03  0.00000000000E+00 0.  1.
         11    1    4    4    0    0 -0.20298492808E+02  0.11804026585E+02 -0.25040518206E+01  0.23614278084E+02  0.00000000000E+00 0. -1.
          1    1    1    2  501    0 -0.50268537013E+02  0.27280612042E+02 -0.24708173325E+02  0.62302900702E+02  0.00000000000E+00 0. -1.
<scales pt_clust_5="13000.00000" pt_clust_6="13000.00000" pt_clust_7="13000.00000" pt_clust_8="13000.00000" pt_clust_9="57.19406"></scales>
<clustering>
<clus scale="   57.194">  1  9  2 -1</clus>
<clus scale="   80.429">  5  6 -1 -1</clus>
<clus scale="   93.032">  7  8 -1 -1</clus>
<clus scale="   99.829">  2  5  1 -1</clus>
<clus scale="   57.194">  1  5  2 -1</clus>
</clustering>
</event>
<event>
 9    2  0.1751298E-004  0.2034696E+03  0.7546771E-02  0.1147411E+00
          2   -1    0    0  502    0 -0.00000000000E+00  0.00000000000E+00  0.80089305017E+03  0.80089305017E+03  0.00000000000E+00 0. -1.
         21   -1    0    0  501  502  0.00000000000E+00 -0.00000000000E+00 -0.23958897796E+03  0.23958897796E+03  0.00000000000E+00 0.  1.
         23    2    1    2    0    0  0.17179098202E+03 -0.71060901261E+02  0.68766387518E+03  0.71758805813E+03  0.86540295532E+02 0.  0.
         24    2    1    2    0    0 -0.18617760718E+03 -0.21231896019E+02 -0.88403701029E+02  0.22206936443E+03  0.79916790716E+02 0.  0.
        -11    1    4    4    0    0 -0.12009544638E+03 -0.30313834875E+02 -0.93472179067E+02  0.15517375128E+03  0.00000000000E+00 0.  1.
         12    1    4    4    0    0 -0.66082160796E+02  0.90819388559E+01  0.50684780377E+01  0.66895613148E+02  0.00000000000E+00 0. -1.
        -13    1    3    3    0    0  0.10700120199E+03 -0.86388062669E+02  0.49482629905E+03  0.51358078316E+03  0.00000000000E+00 0. -1.
         13    1    3    3    0    0  0.64789780026E+02  0.15327161408E+02  0.19283757614E+03  0.20400727498E+03  0.00000000000E+00 0.  1.
          1    1    1    2  501    0  0.14386625165E+02  0.92292797280E+02 -0.37956101943E+02  0.10082460557E+03  0.00000000000E+00 0. -1.
<scales pt_clust_5="13000.00000" pt_clust_6="13000.00000" pt_clust_7="13000.00000" pt_clust_8="13000.00000" pt_clust_9="93.40736"></scales>
<clustering>
<clus scale="   79.917">  5  6 -1 -1</clus>
<clus scale="   86.540">  7  8 -1 -1</clus>
<clus scale="   93.407">  2  9  1 -1</clus>
<clus scale="  200.742">  2  5  1 -1</clus>
<clus scale="   93.407">  2  5  1 -1</clus>
</clustering>
</event>
<event>
 9    2  0.1751298E-004  0.1036271E+03  0.7546771E-02  0.1277925E+00
         -1   -1    0    0    0  501 -0.00000000000E+00  0.00000000000E+00  0.19155452032E+03  0.19155452032E+03  0.00000000000E+00 0.  1.
         21   -1    0    0  501  502  0.00000000000E+00 -0.00000000000E+00 -0.18749264515E+03  0.18749264515E+03  0.00000000000E+00 0. -1.
         23    2    1    2    0    0 -0.32701950751E+02 -0.42390177757E+02  0.13289744703E+03  0.17011380377E+03  0.91709487253E+02 0.  0.
         24    2    1    2    0    0  0.40981857681E+02  0.67436570727E+01 -0.18409852508E+02  0.92601634348E+02  0.80691699975E+02 0.  0.
        -11    1    4    4    0    0  0.30287805752E+02 -0.15026795634E+02  0.25560467479E+02  0.42385059420E+02  0.00000000000E+00 0.  1.
         12    1    4    4    0    0  0.10694051928E+02  0.21770452707E+02 -0.43970319986E+02  0.50216574927E+02  0.00000000000E+00 0. -1.
        -13    1    3    3    0    0 -0.38747000951E+02  0.13316309181E+02  0.23580261043E+02  0.47272432599E+02  0.00000000000E+00 0.  1.
         13    1    3    3    0    0  0.60450501998E+01 -0.55706486938E+02  0.10931718599E+03  0.12284137117E+03  0.00000000000E+00 0. -1.
         -2    1    1    2    0  502 -0.82799069295E+01  0.35646520684E+02 -0.11042571935E+03  0.11633172736E+03  0.00000000000E+00 0.  1.
<scales pt_clust_5="13000.00000" pt_clust_6="13000.00000" pt_clust_7="13000.00000" pt_clust_8="13000.00000" pt_clust_9="36.59551"></scales>
<clustering>
<clus scale="   36.596">  2  9  1 -1</clus>
<clus scale="   80.692">  5  6 -1 -1</clus>
<clus scale="   91.709">  7  8 -1 -1</clus>
<clus scale="   94.017">  2  5  1 -1</clus>
<clus scale="   36.596">  2  5  1 -1</clus>
</clustering>
</event>
<event>
 9    2  0.1751298E-004  0.2118354E+03  0.7546771E-02  0.1172668E+00
          2   -1    0    0  502    0 -0.00000000000E+00  0.00000000000E+00  0.16200399347E+04  0.16200399347E+04  0.00000000000E+00 0. -1.
         21   -1    0    0  501  502  0.00000000000E+00 -0.00000000000E+00 -0.42311351511E+02  0.42311351511E+02  0.00000000000E+00 0. -1.
         24    2    1    2    0    0  0.41370367017E+02 -0.41650978554E+02  0.47030033163E+03  0.48056743086E+03  0.79475420021E+02 0.  0.
         23    2    1    2    0    0 -0.41526069116E+02 -0.17141320958E+03  0.49066342147E+03  0.52925398773E+03  0.90842102127E+02 0.  0.
        -11    1    3    3    0    0  0.31325242260E+02  0.19150511806E+02  0.15360877293E+03  0.15793564520E+03  0.00000000000E+00 0.  1.
         12    1    3    3    0    0  0.10045124757E+02 -0.60801490361E+02  0.31669155871E+03  0.32263178566E+03  0.00000000000E+00 0. -1.
        -11    1    4    4    0    0 -0.39200662461E+02 -0.15416252612E+02  0.11563797486E+03  0.12307109332E+03  0.00000000000E+00 0.  1.
         11    1    4    4    0    0 -0.23254066549E+01 -0.15599695697E+03  0.37502544662E+03  0.40618289441E+03  0.00000000000E+00 0. -1.
          1    1    1    2  501    0  0.15570209840E+00  0.21306418814E+03  0.61676483005E+03  0.65252986759E+03  0.00000000000E+00 0. -1.
<scales pt_clust_5="13000.00000" pt_clust_6="13000.00000" pt_clust_7="13000.00000" pt_clust_8="13000.00000" pt_clust_9="191.36876"></scales>
<clustering>
<clus scale="   79.475">  5  6 -1 -1</clus>
<clus scale="   90.842">  7  8 -1 -1</clus>
<clus scale="   98.806">  1  5  2 -1</clus>
<clus scale="  191.369">  2  9  1 -1</clus>
<clus scale="  191.369">  2  5  1 -1</clus>
</clustering>
</event>
<event>
 9    2  0.1751298E-004  0.1846928E+03  0.7546771E-02  0.1192672E+00
          2   -1    0    0  502    0 -0.00000000000E+00  0.00000000000E+00  0.94115869282E+03  0.94115869282E+03  0.00000000000E+00 0. -1.
         21   -1    0    0  501  502  0.00000000000E+00 -0.00000000000E+00 -0.60303336621E+02  0.60303336621E+02  0.00000000000E+00 0.  1.
         23    2    1    2    0    0  0.19863393253E+02 -0.27325275742E+01  0.90104303457E+02  0.13114176802E+03  0.93152330731E+02 0.  0.
         24    2    1    2    0    0 -0.43664964739E+02  0.16348843472E+03  0.30322376559E+03  0.35642160195E+03  0.80353026604E+02 0.  0.
        -11    1    4    4    0    0  0.12180103948E+02  0.87107684467E+02  0.10648712248E+03  0.13811448468E+03  0.00000000000E+00 0.  1.
         12    1    4    4    0    0 -0.55845068687E+02  0.76380750249E+02  0.19673664312E+03  0.21830711727E+03  0.00000000000E+00 0. -1.
        -13    1    3    3    0    0  0.56509712628E+02 -0.22117179149E+00  0.40990463054E+02  0.69811278456E+02  0.00000000000E+00 0. -1.
         13    1    3    3    0    0 -0.36646319375E+02 -0.25113557827E+01  0.49113840403E+02  0.61330489569E+02  0.00000000000E+00 0.  1.
          1    1    1    2  501    0  0.23801571486E+02 -0.16075590714E+03  0.48752728714E+03  0.51389865946E+03  0.00000000000E+00 0. -1.
<scales pt_clust_5="13000.00000" pt_clust_6="13000.00000" pt_clust_7="13000.00000" pt_clust_8="13000.00000" pt_clust_9="166.29743"></scales>
<clustering>
<clus scale="   80.353">  5  6 -1 -1</clus>
<clus scale="   93.152">  7  8 -1 -1</clus>
<clus scale="   95.286">  1  7  2 -1</clus>
<clus scale="  166.297">  2  9  1 -1</clus>
<clus scale="  166.297">  2  5  1 -1</clus>
</clustering>
</event>
<event>
 9    2  0.1751298E-004  0.1071214E+03  0.7546771E-02  0.1273573E+00
          2   -1    0    0  502    0 -0.00000000000E+00  0.00000000000E+00  0.20493614161E+03  0.20493614161E+03  0.00000000000E+00 0. -1.
         21   -1    0    0  501  502  0.00000000000E+00 -0.00000000000E+00 -0.14964693631E+03  0.14964693631E+03  0.00000000000E+00 0.  1.
         23    2    1    2    0    0 -0.43656705451E+02 -0.25826221892E+01  0.16695323618E+03  0.19891942237E+03  0.98908926075E+02 0.  0.
         24    2    1    2    0    0  0.24566492227E+02 -0.74102909153E+01 -0.85985981100E+02  0.12214266522E+03  0.82866258324E+02 0.  0.
        -11    1    4    4    0    0  0.14675917060E+02  0.17444581622E+02 -0.91951329283E+02  0.94735119815E+02  0.00000000000E+00 0.  1.
         12    1    4    4    0    0  0.98905751666E+01 -0.24854872537E+02  0.59653481830E+01  0.27407545401E+02  0.00000000000E+00 0. -1.
        -13    1    3    3    0    0  0.24994882531E+02 -0.23724495346E+02  0.72318563304E+02  0.80109739923E+02  0.00000000000E+00 0.  1.
         13    1    3    3    0    0 -0.68651587982E+02  0.21141873157E+02  0.94634672873E+02  0.11880968245E+03  0.00000000000E+00 0. -1.
          1    1    1    2  501    0  0.19090213224E+02  0.99929131046E+01 -0.25678049772E+02  0.33520990339E+02  0.00000000000E+00 0. -1.
<scales pt_clust_5="13000.00000" pt_clust_6="13000.00000" pt_clust_7="13000.00000" pt_clust_8="13000.00000" pt_clust_9="21.54750"></scales>
<clustering>
<clus scale="   21.547">  2  9  1 -1</clus>
<clus scale="   82.866">  5  6 -1 -1</clus>
<clus scale="   92.514">  2  5  1 -1</clus>
<clus scale="   98.909">  7  8 -1 -1</clus>
<clus scale="   21.547">  2  5  1 -1</clus>
</clustering>
</event>
<event>
 9    2  0.1751298E-004  0.3591824E+03  0.7546771E-02  0.1059595E+00
         21   -1    0    0  501  502  0.00000000000E+00  0.00000000000E+00  0.56067151406E+03  0.56067151406E+03  0.00000000000E+00 0.  1.
          2   -1    0    0  502    0 -0.00000000000E+00 -0.00000000000E+00 -0.29984027291E+03  0.29984027291E+03  0.00000000000E+00 0. -1.
         23    2    1    2    0    0 -0.29753794713E+03 -0.18540914642E+03  0.46845785721E+02  0.36585619525E+03  0.93545958778E+02 0.  0.
         24    2    1    2    0    0  0.26377141361E+03  0.21833874440E+03  0.25555752433E+03  0.43178450041E+03  0.62297998430E+02 0.  0.
        -11    1    4    4    0    0  0.23625931272E+03  0.21156613402E+03  0.21844794171E+03  0.38509504690E+03  0.00000000000E+00 0.  1.
         12    1    4    4    0    0  0.27512100892E+02  0.67726103820E+01  0.37109582619E+02  0.46689453510E+02  0.00000000000E+00 0. -1.
        -11    1    3    3    0    0 -0.24545078088E+03 -0.10858592712E+03  0.19543931219E+02  0.26910770084E+03  0.00000000000E+00 0. -1.
         11    1    3    3    0    0 -0.52087166255E+02 -0.76823219302E+02  0.27301854502E+02  0.96748494415E+02  0.00000000000E+00 0.  1.
          1    1    1    2  501    0  0.33766533525E+02 -0.32929597980E+02 -0.41572068902E+02  0.62871091307E+02  0.00000000000E+00 0. -1.
<scales pt_clust_5="13000.00000" pt_clust_6="13000.00000" pt_clust_7="13000.00000" pt_clust_8="13000.00000" pt_clust_9="47.16502"></scales>
<clustering>
<clus scale="   47.165">  1  9  2 -1</clus>
<clus scale="   62.298">  5  6 -1 -1</clus>
<clus scale="   93.546">  7  8 -1 -1</clus>
<clus scale="  352.338">  1  5  2 -1</clus>
<clus scale="   47.165">  1  5  2 -1</clus>
</clustering>
</event>
<event>
 9    2  0.1751298E-004  0.1088288E+03  0.7546771E-02  0.1265200E+00
         21   -1    0    0  501  502  0.00000000000E+00  0.00000000000E+00  0.23807387245E+03  0.23807387245E+03  0.00000000000E+00 0. -1.
          4   -1    0    0  502    0 -0.00000000000E+00 -0.00000000000E+00 -0.95462822222E+02  0.95462822222E+02  0.00000000000E+00 0. -1.
         23    2    1    2    0    0 -0.25200946632E+02  0.51323689184E+02 -0.19841032499E+02  0.10751094469E+03  0.88857908338E+02 0.  0.
         24    2    1    2    0    0  0.57759520824E+02 -0.57044745488E+02  0.90903002791E+02  0.14720911419E+03  0.82564533248E+02 0.  0.
        -11    1    4    4    0    0  0.42609842956E+02  0.11416202282E+02  0.47113297713E+02  0.64541391468E+02  0.00000000000E+00 0.  1.
         12    1    4    4    0    0  0.15149677868E+02 -0.68460947770E+02  0.43789705078E+02  0.82667722721E+02  0.00000000000E+00 0. -1.
        -13    1    3    3    0    0  0.30006205425E+02  0.12224009225E+02 -0.23083676073E+02  0.39782595021E+02  0.00000000000E+00 0. -1.
         13    1    3    3    0    0 -0.55207152057E+02  0.39099679959E+02  0.32426435744E+01  0.67728349666E+02  0.00000000000E+00 0.  1.
          3    1    1    2  501    0 -0.32558574193E+02  0.57210563046E+01  0.71549079940E+02  0.78816635801E+02  0.00000000000E+00 0. -1.
<scales pt_clust_5="13000.00000" pt_clust_6="13000.00000" pt_clust_7="13000.00000" pt_clust_8="13000.00000" pt_clust_9="33.05739"></scales>
<clustering>
<clus scale="   33.057">  1  9  2 -1</clus>
<clus scale="   82.565">  5  6 -1 -1</clus>
<clus scale="   88.858">  7  8 -1 -1</clus>
<clus scale="  103.754">  1  5  2 -1</clus>
<clus scale="   33.057">  1  5  2 -1</clus>
</clustering>
</event>
<event>
 9    2  0.1751298E-004  0.1020744E+03  0.7546771E-02  0.1283524E+00
         21   -1    0    0  501  502  0.00000000000E+00  0.00000000000E+00  0.38872957483E+02  0.38872957483E+02  0.00000000000E+00 0.  1.
          2   -1    0    0  502    0 -0.00000000000E+00 -0.00000000000E+00 -0.42138754703E+03  0.42138754703E+03  0.00000000000E+00 0. -1.
         24    2    1    2    0    0 -0.35811409568E+02 -0.32439021957E+02 -0.24772509265E+03  0.26397546706E+03  0.77334199937E+02 0.  0.
         23    2    1    2    0    0  0.40072900415E+02 -0.29068462491E+01 -0.12223168250E+03  0.15853335662E+03  0.92617243810E+02 0.  0.
        -13    1    3    3    0    0 -0.42868136932E+02 -0.50696894918E+02 -0.22159414066E+03  0.23132621013E+03  0.00000000000E+00 0.  1.
         14    1    3    3    0    0  0.70567273635E+01  0.18257872961E+02 -0.26130951991E+02  0.32649256930E+02  0.00000000000E+00 0. -1.
        -11    1    4    4    0    0  0.38555004489E+02 -0.44080636566E+02 -0.59536799236E+02  0.83511803683E+02  0.00000000000E+00 0.  1.
         11    1    4    4    0    0  0.15178959257E+01  0.41173790317E+02 -0.62694883268E+02  0.75021552937E+02  0.00000000000E+00 0. -1.
          1    1    1    2  501    0 -0.42614908463E+01  0.35345868206E+02 -0.12557814394E+02  0.37751680834E+02  0.00000000000E+00 0. -1.
<scales pt_clust_5="13000.00000" pt_clust_6="13000.00000" pt_clust_7="13000.00000" pt_clust_8="13000.00000" pt_clust_9="35.60184"></scales>
<clustering>
<clus scale="   35.602">  1  9  2 -1</clus>
<clus scale="   77.334">  5  6 -1 -1</clus>
<clus scale="   88.441">  2  5  1 -1</clus>
<clus scale="   92.617">  7  8 -1 -1</clus>
<clus scale="   35.602">  1  5  2 -1</clus>
</clustering>
</event>
<event>
 9    2  0.1751298E-004  0.9608469E+02  0.7546771E-02  0.1294679E+00
         -1   -1    0    0    0  501 -0.00000000000E+00  0.00000000000E+00  0.63811639306E+02  0.63811639306E+02  0.00000000000E+00 0.  1.
         21   -1    0    0  501  502  0.00000000000E+00 -0.00000000000E+00 -0.38312679497E+03  0.38312679497E+03  0.00000000000E+00 0. -1.
         24    2    1    2    0    0  0.20139266680E+02 -0.22135690473E+02  0.15355101444E+02  0.87547997153E+02  0.80828793199E+02 0.  0.
         23    2    1    2    0    0 -0.93744450949E+00  0.33344426409E+02 -0.19493786058E+03  0.21790019585E+03  0.91471286695E+02 0.  0.
        -11    1    3    3    0    0  0.26561193903E+02 -0.32785704326E+02  0.41133334486E+02  0.58926654713E+02  0.00000000000E+00 0.  1.
         12    1    3    3    0    0 -0.64219272229E+01  0.10650013853E+02 -0.25778233042E+02  0.28621342440E+02  0.00000000000E+00 0. -1.
        -11    1    4    4    0    0 -0.38154792526E+01  0.65093903257E+02 -0.13847404183E+03  0.15305827120E+03  0.00000000000E+00 0. -1.
         11    1    4    4    0    0  0.28780347431E+01 -0.31749476848E+02 -0.56463818747E+02  0.64841924644E+02  0.00000000000E+00 0.  1.
         -2    1    1    2    0  502 -0.19201822171E+02 -0.11208735936E+02 -0.13973239653E+03  0.14149024128E+03  0.00000000000E+00 0.  1.
<scales pt_clust_5="13000.00000" pt_clust_6="13000.00000" pt_clust_7="13000.00000" pt_clust_8="13000.00000" pt_clust_9="22.23389"></scales>
<clustering>
<clus scale="   22.234">  2  9  1 -1</clus>
<clus scale="   80.829">  5  6 -1 -1</clus>
<clus scale="   86.015">  1  5  2 -1</clus>
<clus scale="   91.471">  7  8 -1 -1</clus>
<clus scale="   22.234">  2  5  1 -1</clus>
</clustering>
</event>
<event>
 9    2  0.1751298E-004  0.9851581E+02  0.7546771E-02  0.1286632E+00
          4   -1    0    0  502    0 -0.00000000000E+00  0.00000000000E+00  0.19330140945E+03  0.19330140945E+03  0.00000000000E+00 0. -1.
         21   -1    0    0  501  502  0.00000000000E+00 -0.00000000000E+00 -0.90093448212E+02  0.90093448212E+02  0.00000000000E+00 0.  1.
         23    2    1    2    0    0  0.29871870277E+02  0.36793025839E+02  0.10030358026E+03  0.14233578191E+03  0.89177414274E+02 0.  0.
         24    2    1    2    0    0  0.10902100606E+02 -0.38880453449E+02 -0.19988102091E+02  0.94251599457E+02  0.82784626091E+02 0.  0.
        -13    1    4    4    0    0  0.34973475978E+02 -0.41051467162E+02 -0.36375860182E+02  0.65050520229E+02  0.00000000000E+00 0.  1.
         14    1    4    4    0    0 -0.24071375372E+02  0.21710137126E+01  0.16387758091E+02  0.29201079228E+02  0.00000000000E+00 0. -1.
        -11    1    3    3    0    0  0.11614591460E+02  0.65327830825E+02  0.57904204755E+02  0.88065436713E+02  0.00000000000E+00 0. -1.
         11    1    3    3    0    0  0.18257278817E+02 -0.28534804985E+02  0.42399375502E+02  0.54270345202E+02  0.00000000000E+00 0.  1.
          3    1    1    2  501    0 -0.40773970883E+02  0.20874276095E+01  0.22892483076E+02  0.46807476294E+02  0.00000000000E+00 0. -1.
<scales pt_clust_5="13000.00000" pt_clust_6="13000.00000" pt_clust_7="13000.00000" pt_clust_8="13000.00000" pt_clust_9="40.82739"></scales>
<clustering>
<clus scale="   40.827">  2  9  1 -1</clus>
<clus scale="   82.785">  5  6 -1 -1</clus>
<clus scale="   89.177">  7  8 -1 -1</clus>
<clus scale="   92.769">  2  5  1 -1</clus>
<clus scale="   40.827">  2  5  1 -1</clus>
</clustering>
</event>
<event>
 9    2  0.1751298E-004  0.3412210E+03  0.7546771E-02  0.1085921E+00
         21   -1    0    0  501  502  0.00000000000E+00  0.00000000000E+00  0.12236553868E+04  0.12236553868E+04  0.00000000000E+00 0.  1.
         -1   -1    0    0    0  501 -0.00000000000E+00 -0.00000000000E+00 -0.20514693686E+03  0.20514693686E+03  0.00000000000E+00 0.  1.
         24    2    1    2    0    0  0.15154490969E+03  0.10411785654E+03  0.32893348275E+03  0.38507544689E+03  0.79243144918E+02 0.  0.
         23    2    1    2    0    0 -0.12954498223E+03  0.25070061009E+03  0.34869499361E+02  0.29873064142E+03  0.91604671373E+02 0.  0.
        -11    1    3    3    0    0  0.62676147481E+02  0.52349908336E+02  0.22275909756E+03  0.23725603873E+03  0.00000000000E+00 0.  1.
         12    1    3    3    0    0  0.88868762213E+02  0.51767948207E+02  0.10617438519E+03  0.14781940816E+03  0.00000000000E+00 0. -1.
        -11    1    4    4    0    0 -0.13129195589E+03  0.21747093055E+03  0.50983193203E+01  0.25408104254E+03  0.00000000000E+00 0.  1.
         11    1    4    4    0    0  0.17469736666E+01  0.33229679536E+02  0.29771180041E+02  0.44649598879E+02  0.00000000000E+00 0. -1.
         -2    1    1    2    0  502 -0.21999927469E+02 -0.35481846663E+03  0.65470546782E+03  0.74499623534E+03  0.00000000000E+00 0.  1.
<scales pt_clust_5="13000.00000" pt_clust_6="13000.00000" pt_clust_7="13000.00000" pt_clust_8="13000.00000" pt_clust_9="328.69498"></scales>
<clustering>
<clus scale="   79.243">  5  6 -1 -1</clus>
<clus scale="   91.605">  7  8 -1 -1</clus>
<clus scale="  200.215">  2  5  1 -1</clus>
<clus scale="  328.695">  1  9  2 -1</clus>
<clus scale="  328.695">  1  5  2 -1</clus>
</clustering>
</event>
<event>
 9    2  0.1751298E-004  0.1062692E+03  0.7546771E-02  0.1272320E+00
         21   -1    0    0  501  502  0.00000000000E+00  0.00000000000E+00  0.73373216944E+02  0.73373216944E+02  0.00000000000E+00 0.  1.
          2   -1    0    0  502    0 -0.00000000000E+00 -0.00000000000E+00 -0.36924158211E+03  0.36924158211E+03  0.00000000000E+00 0. -1.
         23    2    1    2    0    0  0.49197272711E+02  0.15890588969E+01 -0.27363658086E+03  0.29263313534E+03  0.91292260156E+02 0.  0.
         24    2    1    2    0    0 -0.81929248550E+02 -0.67504988732E+01 -0.13979853209E+02  0.11583320735E+03  0.80398536217E+02 0.  0.
        -13    1    4    4    0    0 -0.14492938066E+02  0.21581810016E+02 -0.31276339695E+02  0.40669757831E+02  0.00000000000E+00 0.  1.
         14    1    4    4    0    0 -0.67436310484E+02 -0.28332308889E+02  0.17296486485E+02  0.75163449518E+02  0.00000000000E+00 0. -1.
        -13    1    3    3    0    0 -0.17995807781E+02  0.25297634311E+02 -0.62275269882E+02  0.69584686809E+02  0.00000000000E+00 0.  1.
         13    1    3    3    0    0  0.67193080492E+02 -0.23708575414E+02 -0.21136131098E+03  0.22304844853E+03  0.00000000000E+00 0. -1.
          1    1    1    2  501    0  0.32731975839E+02  0.51614399763E+01 -0.82519310902E+01  0.34148456359E+02  0.00000000000E+00 0. -1.
<scales pt_clust_5="13000.00000" pt_clust_6="13000.00000" pt_clust_7="13000.00000" pt_clust_8="13000.00000" pt_clust_9="33.13643"></scales>
<clustering>
<clus scale="   33.136">  1  9  2 -1</clus>
<clus scale="   80.399">  5  6 -1 -1</clus>
<clus scale="   91.292">  7  8 -1 -1</clus>
<clus scale="   97.071">  1  5  2 -1</clus>
<clus scale="   33.136">  1  5  2 -1</clus>
</clustering>
</event>
<event>
 9    2  0.1751298E-004  0.1343578E+03  0.7546771E-02  0.1223481E+00
         -1   -1    0    0    0  501 -0.00000000000E+00  0.00000000000E+00  0.46513983317E+03  0.46513983317E+03  0.00000000000E+00 0.  1.
         21   -1    0    0  501  502  0.00000000000E+00 -0.00000000000E+00 -0.81079081833E+02  0.81079081833E+02  0.00000000000E+00 0. -1.
         24    2    1    2    0    0 -0.88528312044E+02  0.23000803157E+02  0.25539341614E+03  0.28335745446E+03  0.81849563324E+02 0.  0.
         23    2    1    2    0    0  0.13178948879E+03  0.11737028958E+02  0.53808125102E+02  0.16968341736E+03  0.91601968304E+02 0.  0.
        -11    1    3    3    0    0 -0.65507656705E+02  0.49919182900E+02  0.13771027230E+03  0.16045964292E+03  0.00000000000E+00 0.  1.
         12    1    3    3    0    0 -0.23020655339E+02 -0.26918379743E+02  0.11768314383E+03  0.12289781154E+03  0.00000000000E+00 0. -1.
        -13    1    4    4    0    0  0.10076982225E+03  0.38856435638E+02  0.83395970433E+01  0.10832325949E+03  0.00000000000E+00 0. -1.
         13    1    4    4    0    0  0.31019666536E+02 -0.27119406680E+02  0.45468528059E+02  0.61360157875E+02  0.00000000000E+00 0.  1.
         -2    1    1    2    0  502 -0.43261176743E+02 -0.34737832115E+02  0.74859210103E+02  0.93178043178E+02  0.00000000000E+00 0.  1.
<scales pt_clust_5="13000.00000" pt_clust_6="13000.00000" pt_clust_7="13000.00000" pt_clust_8="13000.00000" pt_clust_9="55.48197"></scales>
<clustering>
<clus scale="   55.482">  2  9  1 -1</clus>
<clus scale="   81.850">  5  6 -1 -1</clus>
<clus scale="   91.602">  7  8 -1 -1</clus>
<clus scale="  127.908">  1  5  2 -1</clus>
<clus scale="   55.482">  2  5  1 -1</clus>
</clustering>
</event>
<event>
 9    2  0.1751298E-004  0.1495628E+03  0.7546771E-02  0.1203373E+00
         -1   -1    0    0    0  501 -0.00000000000E+00  0.00000000000E+00  0.28913092849E+03  0.28913092849E+03  0.00000000000E+00 0.  1.
         21   -1    0    0  501  502  0.00000000000E+00 -0.00000000000E+00 -0.11703320045E+03  0.11703320045E+03  0.00000000000E+00 0. -1.
         24    2    1    2    0    0  0.88961199658E+02  0.81123825034E+02  0.16041435824E+03  0.21614954670E+03  0.80577231135E+02 0.  0.
         23    2    1    2    0    0 -0.10598250234E+03 -0.42442102138E+02  0.11458701837E+02  0.14775288673E+03  0.93091303859E+02 0.  0.
        -13    1    3    3    0    0  0.51980817712E+02  0.38836494937E+01  0.30030598607E+02  0.60157501578E+02  0.00000000000E+00 0.  1.
         14    1    3    3    0    0  0.36980381946E+02  0.77240175540E+02  0.13038375963E+03  0.15599204512E+03  0.00000000000E+00 0. -1.
        -13    1    4    4    0    0 -0.81892205551E+02 -0.14224203232E+02  0.47745544343E+02  0.95855611688E+02  0.00000000000E+00 0.  1.
         13    1    4    4    0    0 -0.24090296789E+02 -0.28217898906E+02 -0.36286842506E+02  0.51897275046E+02  0.00000000000E+00 0. -1.
         -2    1    1    2    0  502  0.17021302683E+02 -0.38681722896E+02  0.22466797094E+00  0.42261695504E+02  0.00000000000E+00 0.  1.
<scales pt_clust_5="13000.00000" pt_clust_6="13000.00000" pt_clust_7="13000.00000" pt_clust_8="13000.00000" pt_clust_9="42.26110"></scales>
<clustering>
<clus scale="   42.261">  2  9  1 -1</clus>
<clus scale="   80.577">  5  6 -1 -1</clus>
<clus scale="   93.091">  7  8 -1 -1</clus>
<clus scale="  142.112">  1  5  2 -1</clus>
<clus scale="   42.261">  2  5  1 -1</clus>
</clustering>
</event>
<event>
 9    2  0.1751298E-004  0.2125310E+03  0.7546771E-02  0.1176133E+00
          2   -1    0    0  502    0 -0.00000000000E+00  0.00000000000E+00  0.85530402750E+03  0.85530402750E+03  0.00000000000E+00 0. -1.
         21   -1    0    0  501  502  0.00000000000E+00 -0.00000000000E+00 -0.79764864886E+02  0.79764864886E+02  0.00000000000E+00 0. -1.
         24    2    1    2    0    0 -0.23068006779E+02  0.32204945894E+02  0.11528273287E+03  0.14652416041E+03  0.81301473594E+02 0.  0.
         23    2    1    2    0    0  0.18461292284E+03 -0.11422522195E+03  0.47128595111E+03  0.52675487850E+03  0.90724427253E+02 0.  0.
        -13    1    3    3    0    0 -0.26376398666E+02  0.44584504459E+02  0.29144751301E+02  0.59438278684E+02  0.00000000000E+00 0.  1.
         14    1    3    3    0    0  0.33083918865E+01 -0.12379558565E+02  0.86137981566E+02  0.87085881723E+02  0.00000000000E+00 0. -1.
        -11    1    4    4    0    0  0.11768022576E+03 -0.43609706182E+02  0.17832804609E+03  0.21806268371E+03  0.00000000000E+00 0. -1.
         11    1    4    4    0    0  0.66932697085E+02 -0.70615515764E+02  0.29295790502E+03  0.30869219479E+03  0.00000000000E+00 0.  1.
          1    1    1    2  501    0 -0.16154491606E+03  0.82020276052E+02  0.18897047864E+03  0.26178985348E+03  0.00000000000E+00 0. -1.
<scales pt_clust_5="13000.00000" pt_clust_6="13000.00000" pt_clust_7="13000.00000" pt_clust_8="13000.00000" pt_clust_9="192.19387"></scales>
<clustering>
<clus scale="   81.301">  5  6 -1 -1</clus>
<clus scale="   90.439">  1  5  2 -1</clus>
<clus scale="   90.724">  7  8 -1 -1</clus>
<clus scale="  192.194">  2  9  1 -1</clus>
<clus scale="  192.194">  2  5  1 -1</clus>
</clustering>
</event>
<event>
 9    2  0.1751298E-004  0.1115096E+03  0.7546771E-02  0.1262855E+00
         21   -1    0    0  501  502  0.00000000000E+00  0.00000000000E+00  0.63783460784E+02  0.63783460784E+02  0.00000000000E+00 0. -1.
          2   -1    0    0  502    0 -0.00000000000E+00 -0.00000000000E+00 -0.53960452086E+03  0.53960452086E+03  0.00000000000E+00 0. -1.
         23    2    1    2    0    0 -0.10577473092E+02  0.46273575791E+02 -0.30714100343E+03  0.32412535702E+03  0.92024585442E+02 0.  0.
         24    2    1    2    0    0  0.29426728385E+02 -0.94004632950E+02 -0.18627646339E+03  0.22501152534E+03  0.78920607978E+02 0.  0.
        -13    1    4    4    0    0  0.39234464341E+02 -0.21907505230E+02 -0.34354335994E+02  0.56564143935E+02  0.00000000000E+00 0.  1.
         14    1    4    4    0    0 -0.98077359553E+01 -0.72097127720E+02 -0.15192212739E+03  0.16844738140E+03  0.00000000000E+00 0. -1.
        -11    1    3    3    0    0 -0.30226146915E+02 -0.18554140947E+02 -0.93413309985E+02  0.99919580593E+02  0.00000000000E+00 0. -1.
         11    1    3    3    0    0  0.19648673823E+02  0.64827716738E+02 -0.21372769344E+03  0.22420577643E+03  0.00000000000E+00 0.  1.
          1    1    1    2  501    0 -0.18849255294E+02  0.47731057158E+02  0.17596406743E+02  0.54251099278E+02  0.00000000000E+00 0. -1.
<scales pt_clust_5="13000.00000" pt_clust_6="13000.00000" pt_clust_7="13000.00000" pt_clust_8="13000.00000" pt_clust_9="51.31811"></scales>
<clustering>
<clus scale="   51.318">  1  9  2 -1</clus>
<clus scale="   78.921">  5  6 -1 -1</clus>
<clus scale="   92.025">  7  8 -1 -1</clus>
<clus scale="  100.967">  1  5  2 -1</clus>
<clus scale="   51.318">  1  5  2 -1</clus>
</clustering>
</event>
<event>
 9    2  0.1751298E-004  0.9559407E+02  0.7546771E-02  0.1297531E+00
         21   -1    0    0  501  502  0.00000000000E+00  0.00000000000E+00  0.60172066180E+02  0.60172066180E+02  0.00000000000E+00 0. -1.
          2   -1    0    0  502    0 -0.00000000000E+00 -0.00000000000E+00 -0.19476993320E+03  0.19476993320E+03  0.00000000000E+00 0. -1.
         23    2    1    2    0    0  0.22276505935E+02 -0.19667183221E+02 -0.60743998087E+02  0.11588304225E+03  0.94106351358E+02 0.  0.
         24    2    1    2    0    0  0.49803939930E+01  0.89185348426E+01 -0.31638302685E+02  0.87671934744E+02  0.81123617750E+02 0.  0.
        -11    1    4    4    0    0 -0.32928265202E+02  0.17472716283E+02  0.44215669523E+00  0.37279511344E+02  0.00000000000E+00 0.  1.
         12    1    4    4    0    0  0.37908659195E+02 -0.85541814408E+01 -0.32080459380E+02  0.50392423400E+02  0.00000000000E+00 0. -1.
        -13    1    3    3    0    0 -0.22763362867E+02  0.13591079137E+02 -0.53132373948E+02  0.59379603253E+02  0.00000000000E+00 0.  1.
         13    1    3    3    0    0  0.45039868802E+02 -0.33258262358E+02 -0.76116241386E+01  0.56503439000E+02  0.00000000000E+00 0. -1.
          1    1    1    2  501    0 -0.27256899928E+02  0.10748648379E+02 -0.42215566251E+02  0.51387022384E+02  0.00000000000E+00 0. -1.
<scales pt_clust_5="13000.00000" pt_clust_6="13000.00000" pt_clust_7="13000.00000" pt_clust_8="13000.00000" pt_clust_9="29.29971"></scales>
<clustering>
<clus scale="   29.300">  1  9  2 -1</clus>
<clus scale="   81.124">  5  6 -1 -1</clus>
<clus scale="   82.845">  1  5  2 -1</clus>
<clus scale="   94.106">  7  8 -1 -1</clus>
<clus scale="   29.300">  1  5  2 -1</clus>
</clustering>
</event>
<event>
 9    2  0.1751298E-004  0.1037222E+03  0.7546771E-02  0.1275036E+00
         21   -1    0    0  501  502  0.00000000000E+00  0.00000000000E+00  0.41582772268E+02  0.41582772268E+02  0.00000000000E+00 0.  1.
          2   -1    0    0  502    0 -0.00000000000E+00 -0.00000000000E+00 -0.47846761719E+03  0.47846761719E+03  0.00000000000E+00 0. -1.
         24    2    1    2    0    0 -0.25718327700E+02 -0.50641335580E+02 -0.34874829719E+03  0.36362324496E+03  0.85851687408E+02 0.  0.
         23    2    1    2    0    0  0.21644068820E+02  0.16948252305E+02 -0.67367875134E+02  0.11663818614E+03  0.91160994368E+02 0.  0.
        -13    1    3    3    0    0  0.14692121386E+02  0.18030639049E+02 -0.78124632063E+02  0.81513314926E+02  0.00000000000E+00 0.  1.
         14    1    3    3    0    0 -0.40410449086E+02 -0.68671974629E+02 -0.27062366513E+03  0.28210993003E+03  0.00000000000E+00 0. -1.
        -11    1    4    4    0    0 -0.69165025373E+01 -0.21205655788E+02 -0.65221795249E+02  0.68930402728E+02  0.00000000000E+00 0. -1.
         11    1    4    4    0    0  0.28560571357E+02  0.38153908093E+02 -0.21460798852E+01  0.47707783410E+02  0.00000000000E+00 0.  1.
          1    1    1    2  501    0  0.40742588807E+01  0.33693083275E+02 -0.20768672593E+02  0.39788958359E+02  0.00000000000E+00 0. -1.
<scales pt_clust_5="13000.00000" pt_clust_6="13000.00000" pt_clust_7="13000.00000" pt_clust_8="13000.00000" pt_clust_9="33.93852"></scales>
<clustering>
<clus scale="   33.939">  1  9  2 -1</clus>
<clus scale="   85.852">  5  6 -1 -1</clus>
<clus scale="   91.161">  7  8 -1 -1</clus>
<clus scale="   99.088">  2  5  1 -1</clus>
<clus scale="   33.939">  1  5  2 -1</clus>
</clustering>
</event>
<event>
 9    2  0.1751298E-004  0.1158672E+03  0.7546771E-02  0.1254449E+00
          2   -1    0    0  502    0 -0.00000000000E+00  0.00000000000E+00  0.10709380958E+04  0.10709380958E+04  0.00000000000E+00 0. -1.
         21   -1    0    0  501  502  0.00000000000E+00 -0.00000000000E+00 -0.27470335497E+02  0.27470335497E+02  0.00000000000E+00 0. -1.
         23    2    1    2    0    0 -0.33398196248E+02  0.82958558873E+02  0.65288387599E+03  0.66497342725E+03  0.89077165498E+02 0.  0.
         24    2    1    2    0    0 -0.45296086157E+02 -0.54783988670E+02  0.20674885294E+03  0.23148967668E+03  0.76087853039E+02 0.  0.
        -11    1    4    4    0    0 -0.91136028115E+01 -0.62045634236E+02  0.16053424508E+03  0.17234837489E+03  0.00000000000E+00 0.  1.
         12    1    4    4    0    0 -0.36182483345E+02  0.72616455652E+01  0.46214607861E+02  0.59141301787E+02  0.00000000000E+00 0. -1.
        -11    1    3    3    0    0 -0.32449187035E+01  0.94034002408E+02  0.48299302791E+03  0.49207234033E+03  0.00000000000E+00 0. -1.
         11    1    3    3    0    0 -0.30153277544E+02 -0.11075443535E+02  0.16989084808E+03  0.17290108692E+03  0.00000000000E+00 0.  1.
          1    1    1    2  501    0  0.78694282404E+02 -0.28174570203E+02  0.18383503139E+03  0.20194532739E+03  0.00000000000E+00 0. -1.
<scales pt_clust_5="13000.00000" pt_clust_6="13000.00000" pt_clust_7="13000.00000" pt_clust_8="13000.00000" pt_clust_9="83.58586"></scales>
<clustering>
<clus scale="   76.088">  5  6 -1 -1</clus>
<clus scale="   83.586">  2  9  1 -1</clus>
<clus scale="   89.077">  7  8 -1 -1</clus>
<clus scale="  106.207">  2  5  1 -1</clus>
<clus scale="   83.586">  2  5  1 -1</clus>
</clustering>
</event>
<event>
 9    2  0.1751298E-004  0.1047323E+03  0.7546771E-02  0.1277655E+00
         21   -1    0    0  501  502  0.00000000000E+00  0.00000000000E+00  0.15782397695E+02  0.15782397695E+02  0.00000000000E+00 0. -1.
          2   -1    0    0  502    0 -0.00000000000E+00 -0.00000000000E+00 -0.13310508520E+04  0.13310508520E+04  0.00000000000E+00 0. -1.
         24    2    1    2    0    0  0.35528408283E+02 -0.36264066655E+02 -0.65734584216E+03  0.66413443571E+03  0.79960253698E+02 0.  0.
         23    2    1    2    0    0  0.30330026621E+02  0.54105024976E+02 -0.37994405511E+03  0.39646864189E+03  0.94776762706E+02 0.  0.
        -13    1    3    3    0    0  0.40934323925E+02  0.13012992042E+02 -0.23541669306E+03  0.23930310531E+03  0.00000000000E+00 0.  1.
         14    1    3    3    0    0 -0.54059156421E+01 -0.49277058697E+02 -0.42192914910E+03  0.42483133041E+03  0.00000000000E+00 0. -1.
        -11    1    4    4    0    0 -0.18023523233E+02 -0.18441513757E+02 -0.99358572777E+02  0.10265019632E+03  0.00000000000E+00 0.  1.
         11    1    4    4    0    0  0.48353549854E+02  0.72546538733E+02 -0.28058548233E+03  0.29381844558E+03  0.00000000000E+00 0. -1.
          1    1    1    2  501    0 -0.65858434904E+02 -0.17840958321E+02 -0.27797855708E+03  0.28623017213E+03  0.00000000000E+00 0. -1.
<scales pt_clust_5="13000.00000" pt_clust_6="13000.00000" pt_clust_7="13000.00000" pt_clust_8="13000.00000" pt_clust_9="68.23220"></scales>
<clustering>
<clus scale="   68.232">  1  9  2 -1</clus>
<clus scale="   79.960">  5  6 -1 -1</clus>
<clus scale="   91.542">  2  5  1 -1</clus>
<clus scale="   94.777">  7  8 -1 -1</clus>
<clus scale="   68.232">  1  5  2 -1</clus>
</clustering>
</event>
<event>
 9    2  0.1751298E-004  0.3755196E+03  0.7546771E-02  0.1065640E+00
          2   -1    0    0  502    0 -0.00000000000E+00  0.00000000000E+00  0.64879052819E+03  0.64879052819E+03  0.00000000000E+00 0. -1.
         21   -1    0    0  501  502  0.00000000000E+00 -0.00000000000E+00 -0.42267723348E+03  0.42267723348E+03  0.00000000000E+00 0. -1.
         23    2    1    2    0    0  0.22069811811E+03  0.10458199791E+03  0.16444151769E+02  0.26107602708E+03  0.90803238752E+02 0.  0.
         24    2    1    2    0    0 -0.48608531525E+03 -0.55782934617E+02  0.54986912545E+02  0.49936391368E+03  0.83367189208E+02 0.  0.
        -13    1    4    4    0    0 -0.21521390560E+03  0.54538129848E+01 -0.46166746352E+01  0.21533249389E+03  0.00000000000E+00 0.  1.
         14    1    4    4    0    0 -0.27087140965E+03 -0.61236747602E+02  0.59603587180E+02  0.28403141978E+03  0.00000000000E+00 0. -1.
        -13    1    3    3    0    0  0.19276864826E+03  0.10774340746E+03 -0.11902671117E+02  0.22115620539E+03  0.00000000000E+00 0. -1.
         13    1    3    3    0    0  0.27929469847E+02 -0.31614095522E+01  0.28346822885E+02  0.39919821693E+02  0.00000000000E+00 0.  1.
          1    1    1    2  501    0  0.26538719714E+03 -0.48799063289E+02  0.15468223040E+03  0.31102782092E+03  0.00000000000E+00 0. -1.
<scales pt_clust_5="13000.00000" pt_clust_6="13000.00000" pt_clust_7="13000.00000" pt_clust_8="13000.00000" pt_clust_9="366.14871"></scales>
<clustering>
<clus scale="   83.367">  5  6 -1 -1</clus>
<clus scale="   90.803">  7  8 -1 -1</clus>
<clus scale="  260.558">  1  7  2 -1</clus>
<clus scale="  366.149">  2  9  1 -1</clus>
<clus scale="  366.149">  2  5  1 -1</clus>
</clustering>
</event>
<event>
 9    2  0.1751298E-004  0.2708245E+03  0.7546771E-02  0.1123567E+00
         21   -1    0    0  501  502  0.00000000000E+00  0.00000000000E+00  0.34534397114E+03  0.34534397114E+03  0.00000000000E+00 0.  1.
          2   -1    0    0  502    0 -0.00000000000E+00 -0.00000000000E+00 -0.45413115897E+03  0.45413115897E+03  0.00000000000E+00 0. -1.
         24    2    1    2    0    0  0.94082930018E+02 -0.88018970794E+02  0.13728461369E+03  0.20483657718E+03  0.80697095704E+02 0.  0.
         23    2    1    2    0    0  0.42267699167E+01 -0.20653461483E+03 -0.13089474171E+03  0.26344017279E+03  0.97943241320E+02 0.  0.
        -13    1    3    3    0    0  0.81382459663E+02 -0.98112760491E+02  0.13890756963E+03  0.18853257388E+03  0.00000000000E+00 0.  1.
         14    1    3    3    0    0  0.12700470356E+02  0.10093789696E+02 -0.16229559449E+01  0.16304003302E+02  0.00000000000E+00 0. -1.
        -11    1    4    4    0    0 -0.43557202296E+02 -0.10039107765E+03 -0.83959958028E+02  0.13793068149E+03  0.00000000000E+00 0.  1.
         11    1    4    4    0    0  0.47783972212E+02 -0.10614353718E+03 -0.46934783686E+02  0.12550949130E+03  0.00000000000E+00 0. -1.
          1    1    1    2  501    0 -0.98309699935E+02  0.29455358563E+03 -0.11517705980E+03  0.33119838015E+03  0.00000000000E+00 0. -1.
<scales pt_clust_5="13000.00000" pt_clust_6="13000.00000" pt_clust_7="13000.00000" pt_clust_8="13000.00000" pt_clust_9="252.49375"></scales>
<clustering>
<clus scale="   80.697">  5  6 -1 -1</clus>
<clus scale="   97.943">  7  8 -1 -1</clus>
<clus scale="  152.023">  2  5  1 -1</clus>
<clus scale="  252.494">  1  9  2 -1</clus>
<clus scale="  252.494">  1  5  2 -1</clus>
</clustering>
</event>
<event>
 9    2  0.1751298E-004  0.2020756E+03  0.7546771E-02  0.1149072E+00
         21   -1    0    0  501  502  0.00000000000E+00  0.00000000000E+00  0.99591344119E+02  0.99591344119E+02  0.00000000000E+00 0.  1.
          2   -1    0    0  502    0 -0.00000000000E+00 -0.00000000000E+00 -0.10039695736E+04  0.10039695736E+04  0.00000000000E+00 0. -1.
         23    2    1    2    0    0  0.14822934883E+03 -0.90644597798E+02 -0.73837447711E+03  0.76409674466E+03  0.91970559382E+02 0.  0.
         24    2    1    2    0    0 -0.17272139167E+03  0.13465363650E+03 -0.93689970472E+02  0.25133960950E+03  0.80184211500E+02 0.  0.
        -13    1    4    4    0    0 -0.39018698419E+02  0.67316160578E+02 -0.64536789505E+01  0.78074158806E+02  0.00000000000E+00 0.  1.
         14    1    4    4    0    0 -0.13370269325E+03  0.67337475919E+02 -0.87236291521E+02  0.17326545069E+03  0.00000000000E+00 0. -1.
        -11    1    3    3    0    0  0.76427478298E+02 -0.25705854570E+02 -0.17788276078E+03  0.19530547094E+03  0.00000000000E+00 0.  1.
         11    1    3    3    0    0  0.71801870530E+02 -0.64938743228E+02 -0.56049171633E+03  0.56879127371E+03  0.00000000000E+00 0. -1.
          1    1    1    2  501    0  0.24492042838E+02 -0.44009038698E+02 -0.72313781878E+02  0.88124563540E+02  0.00000000000E+00 0. -1.
<scales pt_clust_5="13000.00000" pt_clust_6="13000.00000" pt_clust_7="13000.00000" pt_clust_8="13000.00000" pt_clust_9="50.36525"></scales>
<clustering>
<clus scale="   50.365">  1  9  2 -1</clus>
<clus scale="   80.184">  5  6 -1 -1</clus>
<clus scale="   91.971">  7  8 -1 -1</clus>
<clus scale="  196.991">  1  5  2 -1</clus>
<clus scale="   50.365">  1  5  2 -1</clus>
</clustering>
</event>
<event>
 9    2  0.1751298E-004  0.1453791E+03  0.7546771E-02  0.1228660E+00
         21   -1    0    0  501  502  0.00000000000E+00  0.00000000000E+00  0.17667285340E+03  0.17667285340E+03  0.00000000000E+00 0. -1.
          4   -1    0    0  502    0 -0.00000000000E+00 -0.00000000000E+00 -0.52619926601E+03  0.52619926601E+03  0.00000000000E+00 0. -1.
         24    2    1    2    0    0 -0.85452907031E+01 -0.43274094293E+02 -0.47849736283E+02  0.10251528686E+03  0.79209327404E+02 0.  0.
         23    2    1    2    0    0 -0.40090541504E+02 -0.62074570087E+02 -0.41921513416E+03  0.43519305223E+03  0.90505028770E+02 0.  0.
        -11    1    3    3    0    0 -0.24039792293E+02 -0.10508541814E+02 -0.59019884665E+02  0.64588604649E+02  0.00000000000E+00 0.  1.
         12    1    3    3    0    0  0.15494501590E+02 -0.32765552479E+02  0.11170148383E+02  0.37926682212E+02  0.00000000000E+00 0. -1.
        -11    1    4    4    0    0  0.29307371605E+02 -0.15573876781E+02 -0.11065448053E+03  0.11552437721E+03  0.00000000000E+00 0.  1.
         11    1    4    4    0    0 -0.69397913108E+02 -0.46500693306E+02 -0.30856065363E+03  0.31966867502E+03  0.00000000000E+00 0. -1.
          3    1    1    2  501    0  0.48635832207E+02  0.10534866438E+03  0.11753845782E+03  0.16516378032E+03  0.00000000000E+00 0. -1.
<scales pt_clust_5="13000.00000" pt_clust_6="13000.00000" pt_clust_7="13000.00000" pt_clust_8="13000.00000" pt_clust_9="113.77138"></scales>
<clustering>
<clus scale="   79.209">  5  6 -1 -1</clus>
<clus scale="   90.505">  7  8 -1 -1</clus>
<clus scale="   90.663">  2  5  1 -1</clus>
<clus scale="  113.771">  1  9  2 -1</clus>
<clus scale="  113.771">  1  5  2 -1</clus>
</clustering>
</event>
<event>
 9    2  0.1751298E-004  0.2070501E+03  0.7546771E-02  0.1145581E+00
         -1   -1    0    0    0  501 -0.00000000000E+00  0.00000000000E+00  0.33180224917E+03  0.33180224917E+03  0.00000000000E+00 0.  1.
         21   -1    0    0  501  502  0.00000000000E+00 -0.00000000000E+00 -0.25066970848E+03  0.25066970848E+03  0.00000000000E+00 0.  1.
         23    2    1    2    0    0  0.18559071873E+03 -0.75740264868E+02 -0.24111982423E+02  0.22464925822E+03  0.98515983082E+02 0.  0.
         24    2    1    2    0    0 -0.15945018472E+03  0.41323023587E+02 -0.55441847520E+02  0.19142563299E+03  0.80237278259E+02 0.  0.
        -11    1    4    4    0    0 -0.10371145622E+03  0.19489462744E+02 -0.73845025602E+02  0.12879826519E+03  0.00000000000E+00 0.  1.
         12    1    4    4    0    0 -0.55738728507E+02  0.21833560843E+02  0.18403178082E+02  0.62627367805E+02  0.00000000000E+00 0. -1.
        -11    1    3    3    0    0  0.13607624545E+03 -0.41788010145E+01 -0.10189751636E+02  0.13652119979E+03  0.00000000000E+00 0.  1.
         11    1    3    3    0    0  0.49514473279E+02 -0.71561463853E+02 -0.13922230787E+02  0.88128058432E+02  0.00000000000E+00 0. -1.
         -2    1    1    2    0  502 -0.26140534002E+02  0.34417241281E+02  0.16068637063E+03  0.16639706644E+03  0.00000000000E+00 0.  1.
<scales pt_clust_5="13000.00000" pt_clust_6="13000.00000" pt_clust_7="13000.00000" pt_clust_8="13000.00000" pt_clust_9="43.21893"></scales>
<clustering>
<clus scale="   43.219">  2  9  1 -1</clus>
<clus scale="   80.237">  5  6 -1 -1</clus>
<clus scale="   98.516">  7  8 -1 -1</clus>
<clus scale="  199.003">  2  5  1 -1</clus>
<clus scale="   43.219">  2  5  1 -1</clus>
</clustering>
</event>
<event>
 9    2  0.1751298E-004  0.2656884E+03  0.7546771E-02  0.1141028E+00
         21   -1    0    0  501  502  0.00000000000E+00  0.00000000000E+00  0.10776533902E+04  0.10776533902E+04  0.00000000000E+00 0. -1.
          4   -1    0    0  502    0 -0.00000000000E+00 -0.00000000000E+00 -0.10462949974E+03  0.10462949974E+03  0.00000000000E+00 0. -1.
         24    2    1    2    0    0 -0.37822197501E+02  0.53416474031E+02  0.55124307463E+02  0.11863099208E+03  0.82163158945E+02 0.  0.
         23    2    1    2    0    0 -0.18015160916E+03  0.10861733348E+03  0.23310133336E+03  0.32695916823E+03  0.91179705323E+02 0.  0.
        -13    1    3    3    0    0 -0.22004700694E+00  0.32784512856E+02  0.66599549676E+02  0.74231884800E+02  0.00000000000E+00 0.  1.
         14    1    3    3    0    0 -0.37602150494E+02  0.20631961176E+02 -0.11475242213E+02  0.44399107284E+02  0.00000000000E+00 0. -1.
        -11    1    4    4    0    0 -0.72767607825E+02  0.42930447757E+02  0.33307717804E+02  0.90816034699E+02  0.00000000000E+00 0.  1.
         11    1    4    4    0    0 -0.10738400133E+03  0.65686885727E+02  0.19979361556E+03  0.23614313354E+03  0.00000000000E+00 0. -1.
          3    1    1    2  501    0  0.21797380666E+03 -0.16203380752E+03  0.68479824966E+03  0.73669272964E+03  0.00000000000E+00 0. -1.
<scales pt_clust_5="13000.00000" pt_clust_6="13000.00000" pt_clust_7="13000.00000" pt_clust_8="13000.00000" pt_clust_9="249.55277"></scales>
<clustering>
<clus scale="   82.163">  5  6 -1 -1</clus>
<clus scale="   91.180">  7  8 -1 -1</clus>
<clus scale="  105.046">  2  5  1 -1</clus>
<clus scale="  249.553">  1  9  2 -1</clus>
<clus scale="  249.553">  1  5  2 -1</clus>
</clustering>
</event>
<event>
 9    2  0.1751298E-004  0.2406092E+03  0.7546771E-02  0.1120168E+00
          2   -1    0    0  502    0 -0.00000000000E+00  0.00000000000E+00  0.44978437934E+03  0.44978437934E+03  0.00000000000E+00 0. -1.
         21   -1    0    0  501  502  0.00000000000E+00 -0.00000000000E+00 -0.47619442018E+03  0.47619442018E+03  0.00000000000E+00 0.  1.
         24    2    1    2    0    0 -0.11480179102E+03 -0.19308457969E+03  0.37128542470E+03  0.44118080506E+03  0.79539487144E+02 0.  0.
         23    2    1    2    0    0  0.89791283648E+02  0.18083504741E+03 -0.24947183025E+03  0.33398081182E+03  0.92429430277E+02 0.  0.
        -13    1    3    3    0    0 -0.30675810257E+01 -0.58509203519E+02  0.58410305035E+02  0.82731497533E+02  0.00000000000E+00 0.  1.
         14    1    3    3    0    0 -0.11173421000E+03 -0.13457537618E+03  0.31287511967E+03  0.35844930752E+03  0.00000000000E+00 0. -1.
        -11    1    4    4    0    0  0.49949471076E+02  0.14788622263E+03 -0.12765257993E+03  0.20164440400E+03  0.00000000000E+00 0.  1.
         11    1    4    4    0    0  0.39841812572E+02  0.32948824788E+02 -0.12181925033E+03  0.13233640782E+03  0.00000000000E+00 0. -1.
          1    1    1    2  501    0  0.25010507375E+02  0.12249532282E+02 -0.14822363529E+03  0.15081718264E+03  0.00000000000E+00 0. -1.
<scales pt_clust_5="13000.00000" pt_clust_6="13000.00000" pt_clust_7="13000.00000" pt_clust_8="13000.00000" pt_clust_9="27.84917"></scales>
<clustering>
<clus scale="   27.849">  2  9  1 -1</clus>
<clus scale="   79.539">  5  6 -1 -1</clus>
<clus scale="   92.429">  7  8 -1 -1</clus>
<clus scale="  235.958">  1  5  2 -1</clus>
<clus scale="   27.849">  2  5  1 -1</clus>
</clustering>
</event>
<event>
 9    2  0.1751298E-004  0.3184034E+03  0.7546771E-02  0.1110286E+00
         21   -1    0    0  501  502  0.00000000000E+00  0.00000000000E+00  0.96825376297E+02  0.96825376297E+02  0.00000000000E+00 0. -1.
          2   -1    0    0  502    0 -0.00000000000E+00 -0.00000000000E+00 -0.17693130336E+04  0.17693130336E+04  0.00000000000E+00 0. -1.
         24    2    1    2    0    0  0.75139560443E+02 -0.67538242043E+02 -0.20668527008E+03  0.24451674005E+03  0.82838805015E+02 0.  0.
         23    2    1    2    0    0 -0.16878304024E+03  0.28771522689E+03 -0.39814641566E+03  0.52748443916E+03  0.91932033550E+02 0.  0.
        -11    1    3    3    0    0  0.52359706827E+02  0.46127757601E+01 -0.10849521632E+03  0.12055715890E+03  0.00000000000E+00 0.  1.
         12    1    3    3    0    0  0.22779853616E+02 -0.72151017803E+02 -0.98190053762E+02  0.12395958115E+03  0.00000000000E+00 0. -1.
        -11    1    4    4    0    0 -0.10719354222E+03  0.20154196024E+03 -0.20316488427E+03  0.30559055521E+03  0.00000000000E+00 0. -1.
         11    1    4    4    0    0 -0.61589498019E+02  0.86173266651E+02 -0.19498153139E+03  0.22189388395E+03  0.00000000000E+00 0.  1.
          1    1    1    2  501    0  0.93643479799E+02 -0.22017698484E+03 -0.10676559716E+04  0.10941372307E+04  0.00000000000E+00 0. -1.
<scales pt_clust_5="13000.00000" pt_clust_6="13000.00000" pt_clust_7="13000.00000" pt_clust_8="13000.00000" pt_clust_9="304.84309"></scales>
<clustering>
<clus scale="   82.839">  5  6 -1 -1</clus>
<clus scale="   91.932">  7  8 -1 -1</clus>
<clus scale="  130.651">  2  5  1 -1</clus>
<clus scale="  304.843">  1  9  2 -1</clus>
<clus scale="  304.843">  1  5  2 -1</clus>
</clustering>
</event>
<event>
 9    2  0.1751298E-004  0.1041231E+03  0.7546771E-02  0.1274437E+00
         21   -1    0    0  501  502  0.00000000000E+00  0.00000000000E+00  0.76172347277E+02  0.76172347277E+02  0.00000000000E+00 0.  1.
          2   -1    0    0  502    0 -0.00000000000E+00 -0.00000000000E+00 -0.39501139756E+03  0.39501139756E+03  0.00000000000E+00 0. -1.
         23    2    1    2    0    0 -0.38094263188E+02 -0.42219124186E+02 -0.21202732331E+03  0.23769095714E+03  0.91147012811E+02 0.  0.
         24    2    1    2    0    0  0.37724828949E+02 -0.90507457734E+01  0.20748208350E+02  0.96014523419E+02  0.85341794213E+02 0.  0.
        -13    1    4    4    0    0  0.29850531040E+02 -0.86332986696E+01  0.53748869833E+02  0.62084853689E+02  0.00000000000E+00 0.  1.
         14    1    4    4    0    0  0.78742979099E+01 -0.41744710386E+00 -0.33000661483E+02  0.33929669730E+02  0.00000000000E+00 0. -1.
        -13    1    3    3    0    0 -0.60488302996E+02 -0.41933267790E+02 -0.10426563036E+03  0.12762662505E+03  0.00000000000E+00 0.  1.
         13    1    3    3    0    0  0.22394039808E+02 -0.28585639601E+00 -0.10776169295E+03  0.11006433210E+03  0.00000000000E+00 0. -1.
          1    1    1    2  501    0  0.36943423888E+00  0.51269869959E+02 -0.12755993533E+03  0.13747826428E+03  0.00000000000E+00 0. -1.
<scales pt_clust_5="13000.00000" pt_clust_6="13000.00000" pt_clust_7="13000.00000" pt_clust_8="13000.00000" pt_clust_9="51.27123"></scales>
<clustering>
<clus scale="   51.271">  1  9  2 -1</clus>
<clus scale="   85.342">  5  6 -1 -1</clus>
<clus scale="   91.147">  7  8 -1 -1</clus>
<clus scale="   99.081">  1  5  2 -1</clus>
<clus scale="   51.271">  1  5  2 -1</clus>
</clustering>
</event>
<event>
 9    2  0.2111156E-004  0.2923419E+03  0.7546771E-02  0.1089491E+00
          2   -1    0    0  502    0 -0.00000000000E+00  0.00000000000E+00  0.70674073362E+03  0.70674073362E+03  0.00000000000E+00 0. -1.
         21   -1    0    0  501  502  0.00000000000E+00 -0.00000000000E+00 -0.15184602004E+03  0.15184602004E+03  0.00000000000E+00 0. -1.
         23    2    1    2    0    0 -0.16586261024E+03 -0.20142926643E+03  0.23353418825E+03  0.36182640689E+03  0.91082252913E+02 0.  0.
         24    2    1    2    0    0  0.18197355972E+03  0.23859959307E+03  0.20237230494E+03  0.37106471251E+03  0.81794430231E+02 0.  0.
        -11    1    4    4    0    0  0.45880728126E+01  0.46231854314E+02  0.50049059222E+02  0.68288674716E+02  0.00000000000E+00 0.  1.
         12    1    4    4    0    0  0.17738548690E+03  0.19236773876E+03  0.15232324572E+03  0.30277603780E+03  0.00000000000E+00 0. -1.
        -11    1    3    3    0    0 -0.47084970572E+01 -0.60781986194E+02  0.36786397157E+02  0.71202940993E+02  0.00000000000E+00 0.  1.
         11    1    3    3    0    0 -0.16115411319E+03 -0.14064728023E+03  0.19674779109E+03  0.29062346590E+03  0.00000000000E+00 0. -1.
          1    1    1    2  501    0 -0.16110949474E+02 -0.37170326646E+02  0.11898822040E+03  0.12569563425E+03  0.00000000000E+00 0. -1.
<scales pt_clust_5="13000.00000" pt_clust_6="13000.00000" pt_clust_7="13000.00000" pt_clust_8="13000.00000" pt_clust_9="40.51170"></scales>
<clustering>
<clus scale="   40.512">  2  9  1 -1</clus>
<clus scale="   81.794">  5  6 -1 -1</clus>
<clus scale="   91.082">  7  8 -1 -1</clus>
<clus scale="  289.583">  2  5  1 -1</clus>
<clus scale="   40.512">  2  5  1 -1</clus>
</clustering>
</event>
<event>
 9    2  0.1751298E-004  0.2113582E+03  0.7546771E-02  0.1165816E+00
         -1   -1    0    0    0  501 -0.00000000000E+00  0.00000000000E+00  0.54596976345E+03  0.54596976345E+03  0.00000000000E+00 0.  1.
         21   -1    0    0  501  502  0.00000000000E+00 -0.00000000000E+00 -0.13817425485E+03  0.13817425485E+03  0.00000000000E+00 0.  1.
         24    2    1    2    0    0  0.74447309310E+02 -0.38254620144E+02  0.17149307694E+03  0.20725382448E+03  0.80860710472E+02 0.  0.
         23    2    1    2    0    0  0.96230072748E+02 -0.12158421931E+03  0.11371709095E+03  0.21287051823E+03  0.91319940152E+02 0.  0.
        -13    1    3    3    0    0  0.76206061714E+02 -0.26016091816E+02  0.17643225968E+03  0.19393953473E+03  0.00000000000E+00 0.  1.
         14    1    3    3    0    0 -0.17587524042E+01 -0.12238528328E+02 -0.49391827341E+01  0.13314289757E+02  0.00000000000E+00 0. -1.
        -11    1    4    4    0    0  0.69904355541E+02 -0.22410333306E+02  0.69673183190E+02  0.10120866770E+03  0.00000000000E+00 0. -1.
         11    1    4    4    0    0  0.26325717207E+02 -0.99173886003E+02  0.44043907764E+02  0.11166185052E+03  0.00000000000E+00 0.  1.
         -2    1    1    2    0  502 -0.17067738206E+03  0.15983883945E+03  0.12258534070E+03  0.26401967559E+03  0.00000000000E+00 0.  1.
<scales pt_clust_5="13000.00000" pt_clust_6="13000.00000" pt_clust_7="13000.00000" pt_clust_8="13000.00000" pt_clust_9="190.61218"></scales>
<clustering>
<clus scale="   80.861">  5  6 -1 -1</clus>
<clus scale="   91.320">  7  8 -1 -1</clus>
<clus scale="  116.380">  1  5  2 -1</clus>
<clus scale="  190.612">  2  9  1 -1</clus>
<clus scale="  190.612">  2  5  1 -1</clus>
</clustering>
</event>
<event>
 9    2  0.1751298E-004  0.2398983E+03  0.7546771E-02  0.1157356E+00
         21   -1    0    0  501  502  0.00000000000E+00  0.00000000000E+00  0.99801566634E+02  0.99801566634E+02  0.00000000000E+00 0.  1.
         -1   -1    0    0    0  501 -0.00000000000E+00 -0.00000000000E+00 -0.97892585277E+03  0.97892585277E+03  0.00000000000E+00 0.  1.
         24    2    1    2    0    0 -0.53437357463E+02  0.11804761635E+02 -0.51223820266E+02  0.10957218357E+03  0.79920460958E+02 0.  0.
         23    2    1    2    0    0 -0.57920621388E+02  0.19096469559E+03 -0.62087436868E+03  0.65871062377E+03  0.92695150083E+02 0.  0.
        -13    1    3    3    0    0 -0.48770054336E+02  0.27605820339E+02 -0.29206805403E+00  0.56041813143E+02  0.00000000000E+00 0.  1.
         14    1    3    3    0    0 -0.46673031267E+01 -0.15801058705E+02 -0.50931752212E+02  0.53530370427E+02  0.00000000000E+00 0. -1.
        -11    1    4    4    0    0  0.14718626281E+02  0.17445155746E+02 -0.25013784652E+02  0.33862380915E+02  0.00000000000E+00 0. -1.
         11    1    4    4    0    0 -0.72639247669E+02  0.17351953985E+03 -0.59586058402E+03  0.62484824286E+03  0.00000000000E+00 0.  1.
         -2    1    1    2    0  502  0.11135797885E+03 -0.20276945723E+03 -0.20702609720E+03  0.31044461206E+03  0.00000000000E+00 0.  1.
<scales pt_clust_5="13000.00000" pt_clust_6="13000.00000" pt_clust_7="13000.00000" pt_clust_8="13000.00000" pt_clust_9="221.26638"></scales>
<clustering>
<clus scale="   79.920">  5  6 -1 -1</clus>
<clus scale="   92.695">  7  8 -1 -1</clus>
<clus scale="   96.862">  2  5  1 -1</clus>
<clus scale="  221.266">  1  9  2 -1</clus>
<clus scale="  221.266">  1  5  2 -1</clus>
</clustering>
</event>
<event>
 9    2  0.1751298E-004  0.1219994E+03  0.7546771E-02  0.1250184E+00
          2   -1    0    0  502    0 -0.00000000000E+00  0.00000000000E+00  0.26555256765E+03  0.26555256765E+03  0.00000000000E+00 0. -1.
         21   -1    0    0  501  502  0.00000000000E+00 -0.00000000000E+00 -0.10122163337E+03  0.10122163337E+03  0.00000000000E+00 0. -1.
         23    2    1    2    0    0  0.37718697210E+02  0.45501521206E+01  0.26683324501E+02  0.10257313771E+03  0.91464992049E+02 0.  0.
         24    2    1    2    0    0  0.50343573142E+02  0.45876723312E+02  0.12208240629E+03  0.16153603135E+03  0.80935940095E+02 0.  0.
        -11    1    4    4    0    0  0.82565777638E+01  0.46619316910E+02  0.20528194976E+02  0.51603668228E+02  0.00000000000E+00 0.  1.
         12    1    4    4    0    0  0.42086995378E+02 -0.74259359785E+00  0.10155421132E+03  0.10993236312E+03  0.00000000000E+00 0. -1.
        -11    1    3    3    0    0 -0.28504774211E+02 -0.23852193059E+01  0.21504814602E+02  0.35786428643E+02  0.00000000000E+00 0.  1.
         11    1    3    3    0    0  0.66223471421E+02  0.69353714265E+01  0.51785098991E+01  0.66786709072E+02  0.00000000000E+00 0. -1.
          1    1    1    2  501    0 -0.88062270352E+02 -0.50426875433E+02  0.15565203482E+02  0.10266503195E+03  0.00000000000E+00 0. -1.
<scales pt_clust_5="13000.00000" pt_clust_6="13000.00000" pt_clust_7="13000.00000" pt_clust_8="13000.00000" pt_clust_9="91.28654"></scales>
<clustering>
<clus scale="   80.936">  5  6 -1 -1</clus>
<clus scale="   91.465">  7  8 -1 -1</clus>
<clus scale="   99.042">  1  7  2 -1</clus>
<clus scale="   91.287">  2  9  1 -1</clus>
<clus scale="   91.287">  2  5  1 -1</clus>
</clustering>
</event>
<event>
 9    2  0.1751298E-004  0.1929985E+03  0.7546771E-02  0.1174844E+00
         -1   -1    0    0    0  501 -0.00000000000E+00  0.00000000000E+00  0.11777240302E+03  0.11777240302E+03  0.00000000000E+00 0.  1.
         21   -1    0    0  501  502  0.00000000000E+00 -0.00000000000E+00 -0.57441665182E+03  0.57441665182E+03  0.00000000000E+00 0.  1.
         23    2    1    2    0    0 -0.15519883554E+02  0.81360565804E+02 -0.61481809195E+02  0.13871975777E+03  0.92751010126E+02 0.  0.
         24    2    1    2    0    0 -0.13534349516E+03  0.70240060254E+02 -0.19818047096E+03  0.26270409140E+03  0.80538269281E+02 0.  0.
        -11    1    4    4    0    0 -0.11640018072E+03  0.62596598161E+02 -0.10929450101E+03  0.17150109074E+03  0.00000000000E+00 0.  1.
         12    1    4    4    0    0 -0.18943314442E+02  0.76434620927E+01 -0.88885969953E+02  0.91203000660E+02  0.00000000000E+00 0. -1.
        -13    1    3    3    0    0  0.25953260803E+02  0.48674767284E+02 -0.65652743586E+02  0.85750145521E+02  0.00000000000E+00 0.  1.
         13    1    3    3    0    0 -0.41473144358E+02  0.32685798520E+02  0.41709343908E+01  0.52969612246E+02  0.00000000000E+00 0. -1.
         -2    1    1    2    0  502  0.15086337872E+03 -0.15160062606E+03 -0.19698196864E+03  0.29076520567E+03  0.00000000000E+00 0.  1.
<scales pt_clust_5="13000.00000" pt_clust_6="13000.00000" pt_clust_7="13000.00000" pt_clust_8="13000.00000" pt_clust_9="175.39114"></scales>
<clustering>
<clus scale="   80.538">  5  6 -1 -1</clus>
<clus scale="   92.751">  7  8 -1 -1</clus>
<clus scale="  124.351">  1  7  2 -1</clus>
<clus scale="  175.391">  2  9  1 -1</clus>
<clus scale="  175.391">  2  5  1 -1</clus>
</clustering>
</event>
<event>
 9    2  0.1751298E-004  0.1189464E+03  0.7546771E-02  0.1249257E+00
         21   -1    0    0  501  502  0.00000000000E+00  0.00000000000E+00  0.12214318943E+03  0.12214318943E+03  0.00000000000E+00 0.  1.
          2   -1    0    0  502    0 -0.00000000000E+00 -0.00000000000E+00 -0.36424439029E+03  0.36424439029E+03  0.00000000000E+00 0. -1.
         23    2    1    2    0    0 -0.57823576483E+02  0.17782459025E+02 -0.16967113011E+03  0.20218936647E+03  0.91828457869E+02 0.  0.
         24    2    1    2    0    0  0.14472296741E+03 -0.47002198065E+02 -0.64871018675E+01  0.17126561195E+03  0.78331880004E+02 0.  0.
        -13    1    4    4    0    0  0.14374106070E+03 -0.31459422324E+02  0.11357102129E+02  0.14758106773E+03  0.00000000000E+00 0.  1.
         14    1    4    4    0    0  0.98190671633E+00 -0.15542775741E+02 -0.17844203996E+02  0.23684544217E+02  0.00000000000E+00 0. -1.
        -11    1    3    3    0    0 -0.66558813599E+02 -0.20984996651E+02 -0.99266926623E+02  0.12134400881E+03  0.00000000000E+00 0.  1.
         11    1    3    3    0    0  0.87352371161E+01  0.38767455676E+02 -0.70404203485E+02  0.80845357662E+02  0.00000000000E+00 0. -1.
          1    1    1    2  501    0 -0.86899390931E+02  0.29219739040E+02 -0.65942968884E+02  0.11293260131E+03  0.00000000000E+00 0. -1.
<scales pt_clust_5="13000.00000" pt_clust_6="13000.00000" pt_clust_7="13000.00000" pt_clust_8="13000.00000" pt_clust_9="91.68045"></scales>
<clustering>
<clus scale="   78.332">  5  6 -1 -1</clus>
<clus scale="   91.680">  1  9  2 -1</clus>
<clus scale="   91.828">  7  8 -1 -1</clus>
<clus scale="  108.865">  1  5  2 -1</clus>
<clus scale="   91.680">  1  5  2 -1</clus>
</clustering>
</event>
<event>
 9    2  0.1751298E-004  0.9874003E+02  0.7546771E-02  0.1289857E+00
          4   -1    0    0  502    0 -0.00000000000E+00  0.00000000000E+00  0.12414510994E+03  0.12414510994E+03  0.00000000000E+00 0. -1.
         21   -1    0    0  501  502  0.00000000000E+00 -0.00000000000E+00 -0.59521730613E+03  0.59521730613E+03  0.00000000000E+00 0.  1.
         24    2    1    2    0    0  0.57734253393E+01 -0.35294596397E+02  0.99434301792E+02  0.13182246449E+03  0.78809522244E+02 0.  0.
         23    2    1    2    0    0 -0.35784235940E+02  0.40869256089E+02 -0.38414459773E+03  0.39869482073E+03  0.91867733602E+02 0.  0.
        -11    1    3    3    0    0  0.39047129845E+02 -0.36036342953E+02  0.57617038989E+02  0.78377417312E+02  0.00000000000E+00 0.  1.
         12    1    3    3    0    0 -0.33273704506E+02  0.74174655652E+00  0.41817262803E+02  0.53445047178E+02  0.00000000000E+00 0. -1.
        -13    1    4    4    0    0 -0.25722643217E+01  0.65348966113E+02 -0.24241185275E+03  0.25107889252E+03  0.00000000000E+00 0.  1.
         13    1    4    4    0    0 -0.33211971618E+02 -0.24479710024E+02 -0.14173274499E+03  0.14761592822E+03  0.00000000000E+00 0. -1.
          3    1    1    2  501    0  0.30010810600E+02 -0.55746596920E+01 -0.18636190024E+03  0.18884513085E+03  0.00000000000E+00 0. -1.
<scales pt_clust_5="13000.00000" pt_clust_6="13000.00000" pt_clust_7="13000.00000" pt_clust_8="13000.00000" pt_clust_9="30.52418"></scales>
<clustering>
<clus scale="   30.524">  2  9  1 -1</clus>
<clus scale="   78.810">  5  6 -1 -1</clus>
<clus scale="   86.723">  1  5  2 -1</clus>
<clus scale="   91.868">  7  8 -1 -1</clus>
<clus scale="   30.524">  2  5  1 -1</clus>
</clustering>
</event>
<event>
 9    2  0.1751298E-004  0.9649771E+02  0.7546771E-02  0.1291258E+00
         -1   -1    0    0    0  501 -0.00000000000E+00  0.00000000000E+00  0.15732549830E+03  0.15732549830E+03  0.00000000000E+00 0.  1.
         21   -1    0    0  501  502  0.00000000000E+00 -0.00000000000E+00 -0.19675242586E+03  0.19675242586E+03  0.00000000000E+00 0.  1.
         23    2    1    2    0    0 -0.19698440502E+02  0.18216651435E+02  0.26689932051E+02  0.95956194141E+02  0.88178023188E+02 0.  0.
         24    2    1    2    0    0  0.26042010202E+02 -0.93752569160E+02 -0.11217135032E+03  0.16942600376E+03  0.81578357408E+02 0.  0.
        -11    1    4    4    0    0  0.50485098422E+02 -0.80986714531E+02 -0.10287773634E+03  0.14032612632E+03  0.00000000000E+00 0.  1.
         12    1    4    4    0    0 -0.24443088220E+02 -0.12765854629E+02 -0.92936139761E+01  0.29099877437E+02  0.00000000000E+00 0. -1.
        -11    1    3    3    0    0 -0.19480556284E+02 -0.18835183058E+02  0.46590702141E+02  0.53897585474E+02  0.00000000000E+00 0.  1.
         11    1    3    3    0    0 -0.21788421705E+00  0.37051834493E+02 -0.19900770089E+02  0.42058608667E+02  0.00000000000E+00 0. -1.
         -2    1    1    2    0  502 -0.63435697007E+01  0.75535917725E+02  0.46054490711E+02  0.88695726266E+02  0.00000000000E+00 0.  1.
<scales pt_clust_5="13000.00000" pt_clust_6="13000.00000" pt_clust_7="13000.00000" pt_clust_8="13000.00000" pt_clust_9="75.80186"></scales>
<clustering>
<clus scale="   75.802">  2  9  1 -1</clus>
<clus scale="   81.578">  5  6 -1 -1</clus>
<clus scale="   88.178">  7  8 -1 -1</clus>
<clus scale="   90.507">  2  5  1 -1</clus>
<clus scale="   75.802">  2  5  1 -1</clus>
</clustering>
</event>
<event>
 9    2  0.1751298E-004  0.1858745E+03  0.7546771E-02  0.1163336E+00
          2   -1    0    0  502    0 -0.00000000000E+00  0.00000000000E+00  0.24973201951E+03  0.24973201951E+03  0.00000000000E+00 0. -1.
         21   -1    0    0  501  502  0.00000000000E+00 -0.00000000000E+00 -0.26475218059E+03  0.26475218059E+03  0.00000000000E+00 0. -1.
         24    2    1    2    0    0 -0.27394644354E+02  0.17085878077E+03  0.94211162993E+02  0.21293904362E+03  0.80771923080E+02 0.  0.
         23    2    1    2    0    0  0.26855545546E+02 -0.12352517292E+03 -0.16605728523E+03  0.22758603993E+03  0.90778273402E+02 0.  0.
        -13    1    3    3    0    0 -0.85988196292E+01  0.38491375518E+02  0.65093571603E+02  0.76109780924E+02  0.00000000000E+00 0.  1.
         14    1    3    3    0    0 -0.18795824725E+02  0.13236740526E+03  0.29117591391E+02  0.13682926270E+03  0.00000000000E+00 0. -1.
        -11    1    4    4    0    0 -0.27105044133E+02 -0.15414007730E+02 -0.56253495434E+02  0.64317422214E+02  0.00000000000E+00 0.  1.
         11    1    4    4    0    0  0.53960589679E+02 -0.10811116519E+03 -0.10980378979E+03  0.16326861771E+03  0.00000000000E+00 0. -1.
          1    1    1    2  501    0  0.53909880771E+00 -0.47333607853E+02  0.56825961158E+02  0.73959116554E+02  0.00000000000E+00 0. -1.
<scales pt_clust_5="13000.00000" pt_clust_6="13000.00000" pt_clust_7="13000.00000" pt_clust_8="13000.00000" pt_clust_9="47.33670"></scales>
<clustering>
<clus scale="   47.337">  2  9  1 -1</clus>
<clus scale="   80.772">  5  6 -1 -1</clus>
<clus scale="   90.778">  7  8 -1 -1</clus>
<clus scale="  181.198">  1  5  2 -1</clus>
<clus scale="   47.337">  2  5  1 -1</clus>
</clustering>
</event>
<event>
 9    2  0.1751298E-004  0.9847933E+02  0.7546771E-02  0.1291564E+00
          2   -1    0    0  502    0 -0.00000000000E+00  0.00000000000E+00  0.36426290748E+03  0.36426290748E+03  0.00000000000E+00 0. -1.
         21   -1    0    0  501  502  0.00000000000E+00 -0.00000000000E+00 -0.43050297277E+02  0.43050297277E+02  0.00000000000E+00 0.  1.
         24    2    1    2    0    0  0.13494380067E+02 -0.16732991043E+02  0.24374374581E+03  0.25791282747E+03  0.81522522461E+02 0.  0.
         23    2    1    2    0    0 -0.32627159518E+02  0.92925094589E+01  0.45345138833E+02  0.11127744771E+03  0.95789386068E+02 0.  0.
        -13    1    3    3    0    0  0.25748536170E+02 -0.35358160211E+02  0.22368878678E+03  0.22792511915E+03  0.00000000000E+00 0.  1.
         14    1    3    3    0    0 -0.12254156103E+02  0.18625169169E+02  0.20054959024E+02  0.29987708312E+02  0.00000000000E+00 0. -1.
        -13    1    4    4    0    0 -0.17161420412E+02  0.24680459891E+02 -0.24073009576E+02  0.38511676685E+02  0.00000000000E+00 0.  1.
         13    1    4    4    0    0 -0.15465739106E+02 -0.15387950432E+02  0.69418148410E+02  0.72765771027E+02  0.00000000000E+00 0. -1.
          1    1    1    2  501    0  0.19132779451E+02  0.74404815837E+01  0.32123725565E+02  0.38122929582E+02  0.00000000000E+00 0. -1.
<scales pt_clust_5="13000.00000" pt_clust_6="13000.00000" pt_clust_7="13000.00000" pt_clust_8="13000.00000" pt_clust_9="20.52862"></scales>
<clustering>
<clus scale="   20.529">  2  9  1 -1</clus>
<clus scale="   81.523">  5  6 -1 -1</clus>
<clus scale="   84.667">  1  5  2 -1</clus>
<clus scale="   95.789">  7  8 -1 -1</clus>
<clus scale="   20.529">  2  5  1 -1</clus>
</clustering>
</event>
<event>
 9    2  0.1751298E-004  0.1711470E+03  0.7546771E-02  0.1197118E+00
         21   -1    0    0  501  502  0.00000000000E+00  0.00000000000E+00  0.13167175134E+03  0.13167175134E+03  0.00000000000E+00 0. -1.
         -1   -1    0    0    0  501 -0.00000000000E+00 -0.00000000000E+00 -0.47159628040E+03  0.47159628040E+03  0.00000000000E+00 0.  1.
         24    2    1    2    0    0 -0.16651432648E+02  0.67263598062E+02  0.18206210108E+02  0.11014999272E+03  0.83665363058E+02 0.  0.
         23    2    1    2    0    0 -0.87507119393E+02 -0.13633254435E+03 -0.11170619320E+03  0.21681280895E+03  0.91024512815E+02 0.  0.
        -11    1    3    3    0    0 -0.50863374094E+02  0.36268640390E+02  0.10661069696E+02  0.63373144999E+02  0.00000000000E+00 0.  1.
         12    1    3    3    0    0  0.34211941446E+02  0.30994957672E+02  0.75451404123E+01  0.46776847718E+02  0.00000000000E+00 0. -1.
        -11    1    4    4    0    0 -0.16790861506E+02 -0.10060140437E+03 -0.38740947250E+02  0.10910287157E+03  0.00000000000E+00 0.  1.
         11    1    4    4    0    0 -0.70716257887E+02 -0.35731139979E+02 -0.72965245949E+02  0.10770993738E+03  0.00000000000E+00 0. -1.
         -2    1    1    2    0  502  0.10415855204E+03  0.69068946290E+02 -0.24642454597E+03  0.27630523006E+03  0.00000000000E+00 0.  1.
<scales pt_clust_5="13000.00000" pt_clust_6="13000.00000" pt_clust_7="13000.00000" pt_clust_8="13000.00000" pt_clust_9="144.93400"></scales>
<clustering>
<clus scale="   83.665">  5  6 -1 -1</clus>
<clus scale="   91.025">  7  8 -1 -1</clus>
<clus scale="  108.635">  2  5  1 -1</clus>
<clus scale="  144.934">  1  9  2 -1</clus>
<clus scale="  144.934">  1  5  2 -1</clus>
</clustering>
</event>
<event>
 9    2  0.1751298E-004  0.1403130E+03  0.7546771E-02  0.1214974E+00
         21   -1    0    0  501  502  0.00000000000E+00  0.00000000000E+00  0.24038300016E+03  0.24038300016E+03  0.00000000000E+00 0.  1.
          2   -1    0    0  502    0 -0.00000000000E+00 -0.00000000000E+00 -0.20165658947E+03  0.20165658947E+03  0.00000000000E+00 0. -1.
         24    2    1    2    0    0 -0.95876133150E+02 -0.41943969712E+02 -0.13233545840E+03  0.18650028438E+03  0.79486810354E+02 0.  0.
         23    2    1    2    0    0  0.11921159577E+03  0.48826392323E+02  0.11491408431E+03  0.19434710565E+03  0.89275582039E+02 0.  0.
        -11    1    3    3    0    0 -0.46179481973E+02  0.11039406213E+02 -0.91702474797E+02  0.10326546823E+03  0.00000000000E+00 0.  1.
         12    1    3    3    0    0 -0.49696651177E+02 -0.52983375925E+02 -0.40632983599E+02  0.83234816146E+02  0.00000000000E+00 0. -1.
        -11    1    4    4    0    0  0.11043040587E+03  0.72078805985E+02  0.97344689426E+02  0.16390917415E+03  0.00000000000E+00 0.  1.
         11    1    4    4    0    0  0.87811899064E+01 -0.23252413663E+02  0.17569394883E+02  0.30437931498E+02  0.00000000000E+00 0. -1.
          1    1    1    2  501    0 -0.23335462624E+02 -0.68824226110E+01  0.56147784774E+02  0.61192199600E+02  0.00000000000E+00 0. -1.
<scales pt_clust_5="13000.00000" pt_clust_6="13000.00000" pt_clust_7="13000.00000" pt_clust_8="13000.00000" pt_clust_9="24.32923"></scales>
<clustering>
<clus scale="   24.329">  1  9  2 -1</clus>
<clus scale="   79.487">  5  6 -1 -1</clus>
<clus scale="   89.276">  7  8 -1 -1</clus>
<clus scale="  134.297">  2  5  1 -1</clus>
<clus scale="   24.329">  1  5  2 -1</clus>
</clustering>
</event>
<event>
 9    2  0.1751298E-004  0.2043655E+03  0.7546771E-02  0.1146970E+00
         21   -1    0    0  501  502  0.00000000000E+00  0.00000000000E+00  0.12858942916E+03  0.12858942916E+03  0.00000000000E+00 0. -1.
          2   -1    0    0  502    0 -0.00000000000E+00 -0.00000000000E+00 -0.38555143905E+03  0.38555143905E+03  0.00000000000E+00 0. -1.
         23    2    1    2    0    0  0.10123461237E+03 -0.14793058480E+03 -0.11153868508E+03  0.22998657931E+03  0.91219755170E+02 0.  0.
         24    2    1    2    0    0 -0.11653987530E+03  0.13410326573E+03 -0.86049445922E+02  0.22129966839E+03  0.10001903653E+03 0.  0.
        -11    1    4    4    0    0 -0.28139133306E+02 -0.13963520161E+02 -0.14471481424E+02  0.34586333907E+02  0.00000000000E+00 0.  1.
         12    1    4    4    0    0 -0.88400741996E+02  0.14806678590E+03 -0.71577964498E+02  0.18671333448E+03  0.00000000000E+00 0. -1.
        -11    1    3    3    0    0  0.41058686669E+02 -0.90913801022E+00 -0.33472256995E+02  0.52981452143E+02  0.00000000000E+00 0.  1.
         11    1    3    3    0    0  0.60175925702E+02 -0.14702144679E+03 -0.78066428087E+02  0.17700512717E+03  0.00000000000E+00 0. -1.
          1    1    1    2  501    0  0.15305262931E+02  0.13827319063E+02 -0.59373878881E+02  0.62854620508E+02  0.00000000000E+00 0. -1.
<scales pt_clust_5="13000.00000" pt_clust_6="13000.00000" pt_clust_7="13000.00000" pt_clust_8="13000.00000" pt_clust_9="20.62635"></scales>
<clustering>
<clus scale="   20.626">  1  9  2 -1</clus>
<clus scale="   91.220">  7  8 -1 -1</clus>
<clus scale="  100.019">  5  6 -1 -1</clus>
<clus scale="  200.206">  2  7  1 -1</clus>
<clus scale="   20.626">  1  5  2 -1</clus>
</clustering>
</event>
<event>
 9    2  0.1751298E-004  0.1793739E+03  0.7546771E-02  0.1169193E+00
          2   -1    0    0  502    0 -0.00000000000E+00  0.00000000000E+00  0.11145333158E+04  0.11145333158E+04  0.00000000000E+00 0. -1.
         21   -1    0    0  501  502  0.00000000000E+00 -0.00000000000E+00 -0.40083412127E+02  0.40083412127E+02  0.00000000000E+00 0. -1.
         24    2    1    2    0    0  0.45610528874E+01  0.14259883485E+03  0.56690973059E+03  0.59048021608E+03  0.83216657223E+02 0.  0.
         23    2    1    2    0    0  0.19784266473E+02 -0.17854505001E+03  0.44251363563E+03  0.48594907340E+03  0.89768770415E+02 0.  0.
        -13    1    3    3    0    0 -0.38666049882E+02  0.58643151576E+02  0.26463329946E+03  0.27379712530E+03  0.00000000000E+00 0.  1.
         14    1    3    3    0    0  0.43227102769E+02  0.83955683277E+02  0.30227643113E+03  0.31668309078E+03  0.00000000000E+00 0. -1.
        -11    1    4    4    0    0  0.13445400695E+02 -0.85957004119E+02  0.32368987653E+03  0.33517834287E+03  0.00000000000E+00 0. -1.
         11    1    4    4    0    0  0.63388657778E+01 -0.92588045886E+02  0.11882375909E+03  0.15077073053E+03  0.00000000000E+00 0.  1.
          1    1    1    2  501    0 -0.24345319360E+02  0.35946215153E+02  0.65026537507E+02  0.78187438497E+02  0.00000000000E+00 0. -1.
<scales pt_clust_5="13000.00000" pt_clust_6="13000.00000" pt_clust_7="13000.00000" pt_clust_8="13000.00000" pt_clust_9="43.41457"></scales>
<clustering>
<clus scale="   43.415">  2  9  1 -1</clus>
<clus scale="   83.217">  5  6 -1 -1</clus>
<clus scale="   89.769">  7  8 -1 -1</clus>
<clus scale="  176.186">  1  5  2 -1</clus>
<clus scale="   43.415">  2  5  1 -1</clus>
</clustering>
</event>
<event>
 9    2  0.1751298E-004  0.9162500E+02  0.7546771E-02  0.1304546E+00
         -3   -1    0    0    0  501 -0.00000000000E+00  0.00000000000E+00  0.10622906483E+03  0.10622906483E+03  0.00000000000E+00 0.  1.
         21   -1    0    0  501  502  0.00000000000E+00 -0.00000000000E+00 -0.15135239574E+03  0.15135239574E+03  0.00000000000E+00 0.  1.
         24    2    1    2    0    0  0.37510320431E+02 -0.49938990934E+00  0.11677810793E+02  0.89135213645E+02  0.80009008977E+02 0.  0.
         23    2    1    2    0    0  0.13745059602E+02  0.30259028332E+02 -0.16118773381E+02  0.96558799105E+02  0.89214636525E+02 0.  0.
        -13    1    3    3    0    0  0.21452487832E+02  0.39670898175E+02  0.64905979535E+01  0.45564429745E+02  0.00000000000E+00 0.  1.
         14    1    3    3    0    0  0.16057832599E+02 -0.40170288085E+02  0.51872128399E+01  0.43570783900E+02  0.00000000000E+00 0. -1.
        -11    1    4    4    0    0 -0.34792580029E+02 -0.48505502804E+01 -0.87507473149E+01  0.36202583357E+02  0.00000000000E+00 0. -1.
         11    1    4    4    0    0  0.48537639632E+02  0.35109578612E+02 -0.73680260665E+01  0.60356215748E+02  0.00000000000E+00 0.  1.
         -4    1    1    2    0  502 -0.51255380033E+02 -0.29759638422E+02 -0.40682368323E+02  0.71887447818E+02  0.00000000000E+00 0.  1.
<scales pt_clust_5="13000.00000" pt_clust_6="13000.00000" pt_clust_7="13000.00000" pt_clust_8="13000.00000" pt_clust_9="59.26846"></scales>
<clustering>
<clus scale="   59.268">  2  9  1 -1</clus>
<clus scale="   80.009">  5  6 -1 -1</clus>
<clus scale="   82.688">  1  5  2 -1</clus>
<clus scale="   89.215">  7  8 -1 -1</clus>
<clus scale="   59.268">  2  5  1 -1</clus>
</clustering>
</event>
<event>
 9    2  0.1751298E-004  0.9417408E+02  0.7546771E-02  0.1299644E+00
         21   -1    0    0  501  502  0.00000000000E+00  0.00000000000E+00  0.97345448594E+02  0.97345448594E+02  0.00000000000E+00 0. -1.
          2   -1    0    0  502    0 -0.00000000000E+00 -0.00000000000E+00 -0.13127427186E+03  0.13127427186E+03  0.00000000000E+00 0. -1.
         24    2    1    2    0    0 -0.17797717796E+02  0.13098479758E+02 -0.53198927244E+02  0.98682935641E+02  0.80124072513E+02 0.  0.
         23    2    1    2    0    0 -0.27033976904E+01 -0.35412340386E+02  0.11719167094E+02  0.98708260025E+02  0.91348998403E+02 0.  0.
        -13    1    3    3    0    0 -0.17993793925E+01  0.42160723634E+02 -0.85469242843E+01  0.43055943820E+02  0.00000000000E+00 0.  1.
         14    1    3    3    0    0 -0.15998338404E+02 -0.29062243875E+02 -0.44652002959E+02  0.55626991821E+02  0.00000000000E+00 0. -1.
        -13    1    4    4    0    0 -0.44901746933E+02 -0.16045550925E+02  0.19709457066E+02  0.51595438558E+02  0.00000000000E+00 0. -1.
         13    1    4    4    0    0  0.42198349242E+02 -0.19366789461E+02 -0.79902899719E+01  0.47112821468E+02  0.00000000000E+00 0.  1.
          1    1    1    2  501    0  0.20501115486E+02  0.22313860628E+02  0.75509368872E+01  0.31228524784E+02  0.00000000000E+00 0. -1.
<scales pt_clust_5="13000.00000" pt_clust_6="13000.00000" pt_clust_7="13000.00000" pt_clust_8="13000.00000" pt_clust_9="30.30188"></scales>
<clustering>
<clus scale="   30.302">  1  9  2 -1</clus>
<clus scale="   80.124">  5  6 -1 -1</clus>
<clus scale="   83.331">  2  5  1 -1</clus>
<clus scale="   91.349">  7  8 -1 -1</clus>
<clus scale="   30.302">  1  5  2 -1</clus>
</clustering>
</event>
<event>
 9    2  0.1751298E-004  0.9630746E+02  0.7546771E-02  0.1296623E+00
         21   -1    0    0  501  502  0.00000000000E+00  0.00000000000E+00  0.44543013993E+02  0.44543013993E+02  0.00000000000E+00 0.  1.
         -3   -1    0    0    0  501 -0.00000000000E+00 -0.00000000000E+00 -0.22786999542E+03  0.22786999542E+03  0.00000000000E+00 0.  1.
         24    2    1    2    0    0  0.18056401203E+02  0.38880023679E+01 -0.85407668422E+02  0.11750520449E+03  0.78561142246E+02 0.  0.
         23    2    1    2    0    0 -0.28443669810E+02 -0.21440956761E+02 -0.81543273129E+02  0.12875104214E+03  0.93052503890E+02 0.  0.
        -13    1    3    3    0    0 -0.16525910920E+01  0.24917626081E+02  0.24008740091E+01  0.25087513684E+02  0.00000000000E+00 0.  1.
         14    1    3    3    0    0  0.19708992295E+02 -0.21029623713E+02 -0.87808542431E+02  0.92417690810E+02  0.00000000000E+00 0. -1.
        -13    1    4    4    0    0  0.20620650818E+02 -0.38595855982E+02 -0.55316814782E+02  0.70532271598E+02  0.00000000000E+00 0.  1.
         13    1    4    4    0    0 -0.49064320628E+02  0.17154899221E+02 -0.26226458347E+02  0.58218770542E+02  0.00000000000E+00 0. -1.
         -4    1    1    2    0  502  0.10387268607E+02  0.17552954393E+02 -0.16376039875E+02  0.26156762778E+02  0.00000000000E+00 0.  1.
<scales pt_clust_5="13000.00000" pt_clust_6="13000.00000" pt_clust_7="13000.00000" pt_clust_8="13000.00000" pt_clust_9="20.39612"></scales>
<clustering>
<clus scale="   20.396">  1  9  2 -1</clus>
<clus scale="   78.561">  5  6 -1 -1</clus>
<clus scale="   82.391">  2  5  1 -1</clus>
<clus scale="   93.053">  7  8 -1 -1</clus>
<clus scale="   20.396">  1  5  2 -1</clus>
</clustering>
</event>
<event>
 9    2  0.1751298E-004  0.1156191E+03  0.7546771E-02  0.1254671E+00
          2   -1    0    0  502    0 -0.00000000000E+00  0.00000000000E+00  0.21494731709E+03  0.21494731709E+03  0.00000000000E+00 0. -1.
         21   -1    0    0  501  502  0.00000000000E+00 -0.00000000000E+00 -0.12410919304E+03  0.12410919304E+03  0.00000000000E+00 0.  1.
         23    2    1    2    0    0 -0.37666234240E+02  0.53908837368E+02  0.13539081200E+03  0.17590390023E+03  0.91030776082E+02 0.  0.
         24    2    1    2    0    0  0.61857822882E+02 -0.65123666241E+02 -0.10772790081E+02  0.12011673130E+03  0.79022110680E+02 0.  0.
        -11    1    4    4    0    0  0.20920972966E+02 -0.37802035213E+02 -0.43263571665E+02  0.61142600609E+02  0.00000000000E+00 0.  1.
         12    1    4    4    0    0  0.40936849916E+02 -0.27321631029E+02  0.32490781584E+02  0.58974130693E+02  0.00000000000E+00 0. -1.
        -13    1    3    3    0    0 -0.67868367359E+02  0.38503790556E+02  0.87673584116E+02  0.11736828587E+03  0.00000000000E+00 0.  1.
         13    1    3    3    0    0  0.30202133119E+02  0.15405046812E+02  0.47717227881E+02  0.58535614363E+02  0.00000000000E+00 0. -1.
          1    1    1    2  501    0 -0.24191588642E+02  0.11214828873E+02 -0.33779897863E+02  0.43035878605E+02  0.00000000000E+00 0. -1.
<scales pt_clust_5="13000.00000" pt_clust_6="13000.00000" pt_clust_7="13000.00000" pt_clust_8="13000.00000" pt_clust_9="26.66468"></scales>
<clustering>
<clus scale="   26.665">  2  9  1 -1</clus>
<clus scale="   79.022">  5  6 -1 -1</clus>
<clus scale="   91.031">  7  8 -1 -1</clus>
<clus scale="  106.422">  2  5  1 -1</clus>
<clus scale="   26.665">  2  5  1 -1</clus>
</clustering>
</event>
<event>
 9    2  0.3431880E-004  0.2697811E+03  0.7546771E-02  0.1101410E+00
         -3   -1    0    0    0  501 -0.00000000000E+00  0.00000000000E+00  0.81560378596E+03  0.81560378596E+03  0.00000000000E+00 0.  1.
         21   -1    0    0  501  502  0.00000000000E+00 -0.00000000000E+00 -0.23814171988E+03  0.23814171988E+03  0.00000000000E+00 0.  1.
         23    2    1    2    0    0  0.20015800173E+03 -0.12185906945E+03  0.19758756120E+03  0.31971117359E+03  0.90892968430E+02 0.  0.
         24    2    1    2    0    0 -0.30696650398E+03  0.80152582425E+02 -0.74066306804E+01  0.33013562568E+03  0.91004407222E+02 0.  0.
        -11    1    4    4    0    0 -0.27090379222E+03  0.98980807684E+02  0.17971528573E+01  0.28842554444E+03  0.00000000000E+00 0.  1.
         12    1    4    4    0    0 -0.36062711762E+02 -0.18828225259E+02 -0.92037835377E+01  0.41710081245E+02  0.00000000000E+00 0. -1.
        -13    1    3    3    0    0  0.52465255844E+02  0.80342069701E+01  0.57399536477E+02  0.78178375144E+02  0.00000000000E+00 0.  1.
         13    1    3    3    0    0  0.14769274589E+03 -0.12989327642E+03  0.14018802472E+03  0.24153279844E+03  0.00000000000E+00 0. -1.
         -4    1    1    2    0  502  0.10680850224E+03  0.41706487028E+02  0.38728113556E+03  0.40389870657E+03  0.00000000000E+00 0.  1.
<scales pt_clust_5="13000.00000" pt_clust_6="13000.00000" pt_clust_7="13000.00000" pt_clust_8="13000.00000" pt_clust_9="114.66255"></scales>
<clustering>
<clus scale="   90.893">  7  8 -1 -1</clus>
<clus scale="   91.004">  5  6 -1 -1</clus>
<clus scale="  114.663">  2  9  1 -1</clus>
<clus scale="  269.744">  1  7  2 -1</clus>
<clus scale="  114.663">  2  5  1 -1</clus>
</clustering>
</event>
<event>
 9    2  0.1751298E-004  0.1184185E+03  0.7546771E-02  0.1249234E+00
          2   -1    0    0  502    0 -0.00000000000E+00  0.00000000000E+00  0.99883488501E+03  0.99883488501E+03  0.00000000000E+00 0. -1.
         21   -1    0    0  501  502  0.00000000000E+00 -0.00000000000E+00 -0.66258576823E+02  0.66258576823E+02  0.00000000000E+00 0. -1.
         24    2    1    2    0    0  0.81491480544E+02  0.42822659766E+02  0.25206657399E+03  0.27980606406E+03  0.79241618910E+02 0.  0.
         23    2    1    2    0    0  0.16056049846E+01 -0.45485419971E+02  0.12471184176E+01  0.10095566747E+03  0.90105438750E+02 0.  0.
        -13    1    3    3    0    0  0.13743722989E+02 -0.18581479649E+02  0.97663803019E+02  0.10036124614E+03  0.00000000000E+00 0.  1.
         14    1    3    3    0    0  0.67747757555E+02  0.61404139414E+02  0.15440277097E+03  0.17944481791E+03  0.00000000000E+00 0. -1.
        -11    1    4    4    0    0  0.14044995633E+02 -0.67092233725E+02 -0.16312552467E+02  0.70460833777E+02  0.00000000000E+00 0. -1.
         11    1    4    4    0    0 -0.12439390649E+02  0.21606813754E+02  0.17559670885E+02  0.30494833691E+02  0.00000000000E+00 0.  1.
          1    1    1    2  501    0 -0.83097085529E+02  0.26627602055E+01  0.67926261577E+03  0.68433173031E+03  0.00000000000E+00 0. -1.
<scales pt_clust_5="13000.00000" pt_clust_6="13000.00000" pt_clust_7="13000.00000" pt_clust_8="13000.00000" pt_clust_9="83.13978"></scales>
<clustering>
<clus scale="   79.242">  5  6 -1 -1</clus>
<clus scale="   83.140">  2  9  1 -1</clus>
<clus scale="   90.105">  7  8 -1 -1</clus>
<clus scale="  110.378">  1  5  2 -1</clus>
<clus scale="   83.140">  2  5  1 -1</clus>
</clustering>
</event>
<event>
 9    2  0.1751298E-004  0.9565047E+02  0.7546771E-02  0.1294006E+00
         21   -1    0    0  501  502  0.00000000000E+00  0.00000000000E+00  0.15026169330E+02  0.15026169330E+02  0.00000000000E+00 0.  1.
          2   -1    0    0  502    0 -0.00000000000E+00 -0.00000000000E+00 -0.87161227385E+03  0.87161227385E+03  0.00000000000E+00 0. -1.
         24    2    1    2    0    0 -0.73342690730E+01  0.24224536346E+02 -0.51073613780E+03  0.51812125546E+03  0.83412308675E+02 0.  0.
         23    2    1    2    0    0  0.30018651895E+02 -0.26430948191E+02 -0.31362486309E+03  0.32904685987E+03  0.91167794497E+02 0.  0.
        -13    1    3    3    0    0  0.38182544213E+02  0.11476078943E+02 -0.24042087477E+03  0.24370433745E+03  0.00000000000E+00 0.  1.
         14    1    3    3    0    0 -0.45516813286E+02  0.12748457403E+02 -0.27031526304E+03  0.27441691801E+03  0.00000000000E+00 0. -1.
        -13    1    4    4    0    0  0.38677789585E+02  0.25650592040E+02 -0.13306191599E+03  0.14092337551E+03  0.00000000000E+00 0.  1.
         13    1    4    4    0    0 -0.86591376899E+01 -0.52081540230E+02 -0.18056294710E+03  0.18812348435E+03  0.00000000000E+00 0. -1.
          1    1    1    2  501    0 -0.22684382822E+02  0.22064118449E+01 -0.32225103623E+02  0.39470327853E+02  0.00000000000E+00 0. -1.
<scales pt_clust_5="13000.00000" pt_clust_6="13000.00000" pt_clust_7="13000.00000" pt_clust_8="13000.00000" pt_clust_9="22.79143"></scales>
<clustering>
<clus scale="   22.791">  1  9  2 -1</clus>
<clus scale="   83.412">  5  6 -1 -1</clus>
<clus scale="   88.290">  2  5  1 -1</clus>
<clus scale="   91.168">  7  8 -1 -1</clus>
<clus scale="   22.791">  1  5  2 -1</clus>
</clustering>
</event>
<event>
 9    2  0.1751298E-004  0.1409848E+03  0.7546771E-02  0.1214100E+00
          2   -1    0    0  502    0 -0.00000000000E+00  0.00000000000E+00  0.25239668621E+03  0.25239668621E+03  0.00000000000E+00 0. -1.
         21   -1    0    0  501  502  0.00000000000E+00 -0.00000000000E+00 -0.10307129691E+03  0.10307129691E+03  0.00000000000E+00 0. -1.
         24    2    1    2    0    0  0.84898992670E+02  0.39260342111E+02  0.52226540658E+02  0.13457524784E+03  0.81447359465E+02 0.  0.
         23    2    1    2    0    0 -0.96373352565E+02 -0.80715376007E+02  0.78420772758E+02  0.17399869206E+03  0.91230105940E+02 0.  0.
        -13    1    3    3    0    0  0.30314149451E+02 -0.23444219744E+02  0.41648910407E+01  0.38547703093E+02  0.00000000000E+00 0.  1.
         14    1    3    3    0    0  0.54584843219E+02  0.62704561856E+02  0.48061649617E+02  0.96027544750E+02  0.00000000000E+00 0. -1.
        -11    1    4    4    0    0 -0.71560987701E+02 -0.71519677905E+02  0.11241750131E+02  0.10179595392E+03  0.00000000000E+00 0. -1.
         11    1    4    4    0    0 -0.24812364863E+02 -0.91956981017E+01  0.67179022627E+02  0.72202738139E+02  0.00000000000E+00 0.  1.
          1    1    1    2  501    0  0.11474359895E+02  0.41455033896E+02  0.18678075889E+02  0.46894043217E+02  0.00000000000E+00 0. -1.
<scales pt_clust_5="13000.00000" pt_clust_6="13000.00000" pt_clust_7="13000.00000" pt_clust_8="13000.00000" pt_clust_9="43.01373"></scales>
<clustering>
<clus scale="   43.014">  2  9  1 -1</clus>
<clus scale="   81.447">  5  6 -1 -1</clus>
<clus scale="   91.230">  7  8 -1 -1</clus>
<clus scale="  134.861">  1  5  2 -1</clus>
<clus scale="   43.014">  2  5  1 -1</clus>
</clustering>
</event>
<event>
 9    2  0.1751298E-004  0.9947163E+02  0.7546771E-02  0.1282103E+00
         21   -1    0    0  501  502  0.00000000000E+00  0.00000000000E+00  0.24849699338E+03  0.24849699338E+03  0.00000000000E+00 0.  1.
         -1   -1    0    0    0  501 -0.00000000000E+00 -0.00000000000E+00 -0.23204218857E+03  0.23204218857E+03  0.00000000000E+00 0.  1.
         23    2    1    2    0    0  0.43337658977E+02 -0.78171577228E+01 -0.16598902696E+03  0.19282597567E+03  0.87694008796E+02 0.  0.
         24    2    1    2    0    0 -0.94600513305E+02 -0.43773185776E+02  0.16417278695E+03  0.21272470813E+03  0.86219189074E+02 0.  0.
        -11    1    4    4    0    0 -0.55040890659E+02 -0.65829626360E+02  0.13092467093E+03  0.15653852180E+03  0.00000000000E+00 0.  1.
         12    1    4    4    0    0 -0.39559622646E+02  0.22056440584E+02  0.33248116022E+02  0.56186186328E+02  0.00000000000E+00 0. -1.
        -13    1    3    3    0    0  0.27266847347E+02 -0.37552043375E+02 -0.14679612697E+03  0.15395694144E+03  0.00000000000E+00 0.  1.
         13    1    3    3    0    0  0.16070811630E+02  0.29734885652E+02 -0.19192899998E+02  0.38869034224E+02  0.00000000000E+00 0. -1.
         -2    1    1    2    0  502  0.51262854328E+02  0.51590343499E+02  0.18271044826E+02  0.74988498152E+02  0.00000000000E+00 0.  1.
<scales pt_clust_5="13000.00000" pt_clust_6="13000.00000" pt_clust_7="13000.00000" pt_clust_8="13000.00000" pt_clust_9="72.72856"></scales>
<clustering>
<clus scale="   72.729">  1  9  2 -1</clus>
<clus scale="   86.219">  5  6 -1 -1</clus>
<clus scale="   87.694">  7  8 -1 -1</clus>
<clus scale="   98.174">  1  5  2 -1</clus>
<clus scale="   72.729">  1  5  2 -1</clus>
</clustering>
</event>
<event>
 9    2  0.1751298E-004  0.4181457E+03  0.7546771E-02  0.1093657E+00
         -1   -1    0    0    0  501 -0.00000000000E+00  0.00000000000E+00  0.77549187352E+03  0.77549187352E+03  0.00000000000E+00 0.  1.
         21   -1    0    0  501  502  0.00000000000E+00 -0.00000000000E+00 -0.32102934095E+03  0.32102934095E+03  0.00000000000E+00 0.  1.
         24    2    1    2    0    0 -0.35304972054E+02 -0.96406575771E+01  0.17746525496E+03  0.19838438488E+03  0.80765488392E+02 0.  0.
         23    2    1    2    0    0 -0.30596498215E+03 -0.25009625359E+03  0.38844806475E+02  0.40758097734E+03  0.91927295959E+02 0.  0.
        -11    1    3    3    0    0 -0.10096704344E+01 -0.41247180797E+02  0.96437759747E+02  0.10489323555E+03  0.00000000000E+00 0.  1.
         12    1    3    3    0    0 -0.34295301619E+02  0.31606523219E+02  0.81027495216E+02  0.93491149336E+02  0.00000000000E+00 0. -1.
        -11    1    4    4    0    0 -0.18073763981E+03 -0.15497579469E+03  0.68088272446E+02  0.24762795526E+03  0.00000000000E+00 0. -1.
         11    1    4    4    0    0 -0.12522734234E+03 -0.95120458894E+02 -0.29243465971E+02  0.15995302208E+03  0.00000000000E+00 0.  1.
         -2    1    1    2    0  502  0.34126995420E+03  0.25973691116E+03  0.23815247114E+03  0.49055585224E+03  0.00000000000E+00 0.  1.
<scales pt_clust_5="13000.00000" pt_clust_6="13000.00000" pt_clust_7="13000.00000" pt_clust_8="13000.00000" pt_clust_9="407.91589"></scales>
<clustering>
<clus scale="   80.765">  5  6 -1 -1</clus>
<clus scale="   88.670">  1  5  2 -1</clus>
<clus scale="   91.927">  7  8 -1 -1</clus>
<clus scale="  407.916">  2  9  1 -1</clus>
<clus scale="  407.916">  2  5  1 -1</clus>
</clustering>
</event>
<event>
 9    2  0.1751298E-004  0.2807430E+03  0.7546771E-02  0.1095772E+00
         21   -1    0    0  501  502  0.00000000000E+00  0.00000000000E+00  0.65364147868E+02  0.65364147868E+02  0.00000000000E+00 0.  1.
          2   -1    0    0  502    0 -0.00000000000E+00 -0.00000000000E+00 -0.23457939014E+04  0.23457939014E+04  0.00000000000E+00 0. -1.
         24    2    1    2    0    0  0.26682879101E+03 -0.33420868604E+01 -0.15089890980E+04  0.15345284307E+04  0.80750440967E+02 0.  0.
         23    2    1    2    0    0 -0.25709678965E+03 -0.79214840936E+02 -0.36998510876E+03  0.46665777286E+03  0.92232022609E+02 0.  0.
        -11    1    3    3    0    0  0.38940705070E+02  0.12676010202E+02 -0.11799801237E+03  0.12490232451E+03  0.00000000000E+00 0.  1.
         12    1    3    3    0    0  0.22788808594E+03 -0.16018097062E+02 -0.13909910856E+04  0.14096261062E+04  0.00000000000E+00 0. -1.
        -13    1    4    4    0    0 -0.10658029500E+03 -0.11572436141E+02 -0.82878676569E+02  0.13550703151E+03  0.00000000000E+00 0.  1.
         13    1    4    4    0    0 -0.15051649465E+03 -0.67642404795E+02 -0.28710643219E+03  0.33115074135E+03  0.00000000000E+00 0. -1.
          1    1    1    2  501    0 -0.97320013585E+01  0.82556927796E+02 -0.40145554683E+03  0.40997184569E+03  0.00000000000E+00 0. -1.
<scales pt_clust_5="13000.00000" pt_clust_6="13000.00000" pt_clust_7="13000.00000" pt_clust_8="13000.00000" pt_clust_9="83.12861"></scales>
<clustering>
<clus scale="   80.750">  5  6 -1 -1</clus>
<clus scale="   83.129">  1  9  2 -1</clus>
<clus scale="   92.232">  7  8 -1 -1</clus>
<clus scale="  277.183">  2  5  1 -1</clus>
<clus scale="   83.129">  1  5  2 -1</clus>
</clustering>
</event>
<event>
 9    2  0.1751298E-004  0.1194603E+03  0.7546771E-02  0.1251329E+00
          4   -1    0    0  502    0 -0.00000000000E+00  0.00000000000E+00  0.58439169631E+03  0.58439169631E+03  0.00000000000E+00 0. -1.
         21   -1    0    0  501  502  0.00000000000E+00 -0.00000000000E+00 -0.13349526910E+03  0.13349526910E+03  0.00000000000E+00 0.  1.
         23    2    1    2    0    0  0.44123997468E+02  0.31413343833E+02  0.24093651500E+03  0.26207267586E+03  0.87738006892E+02 0.  0.
         24    2    1    2    0    0  0.83902424950E+02  0.70923376026E+01 -0.76877827221E+02  0.13935048261E+03  0.80115157864E+02 0.  0.
        -11    1    4    4    0    0  0.92074218873E+02 -0.83195030469E+01 -0.44565836349E+02  0.10263035458E+03  0.00000000000E+00 0.  1.
         12    1    4    4    0    0 -0.81717939231E+01  0.15411840650E+02 -0.32311990872E+02  0.36720128026E+02  0.00000000000E+00 0. -1.
        -13    1    3    3    0    0 -0.25728369637E+02  0.20904552555E+01  0.82723129005E+02  0.86656996716E+02  0.00000000000E+00 0.  1.
         13    1    3    3    0    0  0.69852367105E+02  0.29322888578E+02  0.15821338599E+03  0.17541567915E+03  0.00000000000E+00 0. -1.
          3    1    1    2  501    0 -0.12802642242E+03 -0.38505681436E+02  0.28683773943E+03  0.31646380694E+03  0.00000000000E+00 0. -1.
<scales pt_clust_5="13000.00000" pt_clust_6="13000.00000" pt_clust_7="13000.00000" pt_clust_8="13000.00000" pt_clust_9="88.61344"></scales>
<clustering>
<clus scale="   80.115">  5  6 -1 -1</clus>
<clus scale="   87.738">  7  8 -1 -1</clus>
<clus scale="  103.110">  1  7  2 -1</clus>
<clus scale="   88.613">  2  9  1 -1</clus>
<clus scale="   88.613">  2  5  1 -1</clus>
</clustering>
</event>
<event>
 9    2  0.1751298E-004  0.1045804E+03  0.7546771E-02  0.1276197E+00
          2   -1    0    0  502    0 -0.00000000000E+00  0.00000000000E+00  0.13867756111E+03  0.13867756111E+03  0.00000000000E+00 0. -1.
         21   -1    0    0  501  502  0.00000000000E+00 -0.00000000000E+00 -0.27630157448E+03  0.27630157448E+03  0.00000000000E+00 0.  1.
         23    2    1    2    0    0  0.45886086925E+02 -0.35752795516E+01  0.71184036037E+02  0.12497341138E+03  0.91830664638E+02 0.  0.
         24    2    1    2    0    0 -0.80677491333E+02  0.34966742691E+02 -0.21190730627E+03  0.24304327994E+03  0.80210964137E+02 0.  0.
        -11    1    4    4    0    0 -0.37298944246E+02  0.39184293178E+02 -0.44479926465E+02  0.70036304386E+02  0.00000000000E+00 0.  1.
         12    1    4    4    0    0 -0.43378547087E+02 -0.42175504869E+01 -0.16742737981E+03  0.17300697555E+03  0.00000000000E+00 0. -1.
        -11    1    3    3    0    0  0.48480732863E+01 -0.40545168189E+02  0.90256007531E+01  0.41819564166E+02  0.00000000000E+00 0.  1.
         11    1    3    3    0    0  0.41038013639E+02  0.36969888638E+02  0.62158435283E+02  0.83153847212E+02  0.00000000000E+00 0. -1.
          1    1    1    2  501    0  0.34791404408E+02 -0.31391463140E+02  0.30992568687E+01  0.46962444271E+02  0.00000000000E+00 0. -1.
<scales pt_clust_5="13000.00000" pt_clust_6="13000.00000" pt_clust_7="13000.00000" pt_clust_8="13000.00000" pt_clust_9="46.86009"></scales>
<clustering>
<clus scale="   46.860">  2  9  1 -1</clus>
<clus scale="   80.211">  5  6 -1 -1</clus>
<clus scale="   91.831">  7  8 -1 -1</clus>
<clus scale="   94.541">  2  5  1 -1</clus>
<clus scale="   46.860">  2  5  1 -1</clus>
</clustering>
</event>
<event>
 9    2  0.1751298E-004  0.1453211E+03  0.7546771E-02  0.1209947E+00
         21   -1    0    0  501  502  0.00000000000E+00  0.00000000000E+00  0.36178471630E+02  0.36178471630E+02  0.00000000000E+00 0. -1.
          4   -1    0    0  502    0 -0.00000000000E+00 -0.00000000000E+00 -0.78297050110E+03  0.78297050110E+03  0.00000000000E+00 0. -1.
         24    2    1    2    0    0 -0.59100382917E+02  0.95674730841E+02 -0.42892491015E+03  0.45067731468E+03  0.80541629194E+02 0.  0.
         23    2    1    2    0    0  0.21178281836E+02 -0.10010901816E+03 -0.20250377269E+03  0.24695437368E+03  0.97510766536E+02 0.  0.
        -11    1    3    3    0    0  0.14970057842E+02  0.33404556007E+02 -0.17832101183E+03  0.18203941951E+03  0.00000000000E+00 0.  1.
         12    1    3    3    0    0 -0.74070440759E+02  0.62270174834E+02 -0.25060389832E+03  0.26863789517E+03  0.00000000000E+00 0. -1.
        -13    1    4    4    0    0  0.19486764119E+02  0.10313207289E+02 -0.83223567186E+01  0.23566031524E+02  0.00000000000E+00 0.  1.
         13    1    4    4    0    0  0.16915177168E+01 -0.11042222545E+03 -0.19418141597E+03  0.22338834216E+03  0.00000000000E+00 0. -1.
          3    1    1    2  501    0  0.37922101082E+02  0.44342873199E+01 -0.11536334664E+03  0.12151728438E+03  0.00000000000E+00 0. -1.
<scales pt_clust_5="13000.00000" pt_clust_6="13000.00000" pt_clust_7="13000.00000" pt_clust_8="13000.00000" pt_clust_9="38.18049"></scales>
<clustering>
<clus scale="   38.180">  1  9  2 -1</clus>
<clus scale="   80.542">  5  6 -1 -1</clus>
<clus scale="   97.511">  7  8 -1 -1</clus>
<clus scale="  134.524">  2  5  1 -1</clus>
<clus scale="   38.180">  1  5  2 -1</clus>
</clustering>
</event>
<event>
 9    2  0.1751298E-004  0.1810049E+03  0.7546771E-02  0.1181892E+00
          2   -1    0    0  502    0 -0.00000000000E+00  0.00000000000E+00  0.51928049517E+03  0.51928049517E+03  0.00000000000E+00 0. -1.
         21   -1    0    0  501  502  0.00000000000E+00 -0.00000000000E+00 -0.17136589079E+03  0.17136589079E+03  0.00000000000E+00 0. -1.
         23    2    1    2    0    0  0.91135360773E+02  0.98952506532E+01 -0.66736525539E+02  0.14488250490E+03  0.90186509059E+02 0.  0.
         24    2    1    2    0    0  0.34206054276E+02 -0.14506308117E+03  0.20975349413E+03  0.27014847167E+03  0.82281934720E+02 0.  0.
        -13    1    4    4    0    0 -0.10608788049E+01 -0.25872953763E+02  0.10329713370E+03  0.10649334735E+03  0.00000000000E+00 0.  1.
         14    1    4    4    0    0  0.35266933080E+02 -0.11919012741E+03  0.10645636043E+03  0.16365512432E+03  0.00000000000E+00 0. -1.
        -11    1    3    3    0    0  0.65176303569E+02 -0.31762244292E+02 -0.62309435538E+02  0.95599458505E+02  0.00000000000E+00 0.  1.
         11    1    3    3    0    0  0.25959057205E+02  0.41657494946E+02 -0.44270900014E+01  0.49283046395E+02  0.00000000000E+00 0. -1.
          1    1    1    2  501    0 -0.12534141505E+03  0.13516783052E+03  0.20489763580E+03  0.27561540938E+03  0.00000000000E+00 0. -1.
<scales pt_clust_5="13000.00000" pt_clust_6="13000.00000" pt_clust_7="13000.00000" pt_clust_8="13000.00000" pt_clust_9="161.22181"></scales>
<clustering>
<clus scale="   82.282">  5  6 -1 -1</clus>
<clus scale="   90.187">  7  8 -1 -1</clus>
<clus scale="  128.597">  1  7  2 -1</clus>
<clus scale="  161.222">  2  9  1 -1</clus>
<clus scale="  161.222">  2  5  1 -1</clus>
</clustering>
</event>
<event>
 9    2  0.1751298E-004  0.1105860E+03  0.7546771E-02  0.1262965E+00
          2   -1    0    0  502    0 -0.00000000000E+00  0.00000000000E+00  0.18946777724E+03  0.18946777724E+03  0.00000000000E+00 0. -1.
         21   -1    0    0  501  502  0.00000000000E+00 -0.00000000000E+00 -0.30657903748E+03  0.30657903748E+03  0.00000000000E+00 0.  1.
         24    2    1    2    0    0  0.39466258504E+02  0.46017952910E+02  0.14268903028E+03  0.17547182139E+03  0.82188583093E+02 0.  0.
         23    2    1    2    0    0 -0.23769827435E+02 -0.95713474171E+02 -0.20377579232E+03  0.24405854294E+03  0.91180727195E+02 0.  0.
        -13    1    3    3    0    0  0.35311997025E+02  0.66999403743E+02  0.84482564804E+02  0.11345995325E+03  0.00000000000E+00 0.  1.
         14    1    3    3    0    0  0.41542614788E+01 -0.20981450833E+02  0.58206465474E+02  0.62011868142E+02  0.00000000000E+00 0. -1.
        -13    1    4    4    0    0 -0.26388460066E+02 -0.60559253717E+02 -0.41533677680E+02  0.78030893991E+02  0.00000000000E+00 0. -1.
         13    1    4    4    0    0  0.26186326315E+01 -0.35154220454E+02 -0.16224211464E+03  0.16602764895E+03  0.00000000000E+00 0.  1.
          1    1    1    2  501    0 -0.15696431070E+02  0.49695521261E+02 -0.56024498205E+02  0.76516450393E+02  0.00000000000E+00 0. -1.
<scales pt_clust_5="13000.00000" pt_clust_6="13000.00000" pt_clust_7="13000.00000" pt_clust_8="13000.00000" pt_clust_9="52.11548"></scales>
<clustering>
<clus scale="   52.115">  2  9  1 -1</clus>
<clus scale="   82.189">  5  6 -1 -1</clus>
<clus scale="   91.181">  7  8 -1 -1</clus>
<clus scale="  103.297">  1  5  2 -1</clus>
<clus scale="   52.115">  2  5  1 -1</clus>
</clustering>
</event>
<event>
 9    2  0.1751298E-004  0.1335349E+03  0.7546771E-02  0.1224077E+00
          2   -1    0    0  502    0 -0.00000000000E+00  0.00000000000E+00  0.73641040270E+03  0.73641040270E+03  0.00000000000E+00 0. -1.
         21   -1    0    0  501  502  0.00000000000E+00 -0.00000000000E+00 -0.85764726122E+02  0.85764726122E+02  0.00000000000E+00 0. -1.
         24    2    1    2    0    0  0.30056337022E+02 -0.13395261786E+03  0.49431692482E+03  0.51956209056E+03  0.82151424539E+02 0.  0.
         23    2    1    2    0    0 -0.56787586578E+02  0.30547961877E+02  0.16158630589E+03  0.19567976721E+03  0.89568013704E+02 0.  0.
        -13    1    3    3    0    0  0.46491796769E+02 -0.90938589434E+02  0.23568861019E+03  0.25686657079E+03  0.00000000000E+00 0.  1.
         14    1    3    3    0    0 -0.16435459747E+02 -0.43014028428E+02  0.25862831463E+03  0.26269551977E+03  0.00000000000E+00 0. -1.
        -11    1    4    4    0    0 -0.10374624688E+02  0.55031578011E+02  0.65313942321E+02  0.86034984032E+02  0.00000000000E+00 0.  1.
         11    1    4    4    0    0 -0.46412961891E+02 -0.24483616134E+02  0.96272363573E+02  0.10964478318E+03  0.00000000000E+00 0. -1.
          1    1    1    2  501    0  0.26731249556E+02  0.10340465599E+03 -0.52575541388E+01  0.10693327105E+03  0.00000000000E+00 0. -1.
<scales pt_clust_5="13000.00000" pt_clust_6="13000.00000" pt_clust_7="13000.00000" pt_clust_8="13000.00000" pt_clust_9="106.80394"></scales>
<clustering>
<clus scale="   82.151">  5  6 -1 -1</clus>
<clus scale="   89.568">  7  8 -1 -1</clus>
<clus scale="  106.804">  2  9  1 -1</clus>
<clus scale="  128.678">  1  5  2 -1</clus>
<clus scale="  106.804">  2  5  1 -1</clus>
</clustering>
</event>
<event>
 9    2  0.1751298E-004  0.1743675E+03  0.7546771E-02  0.1175808E+00
         21   -1    0    0  501  502  0.00000000000E+00  0.00000000000E+00  0.19123835619E+03  0.19123835619E+03  0.00000000000E+00 0. -1.
         -1   -1    0    0    0  501 -0.00000000000E+00 -0.00000000000E+00 -0.20507463277E+03  0.20507463277E+03  0.00000000000E+00 0.  1.
         24    2    1    2    0    0  0.40575537417E+02 -0.15345208133E+03 -0.72837817810E+02  0.18935290716E+03  0.73179643670E+02 0.  0.
         23    2    1    2    0    0 -0.44544998979E+02  0.12275823316E+03  0.26655641292E+02  0.16219261389E+03  0.92423373910E+02 0.  0.
        -11    1    3    3    0    0  0.31523784571E+02 -0.13231945625E+03 -0.87822971943E+02  0.16191066023E+03  0.00000000000E+00 0.  1.
         12    1    3    3    0    0  0.90517528460E+01 -0.21132625073E+02  0.14985154133E+02  0.27442246928E+02  0.00000000000E+00 0. -1.
        -11    1    4    4    0    0 -0.21054412747E+02  0.12826565899E+03  0.38152654072E+02  0.13546583549E+03  0.00000000000E+00 0.  1.
         11    1    4    4    0    0 -0.23490586232E+02 -0.55074258294E+01 -0.11497012780E+02  0.26726778400E+02  0.00000000000E+00 0. -1.
         -2    1    1    2    0  502  0.39694615614E+01  0.30693848167E+02  0.32345899941E+02  0.44767467913E+02  0.00000000000E+00 0.  1.
<scales pt_clust_5="13000.00000" pt_clust_6="13000.00000" pt_clust_7="13000.00000" pt_clust_8="13000.00000" pt_clust_9="30.94946"></scales>
<clustering>
<clus scale="   30.949">  1  9  2 -1</clus>
<clus scale="   73.180">  5  6 -1 -1</clus>
<clus scale="   92.423">  7  8 -1 -1</clus>
<clus scale="  164.976">  2  5  1 -1</clus>
<clus scale="   30.949">  1  5  2 -1</clus>
</clustering>
</event>
<event>
 9    2  0.1751298E-004  0.1250766E+03  0.7546771E-02  0.1238355E+00
         21   -1    0    0  501  502  0.00000000000E+00  0.00000000000E+00  0.11189106384E+03  0.11189106384E+03  0.00000000000E+00 0.  1.
          2   -1    0    0  502    0 -0.00000000000E+00 -0.00000000000E+00 -0.52259467747E+03  0.52259467747E+03  0.00000000000E+00 0. -1.
         24    2    1    2    0    0 -0.53131018774E+02 -0.63210848514E+02 -0.45085711677E+03  0.46542807660E+03  0.80824737657E+02 0.  0.
         23    2    1    2    0    0  0.77347769216E+02  0.68972981989E+02  0.29802572735E+02  0.14209853000E+03  0.92541067850E+02 0.  0.
        -13    1    3    3    0    0  0.68557888406E+01 -0.53624574054E+02 -0.18624669257E+03  0.19393407971E+03  0.00000000000E+00 0.  1.
         14    1    3    3    0    0 -0.59986807615E+02 -0.95862744596E+01 -0.26461042421E+03  0.27149399688E+03  0.00000000000E+00 0. -1.
        -13    1    4    4    0    0  0.52635337875E+02  0.65217289123E+02 -0.20189604217E+02  0.86205531796E+02  0.00000000000E+00 0. -1.
         13    1    4    4    0    0  0.24712431341E+02  0.37556928663E+01  0.49992176951E+02  0.55892998202E+02  0.00000000000E+00 0.  1.
          1    1    1    2  501    0 -0.24216750442E+02 -0.57621334758E+01  0.10350930412E+02  0.26959134715E+02  0.00000000000E+00 0. -1.
<scales pt_clust_5="13000.00000" pt_clust_6="13000.00000" pt_clust_7="13000.00000" pt_clust_8="13000.00000" pt_clust_9="24.89283"></scales>
<clustering>
<clus scale="   24.893">  1  9  2 -1</clus>
<clus scale="   80.825">  5  6 -1 -1</clus>
<clus scale="   92.541">  7  8 -1 -1</clus>
<clus scale="  116.675">  2  5  1 -1</clus>
<clus scale="   24.893">  1  5  2 -1</clus>
</clustering>
</event>
<event>
 9    2  0.1751298E-004  0.1543440E+03  0.7546771E-02  0.1197004E+00
         -3   -1    0    0    0  501 -0.00000000000E+00  0.00000000000E+00  0.14422894103E+04  0.14422894103E+04  0.00000000000E+00 0.  1.
         21   -1    0    0  501  502  0.00000000000E+00 -0.00000000000E+00 -0.25991460935E+02  0.25991460935E+02  0.00000000000E+00 0. -1.
         24    2    1    2    0    0 -0.21203430196E+02 -0.12055265412E+03  0.94894851544E+03  0.96020712532E+03  0.80696410585E+02 0.  0.
         23    2    1    2    0    0 -0.76220872028E+01  0.13273085292E+03  0.43087167427E+03  0.46001288940E+03  0.91026826780E+02 0.  0.
        -11    1    3    3    0    0 -0.45728712299E+02 -0.81304064494E+02  0.47997431537E+03  0.48895481329E+03  0.00000000000E+00 0.  1.
         12    1    3    3    0    0  0.24525282103E+02 -0.39248589623E+02  0.46897420008E+03  0.47125231202E+03  0.00000000000E+00 0. -1.
        -13    1    4    4    0    0 -0.27933422550E+02  0.33526828108E+02  0.52212077183E+02  0.68047228468E+02  0.00000000000E+00 0. -1.
         13    1    4    4    0    0  0.20311335347E+02  0.99204024816E+02  0.37865959709E+03  0.39196566093E+03  0.00000000000E+00 0.  1.
         -4    1    1    2    0  502  0.28825517399E+02 -0.12178198807E+02  0.36477759627E+02  0.48060856493E+02  0.00000000000E+00 0.  1.
<scales pt_clust_5="13000.00000" pt_clust_6="13000.00000" pt_clust_7="13000.00000" pt_clust_8="13000.00000" pt_clust_9="31.29247"></scales>
<clustering>
<clus scale="   31.292">  2  9  1 -1</clus>
<clus scale="   80.696">  5  6 -1 -1</clus>
<clus scale="   91.027">  7  8 -1 -1</clus>
<clus scale="  148.486">  1  5  2 -1</clus>
<clus scale="   31.292">  2  5  1 -1</clus>
</clustering>
</event>
<event>
 9    2  0.1751298E-004  0.9285924E+02  0.7546771E-02  0.1296844E+00
         21   -1    0    0  501  502  0.00000000000E+00  0.00000000000E+00  0.40779754623E+02  0.40779754623E+02  0.00000000000E+00 0.  1.
          2   -1    0    0  502    0 -0.00000000000E+00 -0.00000000000E+00 -0.96762076382E+03  0.96762076382E+03  0.00000000000E+00 0. -1.
         23    2    1    2    0    0 -0.56719390602E+02 -0.13258960989E+02 -0.20061851186E+03  0.22375288344E+03  0.80154078069E+02 0.  0.
         24    2    1    2    0    0 -0.20026932343E+02  0.65535455817E+02 -0.81842671039E+02  0.13361139136E+03  0.80360482263E+02 0.  0.
        -11    1    4    4    0    0  0.70624753841E+01  0.31409367637E+02  0.85120415043E+01  0.33299876643E+02  0.00000000000E+00 0.  1.
         12    1    4    4    0    0 -0.27089407727E+02  0.34126088180E+02 -0.90354712544E+02  0.10031151471E+03  0.00000000000E+00 0. -1.
        -13    1    3    3    0    0 -0.76126260416E+02 -0.54786378724E+01 -0.13751271037E+03  0.15727354676E+03  0.00000000000E+00 0. -1.
         13    1    3    3    0    0  0.19406869814E+02 -0.77803231161E+01 -0.63105801485E+02  0.66479336675E+02  0.00000000000E+00 0.  1.
          1    1    1    2  501    0  0.76746322945E+02 -0.52276494828E+02 -0.64437982631E+03  0.65103624365E+03  0.00000000000E+00 0. -1.
<scales pt_clust_5="13000.00000" pt_clust_6="13000.00000" pt_clust_7="13000.00000" pt_clust_8="13000.00000" pt_clust_9="92.85924"></scales>
<clustering>
<clus scale="   80.154">  7  8 -1 -1</clus>
<clus scale="   80.360">  5  6 -1 -1</clus>
<clus scale="   92.859">  1  9  2 -1</clus>
<clus scale="   91.539">  2  7  1 -1</clus>
<clus scale="   92.859">  1  5  2 -1</clus>
</clustering>
</event>
<event>
 9    2  0.1751298E-004  0.1957728E+03  0.7546771E-02  0.1154756E+00
         21   -1    0    0  501  502  0.00000000000E+00  0.00000000000E+00  0.69123515971E+02  0.69123515971E+02  0.00000000000E+00 0. -1.
          2   -1    0    0  502    0 -0.00000000000E+00 -0.00000000000E+00 -0.12902702904E+04  0.12902702904E+04  0.00000000000E+00 0. -1.
         24    2    1    2    0    0 -0.16687726343E+03  0.60554943873E+02 -0.10282167110E+04  0.10463141234E+04  0.77644818792E+02 0.  0.
         23    2    1    2    0    0  0.12405796558E+03 -0.99352967623E+02 -0.17197296054E+03  0.25161441573E+03  0.92052832903E+02 0.  0.
        -11    1    3    3    0    0 -0.54006059945E+02 -0.93434954427E+01 -0.19377426301E+03  0.20137631544E+03  0.00000000000E+00 0.  1.
         12    1    3    3    0    0 -0.11287120348E+03  0.69898439316E+02 -0.83444244795E+03  0.84493780797E+03  0.00000000000E+00 0. -1.
        -11    1    4    4    0    0  0.84627041127E+02 -0.12148360789E+02 -0.10180879129E+03  0.13294490868E+03  0.00000000000E+00 0.  1.
         11    1    4    4    0    0  0.39430924452E+02 -0.87204606834E+02 -0.70164169247E+02  0.11866950704E+03  0.00000000000E+00 0. -1.
          1    1    1    2  501    0  0.42819297848E+02  0.38798023750E+02 -0.20957102963E+02  0.61465267263E+02  0.00000000000E+00 0. -1.
<scales pt_clust_5="13000.00000" pt_clust_6="13000.00000" pt_clust_7="13000.00000" pt_clust_8="13000.00000" pt_clust_9="57.78217"></scales>
<clustering>
<clus scale="   57.782">  1  9  2 -1</clus>
<clus scale="   77.645">  5  6 -1 -1</clus>
<clus scale="   92.053">  7  8 -1 -1</clus>
<clus scale="  189.425">  2  5  1 -1</clus>
<clus scale="   57.782">  1  5  2 -1</clus>
</clustering>
</event>
<event>
 9    2  0.1751298E-004  0.1433238E+03  0.7546771E-02  0.1223312E+00
         21   -1    0    0  501  502  0.00000000000E+00  0.00000000000E+00  0.57645754669E+02  0.57645754669E+02  0.00000000000E+00 0. -1.
         -1   -1    0    0    0  501 -0.00000000000E+00 -0.00000000000E+00 -0.98484238239E+03  0.98484238239E+03  0.00000000000E+00 0.  1.
         24    2    1    2    0    0 -0.30917076700E+01  0.67875647789E+02 -0.33718161800E+02  0.11099187000E+03  0.81028504565E+02 0.  0.
         23    2    1    2    0    0  0.46065431781E+02  0.60911268705E+02 -0.53780452949E+03  0.55079065916E+03  0.91128654244E+02 0.  0.
        -13    1    3    3    0    0 -0.17427511017E+02  0.34268109787E+02 -0.56200182117E+02  0.68091717254E+02  0.00000000000E+00 0.  1.
         14    1    3    3    0    0  0.14335803347E+02  0.33607538002E+02  0.22482020317E+02  0.42900152747E+02  0.00000000000E+00 0. -1.
        -13    1    4    4    0    0 -0.21405398293E+02  0.41943298602E+02 -0.17183126892E+03  0.17816682169E+03  0.00000000000E+00 0.  1.
         13    1    4    4    0    0  0.67470830074E+02  0.18967970103E+02 -0.36597326057E+03  0.37262383747E+03  0.00000000000E+00 0. -1.
         -2    1    1    2    0  502 -0.42973724111E+02 -0.12878691649E+03 -0.35567393643E+03  0.38070560789E+03  0.00000000000E+00 0.  1.
<scales pt_clust_5="13000.00000" pt_clust_6="13000.00000" pt_clust_7="13000.00000" pt_clust_8="13000.00000" pt_clust_9="110.62222"></scales>
<clustering>
<clus scale="   81.029">  5  6 -1 -1</clus>
<clus scale="   91.129">  7  8 -1 -1</clus>
<clus scale="  105.746">  2  5  1 -1</clus>
<clus scale="  110.622">  1  9  2 -1</clus>
<clus scale="  110.622">  1  5  2 -1</clus>
</clustering>
</event>
<event>
 9    2  0.1751298E-004  0.2393664E+03  0.7546771E-02  0.1148428E+00
         21   -1    0    0  501  502  0.00000000000E+00  0.00000000000E+00  0.47473623896E+02  0.47473623896E+02  0.00000000000E+00 0.  1.
         -1   -1    0    0    0  501 -0.00000000000E+00 -0.00000000000E+00 -0.18459585729E+04  0.18459585729E+04  0.00000000000E+00 0.  1.
         23    2    1    2    0    0  0.33176301420E+02 -0.69129805332E+02 -0.33505921144E+03  0.35601762858E+03  0.92759256849E+02 0.  0.
         24    2    1    2    0    0  0.15163958398E+03  0.18534742507E+03 -0.75540984452E+03  0.79650300032E+03  0.80154631241E+02 0.  0.
        -13    1    4    4    0    0  0.15274397048E+03  0.19167143231E+03 -0.74493613552E+03  0.78421840357E+03  0.00000000000E+00 0.  1.
         14    1    4    4    0    0 -0.11043865010E+01 -0.63240072477E+01 -0.10473709000E+02  0.12284596755E+02  0.00000000000E+00 0. -1.
        -13    1    3    3    0    0 -0.31893410857E+02 -0.26780852029E+02 -0.95316539033E+02  0.10401752883E+03  0.00000000000E+00 0. -1.
         13    1    3    3    0    0  0.65069712276E+02 -0.42348953303E+02 -0.23974267240E+03  0.25200009975E+03  0.00000000000E+00 0.  1.
         -2    1    1    2    0  502 -0.18481588540E+03 -0.11621761973E+03 -0.70801589300E+03  0.74091156785E+03  0.00000000000E+00 0.  1.
<scales pt_clust_5="13000.00000" pt_clust_6="13000.00000" pt_clust_7="13000.00000" pt_clust_8="13000.00000" pt_clust_9="225.54708"></scales>
<clustering>
<clus scale="   80.155">  5  6 -1 -1</clus>
<clus scale="   92.759">  7  8 -1 -1</clus>
<clus scale="  120.349">  2  7  1 -1</clus>
<clus scale="  225.547">  1  9  2 -1</clus>
<clus scale="  225.547">  1  5  2 -1</clus>
</clustering>
</event>
<event>
 9    2  0.1751298E-004  0.1466769E+03  0.7546771E-02  0.1206874E+00
          2   -1    0    0  502    0 -0.00000000000E+00  0.00000000000E+00  0.74486473532E+03  0.74486473532E+03  0.00000000000E+00 0. -1.
         21   -1    0    0  501  502  0.00000000000E+00 -0.00000000000E+00 -0.45668353648E+02  0.45668353648E+02  0.00000000000E+00 0.  1.
         23    2    1    2    0    0 -0.16212314150E+02  0.13272049154E+03  0.43610634824E+03  0.46529275752E+03  0.91820668811E+02 0.  0.
         24    2    1    2    0    0  0.50124589014E+02 -0.75798045921E+02  0.13804431431E+03  0.18372482320E+03  0.80254344180E+02 0.  0.
        -13    1    4    4    0    0  0.31918393649E+02 -0.81905774969E+02  0.68115818159E+02  0.11120748405E+03  0.00000000000E+00 0.  1.
         14    1    4    4    0    0  0.18206195365E+02  0.61077290481E+01  0.69928496147E+02  0.72517339148E+02  0.00000000000E+00 0. -1.
        -11    1    3    3    0    0 -0.18897855962E+02 -0.77403172456E+01  0.38230772628E+02  0.43343205312E+02  0.00000000000E+00 0. -1.
         11    1    3    3    0    0  0.26855418127E+01  0.14046080879E+03  0.39787557562E+03  0.42194955221E+03  0.00000000000E+00 0.  1.
          1    1    1    2  501    0 -0.33912274864E+02 -0.56922445621E+02  0.12504571912E+03  0.14151550824E+03  0.00000000000E+00 0. -1.
<scales pt_clust_5="13000.00000" pt_clust_6="13000.00000" pt_clust_7="13000.00000" pt_clust_8="13000.00000" pt_clust_9="66.25864"></scales>
<clustering>
<clus scale="   66.259">  2  9  1 -1</clus>
<clus scale="   80.254">  5  6 -1 -1</clus>
<clus scale="   91.821">  7  8 -1 -1</clus>
<clus scale="  139.728">  2  5  1 -1</clus>
<clus scale="   66.259">  2  5  1 -1</clus>
</clustering>
</event>
<event>
 9    2  0.1751298E-004  0.1013349E+03  0.7546771E-02  0.1283038E+00
          2   -1    0    0  502    0 -0.00000000000E+00  0.00000000000E+00  0.54811142900E+03  0.54811142900E+03  0.00000000000E+00 0. -1.
         21   -1    0    0  501  502  0.00000000000E+00 -0.00000000000E+00 -0.37663551000E+02  0.37663551000E+02  0.00000000000E+00 0.  1.
         24    2    1    2    0    0 -0.45928561439E+02  0.32111780831E+02  0.19627630066E+03  0.21654787744E+03  0.72304894700E+02 0.  0.
         23    2    1    2    0    0 -0.12308128892E+02 -0.77636858365E+02  0.22861672516E+03  0.25616217645E+03  0.84702312880E+02 0.  0.
        -13    1    3    3    0    0 -0.10976046093E+02  0.44019075517E+02  0.59193214649E+02  0.74578745348E+02  0.00000000000E+00 0.  1.
         14    1    3    3    0    0 -0.34952515346E+02 -0.11907294686E+02  0.13708308601E+03  0.14196913209E+03  0.00000000000E+00 0. -1.
        -13    1    4    4    0    0 -0.47277923325E+02 -0.59172682901E+02  0.15836420148E+03  0.17554437828E+03  0.00000000000E+00 0.  1.
         13    1    4    4    0    0  0.34969794433E+02 -0.18464175463E+02  0.70252523681E+02  0.80617798170E+02  0.00000000000E+00 0. -1.
          1    1    1    2  501    0  0.58236690331E+02  0.45525077533E+02  0.85554852175E+02  0.11306492611E+03  0.00000000000E+00 0. -1.
<scales pt_clust_5="13000.00000" pt_clust_6="13000.00000" pt_clust_7="13000.00000" pt_clust_8="13000.00000" pt_clust_9="73.91918"></scales>
<clustering>
<clus scale="   72.305">  5  6 -1 -1</clus>
<clus scale="   73.919">  2  9  1 -1</clus>
<clus scale="   84.702">  7  8 -1 -1</clus>
<clus scale="   91.227">  1  5  2 -1</clus>
<clus scale="   73.919">  2  5  1 -1</clus>
</clustering>
</event>
<event>
 9    2  0.1751298E-004  0.1183363E+03  0.7546771E-02  0.1257857E+00
          2   -1    0    0  502    0 -0.00000000000E+00  0.00000000000E+00  0.70537008185E+03  0.70537008185E+03  0.00000000000E+00 0. -1.
         21   -1    0    0  501  502  0.00000000000E+00 -0.00000000000E+00 -0.42061020673E+02  0.42061020673E+02  0.00000000000E+00 0.  1.
         24    2    1    2    0    0  0.14959337321E+02 -0.51923046433E+02  0.45114337599E+03  0.46148307247E+03  0.80724816230E+02 0.  0.
         23    2    1    2    0    0 -0.14052357576E+01  0.28271442703E+02  0.22815650432E+03  0.25434394291E+03  0.10878511695E+03 0.  0.
        -11    1    3    3    0    0  0.44620123169E+02 -0.12061939202E+02  0.18100463531E+03  0.18681307173E+03  0.00000000000E+00 0.  1.
         12    1    3    3    0    0 -0.29660785848E+02 -0.39861107231E+02  0.27013874068E+03  0.27467000074E+03  0.00000000000E+00 0. -1.
        -13    1    4    4    0    0  0.52815715566E+02  0.78493344563E+01  0.12702074781E+03  0.13778745312E+03  0.00000000000E+00 0.  1.
         13    1    4    4    0    0 -0.54220951324E+02  0.20422108247E+02  0.10113575651E+03  0.11655648979E+03  0.00000000000E+00 0. -1.
          1    1    1    2  501    0 -0.13554101563E+02  0.23651603730E+02 -0.15990819126E+02  0.31604087149E+02  0.00000000000E+00 0. -1.
<scales pt_clust_5="13000.00000" pt_clust_6="13000.00000" pt_clust_7="13000.00000" pt_clust_8="13000.00000" pt_clust_9="27.26008"></scales>
<clustering>
<clus scale="   27.260">  2  9  1 -1</clus>
<clus scale="   80.725">  5  6 -1 -1</clus>
<clus scale="   93.198">  1  5  2 -1</clus>
<clus scale="  108.785">  7  8 -1 -1</clus>
<clus scale="   27.260">  2  5  1 -1</clus>
</clustering>
</event>
<event>
 9    2  0.1751298E-004  0.1753201E+03  0.7546771E-02  0.1173806E+00
         21   -1    0    0  501  502  0.00000000000E+00  0.00000000000E+00  0.10926173786E+03  0.10926173786E+03  0.00000000000E+00 0.  1.
          2   -1    0    0  502    0 -0.00000000000E+00 -0.00000000000E+00 -0.76631635228E+03  0.76631635228E+03  0.00000000000E+00 0. -1.
         24    2    1    2    0    0  0.56838355634E+02  0.16059677211E+03 -0.25679466958E+03  0.31889656242E+03  0.82034098485E+02 0.  0.
         23    2    1    2    0    0 -0.96920988160E+02 -0.65311076210E+02 -0.63118361074E+01  0.14939650019E+03  0.92845357296E+02 0.  0.
        -13    1    3    3    0    0  0.77381924772E+02  0.13474084709E+03 -0.20091288846E+03  0.25398631244E+03  0.00000000000E+00 0.  1.
         14    1    3    3    0    0 -0.20543569138E+02  0.25855925021E+02 -0.55881781113E+02  0.64910249977E+02  0.00000000000E+00 0. -1.
        -13    1    4    4    0    0  0.22549987636E+00 -0.48128850907E+02  0.10652804113E+02  0.49294212391E+02  0.00000000000E+00 0. -1.
         13    1    4    4    0    0 -0.97146488036E+02 -0.17182225303E+02 -0.16964640220E+02  0.10010228780E+03  0.00000000000E+00 0.  1.
          1    1    1    2  501    0  0.40082632526E+02 -0.95285695902E+02 -0.39394810874E+03  0.40728502753E+03  0.00000000000E+00 0. -1.
<scales pt_clust_5="13000.00000" pt_clust_6="13000.00000" pt_clust_7="13000.00000" pt_clust_8="13000.00000" pt_clust_9="103.37307"></scales>
<clustering>
<clus scale="   82.034">  5  6 -1 -1</clus>
<clus scale="   92.845">  7  8 -1 -1</clus>
<clus scale="  103.373">  1  9  2 -1</clus>
<clus scale="  169.843">  2  5  1 -1</clus>
<clus scale="  103.373">  1  5  2 -1</clus>
</clustering>
</event>
<event>
 9    2  0.1751298E-004  0.9834259E+02  0.7546771E-02  0.1288933E+00
         -1   -1    0    0    0  501 -0.00000000000E+00  0.00000000000E+00  0.54567639748E+02  0.54567639748E+02  0.00000000000E+00 0.  1.
         21   -1    0    0  501  502  0.00000000000E+00 -0.00000000000E+00 -0.45592966807E+03  0.45592966807E+03  0.00000000000E+00 0.  1.
         23    2    1    2    0    0  0.17802816753E+02 -0.27683211358E+02 -0.43585820347E+02  0.10627115278E+03  0.91162128669E+02 0.  0.
         24    2    1    2    0    0 -0.48840434518E+02  0.34095611677E+02 -0.35862052988E+03  0.37252181031E+03  0.81338280826E+02 0.  0.
        -11    1    4    4    0    0 -0.23765310778E+02  0.54595769659E+02 -0.29697674615E+03  0.30288723283E+03  0.00000000000E+00 0.  1.
         12    1    4    4    0    0 -0.25075123740E+02 -0.20500157982E+02 -0.61643783735E+02  0.69634577481E+02  0.00000000000E+00 0. -1.
        -13    1    3    3    0    0  0.52390073349E+01 -0.57985171290E+02 -0.95476693937E+01  0.58999027773E+02  0.00000000000E+00 0.  1.
         13    1    3    3    0    0  0.12563809418E+02  0.30301959931E+02 -0.34038150953E+02  0.47272125011E+02  0.00000000000E+00 0. -1.
         -2    1    1    2    0  502  0.31037617766E+02 -0.64124003186E+01  0.84432190934E+00  0.31704344716E+02  0.00000000000E+00 0.  1.
<scales pt_clust_5="13000.00000" pt_clust_6="13000.00000" pt_clust_7="13000.00000" pt_clust_8="13000.00000" pt_clust_9="31.69312"></scales>
<clustering>
<clus scale="   31.693">  2  9  1 -1</clus>
<clus scale="   81.338">  5  6 -1 -1</clus>
<clus scale="   89.312">  2  5  1 -1</clus>
<clus scale="   91.162">  7  8 -1 -1</clus>
<clus scale="   31.693">  2  5  1 -1</clus>
</clustering>
</event>
<event>
 9    2  0.1751298E-004  0.2512153E+03  0.7546771E-02  0.1113418E+00
         21   -1    0    0  501  502  0.00000000000E+00  0.00000000000E+00  0.10007628212E+03  0.10007628212E+03  0.00000000000E+00 0.  1.
          4   -1    0    0  502    0 -0.00000000000E+00 -0.00000000000E+00 -0.11294439652E+04  0.11294439652E+04  0.00000000000E+00 0. -1.
         24    2    1    2    0    0  0.13233423367E+03 -0.18186574539E+03 -0.75468334372E+03  0.79150650871E+03  0.79674997901E+02 0.  0.
         23    2    1    2    0    0 -0.11141365133E+03  0.23539945392E+03 -0.25637175423E+03  0.37769061298E+03  0.95382483522E+02 0.  0.
        -11    1    3    3    0    0  0.11576657324E+03 -0.15898282631E+03 -0.53477545998E+03  0.56979139265E+03  0.00000000000E+00 0.  1.
         12    1    3    3    0    0  0.16567660436E+02 -0.22882919083E+02 -0.21990788374E+03  0.22171511606E+03  0.00000000000E+00 0. -1.
        -13    1    4    4    0    0 -0.56384884680E+02  0.80264357850E+02 -0.15787532089E+03  0.18586618657E+03  0.00000000000E+00 0. -1.
         13    1    4    4    0    0 -0.55028766651E+02  0.15513509607E+03 -0.98496433333E+02  0.19182442642E+03  0.00000000000E+00 0.  1.
          3    1    1    2  501    0 -0.20920582343E+02 -0.53533708523E+02 -0.18312585151E+02  0.60323125654E+02  0.00000000000E+00 0. -1.
<scales pt_clust_5="13000.00000" pt_clust_6="13000.00000" pt_clust_7="13000.00000" pt_clust_8="13000.00000" pt_clust_9="57.47633"></scales>
<clustering>
<clus scale="   57.476">  1  9  2 -1</clus>
<clus scale="   79.675">  5  6 -1 -1</clus>
<clus scale="   95.382">  7  8 -1 -1</clus>
<clus scale="  245.682">  2  5  1 -1</clus>
<clus scale="   57.476">  1  5  2 -1</clus>
</clustering>
</event>
<event>
 9    2  0.1751298E-004  0.1321905E+03  0.7546771E-02  0.1227331E+00
         21   -1    0    0  501  502  0.00000000000E+00  0.00000000000E+00  0.81123531310E+02  0.81123531310E+02  0.00000000000E+00 0. -1.
         -3   -1    0    0    0  501 -0.00000000000E+00 -0.00000000000E+00 -0.62381592896E+03  0.62381592896E+03  0.00000000000E+00 0.  1.
         23    2    1    2    0    0 -0.71295454397E+02 -0.22231078329E+01 -0.52838228112E+02  0.12906063458E+03  0.93684497238E+02 0.  0.
         24    2    1    2    0    0  0.11096183578E+03  0.44931591595E+02 -0.87415937768E+02  0.16924143588E+03  0.81668479365E+02 0.  0.
        -11    1    4    4    0    0  0.35501098949E+02  0.13580140293E+01 -0.72636369114E+02  0.80859225490E+02  0.00000000000E+00 0.  1.
         12    1    4    4    0    0  0.75460736827E+02  0.43573577566E+02 -0.14779568654E+02  0.88382210393E+02  0.00000000000E+00 0. -1.
        -11    1    3    3    0    0 -0.81909060368E+01 -0.38392668805E+02 -0.16695547162E+00  0.39257048206E+02  0.00000000000E+00 0.  1.
         11    1    3    3    0    0 -0.63104548361E+02  0.36169560972E+02 -0.52671272641E+02  0.89803586378E+02  0.00000000000E+00 0. -1.
         -4    1    1    2    0  502 -0.39666381378E+02 -0.42708483763E+02 -0.40243823177E+03  0.40663738980E+03  0.00000000000E+00 0.  1.
<scales pt_clust_5="13000.00000" pt_clust_6="13000.00000" pt_clust_7="13000.00000" pt_clust_8="13000.00000" pt_clust_9="58.28756"></scales>
<clustering>
<clus scale="   58.288">  1  9  2 -1</clus>
<clus scale="   81.668">  5  6 -1 -1</clus>
<clus scale="   93.684">  7  8 -1 -1</clus>
<clus scale="  123.965">  1  5  2 -1</clus>
<clus scale="   58.288">  1  5  2 -1</clus>
</clustering>
</event>
<event>
 9    2  0.1751298E-004  0.2846596E+03  0.7546771E-02  0.1122951E+00
         21   -1    0    0  501  502  0.00000000000E+00  0.00000000000E+00  0.56650374224E+03  0.56650374224E+03  0.00000000000E+00 0. -1.
          2   -1    0    0  502    0 -0.00000000000E+00 -0.00000000000E+00 -0.22294935223E+03  0.22294935223E+03  0.00000000000E+00 0. -1.
         24    2    1    2    0    0  0.74210011808E+02  0.74171711737E+02  0.16929483725E+02  0.13401374350E+03  0.81636433975E+02 0.  0.
         23    2    1    2    0    0 -0.31006246168E+03 -0.75663634940E+02  0.19531086838E+03  0.38549124392E+03  0.92700852423E+02 0.  0.
        -13    1    3    3    0    0  0.88741177685E+02  0.76450688542E+02  0.20416737451E+02  0.11889721428E+03  0.00000000000E+00 0.  1.
         14    1    3    3    0    0 -0.14531165876E+02 -0.22789768049E+01 -0.34872537258E+01  0.15116529216E+02  0.00000000000E+00 0. -1.
        -13    1    4    4    0    0 -0.15454484399E+03 -0.68095186642E+02  0.60042739349E+02  0.17923781352E+03  0.00000000000E+00 0.  1.
         13    1    4    4    0    0 -0.15551761769E+03 -0.75684482984E+01  0.13526812903E+03  0.20625343040E+03  0.00000000000E+00 0. -1.
          1    1    1    2  501    0  0.23585244987E+03  0.14919232032E+01  0.13131403791E+03  0.26994810705E+03  0.00000000000E+00 0. -1.
<scales pt_clust_5="13000.00000" pt_clust_6="13000.00000" pt_clust_7="13000.00000" pt_clust_8="13000.00000" pt_clust_9="269.14243"></scales>
<clustering>
<clus scale="   81.636">  5  6 -1 -1</clus>
<clus scale="   92.701">  7  8 -1 -1</clus>
<clus scale="  132.940">  2  5  1 -1</clus>
<clus scale="  269.142">  1  9  2 -1</clus>
<clus scale="  269.142">  1  5  2 -1</clus>
</clustering>
</event>
<event>
 9    2  0.1751298E-004  0.1089487E+03  0.7546771E-02  0.1265660E+00
          2   -1    0    0  502    0 -0.00000000000E+00  0.00000000000E+00  0.29281380557E+03  0.29281380557E+03  0.00000000000E+00 0. -1.
         21   -1    0    0  501  502  0.00000000000E+00 -0.00000000000E+00 -0.14810443889E+03  0.14810443889E+03  0.00000000000E+00 0.  1.
         23    2    1    2    0    0 -0.39830597211E+02 -0.39523477989E+02  0.17805584395E+03  0.20660457979E+03  0.88504163952E+02 0.  0.
         24    2    1    2    0    0  0.71204491543E+02  0.42171870213E+02  0.64034048750E+02  0.13196962685E+03  0.80418137006E+02 0.  0.
        -13    1    4    4    0    0  0.25229336151E+02 -0.23626727932E+02  0.13441094631E+02  0.37086449011E+02  0.00000000000E+00 0.  1.
         14    1    4    4    0    0  0.45975155392E+02  0.65798598144E+02  0.50592954119E+02  0.94883177843E+02  0.00000000000E+00 0. -1.
        -11    1    3    3    0    0  0.20275167987E+01 -0.55249230040E+02  0.12832195088E+03  0.13972512774E+03  0.00000000000E+00 0.  1.
         11    1    3    3    0    0 -0.41858114010E+02  0.15725752051E+02  0.49733893077E+02  0.66879452051E+02  0.00000000000E+00 0. -1.
          1    1    1    2  501    0 -0.31373894332E+02 -0.26483922236E+01 -0.97380526023E+02  0.10234403781E+03  0.00000000000E+00 0. -1.
<scales pt_clust_5="13000.00000" pt_clust_6="13000.00000" pt_clust_7="13000.00000" pt_clust_8="13000.00000" pt_clust_9="31.48548"></scales>
<clustering>
<clus scale="   31.485">  2  9  1 -1</clus>
<clus scale="   80.418">  5  6 -1 -1</clus>
<clus scale="   88.504">  7  8 -1 -1</clus>
<clus scale="  102.489">  2  5  1 -1</clus>
<clus scale="   31.485">  2  5  1 -1</clus>
</clustering>
</event>
<event>
 9    2  0.1751298E-004  0.1085665E+03  0.7546771E-02  0.1266205E+00
          2   -1    0    0  502    0 -0.00000000000E+00  0.00000000000E+00  0.41491875280E+03  0.41491875280E+03  0.00000000000E+00 0. -1.
         21   -1    0    0  501  502  0.00000000000E+00 -0.00000000000E+00 -0.52685097309E+02  0.52685097309E+02  0.00000000000E+00 0.  1.
         23    2    1    2    0    0  0.54671011228E+02  0.18849948477E+02  0.27797703868E+03  0.29807489007E+03  0.90736795363E+02 0.  0.
         24    2    1    2    0    0 -0.69616369005E+02 -0.16497961708E-01  0.33978545232E+02  0.11379793583E+03  0.83360599550E+02 0.  0.
        -13    1    4    4    0    0 -0.44498712694E+02 -0.29706025434E+02 -0.10702595003E+02  0.54563072845E+02  0.00000000000E+00 0.  1.
         14    1    4    4    0    0 -0.25117656311E+02  0.29689527472E+02  0.44681140235E+02  0.59234862985E+02  0.00000000000E+00 0. -1.
        -13    1    3    3    0    0  0.28103273567E+02  0.55196109303E+02  0.14469938178E+03  0.15739858816E+03  0.00000000000E+00 0. -1.
         13    1    3    3    0    0  0.26567737661E+02 -0.36346160826E+02  0.13327765690E+03  0.14067630191E+03  0.00000000000E+00 0.  1.
          1    1    1    2  501    0  0.14945357777E+02 -0.18833450515E+02  0.50278071585E+02  0.55731024212E+02  0.00000000000E+00 0. -1.
<scales pt_clust_5="13000.00000" pt_clust_6="13000.00000" pt_clust_7="13000.00000" pt_clust_8="13000.00000" pt_clust_9="24.04294"></scales>
<clustering>
<clus scale="   24.043">  2  9  1 -1</clus>
<clus scale="   83.361">  5  6 -1 -1</clus>
<clus scale="   90.737">  7  8 -1 -1</clus>
<clus scale="  102.482">  2  5  1 -1</clus>
<clus scale="   24.043">  2  5  1 -1</clus>
</clustering>
</event>
<event>
 9    2  0.1751298E-004  0.1819672E+03  0.7546771E-02  0.1199417E+00
          2   -1    0    0  502    0 -0.00000000000E+00  0.00000000000E+00  0.25340707505E+03  0.25340707505E+03  0.00000000000E+00 0. -1.
         21   -1    0    0  501  502  0.00000000000E+00 -0.00000000000E+00 -0.24090997205E+03  0.24090997205E+03  0.00000000000E+00 0. -1.
         24    2    1    2    0    0 -0.24332018145E+02 -0.45735151446E+01  0.10732713051E+03  0.13751377723E+03  0.82328378075E+02 0.  0.
         23    2    1    2    0    0 -0.89650041592E+02  0.11874217943E+03 -0.79905076582E+02  0.19478738174E+03  0.97059093799E+02 0.  0.
        -13    1    3    3    0    0 -0.31880092524E+01  0.30178998600E+02  0.86793408488E+02  0.91945805323E+02  0.00000000000E+00 0.  1.
         14    1    3    3    0    0 -0.21144008893E+02 -0.34752513745E+02  0.20533722026E+02  0.45567971909E+02  0.00000000000E+00 0. -1.
        -13    1    4    4    0    0 -0.31889798044E+02 -0.10608437317E+02 -0.28574122304E+02  0.44113247750E+02  0.00000000000E+00 0.  1.
         13    1    4    4    0    0 -0.57760243548E+02  0.12935061674E+03 -0.51330954278E+02  0.15067413399E+03  0.00000000000E+00 0. -1.
          1    1    1    2  501    0  0.11398205974E+03 -0.11416866428E+03 -0.14924950935E+02  0.16201588813E+03  0.00000000000E+00 0. -1.
<scales pt_clust_5="13000.00000" pt_clust_6="13000.00000" pt_clust_7="13000.00000" pt_clust_8="13000.00000" pt_clust_9="153.92079"></scales>
<clustering>
<clus scale="   82.328">  5  6 -1 -1</clus>
<clus scale="   85.970">  1  5  2 -1</clus>
<clus scale="   97.059">  7  8 -1 -1</clus>
<clus scale="  153.921">  2  9  1 -1</clus>
<clus scale="  153.921">  2  5  1 -1</clus>
</clustering>
</event>
<event>
 9    2  0.1751298E-004  0.1116405E+03  0.7546771E-02  0.1261981E+00
         21   -1    0    0  501  502  0.00000000000E+00  0.00000000000E+00  0.22171216754E+02  0.22171216754E+02  0.00000000000E+00 0. -1.
          2   -1    0    0  502    0 -0.00000000000E+00 -0.00000000000E+00 -0.84625634647E+03  0.84625634647E+03  0.00000000000E+00 0. -1.
         24    2    1    2    0    0  0.31485135516E+02 -0.77258450216E+02 -0.46005009135E+03  0.47401287375E+03  0.77986768359E+02 0.  0.
         23    2    1    2    0    0  0.74894166638E+01  0.47379599483E+02 -0.26439052884E+03  0.28332558237E+03  0.89833824788E+02 0.  0.
        -13    1    3    3    0    0  0.56464670890E+01 -0.45607840033E+02 -0.83998340631E+02  0.95747996803E+02  0.00000000000E+00 0.  1.
         14    1    3    3    0    0  0.25838668427E+02 -0.31650610184E+02 -0.37605175072E+03  0.37826487694E+03  0.00000000000E+00 0. -1.
        -13    1    4    4    0    0  0.22892564585E+02  0.62331048566E+02 -0.24678744423E+03  0.25556461367E+03  0.00000000000E+00 0. -1.
         13    1    4    4    0    0 -0.15403147921E+02 -0.14951449083E+02 -0.17603084605E+02  0.27760968700E+02  0.00000000000E+00 0.  1.
          1    1    1    2  501    0 -0.38974552180E+02  0.29878850733E+02 -0.99644509523E+02  0.11108910710E+03  0.00000000000E+00 0. -1.
<scales pt_clust_5="13000.00000" pt_clust_6="13000.00000" pt_clust_7="13000.00000" pt_clust_8="13000.00000" pt_clust_9="49.10969"></scales>
<clustering>
<clus scale="   49.110">  1  9  2 -1</clus>
<clus scale="   77.987">  5  6 -1 -1</clus>
<clus scale="   89.834">  7  8 -1 -1</clus>
<clus scale="  102.350">  2  5  1 -1</clus>
<clus scale="   49.110">  1  5  2 -1</clus>
</clustering>
</event>
<event>
 9    2  0.1751298E-004  0.1186403E+03  0.7546771E-02  0.1248854E+00
         21   -1    0    0  501  502  0.00000000000E+00  0.00000000000E+00  0.22170490199E+03  0.22170490199E+03  0.00000000000E+00 0.  1.
          2   -1    0    0  502    0 -0.00000000000E+00 -0.00000000000E+00 -0.58100386251E+03  0.58100386251E+03  0.00000000000E+00 0. -1.
         23    2    1    2    0    0  0.41489020223E+02 -0.63695352502E+02 -0.51838692369E+03  0.53176230141E+03  0.90926925728E+02 0.  0.
         24    2    1    2    0    0  0.20276519846E+02  0.10796897653E+03  0.13400746898E+03  0.19092042411E+03  0.80150916722E+02 0.  0.
        -13    1    4    4    0    0 -0.27809334241E+02  0.55055224616E+02  0.81515403423E+02  0.10222131785E+03  0.00000000000E+00 0.  1.
         14    1    4    4    0    0  0.48085854087E+02  0.52913751910E+02  0.52492065555E+02  0.88699106256E+02  0.00000000000E+00 0. -1.
        -13    1    3    3    0    0  0.16461908122E+02 -0.79510606933E+02 -0.44962677105E+03  0.45689951223E+03  0.00000000000E+00 0. -1.
         13    1    3    3    0    0  0.25027112101E+02  0.15815254431E+02 -0.68760152641E+02  0.74862789182E+02  0.00000000000E+00 0.  1.
          1    1    1    2  501    0 -0.61765540069E+02 -0.44273624024E+02  0.25080494196E+02  0.80026038971E+02  0.00000000000E+00 0. -1.
<scales pt_clust_5="13000.00000" pt_clust_6="13000.00000" pt_clust_7="13000.00000" pt_clust_8="13000.00000" pt_clust_9="75.99431"></scales>
<clustering>
<clus scale="   75.994">  1  9  2 -1</clus>
<clus scale="   80.151">  5  6 -1 -1</clus>
<clus scale="   90.927">  7  8 -1 -1</clus>
<clus scale="  110.598">  1  5  2 -1</clus>
<clus scale="   75.994">  1  5  2 -1</clus>
</clustering>
</event>
<event>
 9    2  0.1751298E-004  0.1881870E+03  0.7546771E-02  0.1181787E+00
         21   -1    0    0  501  502  0.00000000000E+00  0.00000000000E+00  0.68403468646E+02  0.68403468646E+02  0.00000000000E+00 0.  1.
          2   -1    0    0  502    0 -0.00000000000E+00 -0.00000000000E+00 -0.99781425118E+03  0.99781425118E+03  0.00000000000E+00 0. -1.
         23    2    1    2    0    0  0.32373010473E+02 -0.61956799151E+02 -0.87666821492E+02  0.14436540686E+03  0.90935374521E+02 0.  0.
         24    2    1    2    0    0 -0.16516438273E+03  0.10114335826E+03 -0.32422582136E+03  0.38613395425E+03  0.80422603475E+02 0.  0.
        -13    1    4    4    0    0 -0.15995174499E+03  0.11109588957E+03 -0.28392761650E+03  0.34429892364E+03  0.00000000000E+00 0.  1.
         14    1    4    4    0    0 -0.52126377342E+01 -0.99525313153E+01 -0.40298204862E+02  0.41835030619E+02  0.00000000000E+00 0. -1.
        -13    1    3    3    0    0  0.37570415160E+02 -0.35189204874E+02  0.11172138344E+01  0.51488488050E+02  0.00000000000E+00 0.  1.
         13    1    3    3    0    0 -0.51974046865E+01 -0.26767594277E+02 -0.88784035327E+02  0.92876918810E+02  0.00000000000E+00 0. -1.
          1    1    1    2  501    0  0.13279137225E+03 -0.39186559105E+02 -0.51751813968E+03  0.53571835871E+03  0.00000000000E+00 0. -1.
<scales pt_clust_5="13000.00000" pt_clust_6="13000.00000" pt_clust_7="13000.00000" pt_clust_8="13000.00000" pt_clust_9="170.13692"></scales>
<clustering>
<clus scale="   80.423">  5  6 -1 -1</clus>
<clus scale="   90.935">  7  8 -1 -1</clus>
<clus scale="  114.699">  2  7  1 -1</clus>
<clus scale="  170.137">  1  9  2 -1</clus>
<clus scale="  170.137">  1  5  2 -1</clus>
</clustering>
</event>
<event>
 9    2  0.1751298E-004  0.1432422E+03  0.7546771E-02  0.1210788E+00
         21   -1    0    0  501  502  0.00000000000E+00  0.00000000000E+00  0.16579044161E+03  0.16579044161E+03  0.00000000000E+00 0. -1.
          2   -1    0    0  502    0 -0.00000000000E+00 -0.00000000000E+00 -0.31914154664E+03  0.31914154664E+03  0.00000000000E+00 0. -1.
         24    2    1    2    0    0  0.12639114396E+03 -0.43255497282E+02 -0.20203303285E+03  0.25509437287E+03  0.80062684167E+02 0.  0.
         23    2    1    2    0    0 -0.65286063072E+02 -0.43432808864E+02  0.28477471887E+02  0.12187042882E+03  0.88841184698E+02 0.  0.
        -11    1    3    3    0    0  0.44283187821E+02 -0.55429509134E+02 -0.11251177306E+03  0.13301251927E+03  0.00000000000E+00 0.  1.
         12    1    3    3    0    0  0.82107956134E+02  0.12174011852E+02 -0.89521259789E+02  0.12208185360E+03  0.00000000000E+00 0. -1.
        -13    1    4    4    0    0 -0.27221999953E+00  0.23709114234E+02  0.13298736283E+02  0.27185521665E+02  0.00000000000E+00 0.  1.
         13    1    4    4    0    0 -0.65013843073E+02 -0.67141923098E+02  0.15178735604E+02  0.94684907155E+02  0.00000000000E+00 0. -1.
          1    1    1    2  501    0 -0.61105080883E+02  0.86688306146E+02  0.20204455929E+02  0.10796718655E+03  0.00000000000E+00 0. -1.
<scales pt_clust_5="13000.00000" pt_clust_6="13000.00000" pt_clust_7="13000.00000" pt_clust_8="13000.00000" pt_clust_9="106.05986"></scales>
<clustering>
<clus scale="   80.063">  5  6 -1 -1</clus>
<clus scale="   88.841">  7  8 -1 -1</clus>
<clus scale="  106.060">  1  9  2 -1</clus>
<clus scale="  137.970">  2  5  1 -1</clus>
<clus scale="  106.060">  1  5  2 -1</clus>
</clustering>
</event>
<event>
 9    2  0.1751298E-004  0.1205535E+03  0.7546771E-02  0.1254216E+00
         21   -1    0    0  501  502  0.00000000000E+00  0.00000000000E+00  0.38561645384E+03  0.38561645384E+03  0.00000000000E+00 0. -1.
         -1   -1    0    0    0  501 -0.00000000000E+00 -0.00000000000E+00 -0.87851037182E+02  0.87851037182E+02  0.00000000000E+00 0.  1.
         23    2    1    2    0    0  0.48061779534E+02 -0.21293780506E+02 -0.28386171834E+02  0.12493994229E+03  0.10973082834E+03 0.  0.
         24    2    1    2    0    0 -0.26283615585E+02  0.33793490831E+02  0.19867041388E+03  0.21859687082E+03  0.80509813731E+02 0.  0.
        -11    1    4    4    0    0  0.11877102268E+02  0.30626941775E+02  0.26460072752E+02  0.42180689549E+02  0.00000000000E+00 0.  1.
         12    1    4    4    0    0 -0.38160717853E+02  0.31665490557E+01  0.17221034113E+03  0.17641618127E+03  0.00000000000E+00 0. -1.
        -11    1    3    3    0    0  0.59860624796E+02 -0.50665588587E+02  0.54417139255E+01  0.78612394177E+02  0.00000000000E+00 0.  1.
         11    1    3    3    0    0 -0.11798845262E+02  0.29371808082E+02 -0.33827885760E+02  0.46327548117E+02  0.00000000000E+00 0. -1.
         -2    1    1    2    0  502 -0.21778163949E+02 -0.12499710325E+02  0.12748117460E+03  0.12993067791E+03  0.00000000000E+00 0.  1.
<scales pt_clust_5="13000.00000" pt_clust_6="13000.00000" pt_clust_7="13000.00000" pt_clust_8="13000.00000" pt_clust_9="25.11038"></scales>
<clustering>
<clus scale="   25.110">  1  9  2 -1</clus>
<clus scale="   80.510">  5  6 -1 -1</clus>
<clus scale="   94.732">  1  5  2 -1</clus>
<clus scale="  109.731">  7  8 -1 -1</clus>
<clus scale="   25.110">  1  5  2 -1</clus>
</clustering>
</event>
<event>
 9    2  0.1751298E-004  0.1599516E+03  0.7546771E-02  0.1189995E+00
          2   -1    0    0  502    0 -0.00000000000E+00  0.00000000000E+00  0.12545395621E+03  0.12545395621E+03  0.00000000000E+00 0. -1.
         21   -1    0    0  501  502  0.00000000000E+00 -0.00000000000E+00 -0.29955667132E+03  0.29955667132E+03  0.00000000000E+00 0. -1.
         23    2    1    2    0    0  0.11030961370E+03  0.11873295209E+03 -0.43617747705E+02  0.19097788510E+03  0.91128041219E+02 0.  0.
         24    2    1    2    0    0 -0.68001630857E+02 -0.69633425185E+02 -0.99474668123E+02  0.16218312435E+03  0.83277371025E+02 0.  0.
        -11    1    4    4    0    0 -0.10997341320E+02 -0.48675982602E+02 -0.53830383285E+01  0.50192329095E+02  0.00000000000E+00 0.  1.
         12    1    4    4    0    0 -0.57004289538E+02 -0.20957442583E+02 -0.94091629795E+02  0.11199079526E+03  0.00000000000E+00 0. -1.
        -11    1    3    3    0    0  0.49279370507E+02  0.92292547082E+02 -0.62457559932E+02  0.12184956872E+03  0.00000000000E+00 0.  1.
         11    1    3    3    0    0  0.61030243194E+02  0.26440405010E+02  0.18839812226E+02  0.69128316384E+02  0.00000000000E+00 0. -1.
          1    1    1    2  501    0 -0.42307982843E+02 -0.49099526907E+02 -0.31010299282E+02  0.71849618066E+02  0.00000000000E+00 0. -1.
<scales pt_clust_5="13000.00000" pt_clust_6="13000.00000" pt_clust_7="13000.00000" pt_clust_8="13000.00000" pt_clust_9="64.81303"></scales>
<clustering>
<clus scale="   64.813">  2  9  1 -1</clus>
<clus scale="   83.277">  5  6 -1 -1</clus>
<clus scale="   91.128">  7  8 -1 -1</clus>
<clus scale="  155.613">  2  5  1 -1</clus>
<clus scale="   64.813">  2  5  1 -1</clus>
</clustering>
</event>
<event>
 9    2  0.1751298E-004  0.1021069E+03  0.7546771E-02  0.1280432E+00
         21   -1    0    0  501  502  0.00000000000E+00  0.00000000000E+00  0.11956888304E+03  0.11956888304E+03  0.00000000000E+00 0.  1.
          2   -1    0    0  502    0 -0.00000000000E+00 -0.00000000000E+00 -0.25263455643E+03  0.25263455643E+03  0.00000000000E+00 0. -1.
         24    2    1    2    0    0  0.64218197916E+02 -0.30247770445E+02 -0.76685859340E+02  0.13145046048E+03  0.79747087577E+02 0.  0.
         23    2    1    2    0    0 -0.56293728503E+01 -0.44007555252E+02  0.38256666603E+02  0.10695250333E+03  0.89481342581E+02 0.  0.
        -11    1    3    3    0    0  0.68630153886E+02 -0.49130277450E+02 -0.48831207031E+02  0.97510865881E+02  0.00000000000E+00 0.  1.
         12    1    3    3    0    0 -0.44119559696E+01  0.18882507005E+02 -0.27854652309E+02  0.33939594598E+02  0.00000000000E+00 0. -1.
        -11    1    4    4    0    0 -0.12731071464E+02 -0.65708968376E+02  0.47755936614E+02  0.82221519005E+02  0.00000000000E+00 0.  1.
         11    1    4    4    0    0  0.71016986139E+01  0.21701413123E+02 -0.94992700104E+01  0.24730984321E+02  0.00000000000E+00 0. -1.
          1    1    1    2  501    0 -0.58588825066E+02  0.74255325697E+02 -0.94636480656E+02  0.13380047566E+03  0.00000000000E+00 0. -1.
<scales pt_clust_5="13000.00000" pt_clust_6="13000.00000" pt_clust_7="13000.00000" pt_clust_8="13000.00000" pt_clust_9="94.58601"></scales>
<clustering>
<clus scale="   79.747">  5  6 -1 -1</clus>
<clus scale="   89.481">  7  8 -1 -1</clus>
<clus scale="   94.586">  1  9  2 -1</clus>
<clus scale="   93.694">  2  5  1 -1</clus>
<clus scale="   94.586">  1  5  2 -1</clus>
</clustering>
</event>
<event>
 9    2  0.1751298E-004  0.9487437E+02  0.7546771E-02  0.1297867E+00
         21   -1    0    0  501  502  0.00000000000E+00  0.00000000000E+00  0.63489081203E+02  0.63489081203E+02  0.00000000000E+00 0.  1.
          2   -1    0    0  502    0 -0.00000000000E+00 -0.00000000000E+00 -0.65229731494E+03  0.65229731494E+03  0.00000000000E+00 0. -1.
         24    2    1    2    0    0 -0.11351533355E+02  0.20608290729E+02 -0.25471810197E+03  0.26808256727E+03  0.80208431288E+02 0.  0.
         23    2    1    2    0    0 -0.36656201613E+02 -0.60019675541E+02 -0.77796691335E+01  0.11553441743E+03  0.91332577924E+02 0.  0.
        -13    1    3    3    0    0  0.25085268991E+02 -0.13605547832E+02 -0.14109245581E+03  0.14394951455E+03  0.00000000000E+00 0.  1.
         14    1    3    3    0    0 -0.36436802346E+02  0.34213838561E+02 -0.11362564616E+03  0.12413305273E+03  0.00000000000E+00 0. -1.
        -11    1    4    4    0    0 -0.63822906288E+02 -0.60371022268E+02 -0.91720779386E+01  0.88329783824E+02  0.00000000000E+00 0.  1.
         11    1    4    4    0    0  0.27166704674E+02  0.35134672615E+00  0.13924088052E+01  0.27204633607E+02  0.00000000000E+00 0. -1.
          1    1    1    2  501    0  0.48007734968E+02  0.39411384813E+02 -0.32631046263E+03  0.33216941144E+03  0.00000000000E+00 0. -1.
<scales pt_clust_5="13000.00000" pt_clust_6="13000.00000" pt_clust_7="13000.00000" pt_clust_8="13000.00000" pt_clust_9="62.11283"></scales>
<clustering>
<clus scale="   62.113">  1  9  2 -1</clus>
<clus scale="   80.208">  5  6 -1 -1</clus>
<clus scale="   84.219">  2  5  1 -1</clus>
<clus scale="   91.333">  7  8 -1 -1</clus>
<clus scale="   62.113">  1  5  2 -1</clus>
</clustering>
</event>
<event>
 9    2  0.1751298E-004  0.1376174E+03  0.7546771E-02  0.1227238E+00
          2   -1    0    0  502    0 -0.00000000000E+00  0.00000000000E+00  0.67742603328E+03  0.67742603328E+03  0.00000000000E+00 0. -1.
         21   -1    0    0  501  502  0.00000000000E+00 -0.00000000000E+00 -0.12929100049E+03  0.12929100049E+03  0.00000000000E+00 0.  1.
         23    2    1    2    0    0 -0.59546898591E+02 -0.21198567103E+02  0.16564923276E+03  0.19889038013E+03  0.90124927819E+02 0.  0.
         24    2    1    2    0    0 -0.83687043042E+02  0.68015232116E+02 -0.54430973912E+02  0.14565349399E+03  0.81379459429E+02 0.  0.
        -11    1    4    4    0    0 -0.91569249392E+02  0.40555884553E+02 -0.22191465972E+02  0.10257762119E+03  0.00000000000E+00 0.  1.
         12    1    4    4    0    0  0.78822063499E+01  0.27459347562E+02 -0.32239507940E+02  0.43075872802E+02  0.00000000000E+00 0. -1.
        -11    1    3    3    0    0 -0.43098691962E+02  0.25199374241E+02  0.40100260160E+02  0.64035432191E+02  0.00000000000E+00 0. -1.
         11    1    3    3    0    0 -0.16448206630E+02 -0.46397941343E+02  0.12554897260E+03  0.13485494794E+03  0.00000000000E+00 0.  1.
          1    1    1    2  501    0  0.14323394163E+03 -0.46816665013E+02  0.43691677394E+03  0.46217315966E+03  0.00000000000E+00 0. -1.
<scales pt_clust_5="13000.00000" pt_clust_6="13000.00000" pt_clust_7="13000.00000" pt_clust_8="13000.00000" pt_clust_9="110.97725"></scales>
<clustering>
<clus scale="   81.379">  5  6 -1 -1</clus>
<clus scale="   90.125">  7  8 -1 -1</clus>
<clus scale="  110.080">  1  7  2 -1</clus>
<clus scale="  110.977">  2  9  1 -1</clus>
<clus scale="  110.977">  2  5  1 -1</clus>
</clustering>
</event>
<event>
 9    2  0.1751298E-004  0.9635819E+02  0.7546771E-02  0.1289797E+00
          2   -1    0    0  502    0 -0.00000000000E+00  0.00000000000E+00  0.47916535437E+03  0.47916535437E+03  0.00000000000E+00 0. -1.
         21   -1    0    0  501  502  0.00000000000E+00 -0.00000000000E+00 -0.78554606528E+02  0.78554606528E+02  0.00000000000E+00 0.  1.
         23    2    1    2    0    0  0.28983426540E+02  0.25795288163E+02  0.86221304387E+02  0.13101041051E+03  0.90687256144E+02 0.  0.
         24    2    1    2    0    0 -0.39849411478E+02  0.66990068181E+02  0.20854813773E+02  0.11866771751E+03  0.87014131556E+02 0.  0.
        -13    1    4    4    0    0 -0.56963838991E+02  0.64843458749E+02 -0.62536389044E+01  0.86537050415E+02  0.00000000000E+00 0.  1.
         14    1    4    4    0    0  0.17114427512E+02  0.21466094319E+01  0.27108452677E+02  0.32130667090E+02  0.00000000000E+00 0. -1.
        -13    1    3    3    0    0 -0.19766634752E+02 -0.76959112839E+01  0.64670963848E+02  0.68060858538E+02  0.00000000000E+00 0. -1.
         13    1    3    3    0    0  0.48750061292E+02  0.33491199447E+02  0.21550340539E+02  0.62949551974E+02  0.00000000000E+00 0.  1.
          1    1    1    2  501    0  0.10865984938E+02 -0.92785356344E+02  0.29353462968E+03  0.30804183288E+03  0.00000000000E+00 0. -1.
<scales pt_clust_5="13000.00000" pt_clust_6="13000.00000" pt_clust_7="13000.00000" pt_clust_8="13000.00000" pt_clust_9="93.41949"></scales>
<clustering>
<clus scale="   87.014">  5  6 -1 -1</clus>
<clus scale="   90.687">  7  8 -1 -1</clus>
<clus scale="   93.419">  2  9  1 -1</clus>
<clus scale="   93.419">  2  5  1 -1</clus>
<clus scale="   93.419">  2  5  1 -1</clus>
</clustering>
</event>
<event>
 9    2  0.1751298E-004  0.8885906E+02  0.7546771E-02  0.1309796E+00
         21   -1    0    0  501  502  0.00000000000E+00  0.00000000000E+00  0.31538902368E+03  0.31538902368E+03  0.00000000000E+00 0. -1.
          2   -1    0    0  502    0 -0.00000000000E+00 -0.00000000000E+00 -0.41110741448E+02  0.41110741448E+02  0.00000000000E+00 0. -1.
         23    2    1    2    0    0 -0.25433471787E+02  0.34910740190E+02  0.67625193419E+02  0.10847715456E+03  0.72996609577E+02 0.  0.
         24    2    1    2    0    0  0.45151015498E+01 -0.27865671581E+02  0.20917310342E+03  0.22580636249E+03  0.80238671169E+02 0.  0.
        -11    1    4    4    0    0  0.29615124936E+02  0.16630334329E+02  0.84981594428E+02  0.91517730722E+02  0.00000000000E+00 0.  1.
         12    1    4    4    0    0 -0.25100023387E+02 -0.44496005910E+02  0.12419150899E+03  0.13428863176E+03  0.00000000000E+00 0. -1.
        -13    1    3    3    0    0 -0.24994611652E+02 -0.16132910446E+02  0.97469498693E+01  0.31305022646E+02  0.00000000000E+00 0.  1.
         13    1    3    3    0    0 -0.43886013547E+00  0.51043650637E+02  0.57878243550E+02  0.77172131919E+02  0.00000000000E+00 0. -1.
          1    1    1    2  501    0  0.20918370237E+02 -0.70450686091E+01 -0.25200146027E+01  0.22216248079E+02  0.00000000000E+00 0. -1.
<scales pt_clust_5="13000.00000" pt_clust_6="13000.00000" pt_clust_7="13000.00000" pt_clust_8="13000.00000" pt_clust_9="22.07287"></scales>
<clustering>
<clus scale="   22.073">  1  9  2 -1</clus>
<clus scale="   72.997">  7  8 -1 -1</clus>
<clus scale="   80.239">  5  6 -1 -1</clus>
<clus scale="   82.378">  2  7  1 -1</clus>
<clus scale="   22.073">  1  5  2 -1</clus>
</clustering>
</event>
<event>
 9    2  0.1751298E-004  0.1055446E+03  0.7546771E-02  0.1273214E+00
          4   -1    0    0  502    0 -0.00000000000E+00  0.00000000000E+00  0.10369687936E+03  0.10369687936E+03  0.00000000000E+00 0. -1.
         21   -1    0    0  501  502  0.00000000000E+00 -0.00000000000E+00 -0.24929686984E+03  0.24929686984E+03  0.00000000000E+00 0.  1.
         24    2    1    2    0    0  0.17123946713E+02 -0.55956817580E+02  0.50359239440E+02  0.11207173747E+03  0.81238084412E+02 0.  0.
         23    2    1    2    0    0  0.15346012939E+02  0.37678489837E+02 -0.11702430433E+03  0.15363445234E+03  0.90849812510E+02 0.  0.
        -13    1    3    3    0    0  0.34507990657E+02  0.64379162348E+01  0.13991420419E+02  0.37788993503E+02  0.00000000000E+00 0.  1.
         14    1    3    3    0    0 -0.17384043944E+02 -0.62394733815E+02  0.36367819022E+02  0.74282743972E+02  0.00000000000E+00 0. -1.
        -11    1    4    4    0    0  0.52671968365E+02  0.24391436648E+02 -0.83730421854E+02  0.10188258918E+03  0.00000000000E+00 0.  1.
         11    1    4    4    0    0 -0.37325955426E+02  0.13287053189E+02 -0.33293882473E+02  0.51751863165E+02  0.00000000000E+00 0. -1.
          3    1    1    2  501    0 -0.32469959652E+02  0.18278327742E+02 -0.78934925589E+02  0.87287559380E+02  0.00000000000E+00 0. -1.
<scales pt_clust_5="13000.00000" pt_clust_6="13000.00000" pt_clust_7="13000.00000" pt_clust_8="13000.00000" pt_clust_9="37.26118"></scales>
<clustering>
<clus scale="   37.261">  2  9  1 -1</clus>
<clus scale="   81.238">  5  6 -1 -1</clus>
<clus scale="   90.850">  7  8 -1 -1</clus>
<clus scale="   97.394">  1  5  2 -1</clus>
<clus scale="   37.261">  2  5  1 -1</clus>
</clustering>
</event>
<event>
 9    2  0.1751298E-004  0.1555874E+03  0.7546771E-02  0.1195613E+00
         21   -1    0    0  501  502  0.00000000000E+00  0.00000000000E+00  0.33887777441E+03  0.33887777441E+03  0.00000000000E+00 0.  1.
         -3   -1    0    0    0  501 -0.00000000000E+00 -0.00000000000E+00 -0.36535905516E+03  0.36535905516E+03  0.00000000000E+00 0.  1.
         24    2    1    2    0    0 -0.55217444994E+02  0.11150870530E+03 -0.30536656239E+03  0.33925224215E+03  0.79750791781E+02 0.  0.
         23    2    1    2    0    0  0.83212240493E+02 -0.12302542666E+03  0.14154841142E+03  0.22435116548E+03  0.90763208991E+02 0.  0.
        -11    1    3    3    0    0 -0.51041371147E+02  0.67806738224E+02 -0.26954633875E+03  0.28259193911E+03  0.00000000000E+00 0.  1.
         12    1    3    3    0    0 -0.41760738467E+01  0.43701967077E+02 -0.35820223644E+02  0.56660303045E+02  0.00000000000E+00 0. -1.
        -11    1    4    4    0    0  0.28665028325E+02 -0.51909492236E+02  0.11740447964E+03  0.13152981058E+03  0.00000000000E+00 0. -1.
         11    1    4    4    0    0  0.54547212168E+02 -0.71115934420E+02  0.24143931785E+02  0.92821354901E+02  0.00000000000E+00 0.  1.
         -4    1    1    2    0  502 -0.27994795499E+02  0.11516721355E+02  0.13733687021E+03  0.14063342194E+03  0.00000000000E+00 0.  1.
<scales pt_clust_5="13000.00000" pt_clust_6="13000.00000" pt_clust_7="13000.00000" pt_clust_8="13000.00000" pt_clust_9="30.27117"></scales>
<clustering>
<clus scale="   30.271">  1  9  2 -1</clus>
<clus scale="   79.751">  5  6 -1 -1</clus>
<clus scale="   90.763">  7  8 -1 -1</clus>
<clus scale="  149.431">  2  5  1 -1</clus>
<clus scale="   30.271">  1  5  2 -1</clus>
</clustering>
</event>
<event>
 9    2  0.1751298E-004  0.9227272E+02  0.7546771E-02  0.1304784E+00
          2   -1    0    0  502    0 -0.00000000000E+00  0.00000000000E+00  0.40481058125E+03  0.40481058125E+03  0.00000000000E+00 0. -1.
         21   -1    0    0  501  502  0.00000000000E+00 -0.00000000000E+00 -0.59290406944E+02  0.59290406944E+02  0.00000000000E+00 0. -1.
         23    2    1    2    0    0  0.90299663651E+01 -0.10528091423E+02  0.32066973966E+03  0.33377126477E+03  0.91552139517E+02 0.  0.
         24    2    1    2    0    0 -0.62526608062E+01 -0.14885548451E+02 -0.15210567321E+02  0.82806567002E+02  0.79780266110E+02 0.  0.
        -11    1    4    4    0    0  0.16479418362E+02  0.23038393083E+02  0.12138292416E+02  0.30816828652E+02  0.00000000000E+00 0.  1.
         12    1    4    4    0    0 -0.22732079168E+02 -0.37923941534E+02 -0.27348859737E+02  0.51989738350E+02  0.00000000000E+00 0. -1.
        -13    1    3    3    0    0 -0.25734097048E+02 -0.35869380094E+02  0.10586072396E+03  0.11469677003E+03  0.00000000000E+00 0. -1.
         13    1    3    3    0    0  0.34764063413E+02  0.25341288672E+02  0.21480901571E+03  0.21907449474E+03  0.00000000000E+00 0.  1.
          1    1    1    2  501    0 -0.27773055589E+01  0.25413639873E+02  0.40061001964E+02  0.47523156420E+02  0.00000000000E+00 0. -1.
<scales pt_clust_5="13000.00000" pt_clust_6="13000.00000" pt_clust_7="13000.00000" pt_clust_8="13000.00000" pt_clust_9="25.56496"></scales>
<clustering>
<clus scale="   25.565">  2  9  1 -1</clus>
<clus scale="   79.780">  5  6 -1 -1</clus>
<clus scale="   80.606">  2  5  1 -1</clus>
<clus scale="   91.552">  7  8 -1 -1</clus>
<clus scale="   25.565">  2  5  1 -1</clus>
</clustering>
</event>
<event>
 9    2  0.1751298E-004  0.1069058E+03  0.7546771E-02  0.1269525E+00
          2   -1    0    0  502    0 -0.00000000000E+00  0.00000000000E+00  0.21006458839E+03  0.21006458839E+03  0.00000000000E+00 0. -1.
         21   -1    0    0  501  502  0.00000000000E+00 -0.00000000000E+00 -0.11620732304E+03  0.11620732304E+03  0.00000000000E+00 0.  1.
         24    2    1    2    0    0 -0.17359841808E+02 -0.43884924130E+02  0.13184792170E+02  0.97872747898E+02  0.84722991939E+02 0.  0.
         23    2    1    2    0    0  0.87049339336E+02 -0.35280715162E+00  0.25903379851E+02  0.12933728125E+03  0.92083849197E+02 0.  0.
        -13    1    3    3    0    0 -0.34555773068E+02 -0.62299581970E+02  0.14260049973E+02  0.72654582727E+02  0.00000000000E+00 0.  1.
         14    1    3    3    0    0  0.17195931260E+02  0.18414657840E+02 -0.10752578034E+01  0.25218165171E+02  0.00000000000E+00 0. -1.
        -11    1    4    4    0    0  0.73977153024E+01  0.26741163449E+02  0.35056036327E+02  0.44707289085E+02  0.00000000000E+00 0.  1.
         11    1    4    4    0    0  0.79651624033E+02 -0.27093970601E+02 -0.91526564766E+01  0.84629992170E+02  0.00000000000E+00 0. -1.
          1    1    1    2  501    0 -0.69689497527E+02  0.44237731282E+02  0.54769093332E+02  0.99061882271E+02  0.00000000000E+00 0. -1.
<scales pt_clust_5="13000.00000" pt_clust_6="13000.00000" pt_clust_7="13000.00000" pt_clust_8="13000.00000" pt_clust_9="82.54459"></scales>
<clustering>
<clus scale="   82.545">  2  9  1 -1</clus>
<clus scale="   84.723">  5  6 -1 -1</clus>
<clus scale="   92.084">  7  8 -1 -1</clus>
<clus scale="  100.635">  1  5  2 -1</clus>
<clus scale="   82.545">  2  5  1 -1</clus>
</clustering>
</event>
<event>
 9    2  0.1751298E-004  0.2273416E+03  0.7546771E-02  0.1129086E+00
         21   -1    0    0  501  502  0.00000000000E+00  0.00000000000E+00  0.17778559678E+03  0.17778559678E+03  0.00000000000E+00 0. -1.
          2   -1    0    0  502    0 -0.00000000000E+00 -0.00000000000E+00 -0.76380423542E+03  0.76380423542E+03  0.00000000000E+00 0. -1.
         23    2    1    2    0    0  0.13523983814E+03  0.15308201021E+03 -0.45505236161E+03  0.50671045453E+03  0.89212763946E+02 0.  0.
         24    2    1    2    0    0 -0.14940668162E+03 -0.18456709185E+03  0.45587335090E+02  0.25498166292E+03  0.80932536095E+02 0.  0.
        -13    1    4    4    0    0 -0.54556807288E+02 -0.20991645772E+02 -0.65971713733E+01  0.58827009815E+02  0.00000000000E+00 0.  1.
         14    1    4    4    0    0 -0.94849874331E+02 -0.16357544607E+03  0.52184506463E+02  0.19615465310E+03  0.00000000000E+00 0. -1.
        -13    1    3    3    0    0  0.95544861394E+02  0.95036351419E+02 -0.19303931238E+03  0.23542494505E+03  0.00000000000E+00 0. -1.
         13    1    3    3    0    0  0.39694976746E+02  0.58045658793E+02 -0.26201304923E+03  0.27128550948E+03  0.00000000000E+00 0.  1.
          1    1    1    2  501    0  0.14166843479E+02  0.31485081634E+02 -0.17655361212E+03  0.17989771475E+03  0.00000000000E+00 0. -1.
<scales pt_clust_5="13000.00000" pt_clust_6="13000.00000" pt_clust_7="13000.00000" pt_clust_8="13000.00000" pt_clust_9="34.52551"></scales>
<clustering>
<clus scale="   34.526">  1  9  2 -1</clus>
<clus scale="   80.933">  5  6 -1 -1</clus>
<clus scale="   89.213">  7  8 -1 -1</clus>
<clus scale="  224.222">  1  5  2 -1</clus>
<clus scale="   34.526">  1  5  2 -1</clus>
</clustering>
</event>
<event>
 9    2  0.1751298E-004  0.9499051E+02  0.7546771E-02  0.1297006E+00
         21   -1    0    0  501  502  0.00000000000E+00  0.00000000000E+00  0.11032747138E+03  0.11032747138E+03  0.00000000000E+00 0.  1.
         -1   -1    0    0    0  501 -0.00000000000E+00 -0.00000000000E+00 -0.14486370311E+03  0.14486370311E+03  0.00000000000E+00 0.  1.
         24    2    1    2    0    0 -0.11306017535E+02  0.39489828253E+02 -0.61400616890E+02  0.10901543735E+03  0.80168929507E+02 0.  0.
         23    2    1    2    0    0 -0.83426267634E+01 -0.11057570735E+02 -0.14094286168E+02  0.92583991060E+02  0.90450412968E+02 0.  0.
        -11    1    3    3    0    0 -0.36595931804E+02  0.28935270737E+02 -0.66408254172E+02  0.81157675788E+02  0.00000000000E+00 0.  1.
         12    1    3    3    0    0  0.25289914269E+02  0.10554557516E+02  0.50076372819E+01  0.27857761562E+02  0.00000000000E+00 0. -1.
        -13    1    4    4    0    0 -0.32658309834E+02 -0.18528010781E+02  0.25595661436E+02  0.45442164001E+02  0.00000000000E+00 0. -1.
         13    1    4    4    0    0  0.24315683070E+02  0.74704400461E+01 -0.39689947604E+02  0.47141827059E+02  0.00000000000E+00 0.  1.
         -2    1    1    2    0  502  0.19648644299E+02 -0.28432257518E+02  0.40958671329E+02  0.53591746075E+02  0.00000000000E+00 0.  1.
<scales pt_clust_5="13000.00000" pt_clust_6="13000.00000" pt_clust_7="13000.00000" pt_clust_8="13000.00000" pt_clust_9="34.56100"></scales>
<clustering>
<clus scale="   34.561">  1  9  2 -1</clus>
<clus scale="   80.169">  5  6 -1 -1</clus>
<clus scale="   85.258">  2  5  1 -1</clus>
<clus scale="   90.450">  7  8 -1 -1</clus>
<clus scale="   34.561">  1  5  2 -1</clus>
</clustering>
</event>
<event>
 9    2  0.1751298E-004  0.1237362E+03  0.7546771E-02  0.1258490E+00
          2   -1    0    0  502    0 -0.00000000000E+00  0.00000000000E+00  0.68677982854E+02  0.68677982854E+02  0.00000000000E+00 0. -1.
         21   -1    0    0  501  502  0.00000000000E+00 -0.00000000000E+00 -0.61848094078E+03  0.61848094078E+03  0.00000000000E+00 0. -1.
         24    2    1    2    0    0 -0.33917097899E+01  0.75469185213E+01 -0.10571308823E+03  0.13287959876E+03  0.80082901227E+02 0.  0.
         23    2    1    2    0    0 -0.13978667386E+02  0.75364800170E+02 -0.18367057214E+02  0.12021021037E+03  0.90762820802E+02 0.  0.
        -13    1    3    3    0    0 -0.12355866879E+02 -0.34417945489E+02 -0.38189821813E+02  0.52874614969E+02  0.00000000000E+00 0.  1.
         14    1    3    3    0    0  0.89641570887E+01  0.41964864011E+02 -0.67523266416E+02  0.80004983790E+02  0.00000000000E+00 0. -1.
        -13    1    4    4    0    0  0.30443937938E+02  0.11031552867E+01 -0.14105863536E+02  0.33571203357E+02  0.00000000000E+00 0.  1.
         13    1    4    4    0    0 -0.44422605324E+02  0.74261644883E+02 -0.42611936778E+01  0.86639007012E+02  0.00000000000E+00 0. -1.
          1    1    1    2  501    0  0.17370377176E+02 -0.82911718691E+02 -0.42572281248E+03  0.43406911451E+03  0.00000000000E+00 0. -1.
<scales pt_clust_5="13000.00000" pt_clust_6="13000.00000" pt_clust_7="13000.00000" pt_clust_8="13000.00000" pt_clust_9="84.09970"></scales>
<clustering>
<clus scale="   80.083">  5  6 -1 -1</clus>
<clus scale="   80.509">  1  5  2 -1</clus>
<clus scale="   84.100">  2  9  1 -1</clus>
<clus scale="   90.763">  7  8 -1 -1</clus>
<clus scale="   84.100">  2  5  1 -1</clus>
</clustering>
</event>
<event>
 9    2  0.3168018E-004  0.8937055E+02  0.7546771E-02  0.1309578E+00
          2   -1    0    0  502    0 -0.00000000000E+00  0.00000000000E+00  0.61349751452E+03  0.61349751452E+03  0.00000000000E+00 0. -1.
         21   -1    0    0  501  502  0.00000000000E+00 -0.00000000000E+00 -0.12375620200E+03  0.12375620200E+03  0.00000000000E+00 0.  1.
         24    2    1    2    0    0 -0.66510201994E+01 -0.12695505461E+02  0.57064837477E+03  0.57644338606E+03  0.80262056945E+02 0.  0.
         23    2    1    2    0    0  0.66894552491E+01 -0.22882530313E+02 -0.25691437122E+02  0.95124994454E+02  0.88432774600E+02 0.  0.
        -11    1    3    3    0    0  0.77946763240E+01  0.31580391534E+02  0.16883126273E+03  0.17193624802E+03  0.00000000000E+00 0.  1.
         12    1    3    3    0    0 -0.14445696523E+02 -0.44275896995E+02  0.40181711203E+03  0.40450713804E+03  0.00000000000E+00 0. -1.
        -13    1    4    4    0    0  0.15198686465E+02 -0.44157736450E+02  0.14466663158E+02  0.48889570479E+02  0.00000000000E+00 0. -1.
         13    1    4    4    0    0 -0.85092312159E+01  0.21275206138E+02 -0.40158100280E+02  0.46235423975E+02  0.00000000000E+00 0.  1.
          1    1    1    2  501    0 -0.38435049636E-01  0.35578035774E+02 -0.55215625127E+02  0.65685335996E+02  0.00000000000E+00 0. -1.
<scales pt_clust_5="13000.00000" pt_clust_6="13000.00000" pt_clust_7="13000.00000" pt_clust_8="13000.00000" pt_clust_9="35.57806"></scales>
<clustering>
<clus scale="   35.578">  2  9  1 -1</clus>
<clus scale="   80.262">  5  6 -1 -1</clus>
<clus scale="   81.294">  1  5  2 -1</clus>
<clus scale="   88.433">  7  8 -1 -1</clus>
<clus scale="   35.578">  2  5  1 -1</clus>
</clustering>
</event>
<event>
 9    2  0.1751298E-004  0.1062643E+03  0.7546771E-02  0.1271055E+00
          2   -1    0    0  502    0 -0.00000000000E+00  0.00000000000E+00  0.22942868449E+03  0.22942868449E+03  0.00000000000E+00 0. -1.
         21   -1    0    0  501  502  0.00000000000E+00 -0.00000000000E+00 -0.19624928866E+03  0.19624928866E+03  0.00000000000E+00 0.  1.
         23    2    1    2    0    0 -0.50826965171E+02 -0.40553585475E+02  0.16828536959E+03  0.20133430777E+03  0.89373173734E+02 0.  0.
         24    2    1    2    0    0  0.44726929186E+02 -0.37261899366E+02 -0.63203677715E+02  0.11821920875E+03  0.81191927562E+02 0.  0.
        -11    1    4    4    0    0 -0.52323591330E+01 -0.48420325129E+02 -0.31763852221E+02  0.58145058050E+02  0.00000000000E+00 0.  1.
         12    1    4    4    0    0  0.49959288319E+02  0.11158425763E+02 -0.31439825494E+02  0.60074150697E+02  0.00000000000E+00 0. -1.
        -11    1    3    3    0    0 -0.44209159450E+02  0.20587229330E+02  0.81306897683E+02  0.94810840106E+02  0.00000000000E+00 0. -1.
         11    1    3    3    0    0 -0.66178057206E+01 -0.61140814805E+02  0.86978471905E+02  0.10652346766E+03  0.00000000000E+00 0.  1.
          1    1    1    2  501    0  0.61000359850E+01  0.77815484841E+02 -0.71902296047E+02  0.10612445664E+03  0.00000000000E+00 0. -1.
<scales pt_clust_5="13000.00000" pt_clust_6="13000.00000" pt_clust_7="13000.00000" pt_clust_8="13000.00000" pt_clust_9="78.05421"></scales>
<clustering>
<clus scale="   78.054">  2  9  1 -1</clus>
<clus scale="   81.192">  5  6 -1 -1</clus>
<clus scale="   89.373">  7  8 -1 -1</clus>
<clus scale="   99.482">  2  5  1 -1</clus>
<clus scale="   78.054">  2  5  1 -1</clus>
</clustering>
</event>
<event>
 9    2  0.1751298E-004  0.9970895E+02  0.7546771E-02  0.1287401E+00
         21   -1    0    0  501  502  0.00000000000E+00  0.00000000000E+00  0.19168019777E+03  0.19168019777E+03  0.00000000000E+00 0.  1.
          2   -1    0    0  502    0 -0.00000000000E+00 -0.00000000000E+00 -0.10103461852E+03  0.10103461852E+03  0.00000000000E+00 0. -1.
         23    2    1    2    0    0 -0.11849936311E+02 -0.49389831579E+02  0.15597513208E+02  0.10720253497E+03  0.93109208093E+02 0.  0.
         24    2    1    2    0    0  0.49822770558E+02 -0.13690244486E+02  0.37529158374E+02  0.10287632928E+03  0.80655874792E+02 0.  0.
        -11    1    4    4    0    0  0.61656452446E+02 -0.31927444006E+02  0.13979123030E+02  0.70825812312E+02  0.00000000000E+00 0.  1.
         12    1    4    4    0    0 -0.11833681889E+02  0.18237199521E+02  0.23550035344E+02  0.32050516971E+02  0.00000000000E+00 0. -1.
        -13    1    3    3    0    0  0.19983619159E+02 -0.46076140928E+02 -0.24514433683E+02  0.55886610707E+02  0.00000000000E+00 0. -1.
         13    1    3    3    0    0 -0.31833555470E+02 -0.33136906518E+01  0.40111946892E+02  0.51315924264E+02  0.00000000000E+00 0.  1.
          1    1    1    2  501    0 -0.37972834246E+02  0.63080076065E+02  0.37518907670E+02  0.82635952042E+02  0.00000000000E+00 0. -1.
<scales pt_clust_5="13000.00000" pt_clust_6="13000.00000" pt_clust_7="13000.00000" pt_clust_8="13000.00000" pt_clust_9="73.62766"></scales>
<clustering>
<clus scale="   73.628">  1  9  2 -1</clus>
<clus scale="   80.656">  5  6 -1 -1</clus>
<clus scale="   88.193">  1  5  2 -1</clus>
<clus scale="   93.109">  7  8 -1 -1</clus>
<clus scale="   73.628">  1  5  2 -1</clus>
</clustering>
</event>
<event>
 9    2  0.1751298E-004  0.1067006E+03  0.7546771E-02  0.1269639E+00
         21   -1    0    0  501  502  0.00000000000E+00  0.00000000000E+00  0.69757963558E+02  0.69757963558E+02  0.00000000000E+00 0. -1.
          2   -1    0    0  502    0 -0.00000000000E+00 -0.00000000000E+00 -0.35447326914E+03  0.35447326914E+03  0.00000000000E+00 0. -1.
         23    2    1    2    0    0 -0.51300511068E+02 -0.36144248167E+02 -0.26052277677E+03  0.28228455977E+03  0.88737288444E+02 0.  0.
         24    2    1    2    0    0  0.26859312267E+02  0.33394713982E+02  0.17080785679E+02  0.93900667614E+02  0.81786016908E+02 0.  0.
        -11    1    4    4    0    0  0.98594242792E+01 -0.25770971276E+02 -0.58555371442E+01  0.28207065123E+02  0.00000000000E+00 0.  1.
         12    1    4    4    0    0  0.16999887988E+02  0.59165685258E+02  0.22936322823E+02  0.65693602491E+02  0.00000000000E+00 0. -1.
        -11    1    3    3    0    0 -0.35777630820E+02 -0.63827135323E+02 -0.14409617271E+03  0.16160955745E+03  0.00000000000E+00 0. -1.
         11    1    3    3    0    0 -0.15522880248E+02  0.27682887156E+02 -0.11642660406E+03  0.12067500232E+03  0.00000000000E+00 0.  1.
          1    1    1    2  501    0  0.24441198801E+02  0.27495341847E+01 -0.41273314495E+02  0.48046005313E+02  0.00000000000E+00 0. -1.
<scales pt_clust_5="13000.00000" pt_clust_6="13000.00000" pt_clust_7="13000.00000" pt_clust_8="13000.00000" pt_clust_9="24.59538"></scales>
<clustering>
<clus scale="   24.595">  1  9  2 -1</clus>
<clus scale="   81.786">  5  6 -1 -1</clus>
<clus scale="   88.737">  7  8 -1 -1</clus>
<clus scale="  100.993">  1  5  2 -1</clus>
<clus scale="   24.595">  1  5  2 -1</clus>
</clustering>
</event>
<event>
 9    2  0.1751298E-004  0.1189788E+03  0.7546771E-02  0.1251182E+00
          2   -1    0    0  502    0 -0.00000000000E+00  0.00000000000E+00  0.11385452335E+04  0.11385452335E+04  0.00000000000E+00 0. -1.
         21   -1    0    0  501  502  0.00000000000E+00 -0.00000000000E+00 -0.24282958502E+02  0.24282958502E+02  0.00000000000E+00 0. -1.
         24    2    1    2    0    0 -0.30835942126E+02 -0.59410389716E+02  0.50862884215E+03  0.51928778432E+03  0.80473934559E+02 0.  0.
         23    2    1    2    0    0 -0.56137063715E+02 -0.47505394664E+01  0.25937424961E+03  0.28080586211E+03  0.91667842149E+02 0.  0.
        -13    1    3    3    0    0  0.22163134642E+02  0.14547302756E+01  0.75299865447E+02  0.78507264082E+02  0.00000000000E+00 0.  1.
         14    1    3    3    0    0 -0.52999076769E+02 -0.60865119991E+02  0.43332897671E+03  0.44078052024E+03  0.00000000000E+00 0. -1.
        -11    1    4    4    0    0  0.24690184880E+02  0.75469547148E+01  0.59912268539E+02  0.65238345138E+02  0.00000000000E+00 0.  1.
         11    1    4    4    0    0 -0.80827248595E+02 -0.12297494181E+02  0.19946198107E+03  0.21556751697E+03  0.00000000000E+00 0. -1.
          1    1    1    2  501    0  0.86973005841E+02  0.64160929182E+02  0.34625918323E+03  0.36273454557E+03  0.00000000000E+00 0. -1.
<scales pt_clust_5="13000.00000" pt_clust_6="13000.00000" pt_clust_7="13000.00000" pt_clust_8="13000.00000" pt_clust_9="75.84830"></scales>
<clustering>
<clus scale="   80.474">  5  6 -1 -1</clus>
<clus scale="   91.668">  7  8 -1 -1</clus>
<clus scale="  104.673">  1  5  2 -1</clus>
<clus scale="   75.848">  2  9  1 -1</clus>
<clus scale="   75.848">  2  5  1 -1</clus>
</clustering>
</event>
<event>
 9    2  0.1751298E-004  0.2121359E+03  0.7546771E-02  0.1143731E+00
         21   -1    0    0  501  502  0.00000000000E+00  0.00000000000E+00  0.29018654074E+03  0.29018654074E+03  0.00000000000E+00 0.  1.
         -3   -1    0    0    0  501 -0.00000000000E+00 -0.00000000000E+00 -0.20637057646E+03  0.20637057646E+03  0.00000000000E+00 0.  1.
         24    2    1    2    0    0 -0.17537576960E+02 -0.18022163191E+03 -0.56879999746E+02  0.20972414617E+03  0.89227125369E+02 0.  0.
         23    2    1    2    0    0 -0.19682297528E+02  0.14996614304E+03  0.13607055536E+03  0.23864471449E+03  0.12473518679E+03 0.  0.
        -13    1    3    3    0    0  0.26456579956E+02 -0.10746815109E+03 -0.57454841397E+02  0.12470129478E+03  0.00000000000E+00 0.  1.
         14    1    3    3    0    0 -0.43994156917E+02 -0.72753480819E+02  0.57484165113E+00  0.85022851382E+02  0.00000000000E+00 0. -1.
        -13    1    4    4    0    0  0.46228456978E+02  0.35922280409E+02  0.16694721144E+02  0.60878519844E+02  0.00000000000E+00 0. -1.
         13    1    4    4    0    0 -0.65910754507E+02  0.11404386263E+03  0.11937583422E+03  0.17776619465E+03  0.00000000000E+00 0.  1.
         -4    1    1    2    0  502  0.37219874488E+02  0.30255488865E+02  0.46254086707E+01  0.48188256544E+02  0.00000000000E+00 0.  1.
<scales pt_clust_5="13000.00000" pt_clust_6="13000.00000" pt_clust_7="13000.00000" pt_clust_8="13000.00000" pt_clust_9="47.96578"></scales>
<clustering>
<clus scale="   47.966">  1  9  2 -1</clus>
<clus scale="   89.227">  5  6 -1 -1</clus>
<clus scale="  124.735">  7  8 -1 -1</clus>
<clus scale="  193.402">  2  5  1 -1</clus>
<clus scale="   47.966">  1  5  2 -1</clus>
</clustering>
</event>
<event>
 9    2  0.1751298E-004  0.1017626E+03  0.7546771E-02  0.1282631E+00
          2   -1    0    0  502    0 -0.00000000000E+00  0.00000000000E+00  0.11351197938E+04  0.11351197938E+04  0.00000000000E+00 0. -1.
         21   -1    0    0  501  502  0.00000000000E+00 -0.00000000000E+00 -0.25581819092E+02  0.25581819092E+02  0.00000000000E+00 0. -1.
         24    2    1    2    0    0 -0.52656577976E+02 -0.24819779664E+02  0.57244571321E+03  0.58098982968E+03  0.80413624131E+02 0.  0.
         23    2    1    2    0    0  0.11379454280E+01 -0.54053225390E+02  0.17235217646E+03  0.20300174876E+03  0.92635798558E+02 0.  0.
        -11    1    3    3    0    0 -0.49595955616E+02  0.20610160004E+02  0.30243701205E+03  0.30716881965E+03  0.00000000000E+00 0.  1.
         12    1    3    3    0    0 -0.30606223600E+01 -0.45429939667E+02  0.27000870117E+03  0.27382101003E+03  0.00000000000E+00 0. -1.
        -11    1    4    4    0    0 -0.42264820574E+02 -0.20863274748E+02  0.48486427510E+02  0.67620447677E+02  0.00000000000E+00 0. -1.
         11    1    4    4    0    0  0.43402766002E+02 -0.33189950641E+02  0.12386574895E+03  0.13538130108E+03  0.00000000000E+00 0.  1.
          1    1    1    2  501    0  0.51518632548E+02  0.78873005053E+02  0.36474008500E+03  0.37671003442E+03  0.00000000000E+00 0. -1.
<scales pt_clust_5="13000.00000" pt_clust_6="13000.00000" pt_clust_7="13000.00000" pt_clust_8="13000.00000" pt_clust_9="94.20790"></scales>
<clustering>
<clus scale="   80.414">  5  6 -1 -1</clus>
<clus scale="   92.636">  7  8 -1 -1</clus>
<clus scale="   94.208">  2  9  1 -1</clus>
<clus scale="   90.778">  1  5  2 -1</clus>
<clus scale="   94.208">  2  5  1 -1</clus>
</clustering>
</event>
<event>
 9    2  0.1751298E-004  0.2485870E+03  0.7546771E-02  0.1129472E+00
         -3   -1    0    0    0  501 -0.00000000000E+00  0.00000000000E+00  0.55249840914E+03  0.55249840914E+03  0.00000000000E+00 0.  1.
         21   -1    0    0  501  502  0.00000000000E+00 -0.00000000000E+00 -0.27492230851E+03  0.27492230851E+03  0.00000000000E+00 0.  1.
         23    2    1    2    0    0  0.13837751594E+03 -0.37602217945E+02 -0.64623337569E+02  0.18176416191E+03  0.91103079452E+02 0.  0.
         24    2    1    2    0    0 -0.13386588084E+03 -0.20465092595E+03  0.44385497863E+02  0.26172937040E+03  0.82037280328E+02 0.  0.
        -13    1    4    4    0    0 -0.38785234349E+02 -0.12977721654E+03  0.37342676137E+02  0.14050229819E+03  0.00000000000E+00 0.  1.
         14    1    4    4    0    0 -0.95080646492E+02 -0.74873709414E+02  0.70428217255E+01  0.12122707221E+03  0.00000000000E+00 0. -1.
        -11    1    3    3    0    0 -0.19452495327E+01 -0.27625180440E+02 -0.19630081525E+01  0.27763068834E+02  0.00000000000E+00 0. -1.
         11    1    3    3    0    0  0.14032276547E+03 -0.99770375053E+01 -0.62660329416E+02  0.15400109308E+03  0.00000000000E+00 0.  1.
         -4    1    1    2    0  502 -0.45116350995E+01  0.24225314390E+03  0.29781394033E+03  0.38392718533E+03  0.00000000000E+00 0.  1.
<scales pt_clust_5="13000.00000" pt_clust_6="13000.00000" pt_clust_7="13000.00000" pt_clust_8="13000.00000" pt_clust_9="234.66030"></scales>
<clustering>
<clus scale="   82.037">  5  6 -1 -1</clus>
<clus scale="   91.103">  7  8 -1 -1</clus>
<clus scale="  169.888">  1  7  2 -1</clus>
<clus scale="  234.660">  2  9  1 -1</clus>
<clus scale="  234.660">  2  5  1 -1</clus>
</clustering>
</event>
<event>
 9    2  0.1751298E-004  0.1088003E+03  0.7546771E-02  0.1275380E+00
          2   -1    0    0  502    0 -0.00000000000E+00  0.00000000000E+00  0.43886875012E+03  0.43886875012E+03  0.00000000000E+00 0. -1.
         21   -1    0    0  501  502  0.00000000000E+00 -0.00000000000E+00 -0.40096395604E+02  0.40096395604E+02  0.00000000000E+00 0. -1.
         23    2    1    2    0    0 -0.24861909388E+02 -0.30036257958E+02  0.22832894133E+03  0.25443969966E+03  0.10528610537E+03 0.  0.
         24    2    1    2    0    0 -0.11805638899E+01  0.77859359445E+01  0.41549039220E+02  0.91157358111E+02  0.80754732047E+02 0.  0.
        -11    1    4    4    0    0  0.15571197805E+02  0.30768281310E+02  0.50669882768E+02  0.61290997345E+02  0.00000000000E+00 0.  1.
         12    1    4    4    0    0 -0.16751761695E+02 -0.22982345366E+02 -0.91208435473E+01  0.29866360766E+02  0.00000000000E+00 0. -1.
        -11    1    3    3    0    0 -0.63875988426E+02 -0.12286683225E+02  0.17028238775E+03  0.18228328519E+03  0.00000000000E+00 0. -1.
         11    1    3    3    0    0  0.39014079038E+02 -0.17749574733E+02  0.58046553570E+02  0.72156414460E+02  0.00000000000E+00 0.  1.
          1    1    1    2  501    0  0.26042473278E+02  0.22250322014E+02  0.12889437397E+03  0.13336808795E+03  0.00000000000E+00 0. -1.
<scales pt_clust_5="13000.00000" pt_clust_6="13000.00000" pt_clust_7="13000.00000" pt_clust_8="13000.00000" pt_clust_9="34.25330"></scales>
<clustering>
<clus scale="   34.253">  2  9  1 -1</clus>
<clus scale="   80.755">  5  6 -1 -1</clus>
<clus scale="   85.286">  2  5  1 -1</clus>
<clus scale="  105.286">  7  8 -1 -1</clus>
<clus scale="   34.253">  2  5  1 -1</clus>
</clustering>
</event>
<event>
 9    2  0.1751298E-004  0.1255548E+03  0.7546771E-02  0.1239117E+00
         21   -1    0    0  501  502  0.00000000000E+00  0.00000000000E+00  0.57662263062E+02  0.57662263062E+02  0.00000000000E+00 0. -1.
          4   -1    0    0  502    0 -0.00000000000E+00 -0.00000000000E+00 -0.53124735337E+03  0.53124735337E+03  0.00000000000E+00 0. -1.
         23    2    1    2    0    0  0.43681893592E+02 -0.93834282630E+02 -0.28101223778E+03  0.31423937328E+03  0.95213053258E+02 0.  0.
         24    2    1    2    0    0  0.38141361902E+02  0.62631463339E+02 -0.94672213875E+02  0.14331882093E+03  0.78740032165E+02 0.  0.
        -11    1    4    4    0    0 -0.92315997334E+01  0.44809177649E+02 -0.77266089640E+02  0.89794952216E+02  0.00000000000E+00 0.  1.
         12    1    4    4    0    0  0.47372961636E+02  0.17822285690E+02 -0.17406124235E+02  0.53523868715E+02  0.00000000000E+00 0. -1.
        -11    1    3    3    0    0  0.40265010297E+02 -0.43555789648E+01 -0.15126378561E+03  0.15659174614E+03  0.00000000000E+00 0. -1.
         11    1    3    3    0    0  0.34168832953E+01 -0.89478703666E+02 -0.12974845217E+03  0.15764762714E+03  0.00000000000E+00 0.  1.
          3    1    1    2  501    0 -0.81823255495E+02  0.31202819292E+02 -0.97900638653E+02  0.13135142222E+03  0.00000000000E+00 0. -1.
<scales pt_clust_5="13000.00000" pt_clust_6="13000.00000" pt_clust_7="13000.00000" pt_clust_8="13000.00000" pt_clust_9="87.57089"></scales>
<clustering>
<clus scale="   78.740">  5  6 -1 -1</clus>
<clus scale="   87.571">  1  9  2 -1</clus>
<clus scale="   95.213">  7  8 -1 -1</clus>
<clus scale="  113.571">  1  5  2 -1</clus>
<clus scale="   87.571">  1  5  2 -1</clus>
</clustering>
</event>
<event>
 9    2  0.1751298E-004  0.9789208E+02  0.7546771E-02  0.1292766E+00
         21   -1    0    0  501  502  0.00000000000E+00  0.00000000000E+00  0.82747388366E+03  0.82747388366E+03  0.00000000000E+00 0.  1.
         -1   -1    0    0    0  501 -0.00000000000E+00 -0.00000000000E+00 -0.88088113092E+02  0.88088113092E+02  0.00000000000E+00 0.  1.
         24    2    1    2    0    0 -0.21567903187E+02  0.22871419830E+02 -0.50711679739E+02  0.99082769825E+02  0.79104010779E+02 0.  0.
         23    2    1    2    0    0 -0.45646521479E+02 -0.38770171186E+02  0.27172807724E+03  0.29352860200E+03  0.93467433553E+02 0.  0.
        -13    1    3    3    0    0 -0.49320315265E+02  0.28182289791E+02 -0.35626561301E+02  0.67052120218E+02  0.00000000000E+00 0.  1.
         14    1    3    3    0    0  0.27752412078E+02 -0.53108699615E+01 -0.15085118438E+02  0.32030649606E+02  0.00000000000E+00 0. -1.
        -11    1    4    4    0    0  0.21742580033E+02 -0.17515732034E+02  0.15167988315E+03  0.15422816737E+03  0.00000000000E+00 0. -1.
         11    1    4    4    0    0 -0.67389101512E+02 -0.21254439153E+02  0.12004819408E+03  0.13930043463E+03  0.00000000000E+00 0.  1.
         -2    1    1    2    0  502  0.67214424666E+02  0.15898751356E+02  0.51836937307E+03  0.52295062493E+03  0.00000000000E+00 0.  1.
<scales pt_clust_5="13000.00000" pt_clust_6="13000.00000" pt_clust_7="13000.00000" pt_clust_8="13000.00000" pt_clust_9="69.06916"></scales>
<clustering>
<clus scale="   69.069">  1  9  2 -1</clus>
<clus scale="   79.104">  5  6 -1 -1</clus>
<clus scale="   84.286">  2  5  1 -1</clus>
<clus scale="   93.467">  7  8 -1 -1</clus>
<clus scale="   69.069">  1  5  2 -1</clus>
</clustering>
</event>
<event>
 9    2  0.1751298E-004  0.2046553E+03  0.7546771E-02  0.1174756E+00
         -1   -1    0    0    0  501 -0.00000000000E+00  0.00000000000E+00  0.20139011037E+03  0.20139011037E+03  0.00000000000E+00 0.  1.
         21   -1    0    0  501  502  0.00000000000E+00 -0.00000000000E+00 -0.40676412361E+03  0.40676412361E+03  0.00000000000E+00 0.  1.
         23    2    1    2    0    0  0.17875033109E+02  0.48643124089E+02  0.14027471344E+02  0.10543502824E+03  0.90741968784E+02 0.  0.
         24    2    1    2    0    0  0.17451903545E+03 -0.58916091852E+02  0.13592031260E+02  0.20038331653E+03  0.77722137231E+02 0.  0.
        -11    1    4    4    0    0  0.14018010363E+03 -0.17050516161E+02 -0.94684511769E+01  0.14153032581E+03  0.00000000000E+00 0.  1.
         12    1    4    4    0    0  0.34338931814E+02 -0.41865575691E+02  0.23060482437E+02  0.58852990717E+02  0.00000000000E+00 0. -1.
        -11    1    3    3    0    0  0.37151735659E-01  0.73483173114E+02  0.14253836949E+02  0.74852855516E+02  0.00000000000E+00 0.  1.
         11    1    3    3    0    0  0.17837881373E+02 -0.24840049024E+02 -0.22636560494E+00  0.30582172729E+02  0.00000000000E+00 0. -1.
         -2    1    1    2    0  502 -0.19239406856E+03  0.10272967763E+02 -0.23299351584E+03  0.30233588922E+03  0.00000000000E+00 0.  1.
<scales pt_clust_5="13000.00000" pt_clust_6="13000.00000" pt_clust_7="13000.00000" pt_clust_8="13000.00000" pt_clust_9="189.32268"></scales>
<clustering>
<clus scale="   77.722">  5  6 -1 -1</clus>
<clus scale="   90.742">  7  8 -1 -1</clus>
<clus scale="  104.498">  1  7  2 -1</clus>
<clus scale="  189.323">  2  9  1 -1</clus>
<clus scale="  189.323">  2  5  1 -1</clus>
</clustering>
</event>
<event>
 9    2  0.1751298E-004  0.1102113E+03  0.7546771E-02  0.1264711E+00
         21   -1    0    0  501  502  0.00000000000E+00  0.00000000000E+00  0.93223037759E+02  0.93223037759E+02  0.00000000000E+00 0.  1.
          2   -1    0    0  502    0 -0.00000000000E+00 -0.00000000000E+00 -0.45666823238E+03  0.45666823238E+03  0.00000000000E+00 0. -1.
         24    2    1    2    0    0  0.17142667101E+02  0.49582602262E+02 -0.10926843414E+03  0.14569712112E+03  0.80844015978E+02 0.  0.
         23    2    1    2    0    0  0.59663553002E+00 -0.95353533496E+02  0.12288020445E+02  0.13324555523E+03  0.92253619000E+02 0.  0.
        -13    1    3    3    0    0 -0.30323442074E+02  0.32938887631E+02 -0.39621074208E+02  0.59785541555E+02  0.00000000000E+00 0.  1.
         14    1    3    3    0    0  0.47466109176E+02  0.16643714631E+02 -0.69647359937E+02  0.85911579564E+02  0.00000000000E+00 0. -1.
        -13    1    4    4    0    0  0.18622442954E+02 -0.10790188660E+03  0.33939912608E+01  0.10954967681E+03  0.00000000000E+00 0.  1.
         13    1    4    4    0    0 -0.18025807424E+02  0.12548353104E+02  0.88940291840E+01  0.23695878419E+02  0.00000000000E+00 0. -1.
          1    1    1    2  501    0 -0.17739302631E+02  0.45770931234E+02 -0.26646478092E+03  0.27094859378E+03  0.00000000000E+00 0. -1.
<scales pt_clust_5="13000.00000" pt_clust_6="13000.00000" pt_clust_7="13000.00000" pt_clust_8="13000.00000" pt_clust_9="49.08832"></scales>
<clustering>
<clus scale="   49.088">  1  9  2 -1</clus>
<clus scale="   80.844">  5  6 -1 -1</clus>
<clus scale="   92.254">  7  8 -1 -1</clus>
<clus scale="  100.854">  2  5  1 -1</clus>
<clus scale="   49.088">  1  5  2 -1</clus>
</clustering>
</event>
<event>
 9    2  0.1751298E-004  0.1384684E+03  0.7546771E-02  0.1217685E+00
          2   -1    0    0  502    0 -0.00000000000E+00  0.00000000000E+00  0.16189134027E+04  0.16189134027E+04  0.00000000000E+00 0. -1.
         21   -1    0    0  501  502  0.00000000000E+00 -0.00000000000E+00 -0.37334328734E+02  0.37334328734E+02  0.00000000000E+00 0. -1.
         24    2    1    2    0    0 -0.75933018497E+02  0.70381011442E+02  0.13101822306E+04  0.13166374451E+04  0.78977048574E+02 0.  0.
         23    2    1    2    0    0  0.66720494502E+02 -0.10267592649E+03  0.26515877404E+03  0.30545262774E+03  0.89432444174E+02 0.  0.
        -11    1    3    3    0    0 -0.21308049277E+02  0.20005092280E+02  0.10019960462E+03  0.10437527220E+03  0.00000000000E+00 0.  1.
         12    1    3    3    0    0 -0.54624969220E+02  0.50375919162E+02  0.12099826260E+04  0.12122621728E+04  0.00000000000E+00 0. -1.
        -13    1    4    4    0    0  0.46035081346E+02 -0.17315884764E+02  0.38782959381E+02  0.62635345597E+02  0.00000000000E+00 0.  1.
         13    1    4    4    0    0  0.20685413156E+02 -0.85360041724E+02  0.22637581466E+03  0.24281728214E+03  0.00000000000E+00 0. -1.
          1    1    1    2  501    0  0.92125239955E+01  0.32294915046E+02  0.62380693089E+01  0.34157658657E+02  0.00000000000E+00 0. -1.
<scales pt_clust_5="13000.00000" pt_clust_6="13000.00000" pt_clust_7="13000.00000" pt_clust_8="13000.00000" pt_clust_9="33.58321"></scales>
<clustering>
<clus scale="   33.583">  2  9  1 -1</clus>
<clus scale="   78.977">  5  6 -1 -1</clus>
<clus scale="   89.432">  7  8 -1 -1</clus>
<clus scale="  131.957">  1  5  2 -1</clus>
<clus scale="   33.583">  2  5  1 -1</clus>
</clustering>
</event>
<event>
 9    2  0.1751298E-004  0.1089865E+03  0.7546771E-02  0.1266498E+00
         21   -1    0    0  501  502  0.00000000000E+00  0.00000000000E+00  0.10298188698E+03  0.10298188698E+03  0.00000000000E+00 0.  1.
          4   -1    0    0  502    0 -0.00000000000E+00 -0.00000000000E+00 -0.27978910768E+03  0.27978910768E+03  0.00000000000E+00 0. -1.
         23    2    1    2    0    0 -0.63876435808E+02  0.79142800140E+01 -0.22626836789E+03  0.25199271857E+03  0.90333388201E+02 0.  0.
         24    2    1    2    0    0  0.43096146212E+02 -0.18450999812E+02  0.23309056980E+02  0.95752932096E+02  0.80172281091E+02 0.  0.
        -13    1    4    4    0    0  0.43328309532E+02 -0.12218009857E+01  0.48618278575E+02  0.65135030637E+02  0.00000000000E+00 0.  1.
         14    1    4    4    0    0 -0.23216331986E+00 -0.17229198826E+02 -0.25309221595E+02  0.30617901459E+02  0.00000000000E+00 0. -1.
        -11    1    3    3    0    0  0.21195123125E+01 -0.20531530360E+02 -0.78966469360E+01  0.22099617739E+02  0.00000000000E+00 0.  1.
         11    1    3    3    0    0 -0.65995948121E+02  0.28445810374E+02 -0.21837172096E+03  0.22989310083E+03  0.00000000000E+00 0. -1.
          3    1    1    2  501    0  0.20780289596E+02  0.10536719798E+02  0.26152090214E+02  0.35025344000E+02  0.00000000000E+00 0. -1.
<scales pt_clust_5="13000.00000" pt_clust_6="13000.00000" pt_clust_7="13000.00000" pt_clust_8="13000.00000" pt_clust_9="23.29899"></scales>
<clustering>
<clus scale="   23.299">  1  9  2 -1</clus>
<clus scale="   80.172">  5  6 -1 -1</clus>
<clus scale="   90.333">  7  8 -1 -1</clus>
<clus scale="  100.725">  1  5  2 -1</clus>
<clus scale="   23.299">  1  5  2 -1</clus>
</clustering>
</event>
<event>
 9    2  0.1751298E-004  0.1808492E+03  0.7546771E-02  0.1169765E+00
          2   -1    0    0  502    0 -0.00000000000E+00  0.00000000000E+00  0.17915292883E+04  0.17915292883E+04  0.00000000000E+00 0. -1.
         21   -1    0    0  501  502  0.00000000000E+00 -0.00000000000E+00 -0.57049329604E+02  0.57049329604E+02  0.00000000000E+00 0.  1.
         24    2    1    2    0    0  0.85632451676E+01 -0.16011755932E+03  0.15151339246E+04  0.15255810954E+04  0.77819709170E+02 0.  0.
         23    2    1    2    0    0 -0.29740121948E+02  0.74900144634E+02  0.61354552948E+02  0.14224416574E+03  0.99872493708E+02 0.  0.
        -13    1    3    3    0    0  0.26480268821E+01 -0.85710185667E+02  0.46807015745E+03  0.47586018983E+03  0.00000000000E+00 0.  1.
         14    1    3    3    0    0  0.59152182855E+01 -0.74407373653E+02  0.10470637672E+04  0.10497209056E+04  0.00000000000E+00 0. -1.
        -11    1    4    4    0    0 -0.45959369388E+01  0.71096180105E+02  0.82618994960E+02  0.10909485685E+03  0.00000000000E+00 0.  1.
         11    1    4    4    0    0 -0.25144185010E+02  0.38039645290E+01 -0.21264442013E+02  0.33149308892E+02  0.00000000000E+00 0. -1.
          1    1    1    2  501    0  0.21176876781E+02  0.85217414686E+02  0.15799148119E+03  0.18075335683E+03  0.00000000000E+00 0. -1.
<scales pt_clust_5="13000.00000" pt_clust_6="13000.00000" pt_clust_7="13000.00000" pt_clust_8="13000.00000" pt_clust_9="87.80927"></scales>
<clustering>
<clus scale="   77.820">  5  6 -1 -1</clus>
<clus scale="   87.809">  2  9  1 -1</clus>
<clus scale="   99.872">  7  8 -1 -1</clus>
<clus scale="  169.670">  1  5  2 -1</clus>
<clus scale="   87.809">  2  5  1 -1</clus>
</clustering>
</event>
<event>
 9    2  0.1751298E-004  0.1158685E+03  0.7546771E-02  0.1254685E+00
         -1   -1    0    0    0  501 -0.00000000000E+00  0.00000000000E+00  0.82542492901E+02  0.82542492901E+02  0.00000000000E+00 0.  1.
         21   -1    0    0  501  502  0.00000000000E+00 -0.00000000000E+00 -0.35198998560E+03  0.35198998560E+03  0.00000000000E+00 0. -1.
         23    2    1    2    0    0 -0.58055519954E+02  0.49420746287E+02  0.15201761077E+02  0.11938712091E+03  0.90605394646E+02 0.  0.
         24    2    1    2    0    0  0.27998183196E+02 -0.46248419709E+02 -0.25863150407E+03  0.27526515638E+03  0.77187025012E+02 0.  0.
        -11    1    4    4    0    0  0.47687981049E+02 -0.22483329829E+02 -0.94090353907E+02  0.10785470947E+03  0.00000000000E+00 0.  1.
         12    1    4    4    0    0 -0.19689797853E+02 -0.23765089880E+02 -0.16454115016E+03  0.16741044691E+03  0.00000000000E+00 0. -1.
        -11    1    3    3    0    0 -0.40323904010E+02  0.72391361141E+02 -0.65477618576E+01  0.83122798243E+02  0.00000000000E+00 0.  1.
         11    1    3    3    0    0 -0.17731615943E+02 -0.22970614853E+02  0.21749522934E+02  0.36264322668E+02  0.00000000000E+00 0. -1.
         -2    1    1    2    0  502  0.30057336757E+02 -0.31723265782E+01 -0.26017749705E+02  0.39880201210E+02  0.00000000000E+00 0.  1.
<scales pt_clust_5="13000.00000" pt_clust_6="13000.00000" pt_clust_7="13000.00000" pt_clust_8="13000.00000" pt_clust_9="30.22428"></scales>
<clustering>
<clus scale="   30.224">  2  9  1 -1</clus>
<clus scale="   77.187">  5  6 -1 -1</clus>
<clus scale="   90.605">  7  8 -1 -1</clus>
<clus scale="  105.707">  2  5  1 -1</clus>
<clus scale="   30.224">  2  5  1 -1</clus>
</clustering>
</event>
<event>
 9    2  0.1751298E-004  0.1685139E+03  0.7546771E-02  0.1180833E+00
         21   -1    0    0  501  502  0.00000000000E+00  0.00000000000E+00  0.24113438204E+03  0.24113438204E+03  0.00000000000E+00 0.  1.
          4   -1    0    0  502    0 -0.00000000000E+00 -0.00000000000E+00 -0.21995448907E+03  0.21995448907E+03  0.00000000000E+00 0. -1.
         23    2    1    2    0    0  0.14135801639E+03 -0.52867982232E+02 -0.13438616119E+03  0.22105685979E+03  0.89606822273E+02 0.  0.
         24    2    1    2    0    0 -0.10241652514E+03  0.41310994587E+02  0.14358375704E+03  0.19768134250E+03  0.79157280090E+02 0.  0.
        -13    1    4    4    0    0 -0.66292908937E+02 -0.13584911269E+02  0.53980164982E+02  0.86563027911E+02  0.00000000000E+00 0.  1.
         14    1    4    4    0    0 -0.36123616200E+02  0.54895905856E+02  0.89603592056E+02  0.11111831459E+03  0.00000000000E+00 0. -1.
        -13    1    3    3    0    0 -0.66125665725E+01 -0.23754034033E+02 -0.20802118066E+02  0.32260010625E+02  0.00000000000E+00 0.  1.
         13    1    3    3    0    0  0.14797058297E+03 -0.29113948200E+02 -0.11358404312E+03  0.18879684917E+03  0.00000000000E+00 0. -1.
          3    1    1    2  501    0 -0.38941491256E+02  0.11556987646E+02  0.11982297126E+02  0.42350668815E+02  0.00000000000E+00 0. -1.
<scales pt_clust_5="13000.00000" pt_clust_6="13000.00000" pt_clust_7="13000.00000" pt_clust_8="13000.00000" pt_clust_9="40.62024"></scales>
<clustering>
<clus scale="   40.620">  1  9  2 -1</clus>
<clus scale="   79.157">  5  6 -1 -1</clus>
<clus scale="   89.607">  7  8 -1 -1</clus>
<clus scale="  163.198">  1  5  2 -1</clus>
<clus scale="   40.620">  1  5  2 -1</clus>
</clustering>
</event>
<event>
 9    2  0.1751298E-004  0.1757512E+03  0.7546771E-02  0.1173419E+00
          2   -1    0    0  502    0 -0.00000000000E+00  0.00000000000E+00  0.34659615615E+03  0.34659615615E+03  0.00000000000E+00 0. -1.
         21   -1    0    0  501  502  0.00000000000E+00 -0.00000000000E+00 -0.13292831823E+03  0.13292831823E+03  0.00000000000E+00 0. -1.
         24    2    1    2    0    0 -0.16643831211E+03 -0.49683161422E+01  0.12707102247E+03  0.22474956759E+03  0.81479613862E+02 0.  0.
         23    2    1    2    0    0  0.12279984156E+03 -0.46913900575E+02  0.24283322938E+02  0.16269313947E+03  0.92728974454E+02 0.  0.
        -13    1    3    3    0    0 -0.12551735830E+03 -0.18798847416E+02  0.12971047993E+03  0.18147399952E+03  0.00000000000E+00 0.  1.
         14    1    3    3    0    0 -0.40920953806E+02  0.13830531274E+02 -0.26394574537E+01  0.43275568065E+02  0.00000000000E+00 0. -1.
        -11    1    4    4    0    0  0.33337170598E+02  0.19065448438E+02  0.33753905418E+02  0.51129095422E+02  0.00000000000E+00 0.  1.
         11    1    4    4    0    0  0.89462670961E+02 -0.65979349013E+02 -0.94705824803E+01  0.11156404405E+03  0.00000000000E+00 0. -1.
          1    1    1    2  501    0  0.43638470551E+02  0.51882216717E+02  0.62313492517E+02  0.92081767322E+02  0.00000000000E+00 0. -1.
<scales pt_clust_5="13000.00000" pt_clust_6="13000.00000" pt_clust_7="13000.00000" pt_clust_8="13000.00000" pt_clust_9="67.79443"></scales>
<clustering>
<clus scale="   67.794">  2  9  1 -1</clus>
<clus scale="   81.480">  5  6 -1 -1</clus>
<clus scale="   92.729">  7  8 -1 -1</clus>
<clus scale="  170.084">  1  5  2 -1</clus>
<clus scale="   67.794">  2  5  1 -1</clus>
</clustering>
</event>
<event>
 9    2  0.1751298E-004  0.1590989E+03  0.7546771E-02  0.1192398E+00
          2   -1    0    0  502    0 -0.00000000000E+00  0.00000000000E+00  0.24563292955E+03  0.24563292955E+03  0.00000000000E+00 0. -1.
         21   -1    0    0  501  502  0.00000000000E+00 -0.00000000000E+00 -0.43327231524E+03  0.43327231524E+03  0.00000000000E+00 0. -1.
         24    2    1    2    0    0 -0.63355248671E+02  0.12134495080E+03  0.17626270517E+03  0.23696269310E+03  0.79651064442E+02 0.  0.
         23    2    1    2    0    0  0.93717908236E+02 -0.33525547655E+02 -0.12760807531E+03  0.18803508736E+03  0.95741132870E+02 0.  0.
        -13    1    3    3    0    0 -0.24409318836E+02  0.54643717392E+01  0.34055135059E+01  0.25244241458E+02  0.00000000000E+00 0.  1.
         14    1    3    3    0    0 -0.38945929835E+02  0.11588057906E+03  0.17285719166E+03  0.21171845164E+03  0.00000000000E+00 0. -1.
        -13    1    4    4    0    0  0.46490160171E+02  0.29330198668E+02 -0.76728008627E+02  0.94386348878E+02  0.00000000000E+00 0. -1.
         13    1    4    4    0    0  0.47227748065E+02 -0.62855746323E+02 -0.50880066687E+02  0.93648738481E+02  0.00000000000E+00 0.  1.
          1    1    1    2  501    0 -0.30362659565E+02 -0.87819403148E+02 -0.23629401554E+03  0.25390746434E+03  0.00000000000E+00 0. -1.
<scales pt_clust_5="13000.00000" pt_clust_6="13000.00000" pt_clust_7="13000.00000" pt_clust_8="13000.00000" pt_clust_9="92.92007"></scales>
<clustering>
<clus scale="   79.651">  5  6 -1 -1</clus>
<clus scale="   92.920">  2  9  1 -1</clus>
<clus scale="   95.741">  7  8 -1 -1</clus>
<clus scale="  149.968">  1  5  2 -1</clus>
<clus scale="   92.920">  2  5  1 -1</clus>
</clustering>
</event>
<event>
 9    2  0.1751298E-004  0.1022925E+03  0.7546771E-02  0.1281646E+00
         21   -1    0    0  501  502  0.00000000000E+00  0.00000000000E+00  0.26952524035E+03  0.26952524035E+03  0.00000000000E+00 0. -1.
          2   -1    0    0  502    0 -0.00000000000E+00 -0.00000000000E+00 -0.28031770113E+03  0.28031770113E+03  0.00000000000E+00 0. -1.
         24    2    1    2    0    0 -0.54133003738E+02 -0.11822273322E+02 -0.23660370056E+03  0.25475956960E+03  0.76491692005E+02 0.  0.
         23    2    1    2    0    0  0.60081446655E+01  0.57308134532E+01  0.32289806746E+02  0.95574843279E+02  0.89571083632E+02 0.  0.
        -13    1    3    3    0    0  0.75446462193E+01 -0.21901601026E+02 -0.24833921236E+02  0.33960645725E+02  0.00000000000E+00 0.  1.
         14    1    3    3    0    0 -0.61677649957E+02  0.10079327704E+02 -0.21176977932E+03  0.22079892388E+03  0.00000000000E+00 0. -1.
        -11    1    4    4    0    0  0.33377806936E+02 -0.28049867870E+02  0.28159860132E+02  0.51902319852E+02  0.00000000000E+00 0.  1.
         11    1    4    4    0    0 -0.27369662270E+02  0.33780681323E+02  0.41299466139E+01  0.43672523427E+02  0.00000000000E+00 0. -1.
          1    1    1    2  501    0  0.48124859073E+02  0.60914598693E+01  0.19352143303E+03  0.19950852860E+03  0.00000000000E+00 0. -1.
<scales pt_clust_5="13000.00000" pt_clust_6="13000.00000" pt_clust_7="13000.00000" pt_clust_8="13000.00000" pt_clust_9="48.50884"></scales>
<clustering>
<clus scale="   48.509">  1  9  2 -1</clus>
<clus scale="   76.492">  5  6 -1 -1</clus>
<clus scale="   89.571">  7  8 -1 -1</clus>
<clus scale="   91.059">  2  5  1 -1</clus>
<clus scale="   48.509">  1  5  2 -1</clus>
</clustering>
</event>
<event>
 9    2  0.1751298E-004  0.1321576E+03  0.7546771E-02  0.1225987E+00
          2   -1    0    0  502    0 -0.00000000000E+00  0.00000000000E+00  0.36900081516E+03  0.36900081516E+03  0.00000000000E+00 0. -1.
         21   -1    0    0  501  502  0.00000000000E+00 -0.00000000000E+00 -0.20853246987E+03  0.20853246987E+03  0.00000000000E+00 0.  1.
         23    2    1    2    0    0 -0.47648190598E+02 -0.85844382643E+02  0.31948878399E+03  0.34654862945E+03  0.91560151719E+02 0.  0.
         24    2    1    2    0    0  0.39931710048E+01  0.78875296976E+02 -0.81251394415E+02  0.14152878299E+03  0.84801824471E+02 0.  0.
        -11    1    4    4    0    0 -0.39200823778E+02  0.51564579761E+02 -0.44794819362E+02  0.78753960615E+02  0.00000000000E+00 0.  1.
         12    1    4    4    0    0  0.43193994783E+02  0.27310717215E+02 -0.36456575053E+02  0.62774822379E+02  0.00000000000E+00 0. -1.
        -11    1    3    3    0    0 -0.20741209751E+02  0.13716508584E+02  0.11340596324E+03  0.11610018470E+03  0.00000000000E+00 0. -1.
         11    1    3    3    0    0 -0.26906980847E+02 -0.99560891227E+02  0.20608282075E+03  0.23044844475E+03  0.00000000000E+00 0.  1.
          1    1    1    2  501    0  0.43655019593E+02  0.69690856665E+01 -0.77769044279E+02  0.89455872579E+02  0.00000000000E+00 0. -1.
<scales pt_clust_5="13000.00000" pt_clust_6="13000.00000" pt_clust_7="13000.00000" pt_clust_8="13000.00000" pt_clust_9="44.20779"></scales>
<clustering>
<clus scale="   44.208">  2  9  1 -1</clus>
<clus scale="   84.802">  5  6 -1 -1</clus>
<clus scale="   91.560">  7  8 -1 -1</clus>
<clus scale="  127.568">  2  5  1 -1</clus>
<clus scale="   44.208">  2  5  1 -1</clus>
</clustering>
</event>
<event>
 9    2  0.1751298E-004  0.2214736E+03  0.7546771E-02  0.1132789E+00
         21   -1    0    0  501  502  0.00000000000E+00  0.00000000000E+00  0.21583876948E+03  0.21583876948E+03  0.00000000000E+00 0.  1.
          2   -1    0    0  502    0 -0.00000000000E+00 -0.00000000000E+00 -0.19363013386E+03  0.19363013386E+03  0.00000000000E+00 0. -1.
         24    2    1    2    0    0 -0.80911632416E+02 -0.35126813906E+02  0.82420578574E+02  0.14542438690E+03  0.81083384341E+02 0.  0.
         23    2    1    2    0    0 -0.35221375021E+02  0.23177168709E+02  0.42236485203E+02  0.10872114452E+03  0.90877060773E+02 0.  0.
        -13    1    3    3    0    0 -0.52297826857E+02 -0.18671052945E+02  0.95049993223E+02  0.11008256957E+03  0.00000000000E+00 0.  1.
         14    1    3    3    0    0 -0.28613805559E+02 -0.16455760961E+02 -0.12629414648E+02  0.35341817324E+02  0.00000000000E+00 0. -1.
        -11    1    4    4    0    0 -0.51346368736E+02  0.46772132188E+02  0.39771091277E+02  0.80036376937E+02  0.00000000000E+00 0.  1.
         11    1    4    4    0    0  0.16124993715E+02 -0.23594963479E+02  0.24653939265E+01  0.28684767579E+02  0.00000000000E+00 0. -1.
          1    1    1    2  501    0  0.11613300744E+03  0.11949645197E+02 -0.10244842816E+03  0.15532337193E+03  0.00000000000E+00 0. -1.
<scales pt_clust_5="13000.00000" pt_clust_6="13000.00000" pt_clust_7="13000.00000" pt_clust_8="13000.00000" pt_clust_9="116.74623"></scales>
<clustering>
<clus scale="   81.083">  5  6 -1 -1</clus>
<clus scale="   90.877">  7  8 -1 -1</clus>
<clus scale="   99.339">  5  7 -1 -1</clus>
<clus scale="  116.746">  1  9  2 -1</clus>
<clus scale="  116.746">  1  5  2 -1</clus>
</clustering>
</event>
<event>
 9    2  0.1751298E-004  0.1273329E+03  0.7546771E-02  0.1234354E+00
          2   -1    0    0  502    0 -0.00000000000E+00  0.00000000000E+00  0.22016653144E+03  0.22016653144E+03  0.00000000000E+00 0. -1.
         21   -1    0    0  501  502  0.00000000000E+00 -0.00000000000E+00 -0.14363818862E+03  0.14363818862E+03  0.00000000000E+00 0.  1.
         24    2    1    2    0    0 -0.91033803022E+02 -0.39881082794E+02  0.12814898302E+03  0.18096607080E+03  0.80305061321E+02 0.  0.
         23    2    1    2    0    0  0.71117577796E+02  0.44652056986E+00 -0.68849822330E+00  0.11541592453E+03  0.90898032726E+02 0.  0.
        -11    1    3    3    0    0 -0.39354255933E+02 -0.60315745501E+02  0.67503725411E+02  0.98709166544E+02  0.00000000000E+00 0.  1.
         12    1    3    3    0    0 -0.51679547089E+02  0.20434662707E+02  0.60645257604E+02  0.82256904252E+02  0.00000000000E+00 0. -1.
        -13    1    4    4    0    0  0.30602211722E+02  0.14849300937E+02  0.42524252077E+02  0.54454651916E+02  0.00000000000E+00 0. -1.
         13    1    4    4    0    0  0.40515366075E+02 -0.14402780368E+02 -0.43212750300E+02  0.60961272616E+02  0.00000000000E+00 0.  1.
          1    1    1    2  501    0  0.19916225226E+02  0.39434562224E+02 -0.50932141971E+02  0.67422724736E+02  0.00000000000E+00 0. -1.
<scales pt_clust_5="13000.00000" pt_clust_6="13000.00000" pt_clust_7="13000.00000" pt_clust_8="13000.00000" pt_clust_9="44.17851"></scales>
<clustering>
<clus scale="   44.179">  2  9  1 -1</clus>
<clus scale="   80.305">  5  6 -1 -1</clus>
<clus scale="   90.898">  7  8 -1 -1</clus>
<clus scale="  120.000">  1  5  2 -1</clus>
<clus scale="   44.179">  2  5  1 -1</clus>
</clustering>
</event>
<event>
 9    2  0.1751298E-004  0.9566296E+02  0.7546771E-02  0.1296255E+00
          2   -1    0    0  502    0 -0.00000000000E+00  0.00000000000E+00  0.33836625966E+03  0.33836625966E+03  0.00000000000E+00 0. -1.
         21   -1    0    0  501  502  0.00000000000E+00 -0.00000000000E+00 -0.72546458041E+02  0.72546458041E+02  0.00000000000E+00 0. -1.
         23    2    1    2    0    0  0.23541998473E+02 -0.16828474920E+01  0.37056602884E+02  0.10232700153E+03  0.92415181424E+02 0.  0.
         24    2    1    2    0    0  0.11137624864E+02 -0.51038586130E+02  0.31329737692E+02  0.10131247289E+03  0.80954806765E+02 0.  0.
        -11    1    4    4    0    0  0.29831580167E+02 -0.13856254986E+02 -0.17415158477E+02  0.37218365390E+02  0.00000000000E+00 0.  1.
         12    1    4    4    0    0 -0.18693955303E+02 -0.37182331145E+02  0.48744896170E+02  0.64094107505E+02  0.00000000000E+00 0. -1.
        -11    1    3    3    0    0  0.21670004567E+02  0.44317845477E+02  0.18407478311E+02  0.52654494428E+02  0.00000000000E+00 0. -1.
         11    1    3    3    0    0  0.18719939060E+01 -0.46000692969E+02  0.18649124573E+02  0.49672507106E+02  0.00000000000E+00 0.  1.
          1    1    1    2  501    0 -0.34679623337E+02  0.52721433622E+02  0.19743346104E+03  0.20727324327E+03  0.00000000000E+00 0. -1.
<scales pt_clust_5="13000.00000" pt_clust_6="13000.00000" pt_clust_7="13000.00000" pt_clust_8="13000.00000" pt_clust_9="63.10491"></scales>
<clustering>
<clus scale="   63.105">  2  9  1 -1</clus>
<clus scale="   80.955">  5  6 -1 -1</clus>
<clus scale="   84.643">  2  5  1 -1</clus>
<clus scale="   92.415">  7  8 -1 -1</clus>
<clus scale="   63.105">  2  5  1 -1</clus>
</clustering>
</event>
<event>
 9    2  0.1751298E-004  0.1167639E+03  0.7546771E-02  0.1252095E+00
          2   -1    0    0  502    0 -0.00000000000E+00  0.00000000000E+00  0.72800094923E+03  0.72800094923E+03  0.00000000000E+00 0. -1.
         21   -1    0    0  501  502  0.00000000000E+00 -0.00000000000E+00 -0.28557468999E+02  0.28557468999E+02  0.00000000000E+00 0. -1.
         23    2    1    2    0    0 -0.69287770106E+02  0.34545937301E+02  0.37688535284E+03  0.39556852174E+03  0.91856787116E+02 0.  0.
         24    2    1    2    0    0  0.73016595365E+02  0.14252817756E+02  0.25242844812E+03  0.27547150930E+03  0.81423982957E+02 0.  0.
        -13    1    4    4    0    0  0.17627452938E+02 -0.31189510172E+02  0.56995552825E+02  0.67320172933E+02  0.00000000000E+00 0.  1.
         14    1    4    4    0    0  0.55389142427E+02  0.45442327928E+02  0.19543289530E+03  0.20815133636E+03  0.00000000000E+00 0. -1.
        -11    1    3    3    0    0 -0.53962821157E+02  0.63410877144E+02  0.31197645215E+03  0.32289662758E+03  0.00000000000E+00 0. -1.
         11    1    3    3    0    0 -0.15324948949E+02 -0.28864939843E+02  0.64908900690E+02  0.72671894162E+02  0.00000000000E+00 0.  1.
          1    1    1    2  501    0 -0.37288252591E+01 -0.48798755057E+02  0.70129679273E+02  0.85518387191E+02  0.00000000000E+00 0. -1.
<scales pt_clust_5="13000.00000" pt_clust_6="13000.00000" pt_clust_7="13000.00000" pt_clust_8="13000.00000" pt_clust_9="48.94101"></scales>
<clustering>
<clus scale="   48.941">  2  9  1 -1</clus>
<clus scale="   81.424">  5  6 -1 -1</clus>
<clus scale="   91.857">  7  8 -1 -1</clus>
<clus scale="  108.747">  2  5  1 -1</clus>
<clus scale="   48.941">  2  5  1 -1</clus>
</clustering>
</event>
<event>
 9    2  0.1751298E-004  0.9387079E+02  0.7546771E-02  0.1299498E+00
         21   -1    0    0  501  502  0.00000000000E+00  0.00000000000E+00  0.27515595677E+03  0.27515595677E+03  0.00000000000E+00 0. -1.
          2   -1    0    0  502    0 -0.00000000000E+00 -0.00000000000E+00 -0.11475824145E+03  0.11475824145E+03  0.00000000000E+00 0. -1.
         24    2    1    2    0    0  0.15720419374E+02 -0.17019416343E+02 -0.67764772642E+02  0.10856601280E+03  0.81594868748E+02 0.  0.
         23    2    1    2    0    0  0.61928077243E+01  0.65699938045E+01  0.23803971012E+03  0.25513865527E+03  0.91385524745E+02 0.  0.
        -11    1    3    3    0    0 -0.34421199329E+01 -0.43490192526E+02 -0.14309139085E+02  0.45912922984E+02  0.00000000000E+00 0.  1.
         12    1    3    3    0    0  0.19162539307E+02  0.26470776183E+02 -0.53455633558E+02  0.62653089816E+02  0.00000000000E+00 0. -1.
        -11    1    4    4    0    0  0.41069021021E+02  0.20770638939E+02  0.18122627426E+03  0.18697873251E+03  0.00000000000E+00 0. -1.
         11    1    4    4    0    0 -0.34876213296E+02 -0.14200645134E+02  0.56813435854E+02  0.68159922753E+02  0.00000000000E+00 0.  1.
          1    1    1    2  501    0 -0.21913227098E+02  0.10449422539E+02 -0.98772221514E+01  0.26209530150E+02  0.00000000000E+00 0. -1.
<scales pt_clust_5="13000.00000" pt_clust_6="13000.00000" pt_clust_7="13000.00000" pt_clust_8="13000.00000" pt_clust_9="24.27716"></scales>
<clustering>
<clus scale="   24.277">  1  9  2 -1</clus>
<clus scale="   81.595">  5  6 -1 -1</clus>
<clus scale="   84.369">  2  5  1 -1</clus>
<clus scale="   91.386">  7  8 -1 -1</clus>
<clus scale="   24.277">  1  5  2 -1</clus>
</clustering>
</event>
<event>
 9    2  0.1751298E-004  0.1257536E+03  0.7546771E-02  0.1245775E+00
          2   -1    0    0  502    0 -0.00000000000E+00  0.00000000000E+00  0.10637443881E+03  0.10637443881E+03  0.00000000000E+00 0. -1.
         21   -1    0    0  501  502  0.00000000000E+00 -0.00000000000E+00 -0.40766145745E+03  0.40766145745E+03  0.00000000000E+00 0. -1.
         23    2    1    2    0    0  0.39004614048E+02  0.20996169122E+02 -0.15575409735E+03  0.18444219566E+03  0.88302806645E+02 0.  0.
         24    2    1    2    0    0  0.46311227987E+02 -0.76681107313E+02  0.33879599265E+02  0.12327245163E+03  0.77611519946E+02 0.  0.
        -11    1    4    4    0    0  0.23097557133E+02 -0.33541766243E+02 -0.24136109167E+02  0.47340247084E+02  0.00000000000E+00 0.  1.
         12    1    4    4    0    0  0.23213670854E+02 -0.43139341070E+02  0.58015708433E+02  0.75932204547E+02  0.00000000000E+00 0. -1.
        -13    1    3    3    0    0  0.22094268890E+02 -0.26162818058E+02 -0.11460062959E+03  0.11960750005E+03  0.00000000000E+00 0. -1.
         13    1    3    3    0    0  0.16910345158E+02  0.47158987179E+02 -0.41153467767E+02  0.64834695607E+02  0.00000000000E+00 0.  1.
          1    1    1    2  501    0 -0.85315842035E+02  0.55684938191E+02 -0.17941252056E+03  0.20632124897E+03  0.00000000000E+00 0. -1.
<scales pt_clust_5="13000.00000" pt_clust_6="13000.00000" pt_clust_7="13000.00000" pt_clust_8="13000.00000" pt_clust_9="98.94649"></scales>
<clustering>
<clus scale="   77.612">  5  6 -1 -1</clus>
<clus scale="   88.303">  7  8 -1 -1</clus>
<clus scale="   98.791">  1  7  2 -1</clus>
<clus scale="   98.946">  2  9  1 -1</clus>
<clus scale="   98.946">  2  5  1 -1</clus>
</clustering>
</event>
<event>
 9    2  0.1751298E-004  0.9648987E+02  0.7546771E-02  0.1299581E+00
          2   -1    0    0  502    0 -0.00000000000E+00  0.00000000000E+00  0.42612880819E+03  0.42612880819E+03  0.00000000000E+00 0. -1.
         21   -1    0    0  501  502  0.00000000000E+00 -0.00000000000E+00 -0.51899075333E+02  0.51899075333E+02  0.00000000000E+00 0.  1.
         24    2    1    2    0    0  0.52550177213E+02 -0.13751996264E+01  0.20947192461E+03  0.22777516199E+03  0.72385253480E+02 0.  0.
         23    2    1    2    0    0  0.35447080467E+02  0.12111401501E+02  0.84930043480E+02  0.13095789592E+03  0.92377901354E+02 0.  0.
        -11    1    3    3    0    0  0.31557701294E+02  0.35164724465E+02  0.10621150374E+03  0.11624684893E+03  0.00000000000E+00 0.  1.
         12    1    3    3    0    0  0.20992475918E+02 -0.36539924092E+02  0.10326042087E+03  0.11152831307E+03  0.00000000000E+00 0. -1.
        -13    1    4    4    0    0  0.59453317150E+02  0.22174551024E+02  0.30033547493E+02  0.70202717955E+02  0.00000000000E+00 0.  1.
         13    1    4    4    0    0 -0.24006236683E+02 -0.10063149523E+02  0.54896495986E+02  0.60755177965E+02  0.00000000000E+00 0. -1.
          1    1    1    2  501    0 -0.87997257680E+02 -0.10736201875E+02  0.79827764767E+02  0.11929482561E+03  0.00000000000E+00 0. -1.
<scales pt_clust_5="13000.00000" pt_clust_6="13000.00000" pt_clust_7="13000.00000" pt_clust_8="13000.00000" pt_clust_9="88.64978"></scales>
<clustering>
<clus scale="   72.385">  5  6 -1 -1</clus>
<clus scale="   88.650">  2  9  1 -1</clus>
<clus scale="   77.564">  1  5  2 -1</clus>
<clus scale="   92.378">  7  8 -1 -1</clus>
<clus scale="   88.650">  2  5  1 -1</clus>
</clustering>
</event>
<event>
 9    2  0.1751298E-004  0.1469577E+03  0.7546771E-02  0.1221284E+00
          2   -1    0    0  502    0 -0.00000000000E+00  0.00000000000E+00  0.73406356930E+03  0.73406356930E+03  0.00000000000E+00 0. -1.
         21   -1    0    0  501  502  0.00000000000E+00 -0.00000000000E+00 -0.60618281554E+02  0.60618281554E+02  0.00000000000E+00 0. -1.
         23    2    1    2    0    0  0.43127906131E+02 -0.22132441579E+02  0.38940674546E+03  0.40263142103E+03  0.90136488335E+02 0.  0.
         24    2    1    2    0    0  0.16973778869E+01 -0.10411844592E+03  0.14536529429E+03  0.19923221909E+03  0.87857136704E+02 0.  0.
        -11    1    4    4    0    0 -0.40487956625E+02 -0.52782253324E+02  0.94436052078E+02  0.11551367378E+03  0.00000000000E+00 0.  1.
         12    1    4    4    0    0  0.42185334512E+02 -0.51336192591E+02  0.50929242210E+02  0.83718545316E+02  0.00000000000E+00 0. -1.
        -11    1    3    3    0    0 -0.94104883215E+01  0.27742900961E+02  0.93249567110E+02  0.97743069373E+02  0.00000000000E+00 0.  1.
         11    1    3    3    0    0  0.52538394452E+02 -0.49875342539E+02  0.29615717835E+03  0.30488835165E+03  0.00000000000E+00 0. -1.
          1    1    1    2  501    0 -0.44825284017E+02  0.12625088749E+03  0.13867324799E+03  0.19281821073E+03  0.00000000000E+00 0. -1.
<scales pt_clust_5="13000.00000" pt_clust_6="13000.00000" pt_clust_7="13000.00000" pt_clust_8="13000.00000" pt_clust_9="117.80364"></scales>
<clustering>
<clus scale="   87.857">  5  6 -1 -1</clus>
<clus scale="   90.136">  7  8 -1 -1</clus>
<clus scale="  102.345">  1  7  2 -1</clus>
<clus scale="  117.804">  2  9  1 -1</clus>
<clus scale="  117.804">  2  5  1 -1</clus>
</clustering>
</event>
<event>
 9    2  0.1751298E-004  0.9744135E+02  0.7546771E-02  0.1287934E+00
          2   -1    0    0  502    0 -0.00000000000E+00  0.00000000000E+00  0.28458262927E+03  0.28458262927E+03  0.00000000000E+00 0. -1.
         21   -1    0    0  501  502  0.00000000000E+00 -0.00000000000E+00 -0.72365069683E+02  0.72365069683E+02  0.00000000000E+00 0.  1.
         23    2    1    2    0    0  0.19545232257E+02 -0.25515044938E+02  0.15923207857E+03  0.18568112384E+03  0.89942155219E+02 0.  0.
         24    2    1    2    0    0 -0.48301271681E+02  0.37553708196E+02 -0.50041855972E+01  0.10542858721E+03  0.85713775331E+02 0.  0.
        -13    1    4    4    0    0 -0.55568980259E+02  0.45315803525E+02 -0.30411087374E+02  0.77886249437E+02  0.00000000000E+00 0.  1.
         14    1    4    4    0    0  0.72677085782E+01 -0.77620953291E+01  0.25406901777E+02  0.27542337769E+02  0.00000000000E+00 0. -1.
        -11    1    3    3    0    0  0.31858361221E+02  0.26010446514E+02  0.85646558392E+02  0.95009638837E+02  0.00000000000E+00 0.  1.
         11    1    3    3    0    0 -0.12313128964E+02 -0.51525491452E+02  0.73585520175E+02  0.90671485008E+02  0.00000000000E+00 0. -1.
          1    1    1    2  501    0  0.28756039424E+02 -0.12038663258E+02  0.57989666617E+02  0.65837987900E+02  0.00000000000E+00 0. -1.
<scales pt_clust_5="13000.00000" pt_clust_6="13000.00000" pt_clust_7="13000.00000" pt_clust_8="13000.00000" pt_clust_9="31.17435"></scales>
<clustering>
<clus scale="   31.174">  2  9  1 -1</clus>
<clus scale="   85.714">  5  6 -1 -1</clus>
<clus scale="   89.942">  7  8 -1 -1</clus>
<clus scale="   93.553">  2  5  1 -1</clus>
<clus scale="   31.174">  2  5  1 -1</clus>
</clustering>
</event>
<event>
 9    2  0.1751298E-004  0.1122453E+03  0.7546771E-02  0.1263454E+00
         -1   -1    0    0    0  501 -0.00000000000E+00  0.00000000000E+00  0.96899229458E+02  0.96899229458E+02  0.00000000000E+00 0.  1.
         21   -1    0    0  501  502  0.00000000000E+00 -0.00000000000E+00 -0.24860831871E+03  0.24860831871E+03  0.00000000000E+00 0. -1.
         23    2    1    2    0    0 -0.58268149084E+02 -0.30840612118E+02  0.35945838527E+02  0.11988015416E+03  0.93449598715E+02 0.  0.
         24    2    1    2    0    0  0.29370960195E+02  0.43225215606E+02 -0.15584802401E+03  0.18090485991E+03  0.75543955304E+02 0.  0.
        -13    1    4    4    0    0 -0.15842753014E+02  0.43818740644E+02 -0.76230573533E+02  0.89343019849E+02  0.00000000000E+00 0.  1.
         14    1    4    4    0    0  0.45213713209E+02 -0.59352503827E+00 -0.79617450476E+02  0.91561840056E+02  0.00000000000E+00 0. -1.
        -13    1    3    3    0    0 -0.15853923061E+01 -0.32204234765E+02 -0.21824063528E+02  0.38934765370E+02  0.00000000000E+00 0. -1.
         13    1    3    3    0    0 -0.56682756777E+02  0.13636226470E+01  0.57769902055E+02  0.80945388788E+02  0.00000000000E+00 0.  1.
         -2    1    1    2    0  502  0.28897188889E+02 -0.12384603488E+02 -0.31806903770E+02  0.44722534104E+02  0.00000000000E+00 0.  1.
<scales pt_clust_5="13000.00000" pt_clust_6="13000.00000" pt_clust_7="13000.00000" pt_clust_8="13000.00000" pt_clust_9="31.43924"></scales>
<clustering>
<clus scale="   31.439">  2  9  1 -1</clus>
<clus scale="   75.544">  5  6 -1 -1</clus>
<clus scale="   93.450">  7  8 -1 -1</clus>
<clus scale="   97.842">  2  5  1 -1</clus>
<clus scale="   31.439">  2  5  1 -1</clus>
</clustering>
</event>
<event>
 9    2  0.1751298E-004  0.1214338E+03  0.7546771E-02  0.1255786E+00
          2   -1    0    0  502    0 -0.00000000000E+00  0.00000000000E+00  0.19481746834E+03  0.19481746834E+03  0.00000000000E+00 0. -1.
         21   -1    0    0  501  502  0.00000000000E+00 -0.00000000000E+00 -0.12646840794E+03  0.12646840794E+03  0.00000000000E+00 0.  1.
         24    2    1    2    0    0 -0.14741844160E+02  0.38381433151E+02  0.13747771876E+02  0.90894286444E+02  0.79889384130E+02 0.  0.
         23    2    1    2    0    0  0.18011400238E+02  0.63086134020E+02 -0.36363614421E+01  0.11335321553E+03  0.92365889282E+02 0.  0.
        -13    1    3    3    0    0 -0.29108143518E+02  0.29079199286E+01 -0.23473932054E+02  0.37506872750E+02  0.00000000000E+00 0.  1.
         14    1    3    3    0    0  0.14366299358E+02  0.35473513222E+02  0.37221703930E+02  0.53387413695E+02  0.00000000000E+00 0. -1.
        -11    1    4    4    0    0  0.11438721367E+02  0.84637467827E+02  0.11546276541E+02  0.86183883695E+02  0.00000000000E+00 0.  1.
         11    1    4    4    0    0  0.65726788709E+01 -0.21551333807E+02 -0.15182637983E+02  0.27169331838E+02  0.00000000000E+00 0. -1.
          1    1    1    2  501    0 -0.32695560782E+01 -0.10146756717E+03  0.58237649967E+02  0.11703837430E+03  0.00000000000E+00 0. -1.
<scales pt_clust_5="13000.00000" pt_clust_6="13000.00000" pt_clust_7="13000.00000" pt_clust_8="13000.00000" pt_clust_9="78.83347"></scales>
<clustering>
<clus scale="   79.889">  5  6 -1 -1</clus>
<clus scale="   89.849">  1  5  2 -1</clus>
<clus scale="   78.833">  2  9  1 -1</clus>
<clus scale="   92.366">  7  8 -1 -1</clus>
<clus scale="   78.833">  2  5  1 -1</clus>
</clustering>
</event>
<event>
 9    2  0.1751298E-004  0.1075807E+03  0.7546771E-02  0.1269532E+00
          2   -1    0    0  502    0 -0.00000000000E+00  0.00000000000E+00  0.66400617678E+03  0.66400617678E+03  0.00000000000E+00 0. -1.
         21   -1    0    0  501  502  0.00000000000E+00 -0.00000000000E+00 -0.58961554173E+02  0.58961554173E+02  0.00000000000E+00 0. -1.
         24    2    1    2    0    0 -0.45837475136E+02 -0.14151483435E+02  0.40451986774E+03  0.41533229007E+03  0.81013882531E+02 0.  0.
         23    2    1    2    0    0  0.81930840994E+02  0.87732379781E+02  0.13801173623E+03  0.20455897963E+03  0.91583315303E+02 0.  0.
        -11    1    3    3    0    0 -0.51397746036E+02 -0.39842305384E+02  0.23689869407E+03  0.24566263218E+03  0.00000000000E+00 0.  1.
         12    1    3    3    0    0  0.55602708997E+01  0.25690821950E+02  0.16762117367E+03  0.16966965789E+03  0.00000000000E+00 0. -1.
        -11    1    4    4    0    0  0.46306564937E+02  0.85699953254E+02  0.13795132316E+03  0.16887672281E+03  0.00000000000E+00 0. -1.
         11    1    4    4    0    0  0.35624276057E+02  0.20324265270E+01  0.60413067598E-01  0.35682256822E+02  0.00000000000E+00 0.  1.
          1    1    1    2  501    0 -0.36093365858E+02 -0.73580896347E+02  0.62513018630E+02  0.10307646125E+03  0.00000000000E+00 0. -1.
<scales pt_clust_5="13000.00000" pt_clust_6="13000.00000" pt_clust_7="13000.00000" pt_clust_8="13000.00000" pt_clust_9="81.95657"></scales>
<clustering>
<clus scale="   81.014">  5  6 -1 -1</clus>
<clus scale="   81.957">  2  9  1 -1</clus>
<clus scale="   91.583">  7  8 -1 -1</clus>
<clus scale="   98.739">  1  5  2 -1</clus>
<clus scale="   81.957">  2  5  1 -1</clus>
</clustering>
</event>
<event>
 9    2  0.1751298E-004  0.1459760E+03  0.7546771E-02  0.1207389E+00
         21   -1    0    0  501  502  0.00000000000E+00  0.00000000000E+00  0.73245451643E+02  0.73245451643E+02  0.00000000000E+00 0.  1.
          2   -1    0    0  502    0 -0.00000000000E+00 -0.00000000000E+00 -0.66598787780E+03  0.66598787780E+03  0.00000000000E+00 0. -1.
         23    2    1    2    0    0 -0.20305540841E+02 -0.11423323593E+03 -0.52261960930E+03  0.54282381686E+03  0.89804748974E+02 0.  0.
         24    2    1    2    0    0  0.59852341078E+00  0.11075236296E+03 -0.14658112396E+02  0.13744497703E+03  0.80061334747E+02 0.  0.
        -11    1    4    4    0    0 -0.39485970858E+02  0.55793597345E+02 -0.11781280749E+02  0.69360406395E+02  0.00000000000E+00 0.  1.
         12    1    4    4    0    0  0.40084494269E+02  0.54958765613E+02 -0.28768316476E+01  0.68084570637E+02  0.00000000000E+00 0. -1.
        -13    1    3    3    0    0  0.30255638352E+02 -0.73310273066E+02 -0.23800883512E+03  0.25087448133E+03  0.00000000000E+00 0.  1.
         13    1    3    3    0    0 -0.50561179193E+02 -0.40922962863E+02 -0.28461077419E+03  0.29194933552E+03  0.00000000000E+00 0. -1.
          1    1    1    2  501    0  0.19707017430E+02  0.34808729707E+01 -0.55464704457E+02  0.58964535555E+02  0.00000000000E+00 0. -1.
<scales pt_clust_5="13000.00000" pt_clust_6="13000.00000" pt_clust_7="13000.00000" pt_clust_8="13000.00000" pt_clust_9="20.01208"></scales>
<clustering>
<clus scale="   20.012">  1  9  2 -1</clus>
<clus scale="   80.061">  5  6 -1 -1</clus>
<clus scale="   89.805">  7  8 -1 -1</clus>
<clus scale="  140.192">  1  5  2 -1</clus>
<clus scale="   20.012">  1  5  2 -1</clus>
</clustering>
</event>
<event>
 9    2  0.1751298E-004  0.1492940E+03  0.7546771E-02  0.1216233E+00
         21   -1    0    0  501  502  0.00000000000E+00  0.00000000000E+00  0.24299356861E+02  0.24299356861E+02  0.00000000000E+00 0. -1.
          2   -1    0    0  502    0 -0.00000000000E+00 -0.00000000000E+00 -0.19268038152E+04  0.19268038152E+04  0.00000000000E+00 0. -1.
         23    2    1    2    0    0 -0.13432100226E+02  0.28004937190E+02 -0.22310401107E+03  0.24811378714E+03  0.10402092958E+03 0.  0.
         24    2    1    2    0    0 -0.94471229422E+02 -0.87846893597E+02 -0.73668095454E+03  0.75222956758E+03  0.80675917454E+02 0.  0.
        -11    1    4    4    0    0 -0.29620275452E+02  0.12521735269E+01 -0.63396561182E+02  0.69986088805E+02  0.00000000000E+00 0.  1.
         12    1    4    4    0    0 -0.64850953969E+02 -0.89099067124E+02 -0.67328439336E+03  0.68224347877E+03  0.00000000000E+00 0. -1.
        -11    1    3    3    0    0  0.15585935343E+02 -0.24495543499E+02 -0.15352658984E+03  0.15624777381E+03  0.00000000000E+00 0.  1.
         11    1    3    3    0    0 -0.29018035569E+02  0.52500480689E+02 -0.69577421229E+02  0.91866013333E+02  0.00000000000E+00 0. -1.
          1    1    1    2  501    0  0.10790332965E+03  0.59841956407E+02 -0.94271949271E+03  0.95075981732E+03  0.00000000000E+00 0. -1.
<scales pt_clust_5="13000.00000" pt_clust_6="13000.00000" pt_clust_7="13000.00000" pt_clust_8="13000.00000" pt_clust_9="125.61893"></scales>
<clustering>
<clus scale="   80.676">  5  6 -1 -1</clus>
<clus scale="  104.021">  7  8 -1 -1</clus>
<clus scale="  108.559">  2  7  1 -1</clus>
<clus scale="  125.619">  1  9  2 -1</clus>
<clus scale="  125.619">  1  5  2 -1</clus>
</clustering>
</event>
<event>
 9    2  0.1751298E-004  0.1151057E+03  0.7546771E-02  0.1255128E+00
         21   -1    0    0  501  502  0.00000000000E+00  0.00000000000E+00  0.50230317076E+02  0.50230317076E+02  0.00000000000E+00 0.  1.
          2   -1    0    0  502    0 -0.00000000000E+00 -0.00000000000E+00 -0.48677855271E+03  0.48677855271E+03  0.00000000000E+00 0. -1.
         24    2    1    2    0    0 -0.70937249212E+02 -0.14883273575E+02 -0.21164133432E+03  0.23799617661E+03  0.81218966592E+02 0.  0.
         23    2    1    2    0    0  0.65364901463E+02 -0.26675630516E+02 -0.63107645768E+02  0.13186846603E+03  0.91774494132E+02 0.  0.
        -13    1    3    3    0    0 -0.86945570153E+02 -0.21962810277E+02 -0.15931797036E+03  0.18282262684E+03  0.00000000000E+00 0.  1.
         14    1    3    3    0    0  0.16008320941E+02  0.70795367018E+01 -0.52323363953E+02  0.55173549774E+02  0.00000000000E+00 0. -1.
        -11    1    4    4    0    0  0.57189637070E+02 -0.58944045114E+02 -0.49603824509E+02  0.95945789113E+02  0.00000000000E+00 0.  1.
         11    1    4    4    0    0  0.81752643930E+01  0.32268414599E+02 -0.13503821259E+02  0.35922676921E+02  0.00000000000E+00 0. -1.
          1    1    1    2  501    0  0.55723477487E+01  0.41558904091E+02 -0.16179925555E+03  0.16714422714E+03  0.00000000000E+00 0. -1.
<scales pt_clust_5="13000.00000" pt_clust_6="13000.00000" pt_clust_7="13000.00000" pt_clust_8="13000.00000" pt_clust_9="41.93084"></scales>
<clustering>
<clus scale="   41.931">  1  9  2 -1</clus>
<clus scale="   81.219">  5  6 -1 -1</clus>
<clus scale="   91.774">  7  8 -1 -1</clus>
<clus scale="  106.880">  2  5  1 -1</clus>
<clus scale="   41.931">  1  5  2 -1</clus>
</clustering>
</event>
<event>
 9    2  0.1751298E-004  0.1033425E+03  0.7546771E-02  0.1277846E+00
          4   -1    0    0  502    0 -0.00000000000E+00  0.00000000000E+00  0.11898639264E+03  0.11898639264E+03  0.00000000000E+00 0. -1.
         21   -1    0    0  501  502  0.00000000000E+00 -0.00000000000E+00 -0.20241707755E+03  0.20241707755E+03  0.00000000000E+00 0.  1.
         24    2    1    2    0    0 -0.17072576778E+01 -0.37871166884E+02  0.29663944457E+02  0.93398067950E+02  0.80038175179E+02 0.  0.
         23    2    1    2    0    0 -0.34230640768E+02  0.86846307292E+02 -0.45973223988E+02  0.13747706424E+03  0.89846469105E+02 0.  0.
        -11    1    3    3    0    0  0.36329113243E+02 -0.31885079864E+02  0.73427460015E+01  0.48891499321E+02  0.00000000000E+00 0.  1.
         12    1    3    3    0    0 -0.38036370921E+02 -0.59860870203E+01  0.22321198455E+02  0.44506568629E+02  0.00000000000E+00 0. -1.
        -11    1    4    4    0    0 -0.49665808777E+01  0.22340558963E+02 -0.60925975839E+02  0.65082578562E+02  0.00000000000E+00 0.  1.
         11    1    4    4    0    0 -0.29264059890E+02  0.64505748329E+02  0.14952751851E+02  0.72394485678E+02  0.00000000000E+00 0. -1.
          3    1    1    2  501    0  0.35937898446E+02 -0.48975140408E+02 -0.67121405376E+02  0.90528338007E+02  0.00000000000E+00 0. -1.
<scales pt_clust_5="13000.00000" pt_clust_6="13000.00000" pt_clust_7="13000.00000" pt_clust_8="13000.00000" pt_clust_9="60.74617"></scales>
<clustering>
<clus scale="   60.746">  2  9  1 -1</clus>
<clus scale="   80.038">  5  6 -1 -1</clus>
<clus scale="   89.846">  7  8 -1 -1</clus>
<clus scale="   94.939">  1  5  2 -1</clus>
<clus scale="   60.746">  2  5  1 -1</clus>
</clustering>
</event>
<event>
 9    2  0.1751298E-004  0.1208031E+03  0.7546771E-02  0.1249266E+00
         21   -1    0    0  501  502  0.00000000000E+00  0.00000000000E+00  0.23186429116E+02  0.23186429116E+02  0.00000000000E+00 0. -1.
          2   -1    0    0  502    0 -0.00000000000E+00 -0.00000000000E+00 -0.13646818958E+04  0.13646818958E+04  0.00000000000E+00 0. -1.
         24    2    1    2    0    0  0.73155789922E+02  0.51846576326E+02 -0.81654473488E+03  0.82531702296E+03  0.79768711036E+02 0.  0.
         23    2    1    2    0    0  0.17269674993E+02 -0.30268377234E+02 -0.23518274575E+03  0.25823589136E+03  0.10079898488E+03 0.  0.
        -11    1    3    3    0    0  0.19249651187E+02  0.10643698771E+02 -0.38665527302E+02  0.44484383730E+02  0.00000000000E+00 0.  1.
         12    1    3    3    0    0  0.53906138735E+02  0.41202877555E+02 -0.77787920757E+03  0.78083263923E+03  0.00000000000E+00 0. -1.
        -11    1    4    4    0    0  0.14046585131E+02  0.34350700558E+02 -0.51401830608E+02  0.63398938260E+02  0.00000000000E+00 0.  1.
         11    1    4    4    0    0  0.32230898623E+01 -0.64619077792E+02 -0.18378091514E+03  0.19483695310E+03  0.00000000000E+00 0. -1.
          1    1    1    2  501    0 -0.90425464916E+02 -0.21578199092E+02 -0.28976798608E+03  0.30431541062E+03  0.00000000000E+00 0. -1.
<scales pt_clust_5="13000.00000" pt_clust_6="13000.00000" pt_clust_7="13000.00000" pt_clust_8="13000.00000" pt_clust_9="92.96442"></scales>
<clustering>
<clus scale="   79.769">  5  6 -1 -1</clus>
<clus scale="   92.964">  1  9  2 -1</clus>
<clus scale="  100.799">  7  8 -1 -1</clus>
<clus scale="  103.904">  2  5  1 -1</clus>
<clus scale="   92.964">  1  5  2 -1</clus>
</clustering>
</event>
<event>
 9    2  0.1751298E-004  0.1815824E+03  0.7546771E-02  0.1188015E+00
          2   -1    0    0  502    0 -0.00000000000E+00  0.00000000000E+00  0.10753974777E+03  0.10753974777E+03  0.00000000000E+00 0. -1.
         21   -1    0    0  501  502  0.00000000000E+00 -0.00000000000E+00 -0.66256246780E+03  0.66256246780E+03  0.00000000000E+00 0.  1.
         23    2    1    2    0    0  0.59649540577E+02  0.28703966312E+02 -0.10876293623E+01  0.11113291785E+03  0.89260053317E+02 0.  0.
         24    2    1    2    0    0  0.67995047511E+02  0.10816711301E+03 -0.14252625477E+03  0.20699135194E+03  0.78792357839E+02 0.  0.
        -11    1    4    4    0    0  0.81584180288E+02  0.75705863594E+02 -0.87062164185E+02  0.14130526065E+03  0.00000000000E+00 0.  1.
         12    1    4    4    0    0 -0.13589132777E+02  0.32461249414E+02 -0.55464090587E+02  0.65686091282E+02  0.00000000000E+00 0. -1.
        -13    1    3    3    0    0 -0.89667575668E+00 -0.25688339087E+02 -0.13118873154E+02  0.28858267885E+02  0.00000000000E+00 0.  1.
         13    1    3    3    0    0  0.60546216334E+02  0.54392305400E+02  0.12031243792E+02  0.82274649961E+02  0.00000000000E+00 0. -1.
          1    1    1    2  501    0 -0.12764458809E+03 -0.13687107932E+03 -0.41140883590E+03  0.45197794579E+03  0.00000000000E+00 0. -1.
<scales pt_clust_5="13000.00000" pt_clust_6="13000.00000" pt_clust_7="13000.00000" pt_clust_8="13000.00000" pt_clust_9="163.59682"></scales>
<clustering>
<clus scale="   78.792">  5  6 -1 -1</clus>
<clus scale="   89.260">  7  8 -1 -1</clus>
<clus scale="  111.128">  1  7  2 -1</clus>
<clus scale="  163.597">  2  9  1 -1</clus>
<clus scale="  163.597">  2  5  1 -1</clus>
</clustering>
</event>
<event>
 9    2  0.1751298E-004  0.1113771E+03  0.7546771E-02  0.1261888E+00
          2   -1    0    0  502    0 -0.00000000000E+00  0.00000000000E+00  0.28667254473E+03  0.28667254473E+03  0.00000000000E+00 0. -1.
         21   -1    0    0  501  502  0.00000000000E+00 -0.00000000000E+00 -0.84377398560E+02  0.84377398560E+02  0.00000000000E+00 0. -1.
         23    2    1    2    0    0  0.50850045661E+02  0.40994136928E+02  0.16840163262E+03  0.20240329493E+03  0.91333112967E+02 0.  0.
         24    2    1    2    0    0 -0.18688889865E+02 -0.65297782385E+02 -0.13134744741E+02  0.10670583627E+03  0.81243701203E+02 0.  0.
        -13    1    4    4    0    0  0.15400350021E+02 -0.41241357091E+02  0.24617454078E+02  0.50438471039E+02  0.00000000000E+00 0.  1.
         14    1    4    4    0    0 -0.34089239886E+02 -0.24056425294E+02 -0.37752198819E+02  0.56267365227E+02  0.00000000000E+00 0. -1.
        -11    1    3    3    0    0 -0.21227828971E+02  0.23024062168E+02  0.85676709227E+02  0.91220757865E+02  0.00000000000E+00 0.  1.
         11    1    3    3    0    0  0.72077874632E+02  0.17970074760E+02  0.82724923392E+02  0.11118253707E+03  0.00000000000E+00 0. -1.
          1    1    1    2  501    0 -0.32161155796E+02  0.24303645457E+02  0.47028258293E+02  0.61940812092E+02  0.00000000000E+00 0. -1.
<scales pt_clust_5="13000.00000" pt_clust_6="13000.00000" pt_clust_7="13000.00000" pt_clust_8="13000.00000" pt_clust_9="40.31140"></scales>
<clustering>
<clus scale="   40.311">  2  9  1 -1</clus>
<clus scale="   81.244">  5  6 -1 -1</clus>
<clus scale="   91.333">  7  8 -1 -1</clus>
<clus scale="  103.265">  2  5  1 -1</clus>
<clus scale="   40.311">  2  5  1 -1</clus>
</clustering>
</event>
<event>
 9    2  0.1751298E-004  0.1511733E+03  0.7546771E-02  0.1199849E+00
          2   -1    0    0  502    0 -0.00000000000E+00  0.00000000000E+00  0.89718012949E+03  0.89718012949E+03  0.00000000000E+00 0. -1.
         21   -1    0    0  501  502  0.00000000000E+00 -0.00000000000E+00 -0.46667962196E+02  0.46667962196E+02  0.00000000000E+00 0.  1.
         24    2    1    2    0    0 -0.10963257453E+03  0.31752978943E+02  0.22439447470E+03  0.26400184859E+03  0.79476680325E+02 0.  0.
         23    2    1    2    0    0  0.14105655269E+03  0.49939934798E+02  0.34450670793E+03  0.38494635289E+03  0.84308212230E+02 0.  0.
        -11    1    3    3    0    0 -0.94670366678E+02  0.55154222086E+02  0.19419666514E+03  0.22297266938E+03  0.00000000000E+00 0.  1.
         12    1    3    3    0    0 -0.14962207856E+02 -0.23401243143E+02  0.30197809561E+02  0.41029179212E+02  0.00000000000E+00 0. -1.
        -11    1    4    4    0    0  0.10532311634E+03  0.73504525540E+02  0.24500498742E+03  0.27662848366E+03  0.00000000000E+00 0.  1.
         11    1    4    4    0    0  0.35733436346E+02 -0.23564590742E+02  0.99501720513E+02  0.10831786923E+03  0.00000000000E+00 0. -1.
          1    1    1    2  501    0 -0.31423978152E+02 -0.81692913741E+02  0.28161098467E+03  0.29489989020E+03  0.00000000000E+00 0. -1.
<scales pt_clust_5="13000.00000" pt_clust_6="13000.00000" pt_clust_7="13000.00000" pt_clust_8="13000.00000" pt_clust_9="87.52832"></scales>
<clustering>
<clus scale="   79.477">  5  6 -1 -1</clus>
<clus scale="   84.308">  7  8 -1 -1</clus>
<clus scale="   87.528">  2  9  1 -1</clus>
<clus scale="  148.533">  1  5  2 -1</clus>
<clus scale="   87.528">  2  5  1 -1</clus>
</clustering>
</event>
<event>
 9    2  0.1751298E-004  0.2273649E+03  0.7546771E-02  0.1128965E+00
         -1   -1    0    0    0  501 -0.00000000000E+00  0.00000000000E+00  0.16156489118E+03  0.16156489118E+03  0.00000000000E+00 0.  1.
         21   -1    0    0  501  502  0.00000000000E+00 -0.00000000000E+00 -0.76079000031E+03  0.76079000031E+03  0.00000000000E+00 0. -1.
         23    2    1    2    0    0 -0.19165421882E+03  0.63275749370E+02  0.22652552975E+02  0.22089937059E+03  0.86880571595E+02 0.  0.
         24    2    1    2    0    0  0.23769337435E+03 -0.72883297341E+02 -0.42331422115E+03  0.49739830123E+03  0.80000156213E+02 0.  0.
        -13    1    4    4    0    0  0.46428010587E+02  0.10379864898E+02 -0.45546184800E+02  0.65861648265E+02  0.00000000000E+00 0.  1.
         14    1    4    4    0    0  0.19126536376E+03 -0.83263162238E+02 -0.37776803635E+03  0.43153665296E+03  0.00000000000E+00 0. -1.
        -13    1    3    3    0    0 -0.76347645434E+02  0.19249813979E+01  0.44622417988E+02  0.88452409259E+02  0.00000000000E+00 0.  1.
         13    1    3    3    0    0 -0.11530657339E+03  0.61350767972E+02 -0.21969865013E+02  0.13244696133E+03  0.00000000000E+00 0. -1.
         -2    1    1    2    0  502 -0.46039155524E+02  0.96075479710E+01 -0.19856344095E+03  0.20405721968E+03  0.00000000000E+00 0.  1.
<scales pt_clust_5="13000.00000" pt_clust_6="13000.00000" pt_clust_7="13000.00000" pt_clust_8="13000.00000" pt_clust_9="47.03093"></scales>
<clustering>
<clus scale="   47.031">  2  9  1 -1</clus>
<clus scale="   80.000">  5  6 -1 -1</clus>
<clus scale="   86.881">  7  8 -1 -1</clus>
<clus scale="  224.826">  2  5  1 -1</clus>
<clus scale="   47.031">  2  5  1 -1</clus>
</clustering>
</event>
<event>
 9    2  0.1751298E-004  0.2297055E+03  0.7546771E-02  0.1146340E+00
         21   -1    0    0  501  502  0.00000000000E+00  0.00000000000E+00  0.13995705502E+03  0.13995705502E+03  0.00000000000E+00 0. -1.
          2   -1    0    0  502    0 -0.00000000000E+00 -0.00000000000E+00 -0.78715978906E+03  0.78715978906E+03  0.00000000000E+00 0. -1.
         24    2    1    2    0    0 -0.10823845017E+03 -0.10828839133E+02 -0.23854897726E+02  0.14509562848E+03  0.93009996275E+02 0.  0.
         23    2    1    2    0    0 -0.10644780050E+03 -0.14649077509E+03 -0.22600976619E+03  0.30377735604E+03  0.91703796066E+02 0.  0.
        -13    1    3    3    0    0 -0.11114206827E+02 -0.40143888610E+02 -0.59810428300E+01  0.42081234053E+02  0.00000000000E+00 0.  1.
         14    1    3    3    0    0 -0.97124243340E+02  0.29315049477E+02 -0.17873854896E+02  0.10301439443E+03  0.00000000000E+00 0. -1.
        -13    1    4    4    0    0 -0.85347480704E+02 -0.44308771929E+02 -0.13214655000E+03  0.16343246436E+03  0.00000000000E+00 0.  1.
         13    1    4    4    0    0 -0.21100319794E+02 -0.10218200316E+03 -0.93863216190E+02  0.14034489167E+03  0.00000000000E+00 0. -1.
          1    1    1    2  501    0  0.21468625066E+03  0.15731961422E+03 -0.39733807012E+03  0.47824385956E+03  0.00000000000E+00 0. -1.
<scales pt_clust_5="13000.00000" pt_clust_6="13000.00000" pt_clust_7="13000.00000" pt_clust_8="13000.00000" pt_clust_9="210.60644"></scales>
<clustering>
<clus scale="   91.704">  7  8 -1 -1</clus>
<clus scale="   93.010">  5  6 -1 -1</clus>
<clus scale="  143.121">  2  5  1 -1</clus>
<clus scale="  210.606">  1  9  2 -1</clus>
<clus scale="  210.606">  1  5  2 -1</clus>
</clustering>
</event>
<event>
 9    2  0.1751298E-004  0.1936082E+03  0.7546771E-02  0.1191408E+00
         21   -1    0    0  501  502  0.00000000000E+00  0.00000000000E+00  0.17671388515E+03  0.17671388515E+03  0.00000000000E+00 0. -1.
          2   -1    0    0  502    0 -0.00000000000E+00 -0.00000000000E+00 -0.29044854904E+03  0.29044854904E+03  0.00000000000E+00 0. -1.
         24    2    1    2    0    0  0.24124558862E+02 -0.10933180461E+02 -0.25160750735E+02  0.88697307419E+02  0.80824626139E+02 0.  0.
         23    2    1    2    0    0 -0.12674341891E+03 -0.12325428099E+03 -0.61559935391E+02  0.20739011328E+03  0.89249769855E+02 0.  0.
        -11    1    3    3    0    0  0.31759592556E+02 -0.35359338162E+02  0.65175900078E+01  0.47973258114E+02  0.00000000000E+00 0.  1.
         12    1    3    3    0    0 -0.76350336945E+01  0.24426157701E+02 -0.31678340743E+02  0.40724049305E+02  0.00000000000E+00 0. -1.
        -11    1    4    4    0    0 -0.95103946184E+02 -0.11788819789E+03 -0.79036785373E+02  0.17084847445E+03  0.00000000000E+00 0. -1.
         11    1    4    4    0    0 -0.31639472730E+02 -0.53660830991E+01  0.17476849982E+02  0.36541638821E+02  0.00000000000E+00 0.  1.
          1    1    1    2  501    0  0.10261886005E+03  0.13418746145E+03 -0.27013977762E+02  0.17107501350E+03  0.00000000000E+00 0. -1.
<scales pt_clust_5="13000.00000" pt_clust_6="13000.00000" pt_clust_7="13000.00000" pt_clust_8="13000.00000" pt_clust_9="171.80985"></scales>
<clustering>
<clus scale="   80.825">  5  6 -1 -1</clus>
<clus scale="   85.054">  2  5  1 -1</clus>
<clus scale="   89.250">  7  8 -1 -1</clus>
<clus scale="  171.810">  1  9  2 -1</clus>
<clus scale="  171.810">  1  5  2 -1</clus>
</clustering>
</event>
<event>
 9    2  0.1751298E-004  0.1357388E+03  0.7546771E-02  0.1222597E+00
          2   -1    0    0  502    0 -0.00000000000E+00  0.00000000000E+00  0.83449081565E+03  0.83449081565E+03  0.00000000000E+00 0. -1.
         21   -1    0    0  501  502  0.00000000000E+00 -0.00000000000E+00 -0.16579340335E+03  0.16579340335E+03  0.00000000000E+00 0. -1.
         24    2    1    2    0    0  0.66943222719E+02 -0.91877139735E+02  0.62349169442E+03  0.63831460148E+03  0.76031793210E+02 0.  0.
         23    2    1    2    0    0 -0.54277873531E+02  0.48779215694E+02  0.18306548532E+03  0.21697597075E+03  0.90774999473E+02 0.  0.
        -11    1    3    3    0    0  0.69874573250E+01 -0.68266662045E+02  0.24732084335E+03  0.25666468643E+03  0.00000000000E+00 0.  1.
         12    1    3    3    0    0  0.59955765394E+02 -0.23610477690E+02  0.37617085108E+03  0.38164991505E+03  0.00000000000E+00 0. -1.
        -11    1    4    4    0    0 -0.10962644737E+02  0.61666678523E+02  0.14477883665E+03  0.15774622138E+03  0.00000000000E+00 0. -1.
         11    1    4    4    0    0 -0.43315228794E+02 -0.12887462829E+02  0.38286648671E+02  0.59229749367E+02  0.00000000000E+00 0.  1.
          1    1    1    2  501    0 -0.12665349188E+02  0.43097924041E+02 -0.13785976743E+03  0.14499364677E+03  0.00000000000E+00 0. -1.
<scales pt_clust_5="13000.00000" pt_clust_6="13000.00000" pt_clust_7="13000.00000" pt_clust_8="13000.00000" pt_clust_9="44.92040"></scales>
<clustering>
<clus scale="   44.920">  2  9  1 -1</clus>
<clus scale="   76.032">  5  6 -1 -1</clus>
<clus scale="   90.775">  7  8 -1 -1</clus>
<clus scale="  126.356">  1  5  2 -1</clus>
<clus scale="   44.920">  2  5  1 -1</clus>
</clustering>
</event>
<event>
 9    2  0.1751298E-004  0.4093221E+03  0.7546771E-02  0.1040844E+00
          2   -1    0    0  502    0 -0.00000000000E+00  0.00000000000E+00  0.18898708194E+04  0.18898708194E+04  0.00000000000E+00 0. -1.
         21   -1    0    0  501  502  0.00000000000E+00 -0.00000000000E+00 -0.11195224153E+03  0.11195224153E+03  0.00000000000E+00 0.  1.
         24    2    1    2    0    0 -0.37412195111E+03  0.13720779716E+03  0.10017792564E+04  0.10811078043E+04  0.80244576422E+02 0.  0.
         23    2    1    2    0    0  0.34837149046E+03 -0.19987013417E+03  0.73092133236E+03  0.83926391383E+03  0.93846454717E+02 0.  0.
        -13    1    3    3    0    0 -0.21371150709E+03  0.55178351445E+02  0.46119580134E+03  0.51129133173E+03  0.00000000000E+00 0.  1.
         14    1    3    3    0    0 -0.16041044401E+03  0.82029445712E+02  0.54058345509E+03  0.56981647259E+03  0.00000000000E+00 0. -1.
        -11    1    4    4    0    0  0.80053265023E+02 -0.91147810897E+02  0.18294953227E+03  0.21951532982E+03  0.00000000000E+00 0.  1.
         11    1    4    4    0    0  0.26831822544E+03 -0.10872232328E+03  0.54797180010E+03  0.61974858401E+03  0.00000000000E+00 0. -1.
          1    1    1    2  501    0  0.25750460652E+02  0.62662337016E+02  0.45217989102E+02  0.81451342792E+02  0.00000000000E+00 0. -1.
<scales pt_clust_5="13000.00000" pt_clust_6="13000.00000" pt_clust_7="13000.00000" pt_clust_8="13000.00000" pt_clust_9="67.74699"></scales>
<clustering>
<clus scale="   67.747">  2  9  1 -1</clus>
<clus scale="   80.245">  5  6 -1 -1</clus>
<clus scale="   93.846">  7  8 -1 -1</clus>
<clus scale="  406.419">  1  5  2 -1</clus>
<clus scale="   67.747">  2  5  1 -1</clus>
</clustering>
</event>
<event>
 9    2  0.1751298E-004  0.2056710E+03  0.7546771E-02  0.1172949E+00
         21   -1    0    0  501  502  0.00000000000E+00  0.00000000000E+00  0.41106544202E+03  0.41106544202E+03  0.00000000000E+00 0. -1.
          2   -1    0    0  502    0 -0.00000000000E+00 -0.00000000000E+00 -0.23107207729E+03  0.23107207729E+03  0.00000000000E+00 0. -1.
         23    2    1    2    0    0 -0.46112525869E+02 -0.10663268660E+02  0.21100518938E+02  0.10932828618E+03  0.96267190257E+02 0.  0.
         24    2    1    2    0    0  0.13427930459E+03 -0.15269064712E+03 -0.76747631826E+02  0.23283537200E+03  0.83526918433E+02 0.  0.
        -11    1    4    4    0    0  0.23346873357E+02 -0.23727977530E+02  0.18285728683E+02  0.37979748376E+02  0.00000000000E+00 0.  1.
         12    1    4    4    0    0  0.11093243123E+03 -0.12896266959E+03 -0.95033360509E+02  0.19485562362E+03  0.00000000000E+00 0. -1.
        -13    1    3    3    0    0 -0.49315708924E+02 -0.40063542636E+02 -0.12298191097E+02  0.64717633605E+02  0.00000000000E+00 0.  1.
         13    1    3    3    0    0  0.32031830545E+01  0.29400273976E+02  0.33398710035E+02  0.44610652579E+02  0.00000000000E+00 0. -1.
          1    1    1    2  501    0 -0.88166778718E+02  0.16335391578E+03  0.23564047762E+03  0.29997386113E+03  0.00000000000E+00 0. -1.
<scales pt_clust_5="13000.00000" pt_clust_6="13000.00000" pt_clust_7="13000.00000" pt_clust_8="13000.00000" pt_clust_9="187.94625"></scales>
<clustering>
<clus scale="   83.527">  5  6 -1 -1</clus>
<clus scale="   96.267">  7  8 -1 -1</clus>
<clus scale="  107.273">  2  7  1 -1</clus>
<clus scale="  187.946">  1  9  2 -1</clus>
<clus scale="  187.946">  1  5  2 -1</clus>
</clustering>
</event>
<event>
 9    2  0.1751298E-004  0.1567023E+03  0.7546771E-02  0.1194978E+00
          2   -1    0    0  502    0 -0.00000000000E+00  0.00000000000E+00  0.12910726240E+04  0.12910726240E+04  0.00000000000E+00 0. -1.
         21   -1    0    0  501  502  0.00000000000E+00 -0.00000000000E+00 -0.30733829096E+02  0.30733829096E+02  0.00000000000E+00 0. -1.
         24    2    1    2    0    0 -0.10735885098E+03  0.25009351697E+02  0.43605587439E+03  0.45606195769E+03  0.75474453328E+02 0.  0.
         23    2    1    2    0    0  0.12574205976E+03 -0.10183983679E+03  0.56531722596E+03  0.59499720223E+03  0.90860809740E+02 0.  0.
        -11    1    3    3    0    0 -0.70944036182E+02  0.11120710883E+02  0.13893449367E+03  0.15639539638E+03  0.00000000000E+00 0.  1.
         12    1    3    3    0    0 -0.36414814802E+02  0.13888640814E+02  0.29712138072E+03  0.29966656131E+03  0.00000000000E+00 0. -1.
        -11    1    4    4    0    0  0.91048788200E+02 -0.33279221508E+02  0.41509132500E+03  0.42626071424E+03  0.00000000000E+00 0. -1.
         11    1    4    4    0    0  0.34693271563E+02 -0.68560615284E+02  0.15022590096E+03  0.16873648799E+03  0.00000000000E+00 0.  1.
          1    1    1    2  501    0 -0.18383208780E+02  0.76830485095E+02  0.25896569458E+03  0.27074729320E+03  0.00000000000E+00 0. -1.
<scales pt_clust_5="13000.00000" pt_clust_6="13000.00000" pt_clust_7="13000.00000" pt_clust_8="13000.00000" pt_clust_9="78.99919"></scales>
<clustering>
<clus scale="   75.474">  5  6 -1 -1</clus>
<clus scale="   78.999">  2  9  1 -1</clus>
<clus scale="   90.861">  7  8 -1 -1</clus>
<clus scale="  148.312">  1  5  2 -1</clus>
<clus scale="   78.999">  2  5  1 -1</clus>
</clustering>
</event>
<event>
 9    2  0.1751298E-004  0.1576141E+03  0.7546771E-02  0.1208117E+00
         21   -1    0    0  501  502  0.00000000000E+00  0.00000000000E+00  0.50962671030E+03  0.50962671030E+03  0.00000000000E+00 0. -1.
          2   -1    0    0  502    0 -0.00000000000E+00 -0.00000000000E+00 -0.34000390586E+03  0.34000390586E+03  0.00000000000E+00 0. -1.
         23    2    1    2    0    0 -0.14641524410E+02  0.64470035778E+02  0.14034522406E+03  0.17809981923E+03  0.87475733452E+02 0.  0.
         24    2    1    2    0    0  0.47141535965E+02  0.68541090480E+02 -0.29616342855E+03  0.31845848033E+03  0.82357888455E+02 0.  0.
        -13    1    4    4    0    0 -0.23282943054E+02  0.94874289084E+01 -0.61841873140E+02  0.66757201993E+02  0.00000000000E+00 0.  1.
         14    1    4    4    0    0  0.70424479019E+02  0.59053661572E+02 -0.23432155541E+03  0.25170127834E+03  0.00000000000E+00 0. -1.
        -11    1    3    3    0    0  0.26670281946E+02  0.45033175730E+02  0.11387178909E+03  0.12532388123E+03  0.00000000000E+00 0. -1.
         11    1    3    3    0    0 -0.41311806355E+02  0.19436860047E+02  0.26473434969E+02  0.52775938001E+02  0.00000000000E+00 0.  1.
          1    1    1    2  501    0 -0.32500011555E+02 -0.13301112626E+03  0.32544100893E+03  0.35307231660E+03  0.00000000000E+00 0. -1.
<scales pt_clust_5="13000.00000" pt_clust_6="13000.00000" pt_clust_7="13000.00000" pt_clust_8="13000.00000" pt_clust_9="134.38523"></scales>
<clustering>
<clus scale="   82.358">  5  6 -1 -1</clus>
<clus scale="   87.476">  7  8 -1 -1</clus>
<clus scale="  109.648">  2  7  1 -1</clus>
<clus scale="  134.385">  1  9  2 -1</clus>
<clus scale="  134.385">  1  5  2 -1</clus>
</clustering>
</event>
<event>
 9    2  0.1751298E-004  0.2260218E+03  0.7546771E-02  0.1131060E+00
          2   -1    0    0  502    0 -0.00000000000E+00  0.00000000000E+00  0.15079734371E+04  0.15079734371E+04  0.00000000000E+00 0. -1.
         21   -1    0    0  501  502  0.00000000000E+00 -0.00000000000E+00 -0.89538585214E+02  0.89538585214E+02  0.00000000000E+00 0. -1.
         23    2    1    2    0    0 -0.19684013638E+03 -0.10121716313E+03  0.12974704912E+04  0.13200244306E+04  0.10021910238E+03 0.  0.
         24    2    1    2    0    0  0.12559007450E+03  0.38224475728E+02  0.89261877047E+02  0.17723941245E+03  0.78817188941E+02 0.  0.
        -11    1    4    4    0    0  0.11573483257E+03  0.51367482464E+02  0.96584534503E+02  0.15925370335E+03  0.00000000000E+00 0.  1.
         12    1    4    4    0    0  0.98552419284E+01 -0.13143006736E+02 -0.73226574554E+01  0.17985709097E+02  0.00000000000E+00 0. -1.
        -11    1    3    3    0    0 -0.18747822337E+02  0.20095118507E+02  0.14910343591E+03  0.15161506928E+03  0.00000000000E+00 0.  1.
         11    1    3    3    0    0 -0.17809231405E+03 -0.12131228163E+03  0.11483670553E+04  0.11684093613E+04  0.00000000000E+00 0. -1.
          1    1    1    2  501    0  0.71250061883E+02  0.62992687398E+02  0.31702483707E+02  0.10024817932E+03  0.00000000000E+00 0. -1.
<scales pt_clust_5="13000.00000" pt_clust_6="13000.00000" pt_clust_7="13000.00000" pt_clust_8="13000.00000" pt_clust_9="95.10336"></scales>
<clustering>
<clus scale="   78.817">  5  6 -1 -1</clus>
<clus scale="   95.103">  2  9  1 -1</clus>
<clus scale="  100.219">  7  8 -1 -1</clus>
<clus scale="  217.380">  2  5  1 -1</clus>
<clus scale="   95.103">  2  5  1 -1</clus>
</clustering>
</event>
<event>
 9    2  0.1751298E-004  0.9296276E+02  0.7546771E-02  0.1302324E+00
          2   -1    0    0  502    0 -0.00000000000E+00  0.00000000000E+00  0.11622358411E+03  0.11622358411E+03  0.00000000000E+00 0. -1.
         21   -1    0    0  501  502  0.00000000000E+00 -0.00000000000E+00 -0.20434495913E+03  0.20434495913E+03  0.00000000000E+00 0. -1.
         23    2    1    2    0    0  0.11780783666E+02  0.29956952570E+02  0.39770859487E+02  0.10390251974E+03  0.90431225096E+02 0.  0.
         24    2    1    2    0    0 -0.16407801071E+02  0.35707237634E+02 -0.12157947442E+03  0.15053701243E+03  0.79596487093E+02 0.  0.
        -11    1    4    4    0    0 -0.40642526184E+02 -0.26675649183E+01 -0.39461320045E+02  0.56710903862E+02  0.00000000000E+00 0.  1.
         12    1    4    4    0    0  0.24234725113E+02  0.38374802552E+02 -0.82118154371E+02  0.93826108571E+02  0.00000000000E+00 0. -1.
        -13    1    3    3    0    0 -0.29799471347E+01 -0.29829254128E+02 -0.10907585002E+01  0.29997570583E+02  0.00000000000E+00 0. -1.
         13    1    3    3    0    0  0.14760730801E+02  0.59786206698E+02  0.40861617987E+02  0.73904949155E+02  0.00000000000E+00 0.  1.
          1    1    1    2  501    0  0.46270174046E+01 -0.65664190204E+02 -0.63127600876E+01  0.66129011070E+02  0.00000000000E+00 0. -1.
<scales pt_clust_5="13000.00000" pt_clust_6="13000.00000" pt_clust_7="13000.00000" pt_clust_8="13000.00000" pt_clust_9="65.82704"></scales>
<clustering>
<clus scale="   65.827">  2  9  1 -1</clus>
<clus scale="   79.596">  5  6 -1 -1</clus>
<clus scale="   82.461">  2  5  1 -1</clus>
<clus scale="   90.431">  7  8 -1 -1</clus>
<clus scale="   65.827">  2  5  1 -1</clus>
</clustering>
</event>
<event>
 9    2  0.1751298E-004  0.2009128E+03  0.7546771E-02  0.1159137E+00
         21   -1    0    0  501  502  0.00000000000E+00  0.00000000000E+00  0.56365181312E+02  0.56365181312E+02  0.00000000000E+00 0. -1.
          2   -1    0    0  502    0 -0.00000000000E+00 -0.00000000000E+00 -0.14721166473E+04  0.14721166473E+04  0.00000000000E+00 0. -1.
         23    2    1    2    0    0 -0.92971219648E+02  0.87761229656E+02 -0.32407895934E+03  0.36062008060E+03  0.93134255407E+02 0.  0.
         24    2    1    2    0    0 -0.68122271295E+02 -0.18709215159E+03 -0.44220150987E+03  0.49137795624E+03  0.79158091906E+02 0.  0.
        -11    1    4    4    0    0 -0.57043157599E+02 -0.10770073047E+03 -0.18143087637E+03  0.21856470912E+03  0.00000000000E+00 0.  1.
         12    1    4    4    0    0 -0.11079113696E+02 -0.79391421116E+02 -0.26077063349E+03  0.27281324711E+03  0.00000000000E+00 0. -1.
        -11    1    3    3    0    0 -0.76297488439E+02  0.25159224063E+02 -0.10528134341E+03  0.13243283040E+03  0.00000000000E+00 0. -1.
         11    1    3    3    0    0 -0.16673731209E+02  0.62602005592E+02 -0.21879761593E+03  0.22818725020E+03  0.00000000000E+00 0.  1.
          1    1    1    2  501    0  0.16109349094E+03  0.99330921931E+02 -0.64947099673E+03  0.67648379173E+03  0.00000000000E+00 0. -1.
<scales pt_clust_5="13000.00000" pt_clust_6="13000.00000" pt_clust_7="13000.00000" pt_clust_8="13000.00000" pt_clust_9="184.66186"></scales>
<clustering>
<clus scale="   79.158">  5  6 -1 -1</clus>
<clus scale="   93.134">  7  8 -1 -1</clus>
<clus scale="  158.176">  2  7  1 -1</clus>
<clus scale="  184.662">  1  9  2 -1</clus>
<clus scale="  184.662">  1  5  2 -1</clus>
</clustering>
</event>
<event>
 9    2  0.1751298E-004  0.2286866E+03  0.7546771E-02  0.1160641E+00
          2   -1    0    0  502    0 -0.00000000000E+00  0.00000000000E+00  0.31412067713E+03  0.31412067713E+03  0.00000000000E+00 0. -1.
         21   -1    0    0  501  502  0.00000000000E+00 -0.00000000000E+00 -0.11139128785E+04  0.11139128785E+04  0.00000000000E+00 0. -1.
         24    2    1    2    0    0 -0.63342241018E+02  0.34441814302E+01  0.23883417940E+03  0.26032459293E+03  0.81872013235E+02 0.  0.
         23    2    1    2    0    0  0.12079610521E+03 -0.19943975075E+03 -0.25481169675E+03  0.35772089576E+03  0.93098470730E+02 0.  0.
        -11    1    3    3    0    0 -0.27193151170E+02  0.41548050157E+02  0.13742364722E+03  0.14611970010E+03  0.00000000000E+00 0.  1.
         12    1    3    3    0    0 -0.36149089849E+02 -0.38103868727E+02  0.10141053217E+03  0.11420489282E+03  0.00000000000E+00 0. -1.
        -13    1    4    4    0    0  0.48971520862E+02 -0.67327965351E+02 -0.32596888944E+02  0.89408176039E+02  0.00000000000E+00 0.  1.
         13    1    4    4    0    0  0.71824584350E+02 -0.13211178540E+03 -0.22221480780E+03  0.26831271973E+03  0.00000000000E+00 0. -1.
          1    1    1    2  501    0 -0.57453864194E+02  0.19599556932E+03 -0.78381468398E+03  0.80998806691E+03  0.00000000000E+00 0. -1.
<scales pt_clust_5="13000.00000" pt_clust_6="13000.00000" pt_clust_7="13000.00000" pt_clust_8="13000.00000" pt_clust_9="208.87851"></scales>
<clustering>
<clus scale="   81.872">  5  6 -1 -1</clus>
<clus scale="   93.098">  7  8 -1 -1</clus>
<clus scale="  103.572">  1  5  2 -1</clus>
<clus scale="  208.879">  2  9  1 -1</clus>
<clus scale="  208.879">  2  5  1 -1</clus>
</clustering>
</event>
<event>
 9    2  0.1751298E-004  0.1476557E+03  0.7546771E-02  0.1204125E+00
         21   -1    0    0  501  502  0.00000000000E+00  0.00000000000E+00  0.13003345546E+03  0.13003345546E+03  0.00000000000E+00 0. -1.
          2   -1    0    0  502    0 -0.00000000000E+00 -0.00000000000E+00 -0.33399056374E+03  0.33399056374E+03  0.00000000000E+00 0. -1.
         23    2    1    2    0    0 -0.69901127725E+02 -0.66810194281E+02 -0.90920209388E+02  0.15997132303E+03  0.89300447924E+02 0.  0.
         24    2    1    2    0    0  0.48946676073E+02  0.15939111274E+03 -0.76592848357E+02  0.20237435863E+03  0.85367515435E+02 0.  0.
        -13    1    4    4    0    0  0.46477365298E+02  0.10135964358E+03 -0.89369826680E+02  0.14290167512E+03  0.00000000000E+00 0.  1.
         14    1    4    4    0    0  0.24693107757E+01  0.58031469153E+02  0.12776978323E+02  0.59472683501E+02  0.00000000000E+00 0. -1.
        -11    1    3    3    0    0  0.21599880422E+02 -0.99944143380E+01 -0.19097649297E+02  0.30514969456E+02  0.00000000000E+00 0.  1.
         11    1    3    3    0    0 -0.91501008147E+02 -0.56815779943E+02 -0.71822560092E+02  0.12945635357E+03  0.00000000000E+00 0. -1.
          1    1    1    2  501    0  0.20954451651E+02 -0.92580918456E+02 -0.36444050531E+02  0.10167833754E+03  0.00000000000E+00 0. -1.
<scales pt_clust_5="13000.00000" pt_clust_6="13000.00000" pt_clust_7="13000.00000" pt_clust_8="13000.00000" pt_clust_9="94.92268"></scales>
<clustering>
<clus scale="   85.368">  5  6 -1 -1</clus>
<clus scale="   89.300">  7  8 -1 -1</clus>
<clus scale="   94.923">  1  9  2 -1</clus>
<clus scale="  145.311">  1  5  2 -1</clus>
<clus scale="   94.923">  1  5  2 -1</clus>
</clustering>
</event>
<event>
 9    2  0.1751298E-004  0.1414533E+03  0.7546771E-02  0.1213994E+00
         21   -1    0    0  501  502  0.00000000000E+00  0.00000000000E+00  0.16736236456E+03  0.16736236456E+03  0.00000000000E+00 0.  1.
         -1   -1    0    0    0  501 -0.00000000000E+00 -0.00000000000E+00 -0.15507404040E+03  0.15507404040E+03  0.00000000000E+00 0.  1.
         24    2    1    2    0    0 -0.10191800292E+03 -0.62862307476E+02 -0.35491026218E+02  0.14944435184E+03  0.82067364612E+02 0.  0.
         23    2    1    2    0    0  0.80707707465E+02  0.31764337938E+02  0.30027030733E+02  0.13137348520E+03  0.93992887118E+02 0.  0.
        -11    1    3    3    0    0 -0.87796227581E+02 -0.35336879422E+02 -0.58167349191E+02  0.11108696205E+03  0.00000000000E+00 0.  1.
         12    1    3    3    0    0 -0.14121775342E+02 -0.27525428054E+02  0.22676322973E+02  0.38357389795E+02  0.00000000000E+00 0. -1.
        -11    1    4    4    0    0  0.24315803470E+02  0.10577018396E+02 -0.34226850386E+02  0.43296753964E+02  0.00000000000E+00 0. -1.
         11    1    4    4    0    0  0.56391903995E+02  0.21187319542E+02  0.64253881118E+02  0.88076731231E+02  0.00000000000E+00 0.  1.
         -2    1    1    2    0  502  0.21210295458E+02  0.31097969538E+02  0.17752319654E+02  0.41618567922E+02  0.00000000000E+00 0.  1.
<scales pt_clust_5="13000.00000" pt_clust_6="13000.00000" pt_clust_7="13000.00000" pt_clust_8="13000.00000" pt_clust_9="37.64253"></scales>
<clustering>
<clus scale="   37.643">  1  9  2 -1</clus>
<clus scale="   82.067">  5  6 -1 -1</clus>
<clus scale="   93.993">  7  8 -1 -1</clus>
<clus scale="  133.826">  2  5  1 -1</clus>
<clus scale="   37.643">  1  5  2 -1</clus>
</clustering>
</event>
<event>
 9    2  0.1751298E-004  0.2167553E+03  0.7546771E-02  0.1136326E+00
          2   -1    0    0  502    0 -0.00000000000E+00  0.00000000000E+00  0.78898466695E+02  0.78898466695E+02  0.00000000000E+00 0. -1.
         21   -1    0    0  501  502  0.00000000000E+00 -0.00000000000E+00 -0.45557887359E+03  0.45557887359E+03  0.00000000000E+00 0.  1.
         24    2    1    2    0    0  0.53605828143E+02  0.58731687588E+02 -0.16061365559E+03  0.19507555960E+03  0.77037209539E+02 0.  0.
         23    2    1    2    0    0  0.19323660952E+02  0.46457308980E+02 -0.17598294804E+03  0.20527442828E+03  0.92929583423E+02 0.  0.
        -13    1    3    3    0    0  0.63941628940E+02  0.67508327757E+02 -0.11726811967E+03  0.14965867205E+03  0.00000000000E+00 0.  1.
         14    1    3    3    0    0 -0.10335800797E+02 -0.87766401692E+01 -0.43345535920E+02  0.45416887553E+02  0.00000000000E+00 0. -1.
        -13    1    4    4    0    0 -0.23006200089E+02  0.39645534258E+02 -0.14581542641E+03  0.15285022803E+03  0.00000000000E+00 0.  1.
         13    1    4    4    0    0  0.42329861042E+02  0.68117747223E+01 -0.30167521625E+02  0.52424200248E+02  0.00000000000E+00 0. -1.
          1    1    1    2  501    0 -0.72929489096E+02 -0.10518899657E+03 -0.40083803267E+02  0.13412735240E+03  0.00000000000E+00 0. -1.
<scales pt_clust_5="13000.00000" pt_clust_6="13000.00000" pt_clust_7="13000.00000" pt_clust_8="13000.00000" pt_clust_9="127.99786"></scales>
<clustering>
<clus scale="   77.037">  5  6 -1 -1</clus>
<clus scale="   92.930">  7  8 -1 -1</clus>
<clus scale="   96.594">  5  7 -1 -1</clus>
<clus scale="  127.998">  2  9  1 -1</clus>
<clus scale="  127.998">  2  5  1 -1</clus>
</clustering>
</event>
<event>
 9    2  0.1751298E-004  0.1753970E+03  0.7546771E-02  0.1174517E+00
          2   -1    0    0  502    0 -0.00000000000E+00  0.00000000000E+00  0.66815367322E+03  0.66815367322E+03  0.00000000000E+00 0. -1.
         21   -1    0    0  501  502  0.00000000000E+00 -0.00000000000E+00 -0.63009116073E+02  0.63009116073E+02  0.00000000000E+00 0. -1.
         24    2    1    2    0    0 -0.14731992523E+03 -0.22463906812E+02  0.35355615145E+03  0.39093671746E+03  0.74978512577E+02 0.  0.
         23    2    1    2    0    0  0.15219275750E+03 -0.26302009892E+02  0.19423791417E+03  0.26478776589E+03  0.92356713354E+02 0.  0.
        -11    1    3    3    0    0 -0.29221098575E+02  0.25223868703E+02  0.99951030113E+02  0.10714627653E+03  0.00000000000E+00 0.  1.
         12    1    3    3    0    0 -0.11809882666E+03 -0.47687775515E+02  0.25360512134E+03  0.28379044092E+03  0.00000000000E+00 0. -1.
        -13    1    4    4    0    0  0.46952566466E+02 -0.16023391817E+02  0.13445754716E+03  0.14331826322E+03  0.00000000000E+00 0.  1.
         13    1    4    4    0    0  0.10524019103E+03 -0.10278618076E+02  0.59780367007E+02  0.12146950267E+03  0.00000000000E+00 0. -1.
          1    1    1    2  501    0 -0.48728322672E+01  0.48765916704E+02  0.57350491527E+02  0.75438305950E+02  0.00000000000E+00 0. -1.
<scales pt_clust_5="13000.00000" pt_clust_6="13000.00000" pt_clust_7="13000.00000" pt_clust_8="13000.00000" pt_clust_9="49.00877"></scales>
<clustering>
<clus scale="   49.009">  2  9  1 -1</clus>
<clus scale="   74.979">  5  6 -1 -1</clus>
<clus scale="   92.357">  7  8 -1 -1</clus>
<clus scale="  166.901">  1  5  2 -1</clus>
<clus scale="   49.009">  2  5  1 -1</clus>
</clustering>
</event>
<event>
 9    2  0.1751298E-004  0.1551445E+03  0.7546771E-02  0.1205975E+00
         21   -1    0    0  501  502  0.00000000000E+00  0.00000000000E+00  0.58861807069E+03  0.58861807069E+03  0.00000000000E+00 0.  1.
         -1   -1    0    0    0  501 -0.00000000000E+00 -0.00000000000E+00 -0.79123189887E+02  0.79123189887E+02  0.00000000000E+00 0.  1.
         23    2    1    2    0    0 -0.68464944892E+02  0.38944022158E+02  0.79508739885E+02  0.14426522643E+03  0.91031479715E+02 0.  0.
         24    2    1    2    0    0 -0.12811123097E+02  0.10242169335E+03  0.14554111524E+03  0.19560557591E+03  0.80156078722E+02 0.  0.
        -13    1    4    4    0    0 -0.38283810355E+02  0.54933229068E+02  0.11654733440E+03  0.13441201935E+03  0.00000000000E+00 0.  1.
         14    1    4    4    0    0  0.25472687258E+02  0.47488464286E+02  0.28993780844E+02  0.61193556556E+02  0.00000000000E+00 0. -1.
        -11    1    3    3    0    0  0.20681560699E+02 -0.45459977807E+00  0.25503736315E+02  0.32838608070E+02  0.00000000000E+00 0.  1.
         11    1    3    3    0    0 -0.89146505591E+02  0.39398621937E+02  0.54005003569E+02  0.11142661836E+03  0.00000000000E+00 0. -1.
         -2    1    1    2    0  502  0.81276067989E+02 -0.14136571551E+03  0.28444502568E+03  0.32787045824E+03  0.00000000000E+00 0.  1.
<scales pt_clust_5="13000.00000" pt_clust_6="13000.00000" pt_clust_7="13000.00000" pt_clust_8="13000.00000" pt_clust_9="132.83388"></scales>
<clustering>
<clus scale="   80.156">  5  6 -1 -1</clus>
<clus scale="   91.031">  7  8 -1 -1</clus>
<clus scale="  120.378">  2  7  1 -1</clus>
<clus scale="  132.834">  1  9  2 -1</clus>
<clus scale="  132.834">  1  5  2 -1</clus>
</clustering>
</event>
<event>
 9    2  0.1751298E-004  0.1639793E+03  0.7546771E-02  0.1185657E+00
         21   -1    0    0  501  502  0.00000000000E+00  0.00000000000E+00  0.47156008131E+03  0.47156008131E+03  0.00000000000E+00 0. -1.
          2   -1    0    0  502    0 -0.00000000000E+00 -0.00000000000E+00 -0.90037851031E+03  0.90037851031E+03  0.00000000000E+00 0. -1.
         24    2    1    2    0    0 -0.51873215185E+02  0.14103223859E+03 -0.75822734749E+03  0.77709095036E+03  0.79879358201E+02 0.  0.
         23    2    1    2    0    0  0.13816677119E+02 -0.94045795239E+02 -0.98007190315E+02  0.16317582609E+03  0.89361225923E+02 0.  0.
        -11    1    3    3    0    0 -0.41262628687E+02  0.15433640723E+02 -0.18606601822E+03  0.19121026366E+03  0.00000000000E+00 0.  1.
         12    1    3    3    0    0 -0.10610586498E+02  0.12559859787E+03 -0.57216132927E+03  0.58588068670E+03  0.00000000000E+00 0. -1.
        -11    1    4    4    0    0 -0.32298595871E+02 -0.72894839516E+02 -0.59923366924E+02  0.99737990890E+02  0.00000000000E+00 0.  1.
         11    1    4    4    0    0  0.46115272990E+02 -0.21150955723E+02 -0.38083823391E+02  0.63437835201E+02  0.00000000000E+00 0. -1.
          1    1    1    2  501    0  0.38056538066E+02 -0.46986443350E+02  0.42741610880E+03  0.43167181517E+03  0.00000000000E+00 0. -1.
<scales pt_clust_5="13000.00000" pt_clust_6="13000.00000" pt_clust_7="13000.00000" pt_clust_8="13000.00000" pt_clust_9="60.46508"></scales>
<clustering>
<clus scale="   60.465">  1  9  2 -1</clus>
<clus scale="   79.879">  5  6 -1 -1</clus>
<clus scale="   89.361">  7  8 -1 -1</clus>
<clus scale="  159.011">  2  5  1 -1</clus>
<clus scale="   60.465">  1  5  2 -1</clus>
</clustering>
</event>
<event>
 9    2  0.1751298E-004  0.1502713E+03  0.7546771E-02  0.1203804E+00
         21   -1    0    0  501  502  0.00000000000E+00  0.00000000000E+00  0.43162915917E+02  0.43162915917E+02  0.00000000000E+00 0. -1.
          2   -1    0    0  502    0 -0.00000000000E+00 -0.00000000000E+00 -0.64666187089E+03  0.64666187089E+03  0.00000000000E+00 0. -1.
         23    2    1    2    0    0 -0.95366975022E+01 -0.10690989373E+03 -0.26500906083E+03  0.30244490562E+03  0.98602457544E+02 0.  0.
         24    2    1    2    0    0  0.37553725824E+02  0.11642318099E+03 -0.21232506692E+03  0.25779199542E+03  0.80063346580E+02 0.  0.
        -11    1    4    4    0    0  0.26375127917E+02  0.31199571877E+01 -0.74091769820E+02  0.78708143547E+02  0.00000000000E+00 0.  1.
         12    1    4    4    0    0  0.11178597908E+02  0.11330322380E+03 -0.13823329710E+03  0.17908385187E+03  0.00000000000E+00 0. -1.
        -13    1    3    3    0    0  0.20031955846E+02 -0.67103257374E+02 -0.62207560533E+02  0.93669135753E+02  0.00000000000E+00 0. -1.
         13    1    3    3    0    0 -0.29568653348E+02 -0.39806636357E+02 -0.20280150030E+03  0.20877576986E+03  0.00000000000E+00 0.  1.
          1    1    1    2  501    0 -0.28017028322E+02 -0.95132872576E+01 -0.12616482722E+03  0.12958788577E+03  0.00000000000E+00 0. -1.
<scales pt_clust_5="13000.00000" pt_clust_6="13000.00000" pt_clust_7="13000.00000" pt_clust_8="13000.00000" pt_clust_9="29.58813"></scales>
<clustering>
<clus scale="   29.588">  1  9  2 -1</clus>
<clus scale="   80.063">  5  6 -1 -1</clus>
<clus scale="   98.602">  7  8 -1 -1</clus>
<clus scale="  138.813">  1  5  2 -1</clus>
<clus scale="   29.588">  1  5  2 -1</clus>
</clustering>
</event>
<event>
 9    2  0.1751298E-004  0.9017697E+02  0.7546771E-02  0.1309111E+00
         21   -1    0    0  501  502  0.00000000000E+00  0.00000000000E+00  0.20702157617E+03  0.20702157617E+03  0.00000000000E+00 0. -1.
          4   -1    0    0  502    0 -0.00000000000E+00 -0.00000000000E+00 -0.29408550331E+03  0.29408550331E+03  0.00000000000E+00 0. -1.
         24    2    1    2    0    0 -0.27213790859E+01  0.25226581118E+01 -0.26979165583E+03  0.28134195205E+03  0.79699352071E+02 0.  0.
         23    2    1    2    0    0  0.27055239371E+02  0.10248596729E+02  0.14148064320E+03  0.17020139303E+03  0.90081752182E+02 0.  0.
        -11    1    3    3    0    0 -0.10956886352E+02 -0.34534535219E+02 -0.18390566902E+03  0.18744061081E+03  0.00000000000E+00 0.  1.
         12    1    3    3    0    0  0.82355072661E+01  0.37057193331E+02 -0.85885986807E+02  0.93901341243E+02  0.00000000000E+00 0. -1.
        -13    1    4    4    0    0  0.54338298872E+02  0.15518931389E+02  0.53058295833E+02  0.77515615926E+02  0.00000000000E+00 0. -1.
         13    1    4    4    0    0 -0.27283059500E+02 -0.52703346595E+01  0.88422347370E+02  0.92685777105E+02  0.00000000000E+00 0.  1.
          3    1    1    2  501    0 -0.24333860286E+02 -0.12771254841E+02  0.41247085485E+02  0.49563734399E+02  0.00000000000E+00 0. -1.
<scales pt_clust_5="13000.00000" pt_clust_6="13000.00000" pt_clust_7="13000.00000" pt_clust_8="13000.00000" pt_clust_9="27.48166"></scales>
<clustering>
<clus scale="   27.482">  1  9  2 -1</clus>
<clus scale="   79.699">  5  6 -1 -1</clus>
<clus scale="   79.807">  2  5  1 -1</clus>
<clus scale="   90.082">  7  8 -1 -1</clus>
<clus scale="   27.482">  1  5  2 -1</clus>
</clustering>
</event>
<event>
 9    2  0.1751298E-004  0.1522066E+03  0.7546771E-02  0.1201083E+00
         21   -1    0    0  501  502  0.00000000000E+00  0.00000000000E+00  0.21715218110E+03  0.21715218110E+03  0.00000000000E+00 0. -1.
          2   -1    0    0  502    0 -0.00000000000E+00 -0.00000000000E+00 -0.31808716656E+03  0.31808716656E+03  0.00000000000E+00 0. -1.
         24    2    1    2    0    0 -0.56642912114E+02  0.11391568979E+03 -0.17202724070E+03  0.22649026481E+03  0.74291753500E+02 0.  0.
         23    2    1    2    0    0 -0.69967933041E+02 -0.12482745977E+03  0.61508671234E+02  0.18130804583E+03  0.92800239649E+02 0.  0.
        -13    1    3    3    0    0 -0.41169835359E+01  0.78937086592E+02 -0.65420454310E+02  0.10260530705E+03  0.00000000000E+00 0.  1.
         14    1    3    3    0    0 -0.52525928578E+02  0.34978603200E+02 -0.10660678639E+03  0.12388495776E+03  0.00000000000E+00 0. -1.
        -11    1    4    4    0    0 -0.22575547011E+02 -0.10629593720E+03  0.10362700213E+02  0.10915982386E+03  0.00000000000E+00 0. -1.
         11    1    4    4    0    0 -0.47392386030E+02 -0.18531522567E+02  0.51145971020E+02  0.72148221973E+02  0.00000000000E+00 0.  1.
          1    1    1    2  501    0  0.12661084515E+03  0.10911769977E+02  0.95835839968E+01  0.12744103702E+03  0.00000000000E+00 0. -1.
<scales pt_clust_5="13000.00000" pt_clust_6="13000.00000" pt_clust_7="13000.00000" pt_clust_8="13000.00000" pt_clust_9="127.08018"></scales>
<clustering>
<clus scale="   74.292">  5  6 -1 -1</clus>
<clus scale="   92.800">  7  8 -1 -1</clus>
<clus scale="  127.080">  1  9  2 -1</clus>
<clus scale="  141.684">  2  5  1 -1</clus>
<clus scale="  127.080">  1  5  2 -1</clus>
</clustering>
</event>
<event>
 9    2  0.1751298E-004  0.1084680E+03  0.7546771E-02  0.1268315E+00
          2   -1    0    0  502    0 -0.00000000000E+00  0.00000000000E+00  0.54598134991E+02  0.54598134991E+02  0.00000000000E+00 0. -1.
         21   -1    0    0  501  502  0.00000000000E+00 -0.00000000000E+00 -0.34009379570E+03  0.34009379570E+03  0.00000000000E+00 0.  1.
         24    2    1    2    0    0 -0.20257653125E+02 -0.52630369163E+02 -0.26933385526E+02  0.10187080532E+03  0.80448278123E+02 0.  0.
         23    2    1    2    0    0  0.22921953661E+01  0.61504723765E+02 -0.17727064663E+03  0.20909633385E+03  0.92240497977E+02 0.  0.
        -13    1    3    3    0    0  0.14728007118E+02 -0.32051845001E+02  0.19413505540E+02  0.40263124059E+02  0.00000000000E+00 0.  1.
         14    1    3    3    0    0 -0.34985660243E+02 -0.20578524163E+02 -0.46346891066E+02  0.61607681265E+02  0.00000000000E+00 0. -1.
        -13    1    4    4    0    0 -0.80276564631E+01 -0.23572972170E+02 -0.33893688793E+02  0.42058416818E+02  0.00000000000E+00 0.  1.
         13    1    4    4    0    0  0.10319851829E+02  0.85077695935E+02 -0.14337695784E+03  0.16703791703E+03  0.00000000000E+00 0. -1.
          1    1    1    2  501    0  0.17965457759E+02 -0.88743546019E+01 -0.81291628552E+02  0.83724791518E+02  0.00000000000E+00 0. -1.
<scales pt_clust_5="13000.00000" pt_clust_6="13000.00000" pt_clust_7="13000.00000" pt_clust_8="13000.00000" pt_clust_9="20.03776"></scales>
<clustering>
<clus scale="   20.038">  2  9  1 -1</clus>
<clus scale="   80.448">  5  6 -1 -1</clus>
<clus scale="   92.240">  7  8 -1 -1</clus>
<clus scale="   98.635">  1  5  2 -1</clus>
<clus scale="   20.038">  2  5  1 -1</clus>
</clustering>
</event>
<event>
 9    2  0.1751298E-004  0.1334494E+03  0.7546771E-02  0.1225702E+00
         21   -1    0    0  501  502  0.00000000000E+00  0.00000000000E+00  0.37733257601E+03  0.37733257601E+03  0.00000000000E+00 0. -1.
         -1   -1    0    0    0  501 -0.00000000000E+00 -0.00000000000E+00 -0.83572284213E+02  0.83572284213E+02  0.00000000000E+00 0.  1.
         24    2    1    2    0    0 -0.14759619674E+02 -0.97061034467E+02 -0.22723871925E+01  0.12575836212E+03  0.78557692911E+02 0.  0.
         23    2    1    2    0    0  0.36624712186E+02  0.85985171149E+02  0.23024910185E+03  0.26494510181E+03  0.91904509542E+02 0.  0.
        -11    1    3    3    0    0  0.25579636225E+02 -0.69274917565E+02 -0.14535750155E+02  0.75263670025E+02  0.00000000000E+00 0.  1.
         12    1    3    3    0    0 -0.40339255898E+02 -0.27786116902E+02  0.12263362963E+02  0.50494692098E+02  0.00000000000E+00 0. -1.
        -11    1    4    4    0    0  0.42029831931E+02  0.21335563459E+02  0.16998220769E+03  0.17639632642E+03  0.00000000000E+00 0. -1.
         11    1    4    4    0    0 -0.54051197447E+01  0.64649607689E+02  0.60266894151E+02  0.88548775398E+02  0.00000000000E+00 0.  1.
         -2    1    1    2    0  502 -0.21865092512E+02  0.11075863318E+02  0.65783577143E+02  0.70201396286E+02  0.00000000000E+00 0.  1.
<scales pt_clust_5="13000.00000" pt_clust_6="13000.00000" pt_clust_7="13000.00000" pt_clust_8="13000.00000" pt_clust_9="24.51035"></scales>
<clustering>
<clus scale="   24.510">  1  9  2 -1</clus>
<clus scale="   78.558">  5  6 -1 -1</clus>
<clus scale="   91.905">  7  8 -1 -1</clus>
<clus scale="  124.634">  2  5  1 -1</clus>
<clus scale="   24.510">  1  5  2 -1</clus>
</clustering>
</event>
<event>
 9    2  0.1751298E-004  0.2190377E+03  0.7546771E-02  0.1138066E+00
          4   -1    0    0  502    0 -0.00000000000E+00  0.00000000000E+00  0.11713042938E+04  0.11713042938E+04  0.00000000000E+00 0. -1.
         21   -1    0    0  501  502  0.00000000000E+00 -0.00000000000E+00 -0.16160946674E+03  0.16160946674E+03  0.00000000000E+00 0. -1.
         23    2    1    2    0    0  0.50238744350E+02  0.17241981565E+03  0.45004144670E+02  0.20633641704E+03  0.91086879940E+02 0.  0.
         24    2    1    2    0    0  0.16267338768E+03 -0.12083551850E+03  0.85431974749E+03  0.88127292250E+03  0.75603435090E+02 0.  0.
        -13    1    4    4    0    0  0.47288856356E+02 -0.71997141107E+02  0.26027653638E+03  0.27415998915E+03  0.00000000000E+00 0.  1.
         14    1    4    4    0    0  0.11538453133E+03 -0.48838377397E+02  0.59404321111E+03  0.60711293335E+03  0.00000000000E+00 0. -1.
        -11    1    3    3    0    0  0.27738140938E+02  0.15526875831E+03  0.55985988990E+01  0.15782628450E+03  0.00000000000E+00 0. -1.
         11    1    3    3    0    0  0.22500603412E+02  0.17151057344E+02  0.39405545771E+02  0.48510132543E+02  0.00000000000E+00 0.  1.
          3    1    1    2  501    0 -0.21291213203E+03 -0.51584297146E+02  0.11037093485E+03  0.24530442095E+03  0.00000000000E+00 0. -1.
<scales pt_clust_5="13000.00000" pt_clust_6="13000.00000" pt_clust_7="13000.00000" pt_clust_8="13000.00000" pt_clust_9="205.57640"></scales>
<clustering>
<clus scale="   75.603">  5  6 -1 -1</clus>
<clus scale="   91.087">  7  8 -1 -1</clus>
<clus scale="  201.369">  1  7  2 -1</clus>
<clus scale="  205.576">  2  9  1 -1</clus>
<clus scale="  205.576">  2  5  1 -1</clus>
</clustering>
</event>
<event>
 9    2  0.1751298E-004  0.9852315E+02  0.7546771E-02  0.1289721E+00
         21   -1    0    0  501  502  0.00000000000E+00  0.00000000000E+00  0.26650104826E+02  0.26650104826E+02  0.00000000000E+00 0. -1.
          2   -1    0    0  502    0 -0.00000000000E+00 -0.00000000000E+00 -0.74309097805E+03  0.74309097805E+03  0.00000000000E+00 0. -1.
         24    2    1    2    0    0 -0.13340409582E+02  0.17308360278E+02 -0.31594339880E+03  0.32703798538E+03  0.81584721424E+02 0.  0.
         23    2    1    2    0    0  0.44237132322E+02 -0.48670623319E+02 -0.15066266907E+03  0.18901898490E+03  0.93290853523E+02 0.  0.
        -13    1    3    3    0    0 -0.24613697003E+02  0.45728154637E+02 -0.16315164307E+03  0.17121727962E+03  0.00000000000E+00 0.  1.
         14    1    3    3    0    0  0.11273287421E+02 -0.28419794359E+02 -0.15279175573E+03  0.15582070575E+03  0.00000000000E+00 0. -1.
        -11    1    4    4    0    0  0.41061025293E+01 -0.59903828888E+02 -0.43811847180E+02  0.74329043763E+02  0.00000000000E+00 0. -1.
         11    1    4    4    0    0  0.40131029792E+02  0.11233205568E+02 -0.10685082189E+03  0.11468994114E+03  0.00000000000E+00 0.  1.
          1    1    1    2  501    0 -0.30896722739E+02  0.31362263042E+02 -0.24983480535E+03  0.25368411260E+03  0.00000000000E+00 0. -1.
<scales pt_clust_5="13000.00000" pt_clust_6="13000.00000" pt_clust_7="13000.00000" pt_clust_8="13000.00000" pt_clust_9="44.02500"></scales>
<clustering>
<clus scale="   44.025">  1  9  2 -1</clus>
<clus scale="   81.585">  5  6 -1 -1</clus>
<clus scale="   87.520">  2  5  1 -1</clus>
<clus scale="   93.291">  7  8 -1 -1</clus>
<clus scale="   44.025">  1  5  2 -1</clus>
</clustering>
</event>
<event>
 9    2  0.1751298E-004  0.1186283E+03  0.7546771E-02  0.1250662E+00
          4   -1    0    0  502    0 -0.00000000000E+00  0.00000000000E+00  0.36265730163E+03  0.36265730163E+03  0.00000000000E+00 0. -1.
         21   -1    0    0  501  502  0.00000000000E+00 -0.00000000000E+00 -0.20208215418E+03  0.20208215418E+03  0.00000000000E+00 0. -1.
         24    2    1    2    0    0 -0.77308557461E+02  0.27971152354E+02  0.23475244436E+03  0.26068689298E+03  0.78038116419E+02 0.  0.
         23    2    1    2    0    0  0.59585124743E+02  0.41021742040E+02  0.74035691387E+02  0.13961038622E+03  0.93683541414E+02 0.  0.
        -13    1    3    3    0    0 -0.19708139764E+02  0.33886763485E+02  0.34464672624E+02  0.52197099263E+02  0.00000000000E+00 0.  1.
         14    1    3    3    0    0 -0.57600417696E+02 -0.59156111310E+01  0.20028777174E+03  0.20848979371E+03  0.00000000000E+00 0. -1.
        -11    1    4    4    0    0  0.60653693656E+02 -0.10365540548E+02  0.60868456436E+02  0.86552203749E+02  0.00000000000E+00 0.  1.
         11    1    4    4    0    0 -0.10685689124E+01  0.51387282588E+02  0.13167234951E+02  0.53058182475E+02  0.00000000000E+00 0. -1.
          3    1    1    2  501    0  0.17723432717E+02 -0.68992894394E+02 -0.14821298830E+03  0.16444217660E+03  0.00000000000E+00 0. -1.
<scales pt_clust_5="13000.00000" pt_clust_6="13000.00000" pt_clust_7="13000.00000" pt_clust_8="13000.00000" pt_clust_9="71.23299"></scales>
<clustering>
<clus scale="   71.233">  2  9  1 -1</clus>
<clus scale="   78.038">  5  6 -1 -1</clus>
<clus scale="   93.684">  7  8 -1 -1</clus>
<clus scale="  106.705">  1  5  2 -1</clus>
<clus scale="   71.233">  2  5  1 -1</clus>
</clustering>
</event>
<event>
 9    2  0.1751298E-004  0.1551091E+03  0.7546771E-02  0.1196568E+00
          2   -1    0    0  502    0 -0.00000000000E+00  0.00000000000E+00  0.37241363904E+03  0.37241363904E+03  0.00000000000E+00 0. -1.
         21   -1    0    0  501  502  0.00000000000E+00 -0.00000000000E+00 -0.84826393382E+02  0.84826393382E+02  0.00000000000E+00 0.  1.
         23    2    1    2    0    0  0.21430329673E+02 -0.11438840654E+03  0.19395551381E+03  0.24447295232E+03  0.92759455033E+02 0.  0.
         24    2    1    2    0    0 -0.35426766864E+02  0.13693725916E+03  0.68577144186E+02  0.17626936276E+03  0.79757098650E+02 0.  0.
        -11    1    4    4    0    0  0.11436444243E+02  0.48258195672E+02 -0.77935382533E+01  0.50203435589E+02  0.00000000000E+00 0.  1.
         12    1    4    4    0    0 -0.46863211106E+02  0.88679063490E+02  0.76370682439E+02  0.12606592717E+03  0.00000000000E+00 0. -1.
        -11    1    3    3    0    0  0.47718902410E+02 -0.11193306861E+03  0.16810539402E+03  0.20752235782E+03  0.00000000000E+00 0. -1.
         11    1    3    3    0    0 -0.26288572737E+02 -0.24553379305E+01  0.25850119786E+02  0.36950594499E+02  0.00000000000E+00 0.  1.
          1    1    1    2  501    0  0.13996437190E+02 -0.22548852621E+02  0.25054587668E+02  0.36497717350E+02  0.00000000000E+00 0. -1.
<scales pt_clust_5="13000.00000" pt_clust_6="13000.00000" pt_clust_7="13000.00000" pt_clust_8="13000.00000" pt_clust_9="26.53963"></scales>
<clustering>
<clus scale="   26.540">  2  9  1 -1</clus>
<clus scale="   79.757">  5  6 -1 -1</clus>
<clus scale="   92.759">  7  8 -1 -1</clus>
<clus scale="  147.701">  2  5  1 -1</clus>
<clus scale="   26.540">  2  5  1 -1</clus>
</clustering>
</event>
<event>
 9    2  0.1751298E-004  0.2402521E+03  0.7546771E-02  0.1154868E+00
          2   -1    0    0  502    0 -0.00000000000E+00  0.00000000000E+00  0.57334331008E+03  0.57334331008E+03  0.00000000000E+00 0. -1.
         21   -1    0    0  501  502  0.00000000000E+00 -0.00000000000E+00 -0.14688500388E+03  0.14688500388E+03  0.00000000000E+00 0. -1.
         23    2    1    2    0    0 -0.43296080980E+02  0.65161055418E+01  0.81086040379E+02  0.13047905221E+03  0.92373301671E+02 0.  0.
         24    2    1    2    0    0  0.20430434291E+03 -0.13167615309E+03  0.11052782721E+03  0.27871773882E+03  0.79926863560E+02 0.  0.
        -13    1    4    4    0    0  0.37588364645E+02 -0.36499644057E+02  0.61095702254E+02  0.80484743939E+02  0.00000000000E+00 0.  1.
         14    1    4    4    0    0  0.16671597827E+03 -0.95176509034E+02  0.49432124961E+02  0.19823299488E+03  0.00000000000E+00 0. -1.
        -11    1    3    3    0    0 -0.18405102964E+02  0.46959133864E+02  0.22951846359E+02  0.55413854943E+02  0.00000000000E+00 0.  1.
         11    1    3    3    0    0 -0.24890978017E+02 -0.40443028322E+02  0.58134194020E+02  0.75065197268E+02  0.00000000000E+00 0. -1.
          1    1    1    2  501    0 -0.16100826193E+03  0.12516004755E+03  0.23484443860E+03  0.31103152293E+03  0.00000000000E+00 0. -1.
<scales pt_clust_5="13000.00000" pt_clust_6="13000.00000" pt_clust_7="13000.00000" pt_clust_8="13000.00000" pt_clust_9="226.56745"></scales>
<clustering>
<clus scale="   79.927">  5  6 -1 -1</clus>
<clus scale="   92.373">  7  8 -1 -1</clus>
<clus scale="  102.224">  1  7  2 -1</clus>
<clus scale="  226.567">  2  9  1 -1</clus>
<clus scale="  226.567">  2  5  1 -1</clus>
</clustering>
</event>
<event>
 9    2  0.1751298E-004  0.1494091E+03  0.7546771E-02  0.1202950E+00
          2   -1    0    0  502    0 -0.00000000000E+00  0.00000000000E+00  0.51380149897E+03  0.51380149897E+03  0.00000000000E+00 0. -1.
         21   -1    0    0  501  502  0.00000000000E+00 -0.00000000000E+00 -0.10413273117E+03  0.10413273117E+03  0.00000000000E+00 0.  1.
         23    2    1    2    0    0 -0.11329722227E+03 -0.31296505232E+02  0.40401701526E+03  0.43051291640E+03  0.91081780574E+02 0.  0.
         24    2    1    2    0    0  0.10948463162E+03  0.62282204416E+02  0.22748673045E+02  0.15182701515E+03  0.81657717674E+02 0.  0.
        -13    1    4    4    0    0  0.91179360867E+02  0.79780314943E+02  0.31240080364E+02  0.12511801278E+03  0.00000000000E+00 0.  1.
         14    1    4    4    0    0  0.18305270755E+02 -0.17498110527E+02 -0.84914073192E+01  0.26709002371E+02  0.00000000000E+00 0. -1.
        -13    1    3    3    0    0  0.10902039318E+01 -0.29357161200E+02  0.45277111269E+02  0.53972662184E+02  0.00000000000E+00 0.  1.
         13    1    3    3    0    0 -0.11438742621E+03 -0.19393440318E+01  0.35873990399E+03  0.37654025422E+03  0.00000000000E+00 0. -1.
          1    1    1    2  501    0  0.38125906511E+01 -0.30985699184E+02 -0.17096920511E+02  0.35594298593E+02  0.00000000000E+00 0. -1.
<scales pt_clust_5="13000.00000" pt_clust_6="13000.00000" pt_clust_7="13000.00000" pt_clust_8="13000.00000" pt_clust_9="31.21938"></scales>
<clustering>
<clus scale="   31.219">  2  9  1 -1</clus>
<clus scale="   81.658">  5  6 -1 -1</clus>
<clus scale="   91.082">  7  8 -1 -1</clus>
<clus scale="  143.858">  2  5  1 -1</clus>
<clus scale="   31.219">  2  5  1 -1</clus>
</clustering>
</event>
<event>
 9    2  0.1751298E-004  0.2869451E+03  0.7546771E-02  0.1110969E+00
         21   -1    0    0  501  502  0.00000000000E+00  0.00000000000E+00  0.35114933056E+03  0.35114933056E+03  0.00000000000E+00 0. -1.
          2   -1    0    0  502    0 -0.00000000000E+00 -0.00000000000E+00 -0.92142275431E+03  0.92142275431E+03  0.00000000000E+00 0. -1.
         24    2    1    2    0    0  0.14873665311E+03 -0.47884867297E+02 -0.69203166543E+02  0.18858399517E+03  0.79745172137E+02 0.  0.
         23    2    1    2    0    0  0.13225047223E+03  0.23314270688E+03  0.17189948692E+03  0.33155037916E+03  0.92360766240E+02 0.  0.
        -13    1    3    3    0    0  0.63073946935E+02 -0.31061497052E+02  0.96230984833E+01  0.70962972073E+02  0.00000000000E+00 0.  1.
         14    1    3    3    0    0  0.85662706173E+02 -0.16823370245E+02 -0.78826265026E+02  0.11762102309E+03  0.00000000000E+00 0. -1.
        -11    1    4    4    0    0  0.41272934672E+02  0.40282547877E+02  0.36079142418E-01  0.57672698061E+02  0.00000000000E+00 0.  1.
         11    1    4    4    0    0  0.90977537561E+02  0.19286015900E+03  0.17186340778E+03  0.27387768110E+03  0.00000000000E+00 0. -1.
          1    1    1    2  501    0 -0.28098712534E+03 -0.18525783958E+03 -0.67296974413E+03  0.75243771055E+03  0.00000000000E+00 0. -1.
<scales pt_clust_5="13000.00000" pt_clust_6="13000.00000" pt_clust_7="13000.00000" pt_clust_8="13000.00000" pt_clust_9="271.67456"></scales>
<clustering>
<clus scale="   79.745">  5  6 -1 -1</clus>
<clus scale="   92.361">  7  8 -1 -1</clus>
<clus scale="  175.428">  2  5  1 -1</clus>
<clus scale="  271.675">  1  9  2 -1</clus>
<clus scale="  271.675">  1  5  2 -1</clus>
</clustering>
</event>
<event>
 9    2  0.1751298E-004  0.1410359E+03  0.7546771E-02  0.1231332E+00
          2   -1    0    0  502    0 -0.00000000000E+00  0.00000000000E+00  0.72246817083E+03  0.72246817083E+03  0.00000000000E+00 0. -1.
         21   -1    0    0  501  502  0.00000000000E+00 -0.00000000000E+00 -0.15363549919E+03  0.15363549919E+03  0.00000000000E+00 0. -1.
         23    2    1    2    0    0 -0.12894385677E+02  0.12616932455E+02 -0.45703042927E+02  0.10449433767E+03  0.92221723611E+02 0.  0.
         24    2    1    2    0    0  0.11720013520E+03  0.15811882487E+02 -0.56713539143E+01  0.14205020511E+03  0.78487000196E+02 0.  0.
        -11    1    4    4    0    0  0.29654338009E+02  0.41188452804E+02 -0.35277973433E+01  0.50875473081E+02  0.00000000000E+00 0.  1.
         12    1    4    4    0    0  0.87545797189E+02 -0.25376570317E+02 -0.21435565711E+01  0.91174732034E+02  0.00000000000E+00 0. -1.
        -11    1    3    3    0    0 -0.19497604274E+02 -0.27416614271E+02 -0.53479517471E+02  0.63181374625E+02  0.00000000000E+00 0.  1.
         11    1    3    3    0    0  0.66032185974E+01  0.40033546726E+02  0.77764745439E+01  0.41312963046E+02  0.00000000000E+00 0. -1.
          1    1    1    2  501    0 -0.10430574952E+03 -0.28428814942E+02  0.62020706848E+03  0.62955912724E+03  0.00000000000E+00 0. -1.
<scales pt_clust_5="13000.00000" pt_clust_6="13000.00000" pt_clust_7="13000.00000" pt_clust_8="13000.00000" pt_clust_9="117.17908"></scales>
<clustering>
<clus scale="   78.487">  5  6 -1 -1</clus>
<clus scale="   92.222">  7  8 -1 -1</clus>
<clus scale="   93.970">  1  7  2 -1</clus>
<clus scale="  117.179">  2  9  1 -1</clus>
<clus scale="  117.179">  2  5  1 -1</clus>
</clustering>
</event>
<event>
 9    2  0.1751298E-004  0.1779689E+03  0.7546771E-02  0.1178770E+00
          2   -1    0    0  502    0 -0.00000000000E+00  0.00000000000E+00  0.14044607010E+03  0.14044607010E+03  0.00000000000E+00 0. -1.
         21   -1    0    0  501  502  0.00000000000E+00 -0.00000000000E+00 -0.53238016472E+03  0.53238016472E+03  0.00000000000E+00 0.  1.
         23    2    1    2    0    0  0.15546677830E+02  0.11170078474E+03 -0.28016434898E+02  0.14780130000E+03  0.91332026982E+02 0.  0.
         24    2    1    2    0    0 -0.15323662189E+03  0.16217932505E+02 -0.25054105464E+03  0.30553467650E+03  0.82680921994E+02 0.  0.
        -11    1    4    4    0    0 -0.15096407700E+03  0.48850314027E+01 -0.25208633121E+03  0.29387333064E+03  0.00000000000E+00 0.  1.
         12    1    4    4    0    0 -0.22725448885E+01  0.11332901102E+02  0.15452765718E+01  0.11661345863E+02  0.00000000000E+00 0. -1.
        -13    1    3    3    0    0  0.44681462191E+02  0.51180850231E+02 -0.41052564703E+02  0.79380259275E+02  0.00000000000E+00 0.  1.
         13    1    3    3    0    0 -0.29134784361E+02  0.60519934514E+02  0.13036129805E+02  0.68421040723E+02  0.00000000000E+00 0. -1.
          1    1    1    2  501    0  0.13768994406E+03 -0.12791871725E+03 -0.11337660508E+03  0.21949025832E+03  0.00000000000E+00 0. -1.
<scales pt_clust_5="13000.00000" pt_clust_6="13000.00000" pt_clust_7="13000.00000" pt_clust_8="13000.00000" pt_clust_9="157.59702"></scales>
<clustering>
<clus scale="   82.681">  5  6 -1 -1</clus>
<clus scale="   91.332">  7  8 -1 -1</clus>
<clus scale="  145.122">  1  7  2 -1</clus>
<clus scale="  157.597">  2  9  1 -1</clus>
<clus scale="  157.597">  2  5  1 -1</clus>
</clustering>
</event>
<event>
 9    2  0.1751298E-004  0.1409906E+03  0.7546771E-02  0.1228626E+00
         21   -1    0    0  501  502  0.00000000000E+00  0.00000000000E+00  0.40227856616E+02  0.40227856616E+02  0.00000000000E+00 0.  1.
          2   -1    0    0  502    0 -0.00000000000E+00 -0.00000000000E+00 -0.84918670117E+03  0.84918670117E+03  0.00000000000E+00 0. -1.
         24    2    1    2    0    0 -0.87171496853E+00 -0.54995738906E+02 -0.15395332057E+03  0.18329010678E+03  0.82875491816E+02 0.  0.
         23    2    1    2    0    0  0.94419607428E+02  0.94658694953E+02 -0.32047294589E+03  0.35650121942E+03  0.80714804078E+02 0.  0.
        -11    1    3    3    0    0  0.19065182830E+02 -0.54932543174E+02 -0.47775319673E+02  0.75256539023E+02  0.00000000000E+00 0.  1.
         12    1    3    3    0    0 -0.19936897799E+02 -0.63195732365E-01 -0.10617800090E+03  0.10803356776E+03  0.00000000000E+00 0. -1.
        -13    1    4    4    0    0  0.32864171465E+02  0.88281116800E+02 -0.18749034825E+03  0.20982430754E+03  0.00000000000E+00 0.  1.
         13    1    4    4    0    0  0.61555435963E+02  0.63775781524E+01 -0.13298259765E+03  0.14667691188E+03  0.00000000000E+00 0. -1.
          1    1    1    2  501    0 -0.93547892459E+02 -0.39662956047E+02 -0.33453257809E+03  0.34962323159E+03  0.00000000000E+00 0. -1.
<scales pt_clust_5="13000.00000" pt_clust_6="13000.00000" pt_clust_7="13000.00000" pt_clust_8="13000.00000" pt_clust_9="115.60050"></scales>
<clustering>
<clus scale="   80.715">  7  8 -1 -1</clus>
<clus scale="   82.875">  5  6 -1 -1</clus>
<clus scale="   99.467">  2  5  1 -1</clus>
<clus scale="  115.601">  1  9  2 -1</clus>
<clus scale="  115.601">  1  5  2 -1</clus>
</clustering>
</event>
<event>
 9    2  0.1751298E-004  0.1170312E+03  0.7546771E-02  0.1251825E+00
         21   -1    0    0  501  502  0.00000000000E+00  0.00000000000E+00  0.19377800743E+02  0.19377800743E+02  0.00000000000E+00 0.  1.
          2   -1    0    0  502    0 -0.00000000000E+00 -0.00000000000E+00 -0.11719443358E+04  0.11719443358E+04  0.00000000000E+00 0. -1.
         24    2    1    2    0    0 -0.47253055084E+02 -0.55111974692E+02 -0.73035224145E+03  0.73835430308E+03  0.80513969622E+02 0.  0.
         23    2    1    2    0    0  0.19921359774E+02  0.76477426114E+02 -0.37728764617E+03  0.39620598244E+03  0.91583597259E+02 0.  0.
        -13    1    3    3    0    0 -0.76014857273E+01 -0.60476278811E+02 -0.29894914013E+03  0.30509957599E+03  0.00000000000E+00 0.  1.
         14    1    3    3    0    0 -0.39651569357E+02  0.53643041185E+01 -0.43140310133E+03  0.43325472709E+03  0.00000000000E+00 0. -1.
        -11    1    4    4    0    0  0.49817713118E+02  0.64892499004E+02 -0.20073667261E+03  0.21676727773E+03  0.00000000000E+00 0.  1.
         11    1    4    4    0    0 -0.29896353344E+02  0.11584927110E+02 -0.17655097357E+03  0.17943870471E+03  0.00000000000E+00 0. -1.
          1    1    1    2  501    0  0.27331695310E+02 -0.21365451422E+02 -0.44926647444E+02  0.56761851040E+02  0.00000000000E+00 0. -1.
<scales pt_clust_5="13000.00000" pt_clust_6="13000.00000" pt_clust_7="13000.00000" pt_clust_8="13000.00000" pt_clust_9="34.69156"></scales>
<clustering>
<clus scale="   34.692">  1  9  2 -1</clus>
<clus scale="   80.514">  5  6 -1 -1</clus>
<clus scale="   91.584">  7  8 -1 -1</clus>
<clus scale="  108.587">  2  5  1 -1</clus>
<clus scale="   34.692">  1  5  2 -1</clus>
</clustering>
</event>
<event>
 9    2  0.1751298E-004  0.1039519E+03  0.7546771E-02  0.1277397E+00
         21   -1    0    0  501  502  0.00000000000E+00  0.00000000000E+00  0.41076669923E+02  0.41076669923E+02  0.00000000000E+00 0. -1.
          2   -1    0    0  502    0 -0.00000000000E+00 -0.00000000000E+00 -0.54067375175E+03  0.54067375175E+03  0.00000000000E+00 0. -1.
         24    2    1    2    0    0 -0.43769832184E+02  0.22764622816E+02 -0.37816697014E+03  0.38957904647E+03  0.79545897974E+02 0.  0.
         23    2    1    2    0    0  0.62968212318E+02  0.91944010865E+01 -0.98236736379E+02  0.14826363480E+03  0.91006133075E+02 0.  0.
        -11    1    3    3    0    0  0.91779852290E+01 -0.19849172905E+02 -0.52091948465E+02  0.56495983687E+02  0.00000000000E+00 0.  1.
         12    1    3    3    0    0 -0.52947817413E+02  0.42613795721E+02 -0.32607502167E+03  0.33308306278E+03  0.00000000000E+00 0. -1.
        -13    1    4    4    0    0  0.20731902630E+02 -0.39828051713E+02 -0.28765124714E+02  0.53324646176E+02  0.00000000000E+00 0.  1.
         13    1    4    4    0    0  0.42236309687E+02  0.49022452800E+02 -0.69471611665E+02  0.94938988628E+02  0.00000000000E+00 0. -1.
          1    1    1    2  501    0 -0.19198380134E+02 -0.31959023903E+02 -0.23193375313E+02  0.43907740400E+02  0.00000000000E+00 0. -1.
<scales pt_clust_5="13000.00000" pt_clust_6="13000.00000" pt_clust_7="13000.00000" pt_clust_8="13000.00000" pt_clust_9="37.28213"></scales>
<clustering>
<clus scale="   37.282">  1  9  2 -1</clus>
<clus scale="   79.546">  5  6 -1 -1</clus>
<clus scale="   91.006">  7  8 -1 -1</clus>
<clus scale="   94.082">  2  5  1 -1</clus>
<clus scale="   37.282">  1  5  2 -1</clus>
</clustering>
</event>
<event>
 9    2  0.1751298E-004  0.9242011E+02  0.7546771E-02  0.1303343E+00
          2   -1    0    0  502    0 -0.00000000000E+00  0.00000000000E+00  0.31547248910E+03  0.31547248910E+03  0.00000000000E+00 0. -1.
         21   -1    0    0  501  502  0.00000000000E+00 -0.00000000000E+00 -0.10773288419E+03  0.10773288419E+03  0.00000000000E+00 0.  1.
         23    2    1    2    0    0 -0.26558612995E+02 -0.76831294494E+01  0.29101130909E+02  0.10001839695E+03  0.91610116833E+02 0.  0.
         24    2    1    2    0    0 -0.19414478525E+02  0.80671450445E-01 -0.44780498855E+02  0.94960422351E+02  0.81457106818E+02 0.  0.
        -11    1    4    4    0    0 -0.37735068683E+02 -0.21436900721E+02 -0.50015196210E+02  0.66219302118E+02  0.00000000000E+00 0.  1.
         12    1    4    4    0    0  0.18320590158E+02  0.21517572171E+02  0.52346973550E+01  0.28741120234E+02  0.00000000000E+00 0. -1.
        -13    1    3    3    0    0  0.19213365926E+02 -0.29091563392E+02  0.34686492256E+02  0.49179520492E+02  0.00000000000E+00 0. -1.
         13    1    3    3    0    0 -0.45771978921E+02  0.21408433943E+02 -0.55853613474E+01  0.50838876459E+02  0.00000000000E+00 0.  1.
          1    1    1    2  501    0  0.45973091520E+02  0.76024579990E+01  0.22341897286E+03  0.22822655399E+03  0.00000000000E+00 0. -1.
<scales pt_clust_5="13000.00000" pt_clust_6="13000.00000" pt_clust_7="13000.00000" pt_clust_8="13000.00000" pt_clust_9="46.59748"></scales>
<clustering>
<clus scale="   46.597">  2  9  1 -1</clus>
<clus scale="   81.457">  5  6 -1 -1</clus>
<clus scale="   82.367">  2  5  1 -1</clus>
<clus scale="   91.610">  7  8 -1 -1</clus>
<clus scale="   46.597">  2  5  1 -1</clus>
</clustering>
</event>
<event>
 9    2  0.1751298E-004  0.1619858E+03  0.7546771E-02  0.1188665E+00
          2   -1    0    0  502    0 -0.00000000000E+00  0.00000000000E+00  0.49434115381E+03  0.49434115381E+03  0.00000000000E+00 0. -1.
         21   -1    0    0  501  502  0.00000000000E+00 -0.00000000000E+00 -0.97373493844E+02  0.97373493844E+02  0.00000000000E+00 0.  1.
         24    2    1    2    0    0 -0.78123392485E+02 -0.11526529144E+03  0.38381325681E+03  0.41513763412E+03  0.75081870607E+02 0.  0.
         23    2    1    2    0    0  0.75006309244E+02  0.87064948781E+02  0.14087641152E+01  0.14586975754E+03  0.89831786227E+02 0.  0.
        -11    1    3    3    0    0 -0.41412595267E+02 -0.13473450688E+02  0.63162818720E+02  0.76720783292E+02  0.00000000000E+00 0.  1.
         12    1    3    3    0    0 -0.36710797218E+02 -0.10179184075E+03  0.32065043809E+03  0.33841685083E+03  0.00000000000E+00 0. -1.
        -13    1    4    4    0    0  0.43356424887E+02  0.84886129566E+02 -0.31278580240E+02  0.10031841383E+03  0.00000000000E+00 0.  1.
         13    1    4    4    0    0  0.31649884358E+02  0.21788192144E+01  0.32687344355E+02  0.45551343712E+02  0.00000000000E+00 0. -1.
          1    1    1    2  501    0  0.31170832410E+01  0.28200342658E+02  0.11745639036E+02  0.30707255989E+02  0.00000000000E+00 0. -1.
<scales pt_clust_5="13000.00000" pt_clust_6="13000.00000" pt_clust_7="13000.00000" pt_clust_8="13000.00000" pt_clust_9="28.37209"></scales>
<clustering>
<clus scale="   28.372">  2  9  1 -1</clus>
<clus scale="   75.082">  5  6 -1 -1</clus>
<clus scale="   89.832">  7  8 -1 -1</clus>
<clus scale="  154.295">  1  5  2 -1</clus>
<clus scale="   28.372">  2  5  1 -1</clus>
</clustering>
</event>
<event>
 9    2  0.1751298E-004  0.1740692E+03  0.7546771E-02  0.1175652E+00
         21   -1    0    0  501  502  0.00000000000E+00  0.00000000000E+00  0.77931867702E+02  0.77931867702E+02  0.00000000000E+00 0.  1.
          2   -1    0    0  502    0 -0.00000000000E+00 -0.00000000000E+00 -0.10278764538E+04  0.10278764538E+04  0.00000000000E+00 0. -1.
         24    2    1    2    0    0 -0.54911255358E+00 -0.14746935949E+03 -0.66081453541E+03  0.68184890651E+03  0.80588879991E+02 0.  0.
         23    2    1    2    0    0  0.10922030858E+03  0.12954214472E+03 -0.22136177652E+03  0.29464061182E+03  0.95403411695E+02 0.  0.
        -11    1    3    3    0    0  0.32082516024E+02 -0.12141517481E+03 -0.52173208479E+03  0.53663330199E+03  0.00000000000E+00 0.  1.
         12    1    3    3    0    0 -0.32631628577E+02 -0.26054184677E+02 -0.13908245062E+03  0.14521560451E+03  0.00000000000E+00 0. -1.
        -11    1    4    4    0    0  0.10808607813E+03  0.87708336364E+02 -0.11573189273E+03  0.18102271556E+03  0.00000000000E+00 0.  1.
         11    1    4    4    0    0  0.11342304487E+01  0.41833808354E+02 -0.10562988379E+03  0.11361789626E+03  0.00000000000E+00 0. -1.
          1    1    1    2  501    0 -0.10867119603E+03  0.17927214770E+02 -0.67768274197E+02  0.12931880321E+03  0.00000000000E+00 0. -1.
<scales pt_clust_5="13000.00000" pt_clust_6="13000.00000" pt_clust_7="13000.00000" pt_clust_8="13000.00000" pt_clust_9="110.13997"></scales>
<clustering>
<clus scale="   80.589">  5  6 -1 -1</clus>
<clus scale="   95.403">  7  8 -1 -1</clus>
<clus scale="  110.140">  1  9  2 -1</clus>
<clus scale="  166.412">  2  5  1 -1</clus>
<clus scale="  110.140">  1  5  2 -1</clus>
</clustering>
</event>
<event>
 9    2  0.1751298E-004  0.1745729E+03  0.7546771E-02  0.1198496E+00
         21   -1    0    0  501  502  0.00000000000E+00  0.00000000000E+00  0.70547739109E+02  0.70547739109E+02  0.00000000000E+00 0. -1.
         -1   -1    0    0    0  501 -0.00000000000E+00 -0.00000000000E+00 -0.63830398671E+03  0.63830398671E+03  0.00000000000E+00 0.  1.
         23    2    1    2    0    0 -0.82702352619E+01  0.36874564966E+02 -0.14186572999E+03  0.17318485833E+03  0.91863918251E+02 0.  0.
         24    2    1    2    0    0 -0.11945810177E+03 -0.10075140050E+03 -0.24450932583E+03  0.30481211893E+03  0.93298095647E+02 0.  0.
        -13    1    4    4    0    0 -0.36298712005E+02 -0.44078012403E+01 -0.12495786870E+03  0.13019790380E+03  0.00000000000E+00 0.  1.
         14    1    4    4    0    0 -0.83159389761E+02 -0.96343599263E+02 -0.11955145713E+03  0.17461421513E+03  0.00000000000E+00 0. -1.
        -11    1    3    3    0    0 -0.43392264964E+02  0.40945771669E+02 -0.63056602156E+02  0.86807718273E+02  0.00000000000E+00 0.  1.
         11    1    3    3    0    0  0.35122029702E+02 -0.40712067029E+01 -0.78809127839E+02  0.86377140061E+02  0.00000000000E+00 0. -1.
         -2    1    1    2    0  502  0.12772833703E+03  0.63876835538E+02 -0.18138119178E+03  0.23085474855E+03  0.00000000000E+00 0.  1.
<scales pt_clust_5="13000.00000" pt_clust_6="13000.00000" pt_clust_7="13000.00000" pt_clust_8="13000.00000" pt_clust_9="147.55049"></scales>
<clustering>
<clus scale="   91.864">  7  8 -1 -1</clus>
<clus scale="   93.298">  5  6 -1 -1</clus>
<clus scale="   99.333">  2  7  1 -1</clus>
<clus scale="  147.550">  1  9  2 -1</clus>
<clus scale="  147.550">  1  5  2 -1</clus>
</clustering>
</event>
<event>
 9    2  0.1751298E-004  0.1544941E+03  0.7546771E-02  0.1196949E+00
         21   -1    0    0  501  502  0.00000000000E+00  0.00000000000E+00  0.37693935935E+02  0.37693935935E+02  0.00000000000E+00 0. -1.
          2   -1    0    0  502    0 -0.00000000000E+00 -0.00000000000E+00 -0.11320172658E+04  0.11320172658E+04  0.00000000000E+00 0. -1.
         24    2    1    2    0    0  0.18344547571E+02  0.14579730636E+03 -0.65880573577E+03  0.67973400710E+03  0.80124565279E+02 0.  0.
         23    2    1    2    0    0  0.58981837568E+01 -0.77084574581E+02 -0.13310725221E+03  0.17891262833E+03  0.91188638407E+02 0.  0.
        -11    1    3    3    0    0 -0.26490725616E+02  0.18407054251E+02 -0.11976501848E+03  0.12403321265E+03  0.00000000000E+00 0.  1.
         12    1    3    3    0    0  0.44835273186E+02  0.12739025211E+03 -0.53904071729E+03  0.55570079445E+03  0.00000000000E+00 0. -1.
        -11    1    4    4    0    0  0.43115900384E+02 -0.59376645748E+02 -0.59170359816E+02  0.94263982554E+02  0.00000000000E+00 0. -1.
         11    1    4    4    0    0 -0.37217716627E+02 -0.17707928833E+02 -0.73936892397E+02  0.84648645777E+02  0.00000000000E+00 0.  1.
          1    1    1    2  501    0 -0.24242731328E+02 -0.68712731779E+02 -0.30241034188E+03  0.31106456630E+03  0.00000000000E+00 0. -1.
<scales pt_clust_5="13000.00000" pt_clust_6="13000.00000" pt_clust_7="13000.00000" pt_clust_8="13000.00000" pt_clust_9="72.86395"></scales>
<clustering>
<clus scale="   72.864">  1  9  2 -1</clus>
<clus scale="   80.125">  5  6 -1 -1</clus>
<clus scale="   91.189">  7  8 -1 -1</clus>
<clus scale="  148.233">  2  5  1 -1</clus>
<clus scale="   72.864">  1  5  2 -1</clus>
</clustering>
</event>
<event>
 9    2  0.1751298E-004  0.9203459E+02  0.7546771E-02  0.1307703E+00
          4   -1    0    0  502    0 -0.00000000000E+00  0.00000000000E+00  0.12547302328E+03  0.12547302328E+03  0.00000000000E+00 0. -1.
         21   -1    0    0  501  502  0.00000000000E+00 -0.00000000000E+00 -0.46152934694E+03  0.46152934694E+03  0.00000000000E+00 0. -1.
         23    2    1    2    0    0  0.10099650845E+02  0.66462750799E+00  0.85961994382E+02  0.12534395795E+03  0.90659796156E+02 0.  0.
         24    2    1    2    0    0 -0.44692931491E+02 -0.22980010285E+02 -0.92109108726E+02  0.12919073300E+03  0.75369878498E+02 0.  0.
        -13    1    4    4    0    0 -0.61606214029E+02 -0.28172672226E+01 -0.77658813698E+02  0.99167302810E+02  0.00000000000E+00 0.  1.
         14    1    4    4    0    0  0.16913282538E+02 -0.20162743062E+02 -0.14450295028E+02  0.30023430190E+02  0.00000000000E+00 0. -1.
        -13    1    3    3    0    0  0.47153604123E+02  0.17080780222E+02  0.54281728582E+02  0.73903460627E+02  0.00000000000E+00 0.  1.
         13    1    3    3    0    0 -0.37053953279E+02 -0.16416152714E+02  0.31680265800E+02  0.51440497322E+02  0.00000000000E+00 0. -1.
          3    1    1    2  501    0  0.34593280646E+02  0.22315382777E+02 -0.32990920931E+03  0.33246767927E+03  0.00000000000E+00 0. -1.
<scales pt_clust_5="13000.00000" pt_clust_6="13000.00000" pt_clust_7="13000.00000" pt_clust_8="13000.00000" pt_clust_9="41.16639"></scales>
<clustering>
<clus scale="   41.166">  2  9  1 -1</clus>
<clus scale="   75.370">  5  6 -1 -1</clus>
<clus scale="   77.018">  2  5  1 -1</clus>
<clus scale="   90.660">  7  8 -1 -1</clus>
<clus scale="   41.166">  2  5  1 -1</clus>
</clustering>
</event>
<event>
 9    2  0.1751298E-004  0.1225713E+03  0.7546771E-02  0.1242597E+00
         21   -1    0    0  501  502  0.00000000000E+00  0.00000000000E+00  0.11289604372E+03  0.11289604372E+03  0.00000000000E+00 0.  1.
          2   -1    0    0  502    0 -0.00000000000E+00 -0.00000000000E+00 -0.25441999748E+03  0.25441999748E+03  0.00000000000E+00 0. -1.
         23    2    1    2    0    0 -0.63692410942E+02 -0.38829155853E+02 -0.88458483350E+02  0.14756799675E+03  0.91580477359E+02 0.  0.
         24    2    1    2    0    0  0.83003036677E+02  0.56600328261E+02  0.30948742991E+02  0.13173041616E+03  0.79384989717E+02 0.  0.
        -13    1    4    4    0    0  0.16525217363E+02  0.53721126031E+02  0.32965825437E+02  0.65159710233E+02  0.00000000000E+00 0.  1.
         14    1    4    4    0    0  0.66477819313E+02  0.28792022305E+01 -0.20170824461E+01  0.66570705928E+02  0.00000000000E+00 0. -1.
        -11    1    3    3    0    0  0.19767592392E+02 -0.21599972278E+02 -0.79665089917E+01  0.30344386251E+02  0.00000000000E+00 0.  1.
         11    1    3    3    0    0 -0.83460003334E+02 -0.17229183575E+02 -0.80491974358E+02  0.11722361050E+03  0.00000000000E+00 0. -1.
          1    1    1    2  501    0 -0.19310625735E+02 -0.17771172408E+02 -0.84014213407E+02  0.88017628288E+02  0.00000000000E+00 0. -1.
<scales pt_clust_5="13000.00000" pt_clust_6="13000.00000" pt_clust_7="13000.00000" pt_clust_8="13000.00000" pt_clust_9="26.24339"></scales>
<clustering>
<clus scale="   26.243">  1  9  2 -1</clus>
<clus scale="   79.385">  5  6 -1 -1</clus>
<clus scale="   91.580">  7  8 -1 -1</clus>
<clus scale="  113.748">  1  5  2 -1</clus>
<clus scale="   26.243">  1  5  2 -1</clus>
</clustering>
</event>
<event>
 9    2  0.1751298E-004  0.9546983E+02  0.7546771E-02  0.1297887E+00
         -1   -1    0    0    0  501 -0.00000000000E+00  0.00000000000E+00  0.12415037629E+03  0.12415037629E+03  0.00000000000E+00 0.  1.
         21   -1    0    0  501  502  0.00000000000E+00 -0.00000000000E+00 -0.44382210227E+03  0.44382210227E+03  0.00000000000E+00 0. -1.
         24    2    1    2    0    0  0.21261572614E+02  0.83527057923E+01  0.95753024133E+02  0.12657408649E+03  0.79564662862E+02 0.  0.
         23    2    1    2    0    0 -0.66139923079E+00 -0.33912041260E+02 -0.19578425784E+03  0.21931824298E+03  0.92836157254E+02 0.  0.
        -11    1    3    3    0    0 -0.13102349347E+02  0.29796549028E+02  0.73437729244E+02  0.80328114437E+02  0.00000000000E+00 0.  1.
         12    1    3    3    0    0  0.34363921961E+02 -0.21443843236E+02  0.22315294889E+02  0.46245972054E+02  0.00000000000E+00 0. -1.
        -13    1    4    4    0    0 -0.32819428025E+02  0.85031820151E+01 -0.30249423813E+02  0.45436181632E+02  0.00000000000E+00 0.  1.
         13    1    4    4    0    0  0.32158028795E+02 -0.42415223275E+02 -0.16553483403E+03  0.17388206135E+03  0.00000000000E+00 0. -1.
         -2    1    1    2    0  502 -0.20600173383E+02  0.25559335467E+02 -0.21964049227E+03  0.22208014909E+03  0.00000000000E+00 0.  1.
<scales pt_clust_5="13000.00000" pt_clust_6="13000.00000" pt_clust_7="13000.00000" pt_clust_8="13000.00000" pt_clust_9="32.82753"></scales>
<clustering>
<clus scale="   32.828">  2  9  1 -1</clus>
<clus scale="   79.565">  5  6 -1 -1</clus>
<clus scale="   82.622">  1  5  2 -1</clus>
<clus scale="   92.836">  7  8 -1 -1</clus>
<clus scale="   32.828">  2  5  1 -1</clus>
</clustering>
</event>
<event>
 9    2  0.1751298E-004  0.1918326E+03  0.7546771E-02  0.1175537E+00
          2   -1    0    0  502    0 -0.00000000000E+00  0.00000000000E+00  0.87612917363E+03  0.87612917363E+03  0.00000000000E+00 0. -1.
         21   -1    0    0  501  502  0.00000000000E+00 -0.00000000000E+00 -0.96376241318E+02  0.96376241318E+02  0.00000000000E+00 0.  1.
         23    2    1    2    0    0 -0.50813841901E+02 -0.66507765125E+02  0.39410212063E+03  0.41334697454E+03  0.92379167188E+02 0.  0.
         24    2    1    2    0    0  0.28289117146E+02 -0.15154054843E+03  0.10645069373E+03  0.20418641878E+03  0.81212877367E+02 0.  0.
        -13    1    4    4    0    0  0.33757694504E+02 -0.13004223657E+03  0.49693209068E+02  0.14324796773E+03  0.00000000000E+00 0.  1.
         14    1    4    4    0    0 -0.54685773584E+01 -0.21498311860E+02  0.56757484664E+02  0.60938451052E+02  0.00000000000E+00 0. -1.
        -11    1    3    3    0    0 -0.75431324013E+02 -0.65683372795E+02  0.31485910356E+03  0.33036411003E+03  0.00000000000E+00 0. -1.
         11    1    3    3    0    0  0.24617482111E+02 -0.82439233064E+00  0.79243017066E+02  0.82982864508E+02  0.00000000000E+00 0.  1.
          1    1    1    2  501    0  0.22524724756E+02  0.21804831356E+03  0.27920011795E+03  0.35497202162E+03  0.00000000000E+00 0. -1.
<scales pt_clust_5="13000.00000" pt_clust_6="13000.00000" pt_clust_7="13000.00000" pt_clust_8="13000.00000" pt_clust_9="173.79363"></scales>
<clustering>
<clus scale="   81.213">  5  6 -1 -1</clus>
<clus scale="   92.379">  7  8 -1 -1</clus>
<clus scale="  124.656">  1  7  2 -1</clus>
<clus scale="  173.794">  2  9  1 -1</clus>
<clus scale="  173.794">  2  5  1 -1</clus>
</clustering>
</event>
<event>
 9    2  0.1751298E-004  0.1024771E+03  0.7546771E-02  0.1284582E+00
         21   -1    0    0  501  502  0.00000000000E+00  0.00000000000E+00  0.18647399464E+03  0.18647399464E+03  0.00000000000E+00 0.  1.
         -3   -1    0    0    0  501 -0.00000000000E+00 -0.00000000000E+00 -0.31042422758E+03  0.31042422758E+03  0.00000000000E+00 0.  1.
         24    2    1    2    0    0  0.99364184503E+01  0.42548729961E+02 -0.19602313158E+03  0.21531127267E+03  0.77619257860E+02 0.  0.
         23    2    1    2    0    0 -0.38331023976E+02 -0.20946826895E+01 -0.74228301256E+02  0.12716277835E+03  0.95848194536E+02 0.  0.
        -11    1    3    3    0    0  0.43609480438E+02  0.24473307332E+02 -0.12554401018E+03  0.13513707133E+03  0.00000000000E+00 0.  1.
         12    1    3    3    0    0 -0.33673061987E+02  0.18075422629E+02 -0.70479121403E+02  0.80174201340E+02  0.00000000000E+00 0. -1.
        -13    1    4    4    0    0 -0.44190605062E+02  0.32079098369E+02 -0.74646550640E+02  0.92487759462E+02  0.00000000000E+00 0.  1.
         13    1    4    4    0    0  0.58595810856E+01 -0.34173781058E+02  0.41824938422E+00  0.34675018888E+02  0.00000000000E+00 0. -1.
         -4    1    1    2    0  502  0.28394605526E+02 -0.40454047272E+02  0.14630119989E+03  0.15442417121E+03  0.00000000000E+00 0.  1.
<scales pt_clust_5="13000.00000" pt_clust_6="13000.00000" pt_clust_7="13000.00000" pt_clust_8="13000.00000" pt_clust_9="49.42452"></scales>
<clustering>
<clus scale="   49.425">  1  9  2 -1</clus>
<clus scale="   77.619">  5  6 -1 -1</clus>
<clus scale="   85.670">  2  5  1 -1</clus>
<clus scale="   95.848">  7  8 -1 -1</clus>
<clus scale="   49.425">  1  5  2 -1</clus>
</clustering>
</event>
<event>
 9    2  0.1751298E-004  0.1058557E+03  0.7546771E-02  0.1276320E+00
         21   -1    0    0  501  502  0.00000000000E+00  0.00000000000E+00  0.10120144678E+03  0.10120144678E+03  0.00000000000E+00 0. -1.
          2   -1    0    0  502    0 -0.00000000000E+00 -0.00000000000E+00 -0.36149858058E+03  0.36149858058E+03  0.00000000000E+00 0. -1.
         24    2    1    2    0    0  0.67519990699E+01 -0.44123951907E+02 -0.29043443338E+03  0.30442814640E+03  0.79572756650E+02 0.  0.
         23    2    1    2    0    0  0.25634139004E+02  0.42767555986E+02 -0.74249550020E+01  0.10865711785E+03  0.96255214797E+02 0.  0.
        -13    1    3    3    0    0 -0.13556886216E+02  0.19015828478E+02 -0.10270298131E+03  0.10532470397E+03  0.00000000000E+00 0.  1.
         14    1    3    3    0    0  0.20308885286E+02 -0.63139780384E+02 -0.18773145207E+03  0.19910344242E+03  0.00000000000E+00 0. -1.
        -11    1    4    4    0    0  0.47597950672E+02  0.46764746103E+02  0.23299942260E+02  0.70678099123E+02  0.00000000000E+00 0. -1.
         11    1    4    4    0    0 -0.21963811668E+02 -0.39971901176E+01 -0.30724897262E+02  0.37979018729E+02  0.00000000000E+00 0.  1.
          1    1    1    2  501    0 -0.32386138074E+02  0.13563959207E+01  0.37562254582E+02  0.49614763111E+02  0.00000000000E+00 0. -1.
<scales pt_clust_5="13000.00000" pt_clust_6="13000.00000" pt_clust_7="13000.00000" pt_clust_8="13000.00000" pt_clust_9="32.41453"></scales>
<clustering>
<clus scale="   32.415">  1  9  2 -1</clus>
<clus scale="   79.573">  5  6 -1 -1</clus>
<clus scale="   90.952">  2  5  1 -1</clus>
<clus scale="   96.255">  7  8 -1 -1</clus>
<clus scale="   32.415">  1  5  2 -1</clus>
</clustering>
</event>
<event>
 9    2  0.1751298E-004  0.9756167E+02  0.7546771E-02  0.1291201E+00
          2   -1    0    0  502    0 -0.00000000000E+00  0.00000000000E+00  0.25889621511E+03  0.25889621511E+03  0.00000000000E+00 0. -1.
         21   -1    0    0  501  502  0.00000000000E+00 -0.00000000000E+00 -0.73313460811E+02  0.73313460811E+02  0.00000000000E+00 0. -1.
         24    2    1    2    0    0  0.45664024252E+02  0.24488294582E+02  0.12596573949E+03  0.15822672640E+03  0.80519871710E+02 0.  0.
         23    2    1    2    0    0  0.20821964029E+02 -0.25518443401E+02  0.35491804693E+02  0.10324771355E+03  0.91190333993E+02 0.  0.
        -11    1    3    3    0    0  0.32567677029E+02  0.45554752755E+02  0.40169206030E+02  0.68916283988E+02  0.00000000000E+00 0.  1.
         12    1    3    3    0    0  0.13096347223E+02 -0.21066458173E+02  0.85796533457E+02  0.89310442411E+02  0.00000000000E+00 0. -1.
        -13    1    4    4    0    0 -0.34995440078E+01  0.26098489101E+02 -0.12068203089E+02  0.28965832759E+02  0.00000000000E+00 0.  1.
         13    1    4    4    0    0  0.24321508036E+02 -0.51616932502E+02  0.47560007782E+02  0.74281880794E+02  0.00000000000E+00 0. -1.
          1    1    1    2  501    0 -0.66485988281E+02  0.10301488192E+01  0.24125210119E+02  0.70735235969E+02  0.00000000000E+00 0. -1.
<scales pt_clust_5="13000.00000" pt_clust_6="13000.00000" pt_clust_7="13000.00000" pt_clust_8="13000.00000" pt_clust_9="66.49397"></scales>
<clustering>
<clus scale="   66.494">  2  9  1 -1</clus>
<clus scale="   80.520">  5  6 -1 -1</clus>
<clus scale="   87.670">  1  5  2 -1</clus>
<clus scale="   91.190">  7  8 -1 -1</clus>
<clus scale="   66.494">  2  5  1 -1</clus>
</clustering>
</event>
<event>
 9    2  0.1751298E-004  0.1522323E+03  0.7546771E-02  0.1217939E+00
         21   -1    0    0  501  502  0.00000000000E+00  0.00000000000E+00  0.15836227711E+03  0.15836227711E+03  0.00000000000E+00 0.  1.
          2   -1    0    0  502    0 -0.00000000000E+00 -0.00000000000E+00 -0.30492536489E+03  0.30492536489E+03  0.00000000000E+00 0. -1.
         24    2    1    2    0    0  0.56690092508E+02  0.83845034587E+01 -0.15339488082E+03  0.18244534081E+03  0.80450273054E+02 0.  0.
         23    2    1    2    0    0  0.77164966685E+01  0.11114785940E+03 -0.11206483921E+02  0.14386940629E+03  0.90329562237E+02 0.  0.
        -11    1    3    3    0    0  0.66293493549E+02 -0.15372438302E+02 -0.13406329821E+03  0.15034662308E+03  0.00000000000E+00 0.  1.
         12    1    3    3    0    0 -0.96034010403E+01  0.23756941761E+02 -0.19331582613E+02  0.32098717727E+02  0.00000000000E+00 0. -1.
        -13    1    4    4    0    0 -0.38636107970E+02  0.34276092451E+02  0.74568697552E+01  0.52184329634E+02  0.00000000000E+00 0.  1.
         13    1    4    4    0    0  0.46352604639E+02  0.76871766950E+02 -0.18663353676E+02  0.91685076656E+02  0.00000000000E+00 0. -1.
          1    1    1    2  501    0 -0.64406589177E+02 -0.11953236286E+03  0.18038276961E+02  0.13697289490E+03  0.00000000000E+00 0. -1.
<scales pt_clust_5="13000.00000" pt_clust_6="13000.00000" pt_clust_7="13000.00000" pt_clust_8="13000.00000" pt_clust_9="122.53675"></scales>
<clustering>
<clus scale="   80.450">  5  6 -1 -1</clus>
<clus scale="   90.330">  7  8 -1 -1</clus>
<clus scale="   98.774">  2  5  1 -1</clus>
<clus scale="  122.537">  1  9  2 -1</clus>
<clus scale="  122.537">  1  5  2 -1</clus>
</clustering>
</event>
<event>
 9    2  0.1751298E-004  0.3316466E+03  0.7546771E-02  0.1070630E+00
         21   -1    0    0  501  502  0.00000000000E+00  0.00000000000E+00  0.10830851257E+04  0.10830851257E+04  0.00000000000E+00 0.  1.
          2   -1    0    0  502    0 -0.00000000000E+00 -0.00000000000E+00 -0.48130835554E+03  0.48130835554E+03  0.00000000000E+00 0. -1.
         23    2    1    2    0    0 -0.27357092263E+03 -0.18263271335E+03 -0.38537420592E+03  0.51431228641E+03  0.88363406837E+02 0.  0.
         24    2    1    2    0    0  0.15520254144E+03  0.15233668406E+03  0.71718997147E+03  0.75375727228E+03  0.80587071904E+02 0.  0.
        -13    1    4    4    0    0  0.14224031673E+03  0.10373415328E+03  0.61735848116E+03  0.64196929562E+03  0.00000000000E+00 0.  1.
         14    1    4    4    0    0  0.12962224707E+02  0.48602530782E+02  0.99831490303E+02  0.11178797665E+03  0.00000000000E+00 0. -1.
        -13    1    3    3    0    0 -0.13247234056E+03 -0.48613975085E+02 -0.20569982876E+03  0.24944871044E+03  0.00000000000E+00 0.  1.
         13    1    3    3    0    0 -0.14109858207E+03 -0.13401873827E+03 -0.17967437717E+03  0.26486357598E+03  0.00000000000E+00 0. -1.
          1    1    1    2  501    0  0.11836838120E+03  0.30296029295E+02  0.26996100464E+03  0.29632392256E+03  0.00000000000E+00 0. -1.
<scales pt_clust_5="13000.00000" pt_clust_6="13000.00000" pt_clust_7="13000.00000" pt_clust_8="13000.00000" pt_clust_9="122.18397"></scales>
<clustering>
<clus scale="   80.587">  5  6 -1 -1</clus>
<clus scale="   88.363">  7  8 -1 -1</clus>
<clus scale="  122.184">  1  9  2 -1</clus>
<clus scale="  329.660">  1  5  2 -1</clus>
<clus scale="  122.184">  1  5  2 -1</clus>
</clustering>
</event>
<event>
 9    2  0.1751298E-004  0.1137251E+03  0.7546771E-02  0.1254904E+00
         21   -1    0    0  501  502  0.00000000000E+00  0.00000000000E+00  0.32840330911E+02  0.32840330911E+02  0.00000000000E+00 0. -1.
          2   -1    0    0  502    0 -0.00000000000E+00 -0.00000000000E+00 -0.50966691428E+03  0.50966691428E+03  0.00000000000E+00 0. -1.
         23    2    1    2    0    0  0.74423865880E+02 -0.96542815553E+01 -0.32374687529E+03  0.34448182537E+03  0.90683911398E+02 0.  0.
         24    2    1    2    0    0 -0.56611624174E+02  0.49765653621E+00 -0.11702765464E+03  0.15678381106E+03  0.87638848719E+02 0.  0.
        -11    1    4    4    0    0 -0.16991472033E+02  0.11774716896E+02 -0.11358003728E+03  0.11544600014E+03  0.00000000000E+00 0.  1.
         12    1    4    4    0    0 -0.39620152141E+02 -0.11277060360E+02 -0.34476173646E+01  0.41337810918E+02  0.00000000000E+00 0. -1.
        -11    1    3    3    0    0  0.33593934946E+01  0.26040936974E+02 -0.28670541626E+02  0.38876932496E+02  0.00000000000E+00 0.  1.
         11    1    3    3    0    0  0.71064472385E+02 -0.35695218529E+02 -0.29507633366E+03  0.30560489288E+03  0.00000000000E+00 0. -1.
          1    1    1    2  501    0 -0.17812241706E+02  0.91566250191E+01 -0.36052053435E+02  0.41241608761E+02  0.00000000000E+00 0. -1.
<scales pt_clust_5="13000.00000" pt_clust_6="13000.00000" pt_clust_7="13000.00000" pt_clust_8="13000.00000" pt_clust_9="20.02797"></scales>
<clustering>
<clus scale="   20.028">  1  9  2 -1</clus>
<clus scale="   87.639">  5  6 -1 -1</clus>
<clus scale="   90.684">  7  8 -1 -1</clus>
<clus scale="  111.312">  1  5  2 -1</clus>
<clus scale="   20.028">  1  5  2 -1</clus>
</clustering>
</event>
<event>
 9    2  0.1751298E-004  0.1238938E+03  0.7546771E-02  0.1240246E+00
         21   -1    0    0  501  502  0.00000000000E+00  0.00000000000E+00  0.63498915744E+02  0.63498915744E+02  0.00000000000E+00 0. -1.
          2   -1    0    0  502    0 -0.00000000000E+00 -0.00000000000E+00 -0.53733857380E+03  0.53733857380E+03  0.00000000000E+00 0. -1.
         23    2    1    2    0    0 -0.78126574656E+02  0.72646027240E+01 -0.11121343776E+03  0.16402124717E+03  0.91531440852E+02 0.  0.
         24    2    1    2    0    0  0.71637293465E+02 -0.72501751426E+02 -0.93186678366E+02  0.15951556965E+03  0.79831410857E+02 0.  0.
        -11    1    4    4    0    0 -0.10753569075E+01 -0.36217100746E+02 -0.48242015992E+00  0.36236273375E+02  0.00000000000E+00 0.  1.
         12    1    4    4    0    0  0.72712650373E+02 -0.36284650680E+02 -0.92704258207E+02  0.12327929627E+03  0.00000000000E+00 0. -1.
        -13    1    3    3    0    0 -0.58673707891E+02 -0.37792374661E+02 -0.78510235136E+02  0.10504629742E+03  0.00000000000E+00 0.  1.
         13    1    3    3    0    0 -0.19452866766E+02  0.45056977385E+02 -0.32703202628E+02  0.58974949755E+02  0.00000000000E+00 0. -1.
          1    1    1    2  501    0  0.64892811911E+01  0.65237148702E+02 -0.26943954193E+03  0.27730067273E+03  0.00000000000E+00 0. -1.
<scales pt_clust_5="13000.00000" pt_clust_6="13000.00000" pt_clust_7="13000.00000" pt_clust_8="13000.00000" pt_clust_9="65.55914"></scales>
<clustering>
<clus scale="   65.559">  1  9  2 -1</clus>
<clus scale="   79.831">  5  6 -1 -1</clus>
<clus scale="   91.531">  7  8 -1 -1</clus>
<clus scale="  115.519">  1  5  2 -1</clus>
<clus scale="   65.559">  1  5  2 -1</clus>
</clustering>
</event>
<event>
 9    2  0.1751298E-004  0.9724209E+02  0.7546771E-02  0.1295781E+00
         -1   -1    0    0    0  501 -0.00000000000E+00  0.00000000000E+00  0.18603276409E+02  0.18603276409E+02  0.00000000000E+00 0.  1.
         21   -1    0    0  501  502  0.00000000000E+00 -0.00000000000E+00 -0.67033496833E+03  0.67033496833E+03  0.00000000000E+00 0. -1.
         24    2    1    2    0    0 -0.53000786908E+01  0.25011734509E+02 -0.16350115917E+03  0.18353909730E+03  0.79374388109E+02 0.  0.
         23    2    1    2    0    0  0.17320294998E+02  0.57237849907E+01 -0.35071375644E+03  0.36397771511E+03  0.95639342337E+02 0.  0.
        -11    1    3    3    0    0 -0.33923404777E+02 -0.51957215676E+01 -0.11302376251E+03  0.11811927788E+03  0.00000000000E+00 0.  1.
         12    1    3    3    0    0  0.28623326086E+02  0.30207456076E+02 -0.50477396664E+02  0.65419819419E+02  0.00000000000E+00 0. -1.
        -13    1    4    4    0    0 -0.31842764402E+01  0.49167310203E+02 -0.18362061070E+03  0.19011599797E+03  0.00000000000E+00 0. -1.
         13    1    4    4    0    0  0.20504571438E+02 -0.43443525212E+02 -0.16709314574E+03  0.17386171714E+03  0.00000000000E+00 0.  1.
         -2    1    1    2    0  502 -0.12020216307E+02 -0.30735519499E+02 -0.13751677630E+03  0.14142143234E+03  0.00000000000E+00 0.  1.
<scales pt_clust_5="13000.00000" pt_clust_6="13000.00000" pt_clust_7="13000.00000" pt_clust_8="13000.00000" pt_clust_9="33.00239"></scales>
<clustering>
<clus scale="   33.002">  2  9  1 -1</clus>
<clus scale="   79.374">  5  6 -1 -1</clus>
<clus scale="   81.298">  1  5  2 -1</clus>
<clus scale="   95.639">  7  8 -1 -1</clus>
<clus scale="   33.002">  2  5  1 -1</clus>
</clustering>
</event>
<event>
 9    2  0.3378267E-004  0.5395459E+03  0.7546771E-02  0.1030205E+00
         21   -1    0    0  501  502  0.00000000000E+00  0.00000000000E+00  0.74440129621E+03  0.74440129621E+03  0.00000000000E+00 0. -1.
          2   -1    0    0  502    0 -0.00000000000E+00 -0.00000000000E+00 -0.11050868920E+04  0.11050868920E+04  0.00000000000E+00 0. -1.
         23    2    1    2    0    0  0.11697713565E+03  0.18529060722E+03 -0.43584330827E+03  0.49875987357E+03  0.10385452680E+03 0.  0.
         24    2    1    2    0    0 -0.37992996319E+03 -0.43548295027E+03  0.51645373385E+03  0.77934177602E+03  0.81590242911E+02 0.  0.
        -13    1    4    4    0    0 -0.30059738182E+01 -0.26601088942E+02  0.32787268084E+02  0.42327990265E+02  0.00000000000E+00 0.  1.
         14    1    4    4    0    0 -0.37692398937E+03 -0.40888186133E+03  0.48366646576E+03  0.73701378575E+03  0.00000000000E+00 0. -1.
        -11    1    3    3    0    0  0.35089749884E+02  0.72643669842E+02 -0.68255319749E+02  0.10567488817E+03  0.00000000000E+00 0.  1.
         11    1    3    3    0    0  0.81887385761E+02  0.11264693738E+03 -0.36758798852E+03  0.39308498541E+03  0.00000000000E+00 0. -1.
          1    1    1    2  501    0  0.26295282754E+03  0.25019234305E+03 -0.44129602135E+03  0.57138653860E+03  0.00000000000E+00 0. -1.
<scales pt_clust_5="13000.00000" pt_clust_6="13000.00000" pt_clust_7="13000.00000" pt_clust_8="13000.00000" pt_clust_9="533.34144"></scales>
<clustering>
<clus scale="   81.590">  5  6 -1 -1</clus>
<clus scale="  103.855">  7  8 -1 -1</clus>
<clus scale="  242.491">  2  7  1 -1</clus>
<clus scale="  533.341">  1  9  2 -1</clus>
<clus scale="  533.341">  1  5  2 -1</clus>
</clustering>
</event>
<event>
 9    2  0.1751298E-004  0.1317383E+03  0.7546771E-02  0.1225324E+00
         21   -1    0    0  501  502  0.00000000000E+00  0.00000000000E+00  0.14138866077E+03  0.14138866077E+03  0.00000000000E+00 0.  1.
         -1   -1    0    0    0  501 -0.00000000000E+00 -0.00000000000E+00 -0.19836637082E+03  0.19836637082E+03  0.00000000000E+00 0.  1.
         24    2    1    2    0    0  0.11700250532E+03  0.42668351048E+02 -0.86643806046E+02  0.17171608013E+03  0.80430644766E+02 0.  0.
         23    2    1    2    0    0 -0.63700454584E+02 -0.35914851684E+02  0.89675754490E+01  0.11046163718E+03  0.82302681572E+02 0.  0.
        -13    1    3    3    0    0  0.92454191147E+02  0.10256979625E+02 -0.91848946151E+02  0.13072571285E+03  0.00000000000E+00 0.  1.
         14    1    3    3    0    0  0.24548314177E+02  0.32411371423E+02  0.52051401048E+01  0.40990367283E+02  0.00000000000E+00 0. -1.
        -11    1    4    4    0    0 -0.28018476565E+02  0.91738436475E+01  0.36326801885E+02  0.46784943854E+02  0.00000000000E+00 0.  1.
         11    1    4    4    0    0 -0.35681978019E+02 -0.45088695332E+02 -0.27359226436E+02  0.63676693328E+02  0.00000000000E+00 0. -1.
         -2    1    1    2    0  502 -0.53302050740E+02 -0.67534993640E+01  0.20698520550E+02  0.57577314280E+02  0.00000000000E+00 0.  1.
<scales pt_clust_5="13000.00000" pt_clust_6="13000.00000" pt_clust_7="13000.00000" pt_clust_8="13000.00000" pt_clust_9="53.72819"></scales>
<clustering>
<clus scale="   53.728">  1  9  2 -1</clus>
<clus scale="   80.431">  5  6 -1 -1</clus>
<clus scale="   82.303">  7  8 -1 -1</clus>
<clus scale="  130.577">  2  5  1 -1</clus>
<clus scale="   53.728">  1  5  2 -1</clus>
</clustering>
</event>
<event>
 9    2  0.1751298E-004  0.9410349E+02  0.7546771E-02  0.1300330E+00
         21   -1    0    0  501  502  0.00000000000E+00  0.00000000000E+00  0.43000224250E+02  0.43000224250E+02  0.00000000000E+00 0. -1.
          2   -1    0    0  502    0 -0.00000000000E+00 -0.00000000000E+00 -0.89932160703E+03  0.89932160703E+03  0.00000000000E+00 0. -1.
         24    2    1    2    0    0 -0.85876534840E+01  0.18298335998E+02 -0.69162354203E+03  0.69668371013E+03  0.81341816857E+02 0.  0.
         23    2    1    2    0    0 -0.44024321739E+02  0.33305435198E+02 -0.10483273164E+03  0.15069181829E+03  0.93116752297E+02 0.  0.
        -13    1    3    3    0    0 -0.11524167331E+02 -0.29641651624E+02 -0.17794745896E+03  0.18076706585E+03  0.00000000000E+00 0.  1.
         14    1    3    3    0    0  0.29365138470E+01  0.47939987622E+02 -0.51367608307E+03  0.51591664428E+03  0.00000000000E+00 0. -1.
        -11    1    4    4    0    0  0.28028477212E+02  0.19309400527E+02 -0.42094515226E+02  0.54133138609E+02  0.00000000000E+00 0.  1.
         11    1    4    4    0    0 -0.72052798951E+02  0.13996034671E+02 -0.62738216416E+02  0.96558679684E+02  0.00000000000E+00 0. -1.
          1    1    1    2  501    0  0.52611975223E+02 -0.51603771196E+02 -0.59865109101E+02  0.94946302857E+02  0.00000000000E+00 0. -1.
<scales pt_clust_5="13000.00000" pt_clust_6="13000.00000" pt_clust_7="13000.00000" pt_clust_8="13000.00000" pt_clust_9="73.69511"></scales>
<clustering>
<clus scale="   73.695">  1  9  2 -1</clus>
<clus scale="   81.342">  5  6 -1 -1</clus>
<clus scale="   82.470">  2  5  1 -1</clus>
<clus scale="   93.117">  7  8 -1 -1</clus>
<clus scale="   73.695">  1  5  2 -1</clus>
</clustering>
</event>
<event>
 9    2  0.1751298E-004  0.6195585E+03  0.7546771E-02  0.1017211E+00
         21   -1    0    0  501  502  0.00000000000E+00  0.00000000000E+00  0.93291023459E+03  0.93291023459E+03  0.00000000000E+00 0. -1.
          2   -1    0    0  502    0 -0.00000000000E+00 -0.00000000000E+00 -0.13245596814E+04  0.13245596814E+04  0.00000000000E+00 0. -1.
         24    2    1    2    0    0  0.94479801156E+02 -0.20161563374E+03 -0.97510274795E+02  0.25595330768E+03  0.80178210426E+02 0.  0.
         23    2    1    2    0    0  0.10942389998E+03 -0.40240252681E+03 -0.97786855636E+03  0.10666901384E+04  0.87747104991E+02 0.  0.
        -13    1    3    3    0    0  0.41573511176E+02 -0.17628187498E+02 -0.16520610582E+02  0.48083681223E+02  0.00000000000E+00 0.  1.
         14    1    3    3    0    0  0.52906289980E+02 -0.18398744624E+03 -0.80989664213E+02  0.20786962646E+03  0.00000000000E+00 0. -1.
        -13    1    4    4    0    0  0.71378339192E+02 -0.28305511921E+03 -0.77627759176E+03  0.82935032844E+03  0.00000000000E+00 0. -1.
         13    1    4    4    0    0  0.38045560789E+02 -0.11934740760E+03 -0.20159096460E+03  0.23733980999E+03  0.00000000000E+00 0.  1.
          1    1    1    2  501    0 -0.20390370114E+03  0.60401816055E+03  0.68372938440E+03  0.93482646983E+03  0.00000000000E+00 0. -1.
<scales pt_clust_5="13000.00000" pt_clust_6="13000.00000" pt_clust_7="13000.00000" pt_clust_8="13000.00000" pt_clust_9="613.31324"></scales>
<clustering>
<clus scale="   80.178">  5  6 -1 -1</clus>
<clus scale="   87.747">  7  8 -1 -1</clus>
<clus scale="  236.651">  2  5  1 -1</clus>
<clus scale="  613.313">  1  9  2 -1</clus>
<clus scale="  613.313">  1  5  2 -1</clus>
</clustering>
</event>
<event>
 9    2  0.1751298E-004  0.2540039E+03  0.7546771E-02  0.1111586E+00
          2   -1    0    0  502    0 -0.00000000000E+00  0.00000000000E+00  0.15645299902E+04  0.15645299902E+04  0.00000000000E+00 0. -1.
         21   -1    0    0  501  502  0.00000000000E+00 -0.00000000000E+00 -0.49040207777E+02  0.49040207777E+02  0.00000000000E+00 0. -1.
         23    2    1    2    0    0 -0.21400528484E+03  0.79140196902E+02  0.86589318902E+03  0.90051252854E+03  0.95343413849E+02 0.  0.
         24    2    1    2    0    0  0.23880255689E+03 -0.68741303523E+02  0.53612698778E+03  0.59644552133E+03  0.81012868742E+02 0.  0.
        -11    1    4    4    0    0  0.34794952226E+02  0.18597322351E+02  0.80203011608E+02  0.89381609797E+02  0.00000000000E+00 0.  1.
         12    1    4    4    0    0  0.20400760467E+03 -0.87338625874E+02  0.45592397617E+03  0.50706391153E+03  0.00000000000E+00 0. -1.
        -11    1    3    3    0    0 -0.13941282692E+03  0.27241615485E+02  0.36937268927E+03  0.39574515222E+03  0.00000000000E+00 0.  1.
         11    1    3    3    0    0 -0.74592457924E+02  0.51898581417E+02  0.49652049975E+03  0.50476737632E+03  0.00000000000E+00 0. -1.
          1    1    1    2  501    0 -0.24797272055E+02 -0.10398893378E+02  0.11346960561E+03  0.11661214809E+03  0.00000000000E+00 0. -1.
<scales pt_clust_5="13000.00000" pt_clust_6="13000.00000" pt_clust_7="13000.00000" pt_clust_8="13000.00000" pt_clust_9="26.88945"></scales>
<clustering>
<clus scale="   26.889">  2  9  1 -1</clus>
<clus scale="   81.013">  5  6 -1 -1</clus>
<clus scale="   95.343">  7  8 -1 -1</clus>
<clus scale="  248.979">  2  5  1 -1</clus>
<clus scale="   26.889">  2  5  1 -1</clus>
</clustering>
</event>
<event>
 9    2  0.1751298E-004  0.1342521E+03  0.7546771E-02  0.1239424E+00
         21   -1    0    0  501  502  0.00000000000E+00  0.00000000000E+00  0.14834473646E+03  0.14834473646E+03  0.00000000000E+00 0.  1.
          2   -1    0    0  502    0 -0.00000000000E+00 -0.00000000000E+00 -0.22217072909E+03  0.22217072909E+03  0.00000000000E+00 0. -1.
         24    2    1    2    0    0 -0.53047320390E+02 -0.94406679254E+01 -0.46037926244E+01  0.92433035325E+02  0.74963502462E+02 0.  0.
         23    2    1    2    0    0  0.93410283465E+02 -0.74875231077E+02 -0.97764133679E+02  0.18034307485E+03  0.92919414145E+02 0.  0.
        -11    1    3    3    0    0 -0.47707268376E+02 -0.39223754793E+02 -0.65769969633E+01  0.62110734056E+02  0.00000000000E+00 0.  1.
         12    1    3    3    0    0 -0.53400520136E+01  0.29783086867E+02  0.19732043389E+01  0.30322301268E+02  0.00000000000E+00 0. -1.
        -13    1    4    4    0    0  0.19958008823E+02  0.21864178442E+02 -0.13663278795E+02  0.32604441454E+02  0.00000000000E+00 0. -1.
         13    1    4    4    0    0  0.73452274643E+02 -0.96739409519E+02 -0.84100854884E+02  0.14773863339E+03  0.00000000000E+00 0.  1.
          1    1    1    2  501    0 -0.40362963076E+02  0.84315899003E+02  0.28541933673E+02  0.97739355383E+02  0.00000000000E+00 0. -1.
<scales pt_clust_5="13000.00000" pt_clust_6="13000.00000" pt_clust_7="13000.00000" pt_clust_8="13000.00000" pt_clust_9="96.89997"></scales>
<clustering>
<clus scale="   74.964">  5  6 -1 -1</clus>
<clus scale="   92.318">  2  5  1 -1</clus>
<clus scale="   92.919">  7  8 -1 -1</clus>
<clus scale="   96.900">  1  9  2 -1</clus>
<clus scale="   96.900">  1  5  2 -1</clus>
</clustering>
</event>
<event>
 9    2  0.1751298E-004  0.1398496E+03  0.7546771E-02  0.1233979E+00
         -1   -1    0    0    0  501 -0.00000000000E+00  0.00000000000E+00  0.28734307720E+03  0.28734307720E+03  0.00000000000E+00 0.  1.
         21   -1    0    0  501  502  0.00000000000E+00 -0.00000000000E+00 -0.31435969637E+03  0.31435969637E+03  0.00000000000E+00 0.  1.
         24    2    1    2    0    0 -0.21277851984E+02  0.37222075465E+02  0.21038047583E+03  0.22932803255E+03  0.80580221000E+02 0.  0.
         23    2    1    2    0    0  0.10283422967E+03  0.31864833688E+02 -0.38396698708E+02  0.14648626970E+03  0.91616997986E+02 0.  0.
        -13    1    3    3    0    0  0.93636727967E+01  0.49292810813E+02  0.16984116382E+03  0.17709737574E+03  0.00000000000E+00 0.  1.
         14    1    3    3    0    0 -0.30641524781E+02 -0.12070735348E+02  0.40539312008E+02  0.52230656810E+02  0.00000000000E+00 0. -1.
        -13    1    4    4    0    0  0.21471819508E+02  0.24857068205E+02  0.26478121495E+02  0.42190091143E+02  0.00000000000E+00 0. -1.
         13    1    4    4    0    0  0.81362410163E+02  0.70077654833E+01 -0.64874820203E+02  0.10429617855E+03  0.00000000000E+00 0.  1.
         -2    1    1    2    0  502 -0.81556377687E+02 -0.69086909154E+02 -0.19900039628E+03  0.22588847133E+03  0.00000000000E+00 0.  1.
<scales pt_clust_5="13000.00000" pt_clust_6="13000.00000" pt_clust_7="13000.00000" pt_clust_8="13000.00000" pt_clust_9="105.66094"></scales>
<clustering>
<clus scale="   80.580">  5  6 -1 -1</clus>
<clus scale="   91.277">  1  5  2 -1</clus>
<clus scale="   91.617">  7  8 -1 -1</clus>
<clus scale="  105.661">  2  9  1 -1</clus>
<clus scale="  105.661">  2  5  1 -1</clus>
</clustering>
</event>
<event>
 9    2  0.1751298E-004  0.1157018E+03  0.7546771E-02  0.1256015E+00
         21   -1    0    0  501  502  0.00000000000E+00  0.00000000000E+00  0.19188286172E+03  0.19188286172E+03  0.00000000000E+00 0.  1.
          2   -1    0    0  502    0 -0.00000000000E+00 -0.00000000000E+00 -0.81691371276E+02  0.81691371276E+02  0.00000000000E+00 0. -1.
         23    2    1    2    0    0 -0.14404339918E+02  0.75344432170E+02  0.29460938578E+02  0.12617196817E+03  0.95745235815E+02 0.  0.
         24    2    1    2    0    0  0.97214347642E+01 -0.49394352779E+02  0.73558107124E+02  0.12007498570E+03  0.80454326715E+02 0.  0.
        -11    1    4    4    0    0  0.31858960091E+02  0.72702995980E+01  0.35814051626E+02  0.48481923314E+02  0.00000000000E+00 0.  1.
         12    1    4    4    0    0 -0.22137525327E+02 -0.56664652377E+02  0.37744055497E+02  0.71593062387E+02  0.00000000000E+00 0. -1.
        -13    1    3    3    0    0  0.31249541257E+02  0.51651501005E+02  0.41611336211E+02  0.73320629335E+02  0.00000000000E+00 0.  1.
         13    1    3    3    0    0 -0.45653881175E+02  0.23692931165E+02 -0.12150397633E+02  0.52851338830E+02  0.00000000000E+00 0. -1.
          1    1    1    2  501    0  0.46829051536E+01 -0.25950079392E+02  0.71724447432E+01  0.27327279131E+02  0.00000000000E+00 0. -1.
<scales pt_clust_5="13000.00000" pt_clust_6="13000.00000" pt_clust_7="13000.00000" pt_clust_8="13000.00000" pt_clust_9="26.36924"></scales>
<clustering>
<clus scale="   26.369">  1  9  2 -1</clus>
<clus scale="   80.454">  5  6 -1 -1</clus>
<clus scale="   95.745">  7  8 -1 -1</clus>
<clus scale="  103.405">  1  5  2 -1</clus>
<clus scale="   26.369">  1  5  2 -1</clus>
</clustering>
</event>
<event>
 9    2  0.1751298E-004  0.1809298E+03  0.7546771E-02  0.1167528E+00
         21   -1    0    0  501  502  0.00000000000E+00  0.00000000000E+00  0.14647335948E+03  0.14647335948E+03  0.00000000000E+00 0.  1.
         -1   -1    0    0    0  501 -0.00000000000E+00 -0.00000000000E+00 -0.27065702008E+03  0.27065702008E+03  0.00000000000E+00 0.  1.
         24    2    1    2    0    0  0.73034003159E+02  0.15558705041E+03 -0.10965462557E+03  0.21921888416E+03  0.80569761009E+02 0.  0.
         23    2    1    2    0    0 -0.79028537305E+02 -0.12659067740E+03 -0.19132288943E+02  0.16794628167E+03  0.74627071046E+02 0.  0.
        -13    1    3    3    0    0  0.61777892108E+02  0.14047352481E+03 -0.57691038435E+02  0.16394381672E+03  0.00000000000E+00 0.  1.
         14    1    3    3    0    0  0.11256111051E+02  0.15113525607E+02 -0.51963587139E+02  0.55275067441E+02  0.00000000000E+00 0. -1.
        -11    1    4    4    0    0 -0.53630216625E+01 -0.78870304619E+02 -0.10629508107E+02  0.79763860204E+02  0.00000000000E+00 0. -1.
         11    1    4    4    0    0 -0.73665515643E+02 -0.47720372776E+02 -0.85027808364E+01  0.88182421461E+02  0.00000000000E+00 0.  1.
         -2    1    1    2    0  502  0.59945341466E+01 -0.28996373018E+02  0.46032539136E+01  0.29965213739E+02  0.00000000000E+00 0.  1.
<scales pt_clust_5="13000.00000" pt_clust_6="13000.00000" pt_clust_7="13000.00000" pt_clust_8="13000.00000" pt_clust_9="29.60953"></scales>
<clustering>
<clus scale="   29.610">  1  9  2 -1</clus>
<clus scale="   74.627">  7  8 -1 -1</clus>
<clus scale="   80.570">  5  6 -1 -1</clus>
<clus scale="  178.363">  1  7  2 -1</clus>
<clus scale="   29.610">  1  5  2 -1</clus>
</clustering>
</event>
<event>
 9    2  0.1751298E-004  0.1453314E+03  0.7546771E-02  0.1208074E+00
         21   -1    0    0  501  502  0.00000000000E+00  0.00000000000E+00  0.18219053112E+03  0.18219053112E+03  0.00000000000E+00 0. -1.
         -1   -1    0    0    0  501 -0.00000000000E+00 -0.00000000000E+00 -0.19186348845E+03  0.19186348845E+03  0.00000000000E+00 0.  1.
         23    2    1    2    0    0  0.92380632432E+02 -0.89812058777E+02 -0.97957548509E+02  0.18553481763E+03  0.90703363188E+02 0.  0.
         24    2    1    2    0    0 -0.68379069946E+02  0.45764936160E+02  0.56129056701E+02  0.12893562694E+03  0.81876726239E+02 0.  0.
        -11    1    4    4    0    0 -0.29122770520E+02 -0.16844798502E+02 -0.37101462779E+01  0.33847425083E+02  0.00000000000E+00 0.  1.
         12    1    4    4    0    0 -0.39256299426E+02  0.62609734662E+02  0.59839202979E+02  0.95088201856E+02  0.00000000000E+00 0. -1.
        -13    1    3    3    0    0  0.63174530477E+02 -0.64446484095E+02 -0.11248583537E+03  0.14421315395E+03  0.00000000000E+00 0.  1.
         13    1    3    3    0    0  0.29206101955E+02 -0.25365574682E+02  0.14528286861E+02  0.41321663682E+02  0.00000000000E+00 0. -1.
         -2    1    1    2    0  502 -0.24001562486E+02  0.44047122618E+02  0.32155534481E+02  0.59583575005E+02  0.00000000000E+00 0.  1.
<scales pt_clust_5="13000.00000" pt_clust_6="13000.00000" pt_clust_7="13000.00000" pt_clust_8="13000.00000" pt_clust_9="50.16198"></scales>
<clustering>
<clus scale="   50.162">  1  9  2 -1</clus>
<clus scale="   81.877">  5  6 -1 -1</clus>
<clus scale="   90.703">  7  8 -1 -1</clus>
<clus scale="  139.993">  1  5  2 -1</clus>
<clus scale="   50.162">  1  5  2 -1</clus>
</clustering>
</event>
<event>
 9    2  0.1751298E-004  0.1270233E+03  0.7546771E-02  0.1232560E+00
         21   -1    0    0  501  502  0.00000000000E+00  0.00000000000E+00  0.67837094812E+03  0.67837094812E+03  0.00000000000E+00 0. -1.
          2   -1    0    0  502    0 -0.00000000000E+00 -0.00000000000E+00 -0.27909390618E+02  0.27909390618E+02  0.00000000000E+00 0. -1.
         23    2    1    2    0    0 -0.77492557744E+02  0.93952384570E+01  0.27696979959E+03  0.30192354272E+03  0.91390309960E+02 0.  0.
         24    2    1    2    0    0  0.94876562022E+02  0.12311708278E+01  0.30376395935E+03  0.33171321356E+03  0.93584375028E+02 0.  0.
        -13    1    4    4    0    0  0.26921056751E+02  0.43041051561E+02  0.86965139471E+02  0.10069861419E+03  0.00000000000E+00 0.  1.
         14    1    4    4    0    0  0.67955505272E+02 -0.41809880733E+02  0.21679881988E+03  0.23101459937E+03  0.00000000000E+00 0. -1.
        -11    1    3    3    0    0 -0.63481837371E+02  0.25645989354E+02  0.27119397721E+03  0.27970311711E+03  0.00000000000E+00 0. -1.
         11    1    3    3    0    0 -0.14010720373E+02 -0.16250750897E+02  0.57758223725E+01  0.22220425607E+02  0.00000000000E+00 0.  1.
          1    1    1    2  501    0 -0.17384004278E+02 -0.10626409285E+02  0.69727798572E+02  0.72643582461E+02  0.00000000000E+00 0. -1.
<scales pt_clust_5="13000.00000" pt_clust_6="13000.00000" pt_clust_7="13000.00000" pt_clust_8="13000.00000" pt_clust_9="20.37460"></scales>
<clustering>
<clus scale="   20.375">  1  9  2 -1</clus>
<clus scale="   91.390">  7  8 -1 -1</clus>
<clus scale="   93.584">  5  6 -1 -1</clus>
<clus scale="  125.416">  2  7  1 -1</clus>
<clus scale="   20.375">  1  5  2 -1</clus>
</clustering>
</event>
<event>
 9    2  0.1751298E-004  0.2878317E+03  0.7546771E-02  0.1091918E+00
         21   -1    0    0  501  502  0.00000000000E+00  0.00000000000E+00  0.87694531254E+02  0.87694531254E+02  0.00000000000E+00 0. -1.
          2   -1    0    0  502    0 -0.00000000000E+00 -0.00000000000E+00 -0.12015784374E+04  0.12015784374E+04  0.00000000000E+00 0. -1.
         24    2    1    2    0    0 -0.15517190153E+03  0.22635107154E+03 -0.74138380493E+03  0.79456428225E+03  0.79808056033E+02 0.  0.
         23    2    1    2    0    0  0.12911136871E+03 -0.23870817557E+03 -0.29041812308E+03  0.40770695926E+03  0.90724527026E+02 0.  0.
        -11    1    3    3    0    0 -0.13918199847E+02  0.16407369212E+02 -0.17516388280E+02  0.27744222999E+02  0.00000000000E+00 0.  1.
         12    1    3    3    0    0 -0.14125370168E+03  0.20994370233E+03 -0.72386741665E+03  0.76682005926E+03  0.00000000000E+00 0. -1.
        -11    1    4    4    0    0 -0.13996435660E+02 -0.23517669062E+02 -0.34059844443E+02  0.43692722194E+02  0.00000000000E+00 0.  1.
         11    1    4    4    0    0  0.14310780437E+03 -0.21519050651E+03 -0.25635827863E+03  0.36401423707E+03  0.00000000000E+00 0. -1.
          1    1    1    2  501    0  0.26060532819E+02  0.12357104027E+02 -0.82081978169E+02  0.87001727172E+02  0.00000000000E+00 0. -1.
<scales pt_clust_5="13000.00000" pt_clust_6="13000.00000" pt_clust_7="13000.00000" pt_clust_8="13000.00000" pt_clust_9="28.84181"></scales>
<clustering>
<clus scale="   28.842">  1  9  2 -1</clus>
<clus scale="   79.808">  5  6 -1 -1</clus>
<clus scale="   90.725">  7  8 -1 -1</clus>
<clus scale="  284.579">  2  5  1 -1</clus>
<clus scale="   28.842">  1  5  2 -1</clus>
</clustering>
</event>
<event>
 9    2  0.1751298E-004  0.2077054E+03  0.7546771E-02  0.1143867E+00
          2   -1    0    0  502    0 -0.00000000000E+00  0.00000000000E+00  0.79998154081E+03  0.79998154081E+03  0.00000000000E+00 0. -1.
         21   -1    0    0  501  502  0.00000000000E+00 -0.00000000000E+00 -0.14944531867E+03  0.14944531867E+03  0.00000000000E+00 0. -1.
         23    2    1    2    0    0  0.67537775933E+02  0.18263657037E+03  0.60713945909E+03  0.64325680572E+03  0.85108914379E+02 0.  0.
         24    2    1    2    0    0 -0.63853387959E+02 -0.16200622999E+03  0.12060934908E+03  0.22616399711E+03  0.79248121721E+02 0.  0.
        -13    1    4    4    0    0 -0.51669935564E+02 -0.16214025533E+03  0.88479795919E+02  0.19180176987E+03  0.00000000000E+00 0.  1.
         14    1    4    4    0    0 -0.12183452395E+02  0.13402533874E+00  0.32129553158E+02  0.34362227244E+02  0.00000000000E+00 0. -1.
        -13    1    3    3    0    0 -0.98183468679E+01  0.78313973261E+02  0.29015805502E+03  0.30070113940E+03  0.00000000000E+00 0.  1.
         13    1    3    3    0    0  0.77356122801E+02  0.10432259711E+03  0.31698140407E+03  0.34255566632E+03  0.00000000000E+00 0. -1.
          1    1    1    2  501    0 -0.36843879736E+01 -0.20630340384E+02 -0.77212586030E+02  0.80006056649E+02  0.00000000000E+00 0. -1.
<scales pt_clust_5="13000.00000" pt_clust_6="13000.00000" pt_clust_7="13000.00000" pt_clust_8="13000.00000" pt_clust_9="20.95676"></scales>
<clustering>
<clus scale="   20.957">  2  9  1 -1</clus>
<clus scale="   79.248">  5  6 -1 -1</clus>
<clus scale="   85.109">  7  8 -1 -1</clus>
<clus scale="  205.374">  2  5  1 -1</clus>
<clus scale="   20.957">  2  5  1 -1</clus>
</clustering>
</event>
<event>
 9    2  0.1751298E-004  0.2834926E+03  0.7546771E-02  0.1093797E+00
          2   -1    0    0  502    0 -0.00000000000E+00  0.00000000000E+00  0.21857638174E+04  0.21857638174E+04  0.00000000000E+00 0. -1.
         21   -1    0    0  501  502  0.00000000000E+00 -0.00000000000E+00 -0.34278376997E+02  0.34278376997E+02  0.00000000000E+00 0. -1.
         24    2    1    2    0    0  0.14498534321E+03 -0.29251106453E+02  0.36145045707E+03  0.39904507300E+03  0.81939980464E+02 0.  0.
         23    2    1    2    0    0  0.59424849916E+02 -0.64500199988E+01  0.36204534799E+03  0.37800977005E+03  0.90783460535E+02 0.  0.
        -11    1    3    3    0    0  0.11088046504E+03  0.16114482231E+02  0.25069422456E+03  0.27459378779E+03  0.00000000000E+00 0.  1.
         12    1    3    3    0    0  0.34104878166E+02 -0.45365588683E+02  0.11075623251E+03  0.12445128521E+03  0.00000000000E+00 0. -1.
        -13    1    4    4    0    0  0.31535836542E+02  0.32987560649E+02  0.82131103334E+02  0.93958534891E+02  0.00000000000E+00 0. -1.
         13    1    4    4    0    0  0.27889013375E+02 -0.39437580648E+02  0.27991424466E+03  0.28405123516E+03  0.00000000000E+00 0.  1.
          1    1    1    2  501    0 -0.20441019313E+03  0.35701126451E+02  0.14279896353E+04  0.14429873513E+04  0.00000000000E+00 0. -1.
<scales pt_clust_5="13000.00000" pt_clust_6="13000.00000" pt_clust_7="13000.00000" pt_clust_8="13000.00000" pt_clust_9="207.50456"></scales>
<clustering>
<clus scale="   81.940">  5  6 -1 -1</clus>
<clus scale="   90.783">  7  8 -1 -1</clus>
<clus scale="   93.479">  5  7 -1 -1</clus>
<clus scale="  207.505">  2  9  1 -1</clus>
<clus scale="  207.505">  2  5  1 -1</clus>
</clustering>
</event>
<event>
 9    2  0.1751298E-004  0.9557090E+02  0.7546771E-02  0.1295520E+00
          2   -1    0    0  502    0 -0.00000000000E+00  0.00000000000E+00  0.12337591939E+03  0.12337591939E+03  0.00000000000E+00 0. -1.
         21   -1    0    0  501  502  0.00000000000E+00 -0.00000000000E+00 -0.17461597019E+03  0.17461597019E+03  0.00000000000E+00 0. -1.
         23    2    1    2    0    0 -0.11370037747E+02  0.44493254291E+02  0.51868417281E+02  0.11468107707E+03  0.91391954190E+02 0.  0.
         24    2    1    2    0    0  0.11328350759E+02  0.49812501374E+01 -0.17088884942E+02  0.84078272427E+02  0.81387846279E+02 0.  0.
        -13    1    4    4    0    0  0.21080356996E+02 -0.57002458383E+00  0.29441040838E+02  0.36214379254E+02  0.00000000000E+00 0.  1.
         14    1    4    4    0    0 -0.97520062369E+01  0.55512747213E+01 -0.46529925779E+02  0.47863893173E+02  0.00000000000E+00 0. -1.
        -11    1    3    3    0    0  0.12896693914E+02  0.55383257993E+02  0.53677396879E+00  0.56867548797E+02  0.00000000000E+00 0.  1.
         11    1    3    3    0    0 -0.24266731660E+02 -0.10890003702E+02  0.51331643312E+02  0.57813528272E+02  0.00000000000E+00 0. -1.
          1    1    1    2  501    0  0.41686987698E-01 -0.49474504429E+02 -0.86019583144E+02  0.99232540079E+02  0.00000000000E+00 0. -1.
<scales pt_clust_5="13000.00000" pt_clust_6="13000.00000" pt_clust_7="13000.00000" pt_clust_8="13000.00000" pt_clust_9="49.47452"></scales>
<clustering>
<clus scale="   49.475">  2  9  1 -1</clus>
<clus scale="   81.388">  5  6 -1 -1</clus>
<clus scale="   86.054">  2  5  1 -1</clus>
<clus scale="   91.392">  7  8 -1 -1</clus>
<clus scale="   49.475">  2  5  1 -1</clus>
</clustering>
</event>
<event>
 9    2  0.1751298E-004  0.1419527E+03  0.7546771E-02  0.1213593E+00
         21   -1    0    0  501  502  0.00000000000E+00  0.00000000000E+00  0.73711476928E+02  0.73711476928E+02  0.00000000000E+00 0. -1.
          2   -1    0    0  502    0 -0.00000000000E+00 -0.00000000000E+00 -0.55807938770E+03  0.55807938770E+03  0.00000000000E+00 0. -1.
         23    2    1    2    0    0  0.16006069995E+02  0.12163883416E+03 -0.39843334297E+03  0.42708460670E+03  0.92735819610E+02 0.  0.
         24    2    1    2    0    0 -0.40576363184E+01 -0.81653572369E+02 -0.10847415828E+03  0.15727610543E+03  0.79280262550E+02 0.  0.
        -11    1    4    4    0    0 -0.40290775330E+02 -0.35963033732E+02 -0.39242529212E+02  0.66758238974E+02  0.00000000000E+00 0.  1.
         12    1    4    4    0    0  0.36233139011E+02 -0.45690538637E+02 -0.69231629068E+02  0.90517866452E+02  0.00000000000E+00 0. -1.
        -13    1    3    3    0    0 -0.33720685718E+02  0.16938181354E+02 -0.90001195387E+02  0.97592017112E+02  0.00000000000E+00 0.  1.
         13    1    3    3    0    0  0.49726755713E+02  0.10470065281E+03 -0.30843214758E+03  0.32949258959E+03  0.00000000000E+00 0. -1.
          1    1    1    2  501    0 -0.11948433677E+02 -0.39985261793E+02  0.22539590473E+02  0.47430152505E+02  0.00000000000E+00 0. -1.
<scales pt_clust_5="13000.00000" pt_clust_6="13000.00000" pt_clust_7="13000.00000" pt_clust_8="13000.00000" pt_clust_9="41.73232"></scales>
<clustering>
<clus scale="   41.732">  1  9  2 -1</clus>
<clus scale="   79.280">  5  6 -1 -1</clus>
<clus scale="   92.736">  7  8 -1 -1</clus>
<clus scale="  133.552">  1  5  2 -1</clus>
<clus scale="   41.732">  1  5  2 -1</clus>
</clustering>
</event>
<event>
 9    2  0.1751298E-004  0.1972625E+03  0.7546771E-02  0.1153154E+00
         21   -1    0    0  501  502  0.00000000000E+00  0.00000000000E+00  0.30361024156E+03  0.30361024156E+03  0.00000000000E+00 0. -1.
          2   -1    0    0  502    0 -0.00000000000E+00 -0.00000000000E+00 -0.26648878145E+03  0.26648878145E+03  0.00000000000E+00 0. -1.
         23    2    1    2    0    0  0.18090400502E+03  0.14361397011E+02 -0.26459364866E+02  0.20492795776E+03  0.91448680275E+02 0.  0.
         24    2    1    2    0    0 -0.15971887799E+03  0.94117788912E+01  0.17439773129E+03  0.24986989342E+03  0.80135469014E+02 0.  0.
        -13    1    4    4    0    0 -0.82260329386E+02 -0.30470387567E+02  0.60902749764E+02  0.10679115712E+03  0.00000000000E+00 0.  1.
         14    1    4    4    0    0 -0.77458548602E+02  0.39882166458E+02  0.11349498152E+03  0.14307873631E+03  0.00000000000E+00 0. -1.
        -11    1    3    3    0    0  0.11086097656E+03 -0.27631466138E+02 -0.42127765087E+02  0.12177192877E+03  0.00000000000E+00 0.  1.
         11    1    3    3    0    0  0.70043028461E+02  0.41992863148E+02  0.15668400221E+02  0.83156028987E+02  0.00000000000E+00 0. -1.
          1    1    1    2  501    0 -0.21185127036E+02 -0.23773175902E+02 -0.11081690632E+03  0.11530117183E+03  0.00000000000E+00 0. -1.
<scales pt_clust_5="13000.00000" pt_clust_6="13000.00000" pt_clust_7="13000.00000" pt_clust_8="13000.00000" pt_clust_9="31.84297"></scales>
<clustering>
<clus scale="   31.843">  1  9  2 -1</clus>
<clus scale="   80.135">  5  6 -1 -1</clus>
<clus scale="   91.449">  7  8 -1 -1</clus>
<clus scale="  192.279">  1  5  2 -1</clus>
<clus scale="   31.843">  1  5  2 -1</clus>
</clustering>
</event>
<event>
 9    2  0.1751298E-004  0.9559368E+02  0.7546771E-02  0.1296786E+00
         -1   -1    0    0    0  501 -0.00000000000E+00  0.00000000000E+00  0.22107338562E+03  0.22107338562E+03  0.00000000000E+00 0.  1.
         21   -1    0    0  501  502  0.00000000000E+00 -0.00000000000E+00 -0.77691182157E+02  0.77691182157E+02  0.00000000000E+00 0. -1.
         23    2    1    2    0    0 -0.90416133795E+01 -0.79173419644E+01  0.16167912858E+03  0.18758793259E+03  0.94364488872E+02 0.  0.
         24    2    1    2    0    0  0.97714505294E+01  0.29357609003E+02 -0.14169616613E+02  0.89330528240E+02  0.82594278184E+02 0.  0.
        -13    1    4    4    0    0  0.27717854929E+02  0.15557556601E+02  0.27420187494E+02  0.41978372187E+02  0.00000000000E+00 0.  1.
         14    1    4    4    0    0 -0.17946404400E+02  0.13800052402E+02 -0.41589804107E+02  0.47352156053E+02  0.00000000000E+00 0. -1.
        -13    1    3    3    0    0  0.36155604443E+02 -0.25750648197E+02  0.57541204819E+02  0.72672648687E+02  0.00000000000E+00 0.  1.
         13    1    3    3    0    0 -0.45197217822E+02  0.17833306232E+02  0.10413792376E+03  0.11491528391E+03  0.00000000000E+00 0. -1.
         -2    1    1    2    0  502 -0.72983714985E+00 -0.21440267039E+02 -0.41273085071E+01  0.21846106941E+02  0.00000000000E+00 0.  1.
<scales pt_clust_5="13000.00000" pt_clust_6="13000.00000" pt_clust_7="13000.00000" pt_clust_8="13000.00000" pt_clust_9="21.45269"></scales>
<clustering>
<clus scale="   21.453">  2  9  1 -1</clus>
<clus scale="   82.594">  5  6 -1 -1</clus>
<clus scale="   83.996">  2  5  1 -1</clus>
<clus scale="   94.364">  7  8 -1 -1</clus>
<clus scale="   21.453">  2  5  1 -1</clus>
</clustering>
</event>
<event>
 9    2  0.1751298E-004  0.1152222E+03  0.7546771E-02  0.1255429E+00
         21   -1    0    0  501  502  0.00000000000E+00  0.00000000000E+00  0.37143343891E+03  0.37143343891E+03  0.00000000000E+00 0.  1.
         -1   -1    0    0    0  501 -0.00000000000E+00 -0.00000000000E+00 -0.17488683426E+03  0.17488683426E+03  0.00000000000E+00 0.  1.
         23    2    1    2    0    0 -0.71293568008E+02  0.67479072345E+01 -0.13106199711E+03  0.17515502910E+03  0.91508087313E+02 0.  0.
         24    2    1    2    0    0  0.44278003322E+02 -0.62263591508E+02  0.23860915103E+03  0.26284749775E+03  0.79480712840E+02 0.  0.
        -11    1    4    4    0    0  0.41048194417E+02 -0.73664455377E+02  0.13932268783E+03  0.16285643246E+03  0.00000000000E+00 0.  1.
         12    1    4    4    0    0  0.32298089053E+01  0.11400863869E+02  0.99286463201E+02  0.99991065288E+02  0.00000000000E+00 0. -1.
        -11    1    3    3    0    0 -0.67110915885E+02  0.39966353165E+02 -0.67158010702E+02  0.10301156643E+03  0.00000000000E+00 0.  1.
         11    1    3    3    0    0 -0.41826521228E+01 -0.33218445930E+02 -0.63903986403E+02  0.72143462677E+02  0.00000000000E+00 0. -1.
         -2    1    1    2    0  502  0.27015564685E+02  0.55515684274E+02  0.88999450731E+02  0.10831774631E+03  0.00000000000E+00 0.  1.
<scales pt_clust_5="13000.00000" pt_clust_6="13000.00000" pt_clust_7="13000.00000" pt_clust_8="13000.00000" pt_clust_9="61.74004"></scales>
<clustering>
<clus scale="   61.740">  1  9  2 -1</clus>
<clus scale="   79.481">  5  6 -1 -1</clus>
<clus scale="   91.508">  7  8 -1 -1</clus>
<clus scale="  105.923">  1  5  2 -1</clus>
<clus scale="   61.740">  1  5  2 -1</clus>
</clustering>
</event>
<event>
 9    2  0.1751298E-004  0.1896918E+03  0.7546771E-02  0.1159940E+00
         21   -1    0    0  501  502  0.00000000000E+00  0.00000000000E+00  0.79940403210E+02  0.79940403210E+02  0.00000000000E+00 0. -1.
          2   -1    0    0  502    0 -0.00000000000E+00 -0.00000000000E+00 -0.81625942567E+03  0.81625942567E+03  0.00000000000E+00 0. -1.
         24    2    1    2    0    0  0.27402306019E+02  0.12392853972E+03 -0.22164678847E+03  0.26777611836E+03  0.80421274516E+02 0.  0.
         23    2    1    2    0    0  0.83146643819E+01 -0.21910779887E+03 -0.44708315828E+03  0.50634555317E+03  0.91788385021E+02 0.  0.
        -11    1    3    3    0    0 -0.22411722368E+02  0.10027161919E+02 -0.24355870744E+02  0.34583778211E+02  0.00000000000E+00 0.  1.
         12    1    3    3    0    0  0.49814028386E+02  0.11390137780E+03 -0.19729091772E+03  0.23319234015E+03  0.00000000000E+00 0. -1.
        -13    1    4    4    0    0  0.17846196496E+00 -0.48341796198E+02 -0.33483338078E+02  0.58805569781E+02  0.00000000000E+00 0.  1.
         13    1    4    4    0    0  0.81362024169E+01 -0.17076600267E+03 -0.41359982021E+03  0.44753998339E+03  0.00000000000E+00 0. -1.
          1    1    1    2  501    0 -0.35716970401E+02  0.95179259146E+02 -0.67589075711E+02  0.12207815735E+03  0.00000000000E+00 0. -1.
<scales pt_clust_5="13000.00000" pt_clust_6="13000.00000" pt_clust_7="13000.00000" pt_clust_8="13000.00000" pt_clust_9="101.66019"></scales>
<clustering>
<clus scale="   80.421">  5  6 -1 -1</clus>
<clus scale="   91.788">  7  8 -1 -1</clus>
<clus scale="  101.660">  1  9  2 -1</clus>
<clus scale="  184.460">  2  5  1 -1</clus>
<clus scale="  101.660">  1  5  2 -1</clus>
</clustering>
</event>
<event>
 9    2  0.1751298E-004  0.1505576E+03  0.7546771E-02  0.1202283E+00
         21   -1    0    0  501  502  0.00000000000E+00  0.00000000000E+00  0.86596435023E+02  0.86596435023E+02  0.00000000000E+00 0.  1.
         -3   -1    0    0    0  501 -0.00000000000E+00 -0.00000000000E+00 -0.40296910409E+03  0.40296910409E+03  0.00000000000E+00 0.  1.
         23    2    1    2    0    0  0.39932855411E+02 -0.83094265737E+02 -0.86998207672E+02  0.15675357072E+03  0.92215529364E+02 0.  0.
         24    2    1    2    0    0 -0.94808339884E+02  0.11921425596E+03 -0.13685727998E+03  0.21934214268E+03  0.78615522240E+02 0.  0.
        -13    1    4    4    0    0 -0.95574611951E+00  0.57438299270E+02 -0.32533924765E+02  0.66019148240E+02  0.00000000000E+00 0.  1.
         14    1    4    4    0    0 -0.93852593764E+02  0.61775956689E+02 -0.10432335522E+03  0.15332299444E+03  0.00000000000E+00 0. -1.
        -13    1    3    3    0    0  0.65460911083E+02 -0.32793837676E+02 -0.40627757144E+02  0.83732797158E+02  0.00000000000E+00 0. -1.
         13    1    3    3    0    0 -0.25528055672E+02 -0.50300428062E+02 -0.46370450527E+02  0.73020773563E+02  0.00000000000E+00 0.  1.
         -4    1    1    2    0  502  0.54875484473E+02 -0.36119990221E+02 -0.92517181412E+02  0.11346982571E+03  0.00000000000E+00 0.  1.
<scales pt_clust_5="13000.00000" pt_clust_6="13000.00000" pt_clust_7="13000.00000" pt_clust_8="13000.00000" pt_clust_9="65.69609"></scales>
<clustering>
<clus scale="   65.696">  1  9  2 -1</clus>
<clus scale="   78.616">  5  6 -1 -1</clus>
<clus scale="   92.216">  7  8 -1 -1</clus>
<clus scale="  142.633">  1  5  2 -1</clus>
<clus scale="   65.696">  1  5  2 -1</clus>
</clustering>
</event>
<event>
 9    2  0.1751298E-004  0.1407352E+03  0.7546771E-02  0.1214798E+00
          2   -1    0    0  502    0 -0.00000000000E+00  0.00000000000E+00  0.15242565675E+04  0.15242565675E+04  0.00000000000E+00 0. -1.
         21   -1    0    0  501  502  0.00000000000E+00 -0.00000000000E+00 -0.37948470800E+02  0.37948470800E+02  0.00000000000E+00 0. -1.
         24    2    1    2    0    0  0.11468429447E+03  0.18895030562E+02  0.11052185840E+04  0.11142128132E+04  0.80327859835E+02 0.  0.
         23    2    1    2    0    0 -0.83491781312E+02  0.51121119746E+02  0.32904813691E+03  0.35534483455E+03  0.91722563222E+02 0.  0.
        -11    1    3    3    0    0  0.17967689767E+02  0.27698474523E+02  0.12833975667E+03  0.13251843838E+03  0.00000000000E+00 0.  1.
         12    1    3    3    0    0  0.96716604704E+02 -0.88034439613E+01  0.97687882737E+03  0.98169437485E+03  0.00000000000E+00 0. -1.
        -13    1    4    4    0    0  0.10271895475E+02  0.20827667808E+02  0.18967345988E+02  0.29984392553E+02  0.00000000000E+00 0. -1.
         13    1    4    4    0    0 -0.93763676786E+02  0.30293451938E+02  0.31008079093E+03  0.32536044200E+03  0.00000000000E+00 0.  1.
          1    1    1    2  501    0 -0.31192513159E+02 -0.70016150308E+02  0.52041375736E+02  0.92647390517E+02  0.00000000000E+00 0. -1.
<scales pt_clust_5="13000.00000" pt_clust_6="13000.00000" pt_clust_7="13000.00000" pt_clust_8="13000.00000" pt_clust_9="76.65008"></scales>
<clustering>
<clus scale="   76.650">  2  9  1 -1</clus>
<clus scale="   80.328">  5  6 -1 -1</clus>
<clus scale="   91.723">  7  8 -1 -1</clus>
<clus scale="  133.589">  1  5  2 -1</clus>
<clus scale="   76.650">  2  5  1 -1</clus>
</clustering>
</event>
<event>
 9    2  0.1751298E-004  0.2408002E+03  0.7546771E-02  0.1155025E+00
          2   -1    0    0  502    0 -0.00000000000E+00  0.00000000000E+00  0.92240297579E+02  0.92240297579E+02  0.00000000000E+00 0. -1.
         21   -1    0    0  501  502  0.00000000000E+00 -0.00000000000E+00 -0.13678240871E+04  0.13678240871E+04  0.00000000000E+00 0.  1.
         24    2    1    2    0    0  0.45480338634E+02 -0.38702684547E+02 -0.24933599773E+03  0.26907324927E+03  0.81643215986E+02 0.  0.
         23    2    1    2    0    0 -0.13184148558E+03 -0.17890328312E+03 -0.88646246042E+03  0.91831817425E+03  0.90022293898E+02 0.  0.
        -11    1    3    3    0    0  0.29500627924E+02 -0.62992196414E+02 -0.20067166897E+03  0.21238508088E+03  0.00000000000E+00 0.  1.
         12    1    3    3    0    0  0.15979710710E+02  0.24289511866E+02 -0.48664328765E+02  0.56688168388E+02  0.00000000000E+00 0. -1.
        -11    1    4    4    0    0 -0.48763299454E+02 -0.11457569110E+02 -0.25027743204E+03  0.25524092198E+03  0.00000000000E+00 0. -1.
         11    1    4    4    0    0 -0.83078186126E+02 -0.16744571401E+03 -0.63618502838E+03  0.66307725227E+03  0.00000000000E+00 0.  1.
          1    1    1    2  501    0  0.86361146947E+02  0.21760596767E+03 -0.13978533132E+03  0.27267296111E+03  0.00000000000E+00 0. -1.
<scales pt_clust_5="13000.00000" pt_clust_6="13000.00000" pt_clust_7="13000.00000" pt_clust_8="13000.00000" pt_clust_9="223.34007"></scales>
<clustering>
<clus scale="   81.643">  5  6 -1 -1</clus>
<clus scale="   90.022">  7  8 -1 -1</clus>
<clus scale="  101.153">  1  5  2 -1</clus>
<clus scale="  223.340">  2  9  1 -1</clus>
<clus scale="  223.340">  2  5  1 -1</clus>
</clustering>
</event>
<event>
 9    2  0.1751298E-004  0.9235904E+02  0.7546771E-02  0.1301794E+00
          2   -1    0    0  502    0 -0.00000000000E+00  0.00000000000E+00  0.36912418499E+02  0.36912418499E+02  0.00000000000E+00 0. -1.
         21   -1    0    0  501  502  0.00000000000E+00 -0.00000000000E+00 -0.40972363101E+03  0.40972363101E+03  0.00000000000E+00 0. -1.
         24    2    1    2    0    0 -0.18763211906E+02  0.20741089160E+02 -0.88713091387E+02  0.12515713332E+03  0.83737951598E+02 0.  0.
         23    2    1    2    0    0  0.13552866624E+01  0.27962197908E+02 -0.21429712518E+03  0.23460414961E+03  0.91280489918E+02 0.  0.
        -11    1    3    3    0    0 -0.28783673023E+00  0.32312125902E+02  0.14992966455E+01  0.32348171830E+02  0.00000000000E+00 0.  1.
         12    1    3    3    0    0 -0.18475375176E+02 -0.11571036742E+02 -0.90212388033E+02  0.92808961495E+02  0.00000000000E+00 0. -1.
        -11    1    4    4    0    0 -0.42644423500E+02  0.17496056135E+02 -0.73850086232E+02  0.87054546535E+02  0.00000000000E+00 0. -1.
         11    1    4    4    0    0  0.43999710163E+02  0.10466141773E+02 -0.14044703895E+03  0.14754960308E+03  0.00000000000E+00 0.  1.
          1    1    1    2  501    0  0.17407925244E+02 -0.48703287068E+02 -0.69800995939E+02  0.86874766570E+02  0.00000000000E+00 0. -1.
<scales pt_clust_5="13000.00000" pt_clust_6="13000.00000" pt_clust_7="13000.00000" pt_clust_8="13000.00000" pt_clust_9="51.72087"></scales>
<clustering>
<clus scale="   51.721">  2  9  1 -1</clus>
<clus scale="   83.738">  5  6 -1 -1</clus>
<clus scale="   84.912">  1  5  2 -1</clus>
<clus scale="   91.280">  7  8 -1 -1</clus>
<clus scale="   51.721">  2  5  1 -1</clus>
</clustering>
</event>
<event>
 9    2  0.1751298E-004  0.2306915E+03  0.7546771E-02  0.1163464E+00
         21   -1    0    0  501  502  0.00000000000E+00  0.00000000000E+00  0.55889679257E+03  0.55889679257E+03  0.00000000000E+00 0. -1.
          2   -1    0    0  502    0 -0.00000000000E+00 -0.00000000000E+00 -0.15599303126E+03  0.15599303126E+03  0.00000000000E+00 0. -1.
         23    2    1    2    0    0  0.31877951478E+02  0.81109690149E+01  0.93944876350E+02  0.13325159069E+03  0.88590942092E+02 0.  0.
         24    2    1    2    0    0 -0.18524947056E+03 -0.14847069877E+03  0.61206468920E+02  0.25821136929E+03  0.81030640233E+02 0.  0.
        -13    1    4    4    0    0 -0.90113970250E+02 -0.11013500897E+03  0.63003314602E+02  0.15562668629E+03  0.00000000000E+00 0.  1.
         14    1    4    4    0    0 -0.95135500313E+02 -0.38335689806E+02 -0.17968456820E+01  0.10258468300E+03  0.00000000000E+00 0. -1.
        -11    1    3    3    0    0  0.50878021638E+02 -0.18683146631E+02  0.31484806410E+02  0.62681146197E+02  0.00000000000E+00 0.  1.
         11    1    3    3    0    0 -0.19000070160E+02  0.26794115646E+02  0.62460069940E+02  0.70570444495E+02  0.00000000000E+00 0. -1.
          1    1    1    2  501    0  0.15337151908E+03  0.14035972976E+03  0.24775241604E+03  0.32342686385E+03  0.00000000000E+00 0. -1.
<scales pt_clust_5="13000.00000" pt_clust_6="13000.00000" pt_clust_7="13000.00000" pt_clust_8="13000.00000" pt_clust_9="215.99214"></scales>
<clustering>
<clus scale="   81.031">  5  6 -1 -1</clus>
<clus scale="   88.591">  7  8 -1 -1</clus>
<clus scale="   94.501">  2  7  1 -1</clus>
<clus scale="  215.992">  1  9  2 -1</clus>
<clus scale="  215.992">  1  5  2 -1</clus>
</clustering>
</event>
<event>
 9    2  0.1751298E-004  0.1406651E+03  0.7546771E-02  0.1215912E+00
          2   -1    0    0  502    0 -0.00000000000E+00  0.00000000000E+00  0.51961810269E+03  0.51961810269E+03  0.00000000000E+00 0. -1.
         21   -1    0    0  501  502  0.00000000000E+00 -0.00000000000E+00 -0.70434065445E+02  0.70434065445E+02  0.00000000000E+00 0.  1.
         24    2    1    2    0    0 -0.11327830085E+03  0.44872109395E+02  0.15849041609E+03  0.21542053996E+03  0.80257818302E+02 0.  0.
         23    2    1    2    0    0  0.59950861064E+02 -0.54743988301E+02  0.62684563005E+02  0.14026140731E+03  0.95670778951E+02 0.  0.
        -11    1    3    3    0    0 -0.11181448979E+03  0.37070397144E+02  0.94718509057E+02  0.15115650971E+03  0.00000000000E+00 0.  1.
         12    1    3    3    0    0 -0.14638110655E+01  0.78017122511E+01  0.63771907032E+02  0.64264030246E+02  0.00000000000E+00 0. -1.
        -11    1    4    4    0    0  0.49426623350E+02 -0.10755937979E+02 -0.12877666921E+02  0.52196892656E+02  0.00000000000E+00 0.  1.
         11    1    4    4    0    0  0.10524237714E+02 -0.43988050322E+02  0.75562229926E+02  0.88064514658E+02  0.00000000000E+00 0. -1.
          1    1    1    2  501    0  0.53327439790E+02  0.98718789061E+01  0.22800905816E+03  0.23437022087E+03  0.00000000000E+00 0. -1.
<scales pt_clust_5="13000.00000" pt_clust_6="13000.00000" pt_clust_7="13000.00000" pt_clust_8="13000.00000" pt_clust_9="54.23350"></scales>
<clustering>
<clus scale="   54.234">  2  9  1 -1</clus>
<clus scale="   80.258">  5  6 -1 -1</clus>
<clus scale="   95.671">  7  8 -1 -1</clus>
<clus scale="  130.672">  1  5  2 -1</clus>
<clus scale="   54.234">  2  5  1 -1</clus>
</clustering>
</event>
<event>
 9    2  0.1751298E-004  0.2434398E+03  0.7546771E-02  0.1131309E+00
          2   -1    0    0  502    0 -0.00000000000E+00  0.00000000000E+00  0.55169157840E+03  0.55169157840E+03  0.00000000000E+00 0. -1.
         21   -1    0    0  501  502  0.00000000000E+00 -0.00000000000E+00 -0.22193025558E+03  0.22193025558E+03  0.00000000000E+00 0.  1.
         24    2    1    2    0    0 -0.13222679411E+03 -0.75830746095E+02  0.45694116620E+02  0.17885514260E+03  0.81651592805E+02 0.  0.
         23    2    1    2    0    0  0.23410258130E+03 -0.98468525622E+02  0.31548639979E+02  0.27146414201E+03  0.90539464343E+02 0.  0.
        -11    1    3    3    0    0 -0.14082842245E+03 -0.72652386036E+02  0.30899425579E+02  0.16144902684E+03  0.00000000000E+00 0.  1.
         12    1    3    3    0    0  0.86016283433E+01 -0.31783600594E+01  0.14794691041E+02  0.17406115759E+02  0.00000000000E+00 0. -1.
        -13    1    4    4    0    0  0.13108078502E+03 -0.27797391011E+02 -0.21548363232E+02  0.13571735005E+03  0.00000000000E+00 0. -1.
         13    1    4    4    0    0  0.10302179629E+03 -0.70671134611E+02  0.53097003211E+02  0.13574679196E+03  0.00000000000E+00 0.  1.
          1    1    1    2  501    0 -0.10187578719E+03  0.17429927172E+03  0.25251856623E+03  0.32330254937E+03  0.00000000000E+00 0. -1.
<scales pt_clust_5="13000.00000" pt_clust_6="13000.00000" pt_clust_7="13000.00000" pt_clust_8="13000.00000" pt_clust_9="225.97694"></scales>
<clustering>
<clus scale="   81.652">  5  6 -1 -1</clus>
<clus scale="   90.539">  7  8 -1 -1</clus>
<clus scale="  172.920">  1  5  2 -1</clus>
<clus scale="  225.977">  2  9  1 -1</clus>
<clus scale="  225.977">  2  5  1 -1</clus>
</clustering>
</event>
<event>
 9    2  0.1751298E-004  0.1091035E+03  0.7546771E-02  0.1266522E+00
         21   -1    0    0  501  502  0.00000000000E+00  0.00000000000E+00  0.27399204103E+02  0.27399204103E+02  0.00000000000E+00 0.  1.
          4   -1    0    0  502    0 -0.00000000000E+00 -0.00000000000E+00 -0.70405686555E+03  0.70405686555E+03  0.00000000000E+00 0. -1.
         24    2    1    2    0    0  0.26779668164E+02  0.41807684075E+02 -0.23697598614E+03  0.25513063011E+03  0.80430015168E+02 0.  0.
         23    2    1    2    0    0 -0.74151327618E+02 -0.38692970738E+02 -0.22800419394E+03  0.25938966177E+03  0.91112670948E+02 0.  0.
        -13    1    3    3    0    0 -0.22050802407E+02  0.39449360704E+02 -0.10161332732E+03  0.11121042323E+03  0.00000000000E+00 0.  1.
         14    1    3    3    0    0  0.48830470571E+02  0.23583233710E+01 -0.13536265882E+03  0.14392020688E+03  0.00000000000E+00 0. -1.
        -13    1    4    4    0    0  0.19966648465E+02 -0.14329012023E+02 -0.29807991897E+02  0.38632939539E+02  0.00000000000E+00 0. -1.
         13    1    4    4    0    0 -0.94117976083E+02 -0.24363958715E+02 -0.19819620205E+03  0.22075672223E+03  0.00000000000E+00 0.  1.
          3    1    1    2  501    0  0.47371659455E+02 -0.31147133372E+01 -0.21167748137E+03  0.21693577777E+03  0.00000000000E+00 0. -1.
<scales pt_clust_5="13000.00000" pt_clust_6="13000.00000" pt_clust_7="13000.00000" pt_clust_8="13000.00000" pt_clust_9="47.47397"></scales>
<clustering>
<clus scale="   47.474">  1  9  2 -1</clus>
<clus scale="   80.430">  5  6 -1 -1</clus>
<clus scale="   91.113">  7  8 -1 -1</clus>
<clus scale="  100.355">  2  5  1 -1</clus>
<clus scale="   47.474">  1  5  2 -1</clus>
</clustering>
</event>
<event>
 9    2  0.1751298E-004  0.1368036E+03  0.7546771E-02  0.1220314E+00
          2   -1    0    0  502    0 -0.00000000000E+00  0.00000000000E+00  0.15444569263E+03  0.15444569263E+03  0.00000000000E+00 0. -1.
         21   -1    0    0  501  502  0.00000000000E+00 -0.00000000000E+00 -0.28377488637E+03  0.28377488637E+03  0.00000000000E+00 0. -1.
         23    2    1    2    0    0  0.73694283367E+02 -0.55407462339E+02  0.47230883130E+01  0.13036357602E+03  0.92040861067E+02 0.  0.
         24    2    1    2    0    0 -0.82654367456E+02  0.10612644641E+03 -0.18004161739E+03  0.23880834320E+03  0.80745734874E+02 0.  0.
        -11    1    4    4    0    0  0.38677877948E+01  0.50022556223E+02 -0.36403155698E+02  0.61987141072E+02  0.00000000000E+00 0.  1.
         12    1    4    4    0    0 -0.86522155251E+02  0.56103890191E+02 -0.14363846170E+03  0.17682120213E+03  0.00000000000E+00 0. -1.
        -11    1    3    3    0    0  0.91293002616E+02 -0.25250616712E+02  0.91775797259E+01  0.95164247176E+02  0.00000000000E+00 0. -1.
         11    1    3    3    0    0 -0.17598719249E+02 -0.30156845627E+02 -0.44544914129E+01  0.35199328844E+02  0.00000000000E+00 0.  1.
          1    1    1    2  501    0  0.89600840893E+01 -0.50718984075E+02  0.45989335345E+02  0.69048659784E+02  0.00000000000E+00 0. -1.
<scales pt_clust_5="13000.00000" pt_clust_6="13000.00000" pt_clust_7="13000.00000" pt_clust_8="13000.00000" pt_clust_9="51.50438"></scales>
<clustering>
<clus scale="   51.504">  2  9  1 -1</clus>
<clus scale="   80.746">  5  6 -1 -1</clus>
<clus scale="   92.041">  7  8 -1 -1</clus>
<clus scale="  129.474">  2  5  1 -1</clus>
<clus scale="   51.504">  2  5  1 -1</clus>
</clustering>
</event>
<event>
 9    2  0.1751298E-004  0.1386436E+03  0.7546771E-02  0.1236722E+00
         21   -1    0    0  501  502  0.00000000000E+00  0.00000000000E+00  0.45612130325E+02  0.45612130325E+02  0.00000000000E+00 0. -1.
          2   -1    0    0  502    0 -0.00000000000E+00 -0.00000000000E+00 -0.85055792183E+03  0.85055792183E+03  0.00000000000E+00 0. -1.
         24    2    1    2    0    0 -0.33467324392E+02  0.50567582639E+01 -0.36412532574E+03  0.37474111442E+03  0.81841416062E+02 0.  0.
         23    2    1    2    0    0  0.40428279675E+02 -0.10645101648E+03 -0.36873518791E+03  0.39682742177E+03  0.92412656913E+02 0.  0.
        -13    1    3    3    0    0  0.77546753942E+01  0.24133291430E+02 -0.39369795400E+02  0.46824475818E+02  0.00000000000E+00 0.  1.
         14    1    3    3    0    0 -0.41221999787E+02 -0.19076533166E+02 -0.32475553034E+03  0.32791663860E+03  0.00000000000E+00 0. -1.
        -13    1    4    4    0    0  0.62728127579E+01 -0.57641161089E+02 -0.64146320019E+02  0.86467346458E+02  0.00000000000E+00 0. -1.
         13    1    4    4    0    0  0.34155466917E+02 -0.48809855393E+02 -0.30458886789E+03  0.31036007531E+03  0.00000000000E+00 0.  1.
          1    1    1    2  501    0 -0.69609552825E+01  0.10139425822E+03 -0.72085277853E+02  0.12460151597E+03  0.00000000000E+00 0. -1.
<scales pt_clust_5="13000.00000" pt_clust_6="13000.00000" pt_clust_7="13000.00000" pt_clust_8="13000.00000" pt_clust_9="103.35356"></scales>
<clustering>
<clus scale="   81.841">  5  6 -1 -1</clus>
<clus scale="   88.564">  2  5  1 -1</clus>
<clus scale="   92.413">  7  8 -1 -1</clus>
<clus scale="  103.354">  1  9  2 -1</clus>
<clus scale="  103.354">  1  5  2 -1</clus>
</clustering>
</event>
<event>
 9    2  0.1751298E-004  0.9350909E+02  0.7546771E-02  0.1301259E+00
         21   -1    0    0  501  502  0.00000000000E+00  0.00000000000E+00  0.25151002887E+03  0.25151002887E+03  0.00000000000E+00 0. -1.
         -1   -1    0    0    0  501 -0.00000000000E+00 -0.00000000000E+00 -0.16391205944E+03  0.16391205944E+03  0.00000000000E+00 0.  1.
         24    2    1    2    0    0  0.24035296625E+02  0.12690766542E+02 -0.10287967021E+03  0.13292945312E+03  0.79669705182E+02 0.  0.
         23    2    1    2    0    0 -0.13124293107E+02  0.33747280898E+02  0.12995528839E+02  0.98711673431E+02  0.90906461069E+02 0.  0.
        -11    1    3    3    0    0  0.10460549726E+01 -0.28934191176E+02 -0.14070226982E+02  0.32190882829E+02  0.00000000000E+00 0.  1.
         12    1    3    3    0    0  0.22989241652E+02  0.41624957718E+02 -0.88809443231E+02  0.10073857029E+03  0.00000000000E+00 0. -1.
        -13    1    4    4    0    0 -0.14342512299E+02  0.63938935714E+02 -0.71182308420E+00  0.65531685858E+02  0.00000000000E+00 0. -1.
         13    1    4    4    0    0  0.12182191922E+01 -0.30191654817E+02  0.13707351924E+02  0.33179987573E+02  0.00000000000E+00 0.  1.
         -2    1    1    2    0  502 -0.10911003518E+02 -0.46438047440E+02  0.17748211080E+03  0.18378096175E+03  0.00000000000E+00 0.  1.
<scales pt_clust_5="13000.00000" pt_clust_6="13000.00000" pt_clust_7="13000.00000" pt_clust_8="13000.00000" pt_clust_9="47.70264"></scales>
<clustering>
<clus scale="   47.703">  1  9  2 -1</clus>
<clus scale="   79.670">  5  6 -1 -1</clus>
<clus scale="   82.627">  2  5  1 -1</clus>
<clus scale="   90.906">  7  8 -1 -1</clus>
<clus scale="   47.703">  1  5  2 -1</clus>
</clustering>
</event>
<event>
 9    2  0.1751298E-004  0.4371182E+03  0.7546771E-02  0.1031635E+00
         21   -1    0    0  501  502  0.00000000000E+00  0.00000000000E+00  0.12414327932E+03  0.12414327932E+03  0.00000000000E+00 0.  1.
          2   -1    0    0  502    0 -0.00000000000E+00 -0.00000000000E+00 -0.17498075727E+04  0.17498075727E+04  0.00000000000E+00 0. -1.
         24    2    1    2    0    0  0.11143991610E+03  0.23214085526E+03 -0.72403350225E+03  0.77250081547E+03  0.78897185878E+02 0.  0.
         23    2    1    2    0    0 -0.19701853557E+02  0.13416407935E+03 -0.58845616313E+03  0.61086515618E+03  0.92127194061E+02 0.  0.
        -13    1    3    3    0    0  0.11141201703E+03  0.23835358507E+03 -0.70744995728E+03  0.75479170048E+03  0.00000000000E+00 0.  1.
         14    1    3    3    0    0  0.27899065389E-01 -0.62127298079E+01 -0.16583544965E+02  0.17709114987E+02  0.00000000000E+00 0. -1.
        -13    1    4    4    0    0 -0.55373603486E+02  0.99887914751E+02 -0.42596264245E+03  0.44100794125E+03  0.00000000000E+00 0.  1.
         13    1    4    4    0    0  0.35671749929E+02  0.34276164598E+02 -0.16249352068E+03  0.16985721493E+03  0.00000000000E+00 0. -1.
          1    1    1    2  501    0 -0.91738062540E+02 -0.36630493461E+03 -0.31317462803E+03  0.49058488040E+03  0.00000000000E+00 0. -1.
<scales pt_clust_5="13000.00000" pt_clust_6="13000.00000" pt_clust_7="13000.00000" pt_clust_8="13000.00000" pt_clust_9="377.61777"></scales>
<clustering>
<clus scale="   78.897">  5  6 -1 -1</clus>
<clus scale="   92.127">  7  8 -1 -1</clus>
<clus scale="  131.898">  5  7 -1 -1</clus>
<clus scale="  377.618">  1  9  2 -1</clus>
<clus scale="  377.618">  1  5  2 -1</clus>
</clustering>
</event>
<event>
 9    2  0.1751298E-004  0.1348655E+03  0.7546771E-02  0.1221556E+00
         21   -1    0    0  501  502  0.00000000000E+00  0.00000000000E+00  0.15023399155E+03  0.15023399155E+03  0.00000000000E+00 0. -1.
         -1   -1    0    0    0  501 -0.00000000000E+00 -0.00000000000E+00 -0.19206268059E+03  0.19206268059E+03  0.00000000000E+00 0.  1.
         23    2    1    2    0    0 -0.76596733158E+02 -0.85422579759E+02 -0.10454812664E+03  0.17707041439E+03  0.85202958905E+02 0.  0.
         24    2    1    2    0    0  0.53995823608E+02  0.63939455455E+02  0.29161582928E+02  0.11941735738E+03  0.80039392764E+02 0.  0.
        -13    1    4    4    0    0 -0.16021683880E+02  0.36832491125E+02  0.46424129597E+01  0.40433633956E+02  0.00000000000E+00 0.  1.
         14    1    4    4    0    0  0.70017507489E+02  0.27106964330E+02  0.24519169968E+02  0.78983723425E+02  0.00000000000E+00 0. -1.
        -13    1    3    3    0    0 -0.59285933251E+02 -0.30697992619E+02 -0.11502942694E+02  0.67745895248E+02  0.00000000000E+00 0. -1.
         13    1    3    3    0    0 -0.17310799907E+02 -0.54724587141E+02 -0.93045183942E+02  0.10932451914E+03  0.00000000000E+00 0.  1.
         -2    1    1    2    0  502  0.22600909550E+02  0.21483124305E+02  0.33557854676E+02  0.45808900367E+02  0.00000000000E+00 0.  1.
<scales pt_clust_5="13000.00000" pt_clust_6="13000.00000" pt_clust_7="13000.00000" pt_clust_8="13000.00000" pt_clust_9="31.18214"></scales>
<clustering>
<clus scale="   31.182">  1  9  2 -1</clus>
<clus scale="   80.039">  5  6 -1 -1</clus>
<clus scale="   85.203">  7  8 -1 -1</clus>
<clus scale="  131.664">  1  5  2 -1</clus>
<clus scale="   31.182">  1  5  2 -1</clus>
</clustering>
</event>
<event>
 9    2  0.1751298E-004  0.2697090E+03  0.7546771E-02  0.1101965E+00
          2   -1    0    0  502    0 -0.00000000000E+00  0.00000000000E+00  0.19612430843E+04  0.19612430843E+04  0.00000000000E+00 0. -1.
         21   -1    0    0  501  502  0.00000000000E+00 -0.00000000000E+00 -0.10258035996E+03  0.10258035996E+03  0.00000000000E+00 0. -1.
         24    2    1    2    0    0 -0.78125912034E+02  0.26448548103E+03  0.15084824436E+04  0.15355546784E+04  0.79703575094E+02 0.  0.
         23    2    1    2    0    0  0.16342361676E+03 -0.13676201864E+03  0.26728746485E+03  0.35374025756E+03  0.90986002743E+02 0.  0.
        -11    1    3    3    0    0 -0.64371111116E+02  0.10743490926E+03  0.54070719042E+03  0.55502267111E+03  0.00000000000E+00 0.  1.
         12    1    3    3    0    0 -0.13754800918E+02  0.15705057177E+03  0.96777525322E+03  0.98053200733E+03  0.00000000000E+00 0. -1.
        -13    1    4    4    0    0  0.39923051501E+02 -0.87182752888E+02  0.85676053783E+02  0.12858875781E+03  0.00000000000E+00 0.  1.
         13    1    4    4    0    0  0.12350056526E+03 -0.49579265754E+02  0.18161141107E+03  0.22515149976E+03  0.00000000000E+00 0. -1.
          1    1    1    2  501    0 -0.85297704724E+02 -0.12772346239E+03  0.82892815824E+02  0.17452850825E+03  0.00000000000E+00 0. -1.
<scales pt_clust_5="13000.00000" pt_clust_6="13000.00000" pt_clust_7="13000.00000" pt_clust_8="13000.00000" pt_clust_9="153.58705"></scales>
<clustering>
<clus scale="   79.704">  5  6 -1 -1</clus>
<clus scale="   90.986">  7  8 -1 -1</clus>
<clus scale="  153.587">  2  9  1 -1</clus>
<clus scale="  266.115">  1  5  2 -1</clus>
<clus scale="  153.587">  2  5  1 -1</clus>
</clustering>
</event>
<event>
 9    2  0.1751298E-004  0.1915449E+03  0.7546771E-02  0.1158701E+00
          2   -1    0    0  502    0 -0.00000000000E+00  0.00000000000E+00  0.33093390917E+03  0.33093390917E+03  0.00000000000E+00 0. -1.
         21   -1    0    0  501  502  0.00000000000E+00 -0.00000000000E+00 -0.20661209425E+03  0.20661209425E+03  0.00000000000E+00 0. -1.
         24    2    1    2    0    0  0.45246424590E+02  0.16688595036E+03  0.41547141947E+02  0.19487274224E+03  0.79693546173E+02 0.  0.
         23    2    1    2    0    0 -0.12202954796E+03 -0.11953932708E+03 -0.30515131569E+02  0.19785637479E+03  0.95053198248E+02 0.  0.
        -11    1    3    3    0    0  0.48285437396E+02  0.81583382474E+02 -0.97276497156E+01  0.95299312324E+02  0.00000000000E+00 0.  1.
         12    1    3    3    0    0 -0.30390128063E+01  0.85302567882E+02  0.51274791663E+02  0.99573429920E+02  0.00000000000E+00 0. -1.
        -11    1    4    4    0    0 -0.15509867406E+02 -0.36200970067E+02 -0.47324987004E+02  0.61568828279E+02  0.00000000000E+00 0.  1.
         11    1    4    4    0    0 -0.10651968055E+03 -0.83338357009E+02  0.16809855435E+02  0.13628754651E+03  0.00000000000E+00 0. -1.
          1    1    1    2  501    0  0.76783123365E+02 -0.47346623279E+02  0.11328980455E+03  0.14481688639E+03  0.00000000000E+00 0. -1.
<scales pt_clust_5="13000.00000" pt_clust_6="13000.00000" pt_clust_7="13000.00000" pt_clust_8="13000.00000" pt_clust_9="90.20731"></scales>
<clustering>
<clus scale="   79.694">  5  6 -1 -1</clus>
<clus scale="   90.207">  2  9  1 -1</clus>
<clus scale="   95.053">  7  8 -1 -1</clus>
<clus scale="  184.405">  1  5  2 -1</clus>
<clus scale="   90.207">  2  5  1 -1</clus>
</clustering>
</event>
<event>
 9    2  0.1751298E-004  0.1576245E+03  0.7546771E-02  0.1193326E+00
          2   -1    0    0  502    0 -0.00000000000E+00  0.00000000000E+00  0.10122033067E+04  0.10122033067E+04  0.00000000000E+00 0. -1.
         21   -1    0    0  501  502  0.00000000000E+00 -0.00000000000E+00 -0.57634621568E+02  0.57634621568E+02  0.00000000000E+00 0. -1.
         23    2    1    2    0    0  0.14689640974E+03  0.10826027905E+02  0.26706647634E+03  0.31845260918E+03  0.91606787045E+02 0.  0.
         24    2    1    2    0    0 -0.95498055579E+02 -0.66311866530E+02  0.14017115969E+03  0.19885319658E+03  0.79859235643E+02 0.  0.
        -13    1    4    4    0    0 -0.31932980971E+02 -0.10343414662E+02  0.99287976794E+02  0.10480841491E+03  0.00000000000E+00 0.  1.
         14    1    4    4    0    0 -0.63565074608E+02 -0.55968451868E+02  0.40883182895E+02  0.94044781663E+02  0.00000000000E+00 0. -1.
        -13    1    3    3    0    0  0.12403240558E+03  0.29319550336E+01  0.26682972915E+03  0.29426304279E+03  0.00000000000E+00 0. -1.
         13    1    3    3    0    0  0.22864004166E+02  0.78940728719E+01  0.23674719301E+00  0.24189566392E+02  0.00000000000E+00 0.  1.
          1    1    1    2  501    0 -0.51398354163E+02  0.55485838625E+02  0.54733104913E+03  0.55253212254E+03  0.00000000000E+00 0. -1.
<scales pt_clust_5="13000.00000" pt_clust_6="13000.00000" pt_clust_7="13000.00000" pt_clust_8="13000.00000" pt_clust_9="75.63382"></scales>
<clustering>
<clus scale="   75.634">  2  9  1 -1</clus>
<clus scale="   79.859">  5  6 -1 -1</clus>
<clus scale="   91.607">  7  8 -1 -1</clus>
<clus scale="  151.100">  2  5  1 -1</clus>
<clus scale="   75.634">  2  5  1 -1</clus>
</clustering>
</event>
<event>
 9    2  0.1751298E-004  0.1848492E+03  0.7546771E-02  0.1164500E+00
          2   -1    0    0  502    0 -0.00000000000E+00  0.00000000000E+00  0.31203852651E+03  0.31203852651E+03  0.00000000000E+00 0. -1.
         21   -1    0    0  501  502  0.00000000000E+00 -0.00000000000E+00 -0.20084717770E+03  0.20084717770E+03  0.00000000000E+00 0. -1.
         23    2    1    2    0    0 -0.15247483862E+03  0.42851973380E+02  0.99992361781E+02  0.20766490473E+03  0.89673698537E+02 0.  0.
         24    2    1    2    0    0  0.17873451221E+03  0.29659946813E+02 -0.53826562380E+02  0.20434527666E+03  0.77678536128E+02 0.  0.
        -13    1    4    4    0    0  0.31999700712E+02  0.23974486011E+02 -0.40475231051E+02  0.56894649606E+02  0.00000000000E+00 0.  1.
         14    1    4    4    0    0  0.14673481150E+03  0.56854608024E+01 -0.13351331330E+02  0.14745062705E+03  0.00000000000E+00 0. -1.
        -11    1    3    3    0    0 -0.23249474213E+02  0.30461817055E+02 -0.75874256192E+01  0.39064425978E+02  0.00000000000E+00 0.  1.
         11    1    3    3    0    0 -0.12922536441E+03  0.12390156325E+02  0.10757978740E+03  0.16860047876E+03  0.00000000000E+00 0. -1.
          1    1    1    2  501    0 -0.26259673590E+02 -0.72511920194E+02  0.65025549410E+02  0.10087552282E+03  0.00000000000E+00 0. -1.
<scales pt_clust_5="13000.00000" pt_clust_6="13000.00000" pt_clust_7="13000.00000" pt_clust_8="13000.00000" pt_clust_9="77.12039"></scales>
<clustering>
<clus scale="   77.120">  2  9  1 -1</clus>
<clus scale="   77.679">  5  6 -1 -1</clus>
<clus scale="   89.674">  7  8 -1 -1</clus>
<clus scale="  179.337">  2  5  1 -1</clus>
<clus scale="   77.120">  2  5  1 -1</clus>
</clustering>
</event>
<event>
 9    2  0.2140310E-004  0.1054458E+03  0.7546771E-02  0.1273248E+00
          2   -1    0    0  502    0 -0.00000000000E+00  0.00000000000E+00  0.12013167325E+04  0.12013167325E+04  0.00000000000E+00 0. -1.
         21   -1    0    0  501  502  0.00000000000E+00 -0.00000000000E+00 -0.60421771615E+02  0.60421771615E+02  0.00000000000E+00 0.  1.
         24    2    1    2    0    0 -0.53034476015E+02 -0.39193291534E+01  0.10655098343E+04  0.10698856961E+04  0.80722852536E+02 0.  0.
         23    2    1    2    0    0  0.92833648187E+02 -0.13339750742E+02  0.40480526344E+02  0.13617353844E+03  0.90047345172E+02 0.  0.
        -11    1    3    3    0    0 -0.23758366369E+02 -0.11765929521E+02  0.88022026667E+02  0.91928092815E+02  0.00000000000E+00 0.  1.
         12    1    3    3    0    0 -0.29276109647E+02  0.78466003677E+01  0.97748780763E+03  0.97795760327E+03  0.00000000000E+00 0. -1.
        -11    1    4    4    0    0  0.76471289606E+02 -0.42748345007E+02  0.50421288575E+02  0.10108207297E+03  0.00000000000E+00 0.  1.
         11    1    4    4    0    0  0.16362358581E+02  0.29408594265E+02 -0.99407622303E+01  0.35091465468E+02  0.00000000000E+00 0. -1.
          1    1    1    2  501    0 -0.39799172172E+02  0.17259079895E+02  0.34904600263E+02  0.55679269607E+02  0.00000000000E+00 0. -1.
<scales pt_clust_5="13000.00000" pt_clust_6="13000.00000" pt_clust_7="13000.00000" pt_clust_8="13000.00000" pt_clust_9="43.38029"></scales>
<clustering>
<clus scale="   43.380">  2  9  1 -1</clus>
<clus scale="   80.723">  5  6 -1 -1</clus>
<clus scale="   90.047">  7  8 -1 -1</clus>
<clus scale="   97.604">  1  5  2 -1</clus>
<clus scale="   43.380">  2  5  1 -1</clus>
</clustering>
</event>
<event>
 9    2  0.1751298E-004  0.1144301E+03  0.7546771E-02  0.1258077E+00
         21   -1    0    0  501  502  0.00000000000E+00  0.00000000000E+00  0.33784571157E+02  0.33784571157E+02  0.00000000000E+00 0.  1.
         -1   -1    0    0    0  501 -0.00000000000E+00 -0.00000000000E+00 -0.84954085458E+03  0.84954085458E+03  0.00000000000E+00 0.  1.
         23    2    1    2    0    0  0.13980850839E+02 -0.59411783637E+02 -0.65175116649E+03  0.66157495020E+03  0.95794610976E+02 0.  0.
         24    2    1    2    0    0  0.10564355686E+02  0.74330663017E+02 -0.90971256530E+02  0.14327127516E+03  0.81327951506E+02 0.  0.
        -11    1    4    4    0    0  0.76209097696E+01  0.26213180105E+02  0.11811951758E+02  0.29744432777E+02  0.00000000000E+00 0.  1.
         12    1    4    4    0    0  0.29434459160E+01  0.48117482913E+02 -0.10278320829E+03  0.11352684238E+03  0.00000000000E+00 0. -1.
        -13    1    3    3    0    0 -0.32509585244E+02  0.60358487771E+01 -0.17108564064E+03  0.17425154530E+03  0.00000000000E+00 0. -1.
         13    1    3    3    0    0  0.46490436083E+02 -0.65447632414E+02 -0.48066552584E+03  0.48732340491E+03  0.00000000000E+00 0.  1.
         -2    1    1    2    0  502 -0.24545206525E+02 -0.14918879380E+02 -0.73033860405E+02  0.78479200372E+02  0.00000000000E+00 0.  1.
<scales pt_clust_5="13000.00000" pt_clust_6="13000.00000" pt_clust_7="13000.00000" pt_clust_8="13000.00000" pt_clust_9="28.72353"></scales>
<clustering>
<clus scale="   28.724">  1  9  2 -1</clus>
<clus scale="   81.328">  5  6 -1 -1</clus>
<clus scale="   95.795">  7  8 -1 -1</clus>
<clus scale="  102.625">  1  5  2 -1</clus>
<clus scale="   28.724">  1  5  2 -1</clus>
</clustering>
</event>
<event>
 9    2  0.1751298E-004  0.2364559E+03  0.7546771E-02  0.1160661E+00
          2   -1    0    0  502    0 -0.00000000000E+00  0.00000000000E+00  0.10380562403E+03  0.10380562403E+03  0.00000000000E+00 0. -1.
         21   -1    0    0  501  502  0.00000000000E+00 -0.00000000000E+00 -0.14857038339E+04  0.14857038339E+04  0.00000000000E+00 0. -1.
         24    2    1    2    0    0 -0.10894080153E+02  0.41449428658E+02  0.13096896560E+02  0.94562142582E+02  0.83269045819E+02 0.  0.
         23    2    1    2    0    0  0.22215510089E+03 -0.68252424470E+02 -0.36374954059E+03  0.44194349934E+03  0.94810579779E+02 0.  0.
        -13    1    3    3    0    0 -0.37423609768E+02 -0.49004831130E+01 -0.52213105072E+01  0.38102537792E+02  0.00000000000E+00 0.  1.
         14    1    3    3    0    0  0.26529529615E+02  0.46349911771E+02  0.18318207067E+02  0.56459604789E+02  0.00000000000E+00 0. -1.
        -11    1    4    4    0    0  0.82748809940E+02  0.10305104550E+02 -0.76661413612E+02  0.11327194297E+03  0.00000000000E+00 0.  1.
         11    1    4    4    0    0  0.13940629095E+03 -0.78557529019E+02 -0.28708812698E+03  0.32867155638E+03  0.00000000000E+00 0. -1.
          1    1    1    2  501    0 -0.21126102073E+03  0.26802995811E+02 -0.10312455658E+04  0.10530038160E+04  0.00000000000E+00 0. -1.
<scales pt_clust_5="13000.00000" pt_clust_6="13000.00000" pt_clust_7="13000.00000" pt_clust_8="13000.00000" pt_clust_9="216.61568"></scales>
<clustering>
<clus scale="   83.269">  5  6 -1 -1</clus>
<clus scale="   93.651">  1  5  2 -1</clus>
<clus scale="   94.811">  7  8 -1 -1</clus>
<clus scale="  216.616">  2  9  1 -1</clus>
<clus scale="  216.616">  2  5  1 -1</clus>
</clustering>
</event>
<event>
 9    2  0.1751298E-004  0.1245830E+03  0.7546771E-02  0.1239720E+00
         21   -1    0    0  501  502  0.00000000000E+00  0.00000000000E+00  0.15979984333E+03  0.15979984333E+03  0.00000000000E+00 0. -1.
          2   -1    0    0  502    0 -0.00000000000E+00 -0.00000000000E+00 -0.22459975184E+03  0.22459975184E+03  0.00000000000E+00 0. -1.
         23    2    1    2    0    0 -0.51039682685E+02  0.75238044774E+02 -0.13468613147E+03  0.18729755737E+03  0.93135430419E+02 0.  0.
         24    2    1    2    0    0  0.35456576661E+02 -0.59152448967E+02 -0.17596527365E+02  0.10679804459E+03  0.79624138958E+02 0.  0.
        -11    1    4    4    0    0  0.18291598309E+02 -0.75593103134E+02 -0.95058701338E+00  0.77780482293E+02  0.00000000000E+00 0.  1.
         12    1    4    4    0    0  0.17164978353E+02  0.16440654167E+02 -0.16645940351E+02  0.29017562293E+02  0.00000000000E+00 0. -1.
        -11    1    3    3    0    0  0.16103942660E+02  0.42893930956E+02 -0.18820147935E+02  0.49532052757E+02  0.00000000000E+00 0.  1.
         11    1    3    3    0    0 -0.67143625345E+02  0.32344113818E+02 -0.11586598353E+03  0.13776550462E+03  0.00000000000E+00 0. -1.
          1    1    1    2  501    0  0.15583106024E+02 -0.16085595807E+02  0.87482750316E+02  0.90303993204E+02  0.00000000000E+00 0. -1.
<scales pt_clust_5="13000.00000" pt_clust_6="13000.00000" pt_clust_7="13000.00000" pt_clust_8="13000.00000" pt_clust_9="22.39597"></scales>
<clustering>
<clus scale="   22.396">  1  9  2 -1</clus>
<clus scale="   79.624">  5  6 -1 -1</clus>
<clus scale="   93.135">  7  8 -1 -1</clus>
<clus scale="  114.833">  1  5  2 -1</clus>
<clus scale="   22.396">  1  5  2 -1</clus>
</clustering>
</event>
<event>
 9    2  0.1751298E-004  0.9670190E+02  0.7546771E-02  0.1292940E+00
         21   -1    0    0  501  502  0.00000000000E+00  0.00000000000E+00  0.25111897104E+02  0.25111897104E+02  0.00000000000E+00 0. -1.
         -1   -1    0    0    0  501 -0.00000000000E+00 -0.00000000000E+00 -0.60229387933E+03  0.60229387933E+03  0.00000000000E+00 0.  1.
         24    2    1    2    0    0 -0.41692207204E+02 -0.74929159902E+01 -0.39324816927E+03  0.40362338135E+03  0.80456991037E+02 0.  0.
         23    2    1    2    0    0  0.63267767623E+01  0.12327506248E+02 -0.13156693466E+03  0.16040750356E+03  0.90712255994E+02 0.  0.
        -13    1    3    3    0    0 -0.15915538661E+01 -0.39545287376E+02 -0.16777152067E+03  0.17237646576E+03  0.00000000000E+00 0.  1.
         14    1    3    3    0    0 -0.40100653338E+02  0.32052371386E+02 -0.22547664860E+03  0.23124691560E+03  0.00000000000E+00 0. -1.
        -11    1    4    4    0    0 -0.19319477254E+02 -0.28753950351E+02 -0.23147821603E+02  0.41663575304E+02  0.00000000000E+00 0. -1.
         11    1    4    4    0    0  0.25646254016E+02  0.41081456599E+02 -0.10841911306E+03  0.11874392825E+03  0.00000000000E+00 0.  1.
         -2    1    1    2    0  502  0.35365430442E+02 -0.48345902581E+01 -0.52366878293E+02  0.63374891523E+02  0.00000000000E+00 0.  1.
<scales pt_clust_5="13000.00000" pt_clust_6="13000.00000" pt_clust_7="13000.00000" pt_clust_8="13000.00000" pt_clust_9="35.69435"></scales>
<clustering>
<clus scale="   35.694">  1  9  2 -1</clus>
<clus scale="   80.457">  5  6 -1 -1</clus>
<clus scale="   87.154">  2  5  1 -1</clus>
<clus scale="   90.712">  7  8 -1 -1</clus>
<clus scale="   35.694">  1  5  2 -1</clus>
</clustering>
</event>
<event>
 9    2  0.1751298E-004  0.1607711E+03  0.7546771E-02  0.1189237E+00
          2   -1    0    0  502    0 -0.00000000000E+00  0.00000000000E+00  0.60974300033E+03  0.60974300033E+03  0.00000000000E+00 0. -1.
         21   -1    0    0  501  502  0.00000000000E+00 -0.00000000000E+00 -0.11264839764E+03  0.11264839764E+03  0.00000000000E+00 0.  1.
         24    2    1    2    0    0  0.32131166835E+02 -0.12749394170E+03  0.42891549801E+03  0.45564961202E+03  0.79755548072E+02 0.  0.
         23    2    1    2    0    0  0.63282004294E+01  0.14674145882E+03  0.11224125452E+03  0.20517017810E+03  0.89014610656E+02 0.  0.
        -11    1    3    3    0    0  0.53942818111E+01 -0.50279158866E+02  0.63321508012E+02  0.81035211294E+02  0.00000000000E+00 0.  1.
         12    1    3    3    0    0  0.26736885024E+02 -0.77214782835E+02  0.36559399000E+03  0.37461440072E+03  0.00000000000E+00 0. -1.
        -13    1    4    4    0    0 -0.10493481440E+02  0.10936638670E+03  0.30972115416E+02  0.11415074080E+03  0.00000000000E+00 0.  1.
         13    1    4    4    0    0  0.16821681869E+02  0.37375072125E+02  0.81269139099E+02  0.91019437304E+02  0.00000000000E+00 0. -1.
          1    1    1    2  501    0 -0.38459367264E+02 -0.19247517120E+02 -0.44062149834E+02  0.61571607853E+02  0.00000000000E+00 0. -1.
<scales pt_clust_5="13000.00000" pt_clust_6="13000.00000" pt_clust_7="13000.00000" pt_clust_8="13000.00000" pt_clust_9="43.00686"></scales>
<clustering>
<clus scale="   43.007">  2  9  1 -1</clus>
<clus scale="   79.756">  5  6 -1 -1</clus>
<clus scale="   89.015">  7  8 -1 -1</clus>
<clus scale="  155.835">  1  5  2 -1</clus>
<clus scale="   43.007">  2  5  1 -1</clus>
</clustering>
</event>
<event>
 9    2  0.1751298E-004  0.1257412E+03  0.7546771E-02  0.1238132E+00
         21   -1    0    0  501  502  0.00000000000E+00  0.00000000000E+00  0.58074580513E+02  0.58074580513E+02  0.00000000000E+00 0.  1.
         -3   -1    0    0    0  501 -0.00000000000E+00 -0.00000000000E+00 -0.52465470506E+03  0.52465470506E+03  0.00000000000E+00 0.  1.
         23    2    1    2    0    0  0.66717868943E+02 -0.55897591190E+02 -0.18494749484E+03  0.22387985829E+03  0.91327982364E+02 0.  0.
         24    2    1    2    0    0 -0.35641886332E+02  0.84690256580E+02 -0.60961623186E+02  0.13414867652E+03  0.76398719162E+02 0.  0.
        -13    1    4    4    0    0  0.78320561608E+01  0.62533741485E+02 -0.10386363254E+02  0.63872423388E+02  0.00000000000E+00 0.  1.
         14    1    4    4    0    0 -0.43473942493E+02  0.22156515095E+02 -0.50575259932E+02  0.70276253131E+02  0.00000000000E+00 0. -1.
        -13    1    3    3    0    0  0.89076064895E+02 -0.48281936716E+02 -0.16111838490E+03  0.19032820259E+03  0.00000000000E+00 0.  1.
         13    1    3    3    0    0 -0.22358195952E+02 -0.76156544743E+01 -0.23829109945E+02  0.33551655698E+02  0.00000000000E+00 0. -1.
         -4    1    1    2    0  502 -0.31075982611E+02 -0.28792665390E+02 -0.22067100652E+03  0.22470075076E+03  0.00000000000E+00 0.  1.
<scales pt_clust_5="13000.00000" pt_clust_6="13000.00000" pt_clust_7="13000.00000" pt_clust_8="13000.00000" pt_clust_9="42.36433"></scales>
<clustering>
<clus scale="   42.364">  1  9  2 -1</clus>
<clus scale="   76.399">  5  6 -1 -1</clus>
<clus scale="   91.328">  7  8 -1 -1</clus>
<clus scale="  115.355">  1  5  2 -1</clus>
<clus scale="   42.364">  1  5  2 -1</clus>
</clustering>
</event>
<event>
 9    2  0.1751298E-004  0.9909960E+02  0.7546771E-02  0.1286152E+00
         -3   -1    0    0    0  501 -0.00000000000E+00  0.00000000000E+00  0.38440121151E+02  0.38440121151E+02  0.00000000000E+00 0.  1.
         21   -1    0    0  501  502  0.00000000000E+00 -0.00000000000E+00 -0.54723690371E+03  0.54723690371E+03  0.00000000000E+00 0.  1.
         24    2    1    2    0    0 -0.73857493494E+01 -0.43686040982E+02 -0.66522379782E+02  0.11645780642E+03  0.84700497012E+02 0.  0.
         23    2    1    2    0    0 -0.29944512479E+02  0.16665035779E+02 -0.20431928348E+03  0.22684281289E+03  0.92395318666E+02 0.  0.
        -13    1    3    3    0    0 -0.18721654327E+02 -0.66964106763E+02 -0.45375719176E+02  0.83027994231E+02  0.00000000000E+00 0.  1.
         14    1    3    3    0    0  0.11335904977E+02  0.23278065781E+02 -0.21146660606E+02  0.33429812188E+02  0.00000000000E+00 0. -1.
        -11    1    4    4    0    0  0.25556005757E+02 -0.24273499319E+01 -0.12808476638E+03  0.13063195947E+03  0.00000000000E+00 0.  1.
         11    1    4    4    0    0 -0.55500518237E+02  0.19092385711E+02 -0.76234517106E+02  0.96210853416E+02  0.00000000000E+00 0. -1.
         -4    1    1    2    0  502  0.37330261829E+02  0.27021005203E+02 -0.23795511929E+03  0.24237640555E+03  0.00000000000E+00 0.  1.
<scales pt_clust_5="13000.00000" pt_clust_6="13000.00000" pt_clust_7="13000.00000" pt_clust_8="13000.00000" pt_clust_9="46.08344"></scales>
<clustering>
<clus scale="   46.083">  2  9  1 -1</clus>
<clus scale="   84.700">  5  6 -1 -1</clus>
<clus scale="   91.967">  1  5  2 -1</clus>
<clus scale="   92.395">  7  8 -1 -1</clus>
<clus scale="   46.083">  2  5  1 -1</clus>
</clustering>
</event>
<event>
 9    2  0.1751298E-004  0.1073994E+03  0.7546771E-02  0.1271465E+00
         -3   -1    0    0    0  501 -0.00000000000E+00  0.00000000000E+00  0.52682052822E+02  0.52682052822E+02  0.00000000000E+00 0.  1.
         21   -1    0    0  501  502  0.00000000000E+00 -0.00000000000E+00 -0.39423684597E+03  0.39423684597E+03  0.00000000000E+00 0. -1.
         24    2    1    2    0    0  0.15061233119E+02 -0.18747643927E+02 -0.47148926027E+02  0.11501504768E+03  0.10211329527E+03 0.  0.
         23    2    1    2    0    0 -0.35290265929E+02  0.36025913727E+02 -0.13198574601E+03  0.16731938005E+03  0.89622923744E+02 0.  0.
        -13    1    3    3    0    0  0.36477622214E+02  0.30204973778E+02 -0.63424038845E+01  0.47782668933E+02  0.00000000000E+00 0.  1.
         14    1    3    3    0    0 -0.21416389095E+02 -0.48952617705E+02 -0.40806522143E+02  0.67232378743E+02  0.00000000000E+00 0. -1.
        -11    1    4    4    0    0  0.27976337346E+02 -0.35543594192E+01 -0.35230091607E+02  0.45127245394E+02  0.00000000000E+00 0.  1.
         11    1    4    4    0    0 -0.63266603275E+02  0.39580273146E+02 -0.96755654407E+02  0.12219213466E+03  0.00000000000E+00 0. -1.
         -4    1    1    2    0  502  0.20229032810E+02 -0.17278269800E+02 -0.16242012111E+03  0.16458447107E+03  0.00000000000E+00 0.  1.
<scales pt_clust_5="13000.00000" pt_clust_6="13000.00000" pt_clust_7="13000.00000" pt_clust_8="13000.00000" pt_clust_9="26.60362"></scales>
<clustering>
<clus scale="   26.604">  2  9  1 -1</clus>
<clus scale="   89.623">  7  8 -1 -1</clus>
<clus scale="   95.602">  2  7  1 -1</clus>
<clus scale="  102.113">  5  6 -1 -1</clus>
<clus scale="   26.604">  2  5  1 -1</clus>
</clustering>
</event>
<event>
 9    2  0.1751298E-004  0.1231253E+03  0.7546771E-02  0.1240645E+00
         21   -1    0    0  501  502  0.00000000000E+00  0.00000000000E+00  0.10409961625E+03  0.10409961625E+03  0.00000000000E+00 0.  1.
          2   -1    0    0  502    0 -0.00000000000E+00 -0.00000000000E+00 -0.50598155336E+03  0.50598155336E+03  0.00000000000E+00 0. -1.
         23    2    1    2    0    0 -0.16221555759E+01 -0.93617658985E+02 -0.85471723867E+02  0.15662347412E+03  0.91970645322E+02 0.  0.
         24    2    1    2    0    0 -0.10333153637E+03  0.23098337542E+02 -0.22976414564E+02  0.13393986132E+03  0.78746626704E+02 0.  0.
        -13    1    4    4    0    0 -0.11573968135E+03  0.20698190061E+02 -0.13931188515E+02  0.11839834004E+03  0.00000000000E+00 0.  1.
         14    1    4    4    0    0  0.12408144970E+02  0.24001474813E+01 -0.90452260490E+01  0.15541521284E+02  0.00000000000E+00 0. -1.
        -13    1    3    3    0    0  0.36558895831E+02 -0.92431439447E+01 -0.16553027980E+02  0.41182415053E+02  0.00000000000E+00 0. -1.
         13    1    3    3    0    0 -0.38181051406E+02 -0.84374515041E+02 -0.68918695887E+02  0.11544105906E+03  0.00000000000E+00 0.  1.
          1    1    1    2  501    0  0.10495369195E+03  0.70519321443E+02 -0.29343379868E+03  0.31951783418E+03  0.00000000000E+00 0. -1.
<scales pt_clust_5="13000.00000" pt_clust_6="13000.00000" pt_clust_7="13000.00000" pt_clust_8="13000.00000" pt_clust_9="126.44472"></scales>
<clustering>
<clus scale="   78.747">  5  6 -1 -1</clus>
<clus scale="   91.971">  7  8 -1 -1</clus>
<clus scale="  126.445">  1  9  2 -1</clus>
<clus scale="  126.445">  1  5  2 -1</clus>
<clus scale="  123.125">  1  5  2 -1</clus>
</clustering>
</event>
<event>
 9    2  0.1751298E-004  0.1205536E+03  0.7546771E-02  0.1245759E+00
          4   -1    0    0  502    0 -0.00000000000E+00  0.00000000000E+00  0.34272900129E+03  0.34272900129E+03  0.00000000000E+00 0. -1.
         21   -1    0    0  501  502  0.00000000000E+00 -0.00000000000E+00 -0.12103471541E+03  0.12103471541E+03  0.00000000000E+00 0.  1.
         23    2    1    2    0    0  0.77574506032E+02 -0.33550140370E+01  0.21218975080E+03  0.24376493107E+03  0.91475631578E+02 0.  0.
         24    2    1    2    0    0 -0.80833824769E+02  0.43683195606E+02 -0.62815721994E+02  0.13713018499E+03  0.80103332642E+02 0.  0.
        -11    1    4    4    0    0 -0.43394592486E+02  0.21332646666E+00 -0.66760388325E+02  0.79624654565E+02  0.00000000000E+00 0.  1.
         12    1    4    4    0    0 -0.37439232283E+02  0.43469869140E+02  0.39446663310E+01  0.57505530425E+02  0.00000000000E+00 0. -1.
        -13    1    3    3    0    0  0.36225778300E+02 -0.19020134613E+02  0.18166512681E+02  0.44767116471E+02  0.00000000000E+00 0.  1.
         13    1    3    3    0    0  0.41348727732E+02  0.15665120576E+02  0.19402323811E+03  0.19899781460E+03  0.00000000000E+00 0. -1.
          3    1    1    2  501    0  0.32593187369E+01 -0.40328181569E+02  0.72320257076E+02  0.82868600633E+02  0.00000000000E+00 0. -1.
<scales pt_clust_5="13000.00000" pt_clust_6="13000.00000" pt_clust_7="13000.00000" pt_clust_8="13000.00000" pt_clust_9="40.45970"></scales>
<clustering>
<clus scale="   40.460">  2  9  1 -1</clus>
<clus scale="   80.103">  5  6 -1 -1</clus>
<clus scale="   91.476">  7  8 -1 -1</clus>
<clus scale="  112.169">  2  5  1 -1</clus>
<clus scale="   40.460">  2  5  1 -1</clus>
</clustering>
</event>
<event>
 9    2  0.1751298E-004  0.2121401E+03  0.7546771E-02  0.1140788E+00
         21   -1    0    0  501  502  0.00000000000E+00  0.00000000000E+00  0.42916813050E+03  0.42916813050E+03  0.00000000000E+00 0. -1.
          2   -1    0    0  502    0 -0.00000000000E+00 -0.00000000000E+00 -0.12452931960E+03  0.12452931960E+03  0.00000000000E+00 0. -1.
         23    2    1    2    0    0  0.13815880766E+03 -0.14470857716E+03  0.85320335930E+02  0.23593445858E+03  0.91417069435E+02 0.  0.
         24    2    1    2    0    0 -0.10569087292E+03  0.14528662616E+03  0.19651064500E+03  0.27808052642E+03  0.80209608034E+02 0.  0.
        -11    1    4    4    0    0 -0.36143886318E+02  0.54243853763E+01  0.17559777087E+02  0.40548122598E+02  0.00000000000E+00 0.  1.
         12    1    4    4    0    0 -0.69546986597E+02  0.13986224078E+03  0.17895086791E+03  0.23753240383E+03  0.00000000000E+00 0. -1.
        -13    1    3    3    0    0  0.91054769622E+02 -0.12370975497E+03  0.98789440733E+02  0.18263194722E+03  0.00000000000E+00 0.  1.
         13    1    3    3    0    0  0.47104038040E+02 -0.20998822195E+02 -0.13469104804E+02  0.53302511362E+02  0.00000000000E+00 0. -1.
          1    1    1    2  501    0 -0.32467934747E+02 -0.57804899619E+00  0.22807829971E+02  0.39682465087E+02  0.00000000000E+00 0. -1.
<scales pt_clust_5="13000.00000" pt_clust_6="13000.00000" pt_clust_7="13000.00000" pt_clust_8="13000.00000" pt_clust_9="32.47308"></scales>
<clustering>
<clus scale="   32.473">  1  9  2 -1</clus>
<clus scale="   80.210">  5  6 -1 -1</clus>
<clus scale="   91.417">  7  8 -1 -1</clus>
<clus scale="  207.557">  1  5  2 -1</clus>
<clus scale="   32.473">  1  5  2 -1</clus>
</clustering>
</event>
<event>
 9    2  0.1751298E-004  0.1101256E+03  0.7546771E-02  0.1264603E+00
          2   -1    0    0  502    0 -0.00000000000E+00  0.00000000000E+00  0.10822541330E+03  0.10822541330E+03  0.00000000000E+00 0. -1.
         21   -1    0    0  501  502  0.00000000000E+00 -0.00000000000E+00 -0.16442717577E+03  0.16442717577E+03  0.00000000000E+00 0.  1.
         24    2    1    2    0    0  0.49849097513E+02  0.18991205157E+02  0.14338611452E+02  0.97869936302E+02  0.80791894749E+02 0.  0.
         23    2    1    2    0    0 -0.76326537194E+02 -0.29606194473E+02 -0.77703486405E+02  0.14537103958E+03  0.91611354741E+02 0.  0.
        -13    1    3    3    0    0  0.71510102287E+02  0.74047632315E+01  0.70019283417E+01  0.72232625926E+02  0.00000000000E+00 0.  1.
         14    1    3    3    0    0 -0.21661004773E+02  0.11586441926E+02  0.73366831101E+01  0.25637310377E+02  0.00000000000E+00 0. -1.
        -13    1    4    4    0    0 -0.45409733094E+02 -0.38131506143E+02 -0.92640581910E+02  0.10999242263E+03  0.00000000000E+00 0.  1.
         13    1    4    4    0    0 -0.30916804100E+02  0.85253116698E+01  0.14937095504E+02  0.35378616944E+02  0.00000000000E+00 0. -1.
          1    1    1    2  501    0  0.26477439680E+02  0.10614989316E+02  0.71631124821E+01  0.29411613193E+02  0.00000000000E+00 0. -1.
<scales pt_clust_5="13000.00000" pt_clust_6="13000.00000" pt_clust_7="13000.00000" pt_clust_8="13000.00000" pt_clust_9="28.52602"></scales>
<clustering>
<clus scale="   28.526">  2  9  1 -1</clus>
<clus scale="   80.792">  5  6 -1 -1</clus>
<clus scale="   91.611">  7  8 -1 -1</clus>
<clus scale="  101.303">  1  5  2 -1</clus>
<clus scale="   28.526">  2  5  1 -1</clus>
</clustering>
</event>
<event>
 9    2  0.1751298E-004  0.1774058E+03  0.7546771E-02  0.1197633E+00
         21   -1    0    0  501  502  0.00000000000E+00  0.00000000000E+00  0.37380137608E+03  0.37380137608E+03  0.00000000000E+00 0.  1.
         -3   -1    0    0    0  501 -0.00000000000E+00 -0.00000000000E+00 -0.13655782500E+03  0.13655782500E+03  0.00000000000E+00 0.  1.
         24    2    1    2    0    0 -0.44301468436E+02 -0.30963111420E+02 -0.57390750822E+01  0.96618767221E+02  0.79880628579E+02 0.  0.
         23    2    1    2    0    0  0.17010485655E+03  0.49642264821E+02  0.19161390257E+03  0.27657575547E+03  0.91532749213E+02 0.  0.
        -13    1    3    3    0    0 -0.48466655358E+02  0.60217259144E+01  0.18474729345E+02  0.52216793170E+02  0.00000000000E+00 0.  1.
         14    1    3    3    0    0  0.41651869227E+01 -0.36984837335E+02 -0.24213804427E+02  0.44401974051E+02  0.00000000000E+00 0. -1.
        -11    1    4    4    0    0  0.52304213544E+02  0.81552803403E+01  0.12338546968E+03  0.13426173498E+03  0.00000000000E+00 0. -1.
         11    1    4    4    0    0  0.11780064301E+03  0.41486984481E+02  0.68228432892E+02  0.14231402050E+03  0.00000000000E+00 0.  1.
         -4    1    1    2    0  502 -0.12580338812E+03 -0.18679153400E+02  0.51368723589E+02  0.13716467839E+03  0.00000000000E+00 0.  1.
<scales pt_clust_5="13000.00000" pt_clust_6="13000.00000" pt_clust_7="13000.00000" pt_clust_8="13000.00000" pt_clust_9="151.96908"></scales>
<clustering>
<clus scale="   79.881">  5  6 -1 -1</clus>
<clus scale="   91.533">  7  8 -1 -1</clus>
<clus scale="   96.448">  2  5  1 -1</clus>
<clus scale="  151.969">  1  9  2 -1</clus>
<clus scale="  151.969">  1  5  2 -1</clus>
</clustering>
</event>
<event>
 9    2  0.1751298E-004  0.1464795E+03  0.7546771E-02  0.1210539E+00
          2   -1    0    0  502    0 -0.00000000000E+00  0.00000000000E+00  0.11040282395E+04  0.11040282395E+04  0.00000000000E+00 0. -1.
         21   -1    0    0  501  502  0.00000000000E+00 -0.00000000000E+00 -0.22378035661E+03  0.22378035661E+03  0.00000000000E+00 0. -1.
         23    2    1    2    0    0  0.51057375915E+02  0.75116089751E+02 -0.16341842495E+03  0.20863819706E+03  0.92601474532E+02 0.  0.
         24    2    1    2    0    0  0.95283771434E+02 -0.77701815252E+02  0.13716661361E+03  0.20093071737E+03  0.80261473330E+02 0.  0.
        -13    1    4    4    0    0  0.41860003037E+01 -0.50136065815E+02  0.60714050441E+02  0.78850133893E+02  0.00000000000E+00 0.  1.
         14    1    4    4    0    0  0.91097771130E+02 -0.27565749438E+02  0.76452563172E+02  0.12208058348E+03  0.00000000000E+00 0. -1.
        -13    1    3    3    0    0  0.16700043699E+02 -0.17798717192E+02 -0.10803913936E+02  0.26691016270E+02  0.00000000000E+00 0.  1.
         13    1    3    3    0    0  0.34357332217E+02  0.92914806942E+02 -0.15261451101E+03  0.18194718079E+03  0.00000000000E+00 0. -1.
          1    1    1    2  501    0 -0.14634114735E+03  0.25857255019E+01  0.90649969418E+03  0.91823968164E+03  0.00000000000E+00 0. -1.
<scales pt_clust_5="13000.00000" pt_clust_6="13000.00000" pt_clust_7="13000.00000" pt_clust_8="13000.00000" pt_clust_9="122.53312"></scales>
<clustering>
<clus scale="   80.261">  5  6 -1 -1</clus>
<clus scale="   92.601">  7  8 -1 -1</clus>
<clus scale="  129.709">  1  7  2 -1</clus>
<clus scale="  122.533">  2  9  1 -1</clus>
<clus scale="  122.533">  2  5  1 -1</clus>
</clustering>
</event>
<event>
 9    2  0.1751298E-004  0.1604293E+03  0.7546771E-02  0.1189580E+00
          2   -1    0    0  502    0 -0.00000000000E+00  0.00000000000E+00  0.31347190500E+03  0.31347190500E+03  0.00000000000E+00 0. -1.
         21   -1    0    0  501  502  0.00000000000E+00 -0.00000000000E+00 -0.34812004308E+03  0.34812004308E+03  0.00000000000E+00 0. -1.
         23    2    1    2    0    0 -0.26796412250E+02  0.14144671166E+03  0.21786570529E+03  0.27555792064E+03  0.87985692812E+02 0.  0.
         24    2    1    2    0    0 -0.58421965352E+01 -0.11180992231E+03 -0.76138979160E+01  0.13719753223E+03  0.78927824123E+02 0.  0.
        -13    1    4    4    0    0  0.32367134422E+02 -0.63170253795E+02  0.12674303486E+02  0.72102360046E+02  0.00000000000E+00 0.  1.
         14    1    4    4    0    0 -0.38209330958E+02 -0.48639668518E+02 -0.20288201402E+02  0.65095172186E+02  0.00000000000E+00 0. -1.
        -13    1    3    3    0    0 -0.87217543583E+01  0.78258935071E+02  0.45170065424E+02  0.90779208677E+02  0.00000000000E+00 0.  1.
         13    1    3    3    0    0 -0.18074657892E+02  0.63187776591E+02  0.17269563986E+03  0.18477871197E+03  0.00000000000E+00 0. -1.
          1    1    1    2  501    0  0.32638608785E+02 -0.29636789348E+02 -0.24489994544E+03  0.24883649520E+03  0.00000000000E+00 0. -1.
<scales pt_clust_5="13000.00000" pt_clust_6="13000.00000" pt_clust_7="13000.00000" pt_clust_8="13000.00000" pt_clust_9="44.08648"></scales>
<clustering>
<clus scale="   44.086">  2  9  1 -1</clus>
<clus scale="   78.928">  5  6 -1 -1</clus>
<clus scale="   87.986">  7  8 -1 -1</clus>
<clus scale="  155.646">  2  5  1 -1</clus>
<clus scale="   44.086">  2  5  1 -1</clus>
</clustering>
</event>
<event>
 9    2  0.1751298E-004  0.1260416E+03  0.7546771E-02  0.1255959E+00
         21   -1    0    0  501  502  0.00000000000E+00  0.00000000000E+00  0.62700308619E+03  0.62700308619E+03  0.00000000000E+00 0. -1.
         -3   -1    0    0    0  501 -0.00000000000E+00 -0.00000000000E+00 -0.77556554336E+02  0.77556554336E+02  0.00000000000E+00 0.  1.
         24    2    1    2    0    0  0.41821088849E+01  0.20113375231E+01  0.19184970641E+03  0.20789007728E+03  0.79940220610E+02 0.  0.
         23    2    1    2    0    0 -0.71506955982E+02  0.50550263398E+02  0.38641870244E+03  0.40652491548E+03  0.90964385490E+02 0.  0.
        -11    1    3    3    0    0  0.33629292782E+01 -0.20992684568E+02  0.81738726109E+01  0.22777495301E+02  0.00000000000E+00 0.  1.
         12    1    3    3    0    0  0.81917960667E+00  0.23004022092E+02  0.18367583380E+03  0.18511258198E+03  0.00000000000E+00 0. -1.
        -11    1    4    4    0    0 -0.61722730436E+02 -0.12051383823E+02  0.19572877049E+03  0.20558376128E+03  0.00000000000E+00 0. -1.
         11    1    4    4    0    0 -0.97842255459E+01  0.62601647221E+02  0.19068993194E+03  0.20094115419E+03  0.00000000000E+00 0.  1.
         -4    1    1    2    0  502  0.67324847098E+02 -0.52561600921E+02 -0.28821876988E+02  0.90144647768E+02  0.00000000000E+00 0.  1.
<scales pt_clust_5="13000.00000" pt_clust_6="13000.00000" pt_clust_7="13000.00000" pt_clust_8="13000.00000" pt_clust_9="87.24655"></scales>
<clustering>
<clus scale="   79.940">  5  6 -1 -1</clus>
<clus scale="   80.075">  2  5  1 -1</clus>
<clus scale="   87.247">  1  9  2 -1</clus>
<clus scale="   90.964">  7  8 -1 -1</clus>
<clus scale="   87.247">  1  5  2 -1</clus>
</clustering>
</event>
<event>
 9    2  0.1751298E-004  0.1214724E+03  0.7546771E-02  0.1254873E+00
          4   -1    0    0  502    0 -0.00000000000E+00  0.00000000000E+00  0.92005707585E+03  0.92005707585E+03  0.00000000000E+00 0. -1.
         21   -1    0    0  501  502  0.00000000000E+00 -0.00000000000E+00 -0.39490543087E+02  0.39490543087E+02  0.00000000000E+00 0. -1.
         23    2    1    2    0    0 -0.24471315275E+02 -0.14051467649E+02  0.50498268516E+03  0.51318768239E+03  0.86935585562E+02 0.  0.
         24    2    1    2    0    0 -0.73368080978E+02  0.43981515977E+02  0.10805767804E+03  0.15993611307E+03  0.81153246550E+02 0.  0.
        -13    1    4    4    0    0  0.16639857768E+02  0.11323454563E+02  0.31324215589E+02  0.37233210606E+02  0.00000000000E+00 0.  1.
         14    1    4    4    0    0 -0.90007938746E+02  0.32658061414E+02  0.76733462448E+02  0.12270290246E+03  0.00000000000E+00 0. -1.
        -13    1    3    3    0    0 -0.53425601878E+02  0.91298675813E+01  0.28734551492E+03  0.29241254139E+03  0.00000000000E+00 0. -1.
         13    1    3    3    0    0  0.28954286602E+02 -0.23181335231E+02  0.21763717023E+03  0.22077514100E+03  0.00000000000E+00 0.  1.
          3    1    1    2  501    0  0.97839396254E+02 -0.29930048327E+02  0.26752616957E+03  0.28642382348E+03  0.00000000000E+00 0. -1.
<scales pt_clust_5="13000.00000" pt_clust_6="13000.00000" pt_clust_7="13000.00000" pt_clust_8="13000.00000" pt_clust_9="90.38636"></scales>
<clustering>
<clus scale="   81.153">  5  6 -1 -1</clus>
<clus scale="   86.936">  7  8 -1 -1</clus>
<clus scale="   91.401">  1  7  2 -1</clus>
<clus scale="   90.386">  2  9  1 -1</clus>
<clus scale="   90.386">  2  5  1 -1</clus>
</clustering>
</event>
<event>
 9    2  0.1751298E-004  0.2710065E+03  0.7546771E-02  0.1101645E+00
         21   -1    0    0  501  502  0.00000000000E+00  0.00000000000E+00  0.62176167722E+03  0.62176167722E+03  0.00000000000E+00 0.  1.
         -3   -1    0    0    0  501 -0.00000000000E+00 -0.00000000000E+00 -0.46968447883E+03  0.46968447883E+03  0.00000000000E+00 0.  1.
         23    2    1    2    0    0 -0.24990585131E+03  0.41764995112E+02 -0.38788573797E+03  0.47239429916E+03  0.92215935835E+02 0.  0.
         24    2    1    2    0    0  0.26918512223E+03 -0.47571403028E+02  0.49734316396E+03  0.57191535661E+03  0.70804547639E+02 0.  0.
        -13    1    4    4    0    0  0.23728607218E+03 -0.53946055761E+02  0.38943581444E+03  0.45921140072E+03  0.00000000000E+00 0.  1.
         14    1    4    4    0    0  0.31899050052E+02  0.63746527332E+01  0.10790734952E+03  0.11270395589E+03  0.00000000000E+00 0. -1.
        -11    1    3    3    0    0 -0.10854957467E+03  0.54568198882E+02 -0.12935139220E+03  0.17746121028E+03  0.00000000000E+00 0. -1.
         11    1    3    3    0    0 -0.14135627664E+03 -0.12803203770E+02 -0.25853434578E+03  0.29493308888E+03  0.00000000000E+00 0.  1.
         -4    1    1    2    0  502 -0.19279270918E+02  0.58064079155E+01  0.42619772398E+02  0.47136500287E+02  0.00000000000E+00 0.  1.
<scales pt_clust_5="13000.00000" pt_clust_6="13000.00000" pt_clust_7="13000.00000" pt_clust_8="13000.00000" pt_clust_9="20.13466"></scales>
<clustering>
<clus scale="   20.135">  1  9  2 -1</clus>
<clus scale="   70.805">  5  6 -1 -1</clus>
<clus scale="   92.216">  7  8 -1 -1</clus>
<clus scale="  264.488">  1  5  2 -1</clus>
<clus scale="   20.135">  1  5  2 -1</clus>
</clustering>
</event>
<event>
 9    2  0.1751298E-004  0.1396557E+03  0.7546771E-02  0.1215443E+00
         21   -1    0    0  501  502  0.00000000000E+00  0.00000000000E+00  0.91207735976E+02  0.91207735976E+02  0.00000000000E+00 0.  1.
         -1   -1    0    0    0  501 -0.00000000000E+00 -0.00000000000E+00 -0.36455612053E+03  0.36455612053E+03  0.00000000000E+00 0.  1.
         23    2    1    2    0    0  0.98727485325E+02 -0.21252123214E+01 -0.22733896143E+03  0.26402243584E+03  0.90957189695E+02 0.  0.
         24    2    1    2    0    0 -0.12707639725E+03  0.11382569276E+02 -0.52511069398E+02  0.16121879186E+03  0.83403314180E+02 0.  0.
        -13    1    4    4    0    0 -0.26497060979E+02 -0.58893563835E+01 -0.52573562641E+02  0.59167205849E+02  0.00000000000E+00 0.  1.
         14    1    4    4    0    0 -0.10057933627E+03  0.17271925659E+02  0.62493243600E-01  0.10205158601E+03  0.00000000000E+00 0. -1.
        -11    1    3    3    0    0  0.20219561377E+02 -0.97292460363E+01  0.98328963656E+00  0.22460092369E+02  0.00000000000E+00 0. -1.
         11    1    3    3    0    0  0.78507923948E+02  0.76040337148E+01 -0.22832225107E+03  0.24156234347E+03  0.00000000000E+00 0.  1.
         -2    1    1    2    0  502  0.28348911927E+02 -0.92573569543E+01  0.65016462742E+01  0.30522628810E+02  0.00000000000E+00 0.  1.
<scales pt_clust_5="13000.00000" pt_clust_6="13000.00000" pt_clust_7="13000.00000" pt_clust_8="13000.00000" pt_clust_9="29.82213"></scales>
<clustering>
<clus scale="   29.822">  1  9  2 -1</clus>
<clus scale="   83.403">  5  6 -1 -1</clus>
<clus scale="   90.957">  7  8 -1 -1</clus>
<clus scale="  134.858">  1  5  2 -1</clus>
<clus scale="   29.822">  1  5  2 -1</clus>
</clustering>
</event>
<event>
 9    2  0.1751298E-004  0.1648499E+03  0.7546771E-02  0.1202965E+00
         -1   -1    0    0    0  501 -0.00000000000E+00  0.00000000000E+00  0.77087825679E+02  0.77087825679E+02  0.00000000000E+00 0.  1.
         21   -1    0    0  501  502  0.00000000000E+00 -0.00000000000E+00 -0.63396312750E+03  0.63396312750E+03  0.00000000000E+00 0.  1.
         24    2    1    2    0    0  0.58317647350E+02 -0.37702436949E+02 -0.25998287824E+03  0.28116662057E+03  0.81493250029E+02 0.  0.
         23    2    1    2    0    0 -0.14531186466E+03  0.10074952219E+03 -0.22795984768E+03  0.30223391614E+03  0.90075766333E+02 0.  0.
        -13    1    3    3    0    0  0.65680208892E+02  0.29522278820E+01 -0.15825382689E+03  0.17136767261E+03  0.00000000000E+00 0.  1.
         14    1    3    3    0    0 -0.73625615426E+01 -0.40654664831E+02 -0.10172905135E+03  0.10979894796E+03  0.00000000000E+00 0. -1.
        -11    1    4    4    0    0 -0.75792533116E+02  0.16568423658E+02 -0.14733969414E+03  0.16651728501E+03  0.00000000000E+00 0. -1.
         11    1    4    4    0    0 -0.69519331542E+02  0.84181098536E+02 -0.80620153540E+02  0.13571663113E+03  0.00000000000E+00 0.  1.
         -2    1    1    2    0  502  0.86994217309E+02 -0.63047085244E+02 -0.68932575896E+02  0.12765041646E+03  0.00000000000E+00 0.  1.
<scales pt_clust_5="13000.00000" pt_clust_6="13000.00000" pt_clust_7="13000.00000" pt_clust_8="13000.00000" pt_clust_9="138.06462"></scales>
<clustering>
<clus scale="   81.493">  5  6 -1 -1</clus>
<clus scale="   90.076">  7  8 -1 -1</clus>
<clus scale="  107.068">  1  5  2 -1</clus>
<clus scale="  138.065">  2  9  1 -1</clus>
<clus scale="  138.065">  2  5  1 -1</clus>
</clustering>
</event>
<event>
 9    2  0.1751298E-004  0.1286611E+03  0.7546771E-02  0.1250493E+00
         21   -1    0    0  501  502  0.00000000000E+00  0.00000000000E+00  0.48378951520E+03  0.48378951520E+03  0.00000000000E+00 0.  1.
         -1   -1    0    0    0  501 -0.00000000000E+00 -0.00000000000E+00 -0.36278402643E+03  0.36278402643E+03  0.00000000000E+00 0.  1.
         24    2    1    2    0    0 -0.17970249325E+01 -0.11346834286E+02 -0.47309355377E+02  0.96337748669E+02  0.83131262263E+02 0.  0.
         23    2    1    2    0    0 -0.88749793456E+02  0.20620545867E+02 -0.27183302191E+03  0.30077514726E+03  0.90943744454E+02 0.  0.
        -11    1    3    3    0    0  0.23305306110E+02  0.24908473556E+02 -0.38375752304E+02  0.51344597697E+02  0.00000000000E+00 0.  1.
         12    1    3    3    0    0 -0.25102331042E+02 -0.36255307843E+02 -0.89336030732E+01  0.44993150972E+02  0.00000000000E+00 0. -1.
        -11    1    4    4    0    0 -0.49071367805E+02 -0.32190040978E+01 -0.37312272667E+02  0.61729788735E+02  0.00000000000E+00 0.  1.
         11    1    4    4    0    0 -0.39678425650E+02  0.23839549965E+02 -0.23452074924E+03  0.23904535852E+03  0.00000000000E+00 0. -1.
         -2    1    1    2    0  502  0.90546818388E+02 -0.92737115812E+01  0.44014786606E+03  0.44946064571E+03  0.00000000000E+00 0.  1.
<scales pt_clust_5="13000.00000" pt_clust_6="13000.00000" pt_clust_7="13000.00000" pt_clust_8="13000.00000" pt_clust_9="91.01056"></scales>
<clustering>
<clus scale="   83.131">  5  6 -1 -1</clus>
<clus scale="   83.921">  2  5  1 -1</clus>
<clus scale="   90.944">  7  8 -1 -1</clus>
<clus scale="   91.011">  1  9  2 -1</clus>
<clus scale="   91.011">  1  5  2 -1</clus>
</clustering>
</event>
<event>
 9    2  0.1751298E-004  0.1954125E+03  0.7546771E-02  0.1154706E+00
         21   -1    0    0  501  502  0.00000000000E+00  0.00000000000E+00  0.21942164014E+03  0.21942164014E+03  0.00000000000E+00 0. -1.
         -3   -1    0    0    0  501 -0.00000000000E+00 -0.00000000000E+00 -0.36604169096E+03  0.36604169096E+03  0.00000000000E+00 0.  1.
         23    2    1    2    0    0  0.13564978556E+03  0.10296596680E+03 -0.25502800390E+03  0.31967723807E+03  0.90285099167E+02 0.  0.
         24    2    1    2    0    0 -0.13688728421E+03 -0.12681538196E+03  0.59574654490E+02  0.21142602444E+03  0.79571066813E+02 0.  0.
        -13    1    4    4    0    0 -0.41841512316E+02 -0.39904932352E+02 -0.18634374776E+02  0.60748297937E+02  0.00000000000E+00 0.  1.
         14    1    4    4    0    0 -0.95045771891E+02 -0.86910449604E+02  0.78209029267E+02  0.15067772650E+03  0.00000000000E+00 0. -1.
        -11    1    3    3    0    0  0.54158946698E+02  0.43305607793E+02 -0.35216295726E+02  0.77773740160E+02  0.00000000000E+00 0. -1.
         11    1    3    3    0    0  0.81490838857E+02  0.59660359003E+02 -0.21981170817E+03  0.24190349791E+03  0.00000000000E+00 0.  1.
         -4    1    1    2    0  502  0.12374986514E+01  0.23849415159E+02  0.48833298589E+02  0.54360068593E+02  0.00000000000E+00 0.  1.
<scales pt_clust_5="13000.00000" pt_clust_6="13000.00000" pt_clust_7="13000.00000" pt_clust_8="13000.00000" pt_clust_9="23.88150"></scales>
<clustering>
<clus scale="   23.881">  1  9  2 -1</clus>
<clus scale="   79.571">  5  6 -1 -1</clus>
<clus scale="   90.285">  7  8 -1 -1</clus>
<clus scale="  190.699">  1  5  2 -1</clus>
<clus scale="   23.881">  1  5  2 -1</clus>
</clustering>
</event>
<event>
 9    2  0.1751298E-004  0.2141836E+03  0.7546771E-02  0.1161560E+00
         21   -1    0    0  501  502  0.00000000000E+00  0.00000000000E+00  0.21998413933E+03  0.21998413933E+03  0.00000000000E+00 0.  1.
          2   -1    0    0  502    0 -0.00000000000E+00 -0.00000000000E+00 -0.44751905543E+03  0.44751905543E+03  0.00000000000E+00 0. -1.
         23    2    1    2    0    0 -0.40421813892E+02  0.71785985228E+02  0.33436914760E+02  0.12785265613E+03  0.91875588153E+02 0.  0.
         24    2    1    2    0    0 -0.11914145899E+03  0.79585315815E+02 -0.27463701887E+03  0.31928618988E+03  0.77392952975E+02 0.  0.
        -13    1    4    4    0    0 -0.12269571518E+03  0.86610820456E+02 -0.27247023607E+03  0.31112007696E+03  0.00000000000E+00 0.  1.
         14    1    4    4    0    0  0.35542561897E+01 -0.70255046411E+01 -0.21667828015E+01  0.81661129207E+01  0.00000000000E+00 0. -1.
        -11    1    3    3    0    0 -0.55509742329E+02  0.17893374661E+02 -0.70945044111E+01  0.58752330533E+02  0.00000000000E+00 0. -1.
         11    1    3    3    0    0  0.15087928437E+02  0.53892610567E+02  0.40531419172E+02  0.69100325602E+02  0.00000000000E+00 0.  1.
          1    1    1    2  501    0  0.15956327288E+03 -0.15137130104E+03  0.13665188012E+02  0.22036434874E+03  0.00000000000E+00 0. -1.
<scales pt_clust_5="13000.00000" pt_clust_6="13000.00000" pt_clust_7="13000.00000" pt_clust_8="13000.00000" pt_clust_9="199.71218"></scales>
<clustering>
<clus scale="   77.393">  5  6 -1 -1</clus>
<clus scale="   91.876">  7  8 -1 -1</clus>
<clus scale="  123.403">  2  7  1 -1</clus>
<clus scale="  199.712">  1  9  2 -1</clus>
<clus scale="  199.712">  1  5  2 -1</clus>
</clustering>
</event>
<event>
 9    2  0.1751298E-004  0.1519612E+03  0.7546771E-02  0.1200489E+00
          2   -1    0    0  502    0 -0.00000000000E+00  0.00000000000E+00  0.50423774784E+03  0.50423774784E+03  0.00000000000E+00 0. -1.
         21   -1    0    0  501  502  0.00000000000E+00 -0.00000000000E+00 -0.10822909770E+03  0.10822909770E+03  0.00000000000E+00 0. -1.
         24    2    1    2    0    0  0.11268607316E+03  0.10255988795E+03  0.33944788114E+03  0.38075519490E+03  0.80826807015E+02 0.  0.
         23    2    1    2    0    0 -0.21240225620E+02 -0.67717930196E+02  0.63188562239E+02  0.13362886574E+03  0.93952190530E+02 0.  0.
        -13    1    3    3    0    0 -0.43588094210E+01  0.39053579716E+02  0.74866006562E+02  0.84552352106E+02  0.00000000000E+00 0.  1.
         14    1    3    3    0    0  0.11704488258E+03  0.63506308239E+02  0.26458187458E+03  0.29620284279E+03  0.00000000000E+00 0. -1.
        -13    1    4    4    0    0  0.15250925315E+02 -0.68249577277E+02  0.12299234932E+02  0.71006103268E+02  0.00000000000E+00 0. -1.
         13    1    4    4    0    0 -0.36491150936E+02  0.53164708084E+00  0.50889327307E+02  0.62622762467E+02  0.00000000000E+00 0.  1.
          1    1    1    2  501    0 -0.91445847539E+02 -0.34841957759E+02 -0.66277932390E+01  0.98082784910E+02  0.00000000000E+00 0. -1.
<scales pt_clust_5="13000.00000" pt_clust_6="13000.00000" pt_clust_7="13000.00000" pt_clust_8="13000.00000" pt_clust_9="97.85860"></scales>
<clustering>
<clus scale="   80.827">  5  6 -1 -1</clus>
<clus scale="   93.952">  7  8 -1 -1</clus>
<clus scale="   97.859">  2  9  1 -1</clus>
<clus scale="  144.216">  1  5  2 -1</clus>
<clus scale="   97.859">  2  5  1 -1</clus>
</clustering>
</event>
<event>
 9    2  0.1751298E-004  0.1129052E+03  0.7546771E-02  0.1255305E+00
         21   -1    0    0  501  502  0.00000000000E+00  0.00000000000E+00  0.60468722302E+02  0.60468722302E+02  0.00000000000E+00 0. -1.
         -3   -1    0    0    0  501 -0.00000000000E+00 -0.00000000000E+00 -0.44751848847E+03  0.44751848847E+03  0.00000000000E+00 0.  1.
         24    2    1    2    0    0 -0.54541580384E+02  0.33268036019E+02 -0.30014346736E+03  0.32015291470E+03  0.91270157126E+02 0.  0.
         23    2    1    2    0    0  0.73115295090E+02 -0.18381925370E+02 -0.10473323659E+03  0.15809578773E+03  0.91331734322E+02 0.  0.
        -13    1    3    3    0    0 -0.68495069959E+02 -0.51947782794E+01 -0.21464265623E+03  0.22536643539E+03  0.00000000000E+00 0.  1.
         14    1    3    3    0    0  0.13953489576E+02  0.38462814298E+02 -0.85500811129E+02  0.94786479304E+02  0.00000000000E+00 0. -1.
        -13    1    4    4    0    0  0.63984067229E+02 -0.46583333718E+02 -0.10085275055E+03  0.12820002002E+03  0.00000000000E+00 0.  1.
         13    1    4    4    0    0  0.91312278613E+01  0.28201408349E+02 -0.38804860438E+01  0.29895767711E+02  0.00000000000E+00 0. -1.
         -4    1    1    2    0  502 -0.18573714707E+02 -0.14886110649E+02  0.17826937778E+02  0.29738508348E+02  0.00000000000E+00 0.  1.
<scales pt_clust_5="13000.00000" pt_clust_6="13000.00000" pt_clust_7="13000.00000" pt_clust_8="13000.00000" pt_clust_9="23.80292"></scales>
<clustering>
<clus scale="   23.803">  1  9  2 -1</clus>
<clus scale="   91.270">  5  6 -1 -1</clus>
<clus scale="   91.332">  7  8 -1 -1</clus>
<clus scale="  112.855">  2  5  1 -1</clus>
<clus scale="   23.803">  1  5  2 -1</clus>
</clustering>
</event>
<event>
 9    2  0.1751298E-004  0.9626623E+02  0.7546771E-02  0.1294391E+00
         21   -1    0    0  501  502  0.00000000000E+00  0.00000000000E+00  0.27374935270E+03  0.27374935270E+03  0.00000000000E+00 0.  1.
         -3   -1    0    0    0  501 -0.00000000000E+00 -0.00000000000E+00 -0.61503361762E+02  0.61503361762E+02  0.00000000000E+00 0.  1.
         24    2    1    2    0    0  0.26351759624E+02  0.11272620560E+02  0.16354087039E+02  0.85902801948E+02  0.79311714205E+02 0.  0.
         23    2    1    2    0    0 -0.55803296666E+02  0.80573167754E+01  0.18319479654E+03  0.21190320309E+03  0.90353227545E+02 0.  0.
        -11    1    3    3    0    0  0.53644469270E+01 -0.33905512825E+02  0.38501138093E+01  0.34542502329E+02  0.00000000000E+00 0.  1.
         12    1    3    3    0    0  0.20987312697E+02  0.45178133386E+02  0.12503973230E+02  0.51360299619E+02  0.00000000000E+00 0. -1.
        -13    1    4    4    0    0 -0.71705581142E+02 -0.16966855060E+02  0.10499484974E+03  0.12827113085E+03  0.00000000000E+00 0.  1.
         13    1    4    4    0    0  0.15902284476E+02  0.25024171836E+02  0.78199946796E+02  0.83632072236E+02  0.00000000000E+00 0. -1.
         -4    1    1    2    0  502  0.29451537042E+02 -0.19329937336E+02  0.12697107360E+02  0.37446709426E+02  0.00000000000E+00 0.  1.
<scales pt_clust_5="13000.00000" pt_clust_6="13000.00000" pt_clust_7="13000.00000" pt_clust_8="13000.00000" pt_clust_9="35.22841"></scales>
<clustering>
<clus scale="   35.228">  1  9  2 -1</clus>
<clus scale="   79.312">  5  6 -1 -1</clus>
<clus scale="   85.987">  2  5  1 -1</clus>
<clus scale="   90.353">  7  8 -1 -1</clus>
<clus scale="   35.228">  1  5  2 -1</clus>
</clustering>
</event>
<event>
 9    2  0.1751298E-004  0.9332016E+02  0.7546771E-02  0.1303904E+00
          2   -1    0    0  502    0 -0.00000000000E+00  0.00000000000E+00  0.19167753295E+03  0.19167753295E+03  0.00000000000E+00 0. -1.
         21   -1    0    0  501  502  0.00000000000E+00 -0.00000000000E+00 -0.87328274579E+02  0.87328274579E+02  0.00000000000E+00 0.  1.
         24    2    1    2    0    0 -0.12234421974E+02  0.13202957630E+02  0.13358644383E+03  0.15537851089E+03  0.77286121015E+02 0.  0.
         23    2    1    2    0    0  0.23133422502E+02  0.58732318945E+01 -0.11639064291E+02  0.95477996677E+02  0.91711122238E+02 0.  0.
        -11    1    3    3    0    0 -0.41620062931E+02  0.20757444519E+01  0.10473274457E+03  0.11271861488E+03  0.00000000000E+00 0.  1.
         12    1    3    3    0    0  0.29385640957E+02  0.11127213178E+02  0.28853699253E+02  0.42659896017E+02  0.00000000000E+00 0. -1.
        -11    1    4    4    0    0 -0.23235488022E+02 -0.28062521674E+02  0.17600712009E+01  0.36475894464E+02  0.00000000000E+00 0. -1.
         11    1    4    4    0    0  0.46368910525E+02  0.33935753569E+02 -0.13399135492E+02  0.59002102212E+02  0.00000000000E+00 0.  1.
          1    1    1    2  501    0 -0.10899000529E+02 -0.19076189524E+02 -0.17598121170E+02  0.28149299956E+02  0.00000000000E+00 0. -1.
<scales pt_clust_5="13000.00000" pt_clust_6="13000.00000" pt_clust_7="13000.00000" pt_clust_8="13000.00000" pt_clust_9="21.97019"></scales>
<clustering>
<clus scale="   21.970">  2  9  1 -1</clus>
<clus scale="   77.286">  5  6 -1 -1</clus>
<clus scale="   79.189">  1  5  2 -1</clus>
<clus scale="   91.711">  7  8 -1 -1</clus>
<clus scale="   21.970">  2  5  1 -1</clus>
</clustering>
</event>
<event>
 9    2  0.4021608E-004  0.9097525E+02  0.7546771E-02  0.1306381E+00
          2   -1    0    0  502    0 -0.00000000000E+00  0.00000000000E+00  0.11967423140E+04  0.11967423140E+04  0.00000000000E+00 0. -1.
         21   -1    0    0  501  502  0.00000000000E+00 -0.00000000000E+00 -0.77847355898E+02  0.77847355898E+02  0.00000000000E+00 0. -1.
         24    2    1    2    0    0  0.88579103627E+01  0.12165457499E+01  0.11202963422E+04  0.11232684742E+04  0.81167901019E+02 0.  0.
         23    2    1    2    0    0 -0.64352880410E+01 -0.46670431186E+02  0.14589769151E+02  0.10307555563E+03  0.90510589025E+02 0.  0.
        -13    1    3    3    0    0 -0.24336220127E+02  0.77468449482E+01  0.13518104576E+03  0.13757245491E+03  0.00000000000E+00 0.  1.
         14    1    3    3    0    0  0.33194130490E+02 -0.65302991983E+01  0.98511529644E+03  0.98569601926E+03  0.00000000000E+00 0. -1.
        -13    1    4    4    0    0 -0.44120256979E+02 -0.15648299959E+02 -0.10819046716E+02  0.48047040901E+02  0.00000000000E+00 0.  1.
         13    1    4    4    0    0  0.37684968938E+02 -0.31022131228E+02  0.25408815866E+02  0.55028514731E+02  0.00000000000E+00 0. -1.
          1    1    1    2  501    0 -0.24226223217E+01  0.45453885437E+02 -0.15991153295E+02  0.48245640051E+02  0.00000000000E+00 0. -1.
<scales pt_clust_5="13000.00000" pt_clust_6="13000.00000" pt_clust_7="13000.00000" pt_clust_8="13000.00000" pt_clust_9="45.51840"></scales>
<clustering>
<clus scale="   45.518">  2  9  1 -1</clus>
<clus scale="   81.168">  5  6 -1 -1</clus>
<clus scale="   81.686">  1  5  2 -1</clus>
<clus scale="   90.511">  7  8 -1 -1</clus>
<clus scale="   45.518">  2  5  1 -1</clus>
</clustering>
</event>
<event>
 9    2  0.1751298E-004  0.3062457E+03  0.7546771E-02  0.1106891E+00
         21   -1    0    0  501  502  0.00000000000E+00  0.00000000000E+00  0.15854779481E+03  0.15854779481E+03  0.00000000000E+00 0. -1.
          2   -1    0    0  502    0 -0.00000000000E+00 -0.00000000000E+00 -0.10048021279E+04  0.10048021279E+04  0.00000000000E+00 0. -1.
         23    2    1    2    0    0 -0.13092740950E+03  0.13078535194E+02 -0.27758040349E+03  0.32045930289E+03  0.91270201956E+02 0.  0.
         24    2    1    2    0    0  0.82761475504E+02  0.28823995180E+03 -0.22802191063E+03  0.38555421648E+03  0.82014209005E+02 0.  0.
        -11    1    4    4    0    0  0.10965964606E+02  0.16548321805E+03 -0.96667369282E+02  0.19196230912E+03  0.00000000000E+00 0.  1.
         12    1    4    4    0    0  0.71795510898E+02  0.12275673375E+03 -0.13135454135E+03  0.19359190737E+03  0.00000000000E+00 0. -1.
        -11    1    3    3    0    0 -0.56620826800E+02 -0.39178198647E+02 -0.10803376909E+03  0.12810989244E+03  0.00000000000E+00 0.  1.
         11    1    3    3    0    0 -0.74306582703E+02  0.52256733841E+02 -0.16954663440E+03  0.19234941045E+03  0.00000000000E+00 0. -1.
          1    1    1    2  501    0  0.48165933999E+02 -0.30131848699E+03 -0.34065201901E+03  0.45733640339E+03  0.00000000000E+00 0. -1.
<scales pt_clust_5="13000.00000" pt_clust_6="13000.00000" pt_clust_7="13000.00000" pt_clust_8="13000.00000" pt_clust_9="295.05960"></scales>
<clustering>
<clus scale="   82.014">  5  6 -1 -1</clus>
<clus scale="   91.270">  7  8 -1 -1</clus>
<clus scale="  160.135">  2  7  1 -1</clus>
<clus scale="  295.060">  1  9  2 -1</clus>
<clus scale="  295.060">  1  5  2 -1</clus>
</clustering>
</event>
<event>
 9    2  0.1751298E-004  0.1562960E+03  0.7546771E-02  0.1221504E+00
         21   -1    0    0  501  502  0.00000000000E+00  0.00000000000E+00  0.13270133972E+03  0.13270133972E+03  0.00000000000E+00 0.  1.
          2   -1    0    0  502    0 -0.00000000000E+00 -0.00000000000E+00 -0.44833005985E+03  0.44833005985E+03  0.00000000000E+00 0. -1.
         24    2    1    2    0    0  0.16589815600E+02  0.18642697634E+02  0.34721662685E+02  0.91525384169E+02  0.80922987655E+02 0.  0.
         23    2    1    2    0    0 -0.13684780955E+03  0.14246919772E+02 -0.32164340085E+03  0.36156930115E+03  0.91365116545E+02 0.  0.
        -11    1    3    3    0    0  0.23120513391E+02 -0.81986032455E+01  0.52999647645E+02  0.58401522970E+02  0.00000000000E+00 0.  1.
         12    1    3    3    0    0 -0.65306977910E+01  0.26841300880E+02 -0.18277984960E+02  0.33123861199E+02  0.00000000000E+00 0. -1.
        -11    1    4    4    0    0 -0.54129790455E+02  0.48064927301E+02 -0.10829987693E+03  0.13026563167E+03  0.00000000000E+00 0.  1.
         11    1    4    4    0    0 -0.82718019091E+02 -0.33818007529E+02 -0.21334352392E+03  0.23130366948E+03  0.00000000000E+00 0. -1.
          1    1    1    2  501    0  0.12025799395E+03 -0.32889617406E+02 -0.28706981970E+02  0.12793671426E+03  0.00000000000E+00 0. -1.
<scales pt_clust_5="13000.00000" pt_clust_6="13000.00000" pt_clust_7="13000.00000" pt_clust_8="13000.00000" pt_clust_9="126.81034"></scales>
<clustering>
<clus scale="   80.923">  5  6 -1 -1</clus>
<clus scale="   84.684">  2  5  1 -1</clus>
<clus scale="   91.365">  7  8 -1 -1</clus>
<clus scale="  126.810">  1  9  2 -1</clus>
<clus scale="  126.810">  1  5  2 -1</clus>
</clustering>
</event>
<event>
 9    2  0.1891157E-004  0.1061746E+03  0.7546771E-02  0.1271888E+00
         21   -1    0    0  501  502  0.00000000000E+00  0.00000000000E+00  0.51583940381E+03  0.51583940381E+03  0.00000000000E+00 0.  1.
         -1   -1    0    0    0  501 -0.00000000000E+00 -0.00000000000E+00 -0.13611529240E+03  0.13611529240E+03  0.00000000000E+00 0.  1.
         24    2    1    2    0    0 -0.32706276942E+02  0.48125859578E+02 -0.10785239248E+03  0.14637938457E+03  0.80056147499E+02 0.  0.
         23    2    1    2    0    0  0.18145411313E+00 -0.33096418321E+02  0.39222058169E+03  0.40371020424E+03  0.89719220226E+02 0.  0.
        -13    1    3    3    0    0 -0.44633227093E+02  0.63163594856E+02 -0.97883475146E+02  0.12475151054E+03  0.00000000000E+00 0.  1.
         14    1    3    3    0    0  0.11926950151E+02 -0.15037735279E+02 -0.99689173349E+01  0.21627874030E+02  0.00000000000E+00 0. -1.
        -11    1    4    4    0    0  0.26146545570E+02  0.18749479694E+02  0.81412203952E+02  0.87539315661E+02  0.00000000000E+00 0. -1.
         11    1    4    4    0    0 -0.25965091456E+02 -0.51845898015E+02  0.31080837774E+03  0.31617088858E+03  0.00000000000E+00 0.  1.
         -2    1    1    2    0  502  0.32524822828E+02 -0.15029441257E+02  0.95355922201E+02  0.10186510739E+03  0.00000000000E+00 0.  1.
<scales pt_clust_5="13000.00000" pt_clust_6="13000.00000" pt_clust_7="13000.00000" pt_clust_8="13000.00000" pt_clust_9="35.82943"></scales>
<clustering>
<clus scale="   35.829">  1  9  2 -1</clus>
<clus scale="   80.056">  5  6 -1 -1</clus>
<clus scale="   89.719">  7  8 -1 -1</clus>
<clus scale="   98.145">  2  5  1 -1</clus>
<clus scale="   35.829">  1  5  2 -1</clus>
</clustering>
</event>
<event>
 9    2  0.1751298E-004  0.1129055E+03  0.7546771E-02  0.1261173E+00
         21   -1    0    0  501  502  0.00000000000E+00  0.00000000000E+00  0.70704228459E+02  0.70704228459E+02  0.00000000000E+00 0. -1.
         -1   -1    0    0    0  501 -0.00000000000E+00 -0.00000000000E+00 -0.59249617400E+03  0.59249617400E+03  0.00000000000E+00 0.  1.
         24    2    1    2    0    0  0.17840197065E+02 -0.63965381567E+02 -0.43827011608E+03  0.45037994792E+03  0.79696676065E+02 0.  0.
         23    2    1    2    0    0  0.49190837105E+02  0.31973239218E+02 -0.16404963087E+02  0.11271385902E+03  0.94832825117E+02 0.  0.
        -11    1    3    3    0    0  0.32865056938E+02 -0.74203109792E+02 -0.39808626555E+03  0.40627440024E+03  0.00000000000E+00 0.  1.
         12    1    3    3    0    0 -0.15024859873E+02  0.10237728225E+02 -0.40183850524E+02  0.44105547682E+02  0.00000000000E+00 0. -1.
        -13    1    4    4    0    0  0.18833534398E+02  0.64095849567E+02 -0.15132344690E+02  0.68497940155E+02  0.00000000000E+00 0.  1.
         13    1    4    4    0    0  0.30357302707E+02 -0.32122610350E+02 -0.12726183977E+01  0.44215918863E+02  0.00000000000E+00 0. -1.
         -2    1    1    2    0  502 -0.67031034170E+02  0.31992142349E+02 -0.67116866381E+02  0.10010659552E+03  0.00000000000E+00 0.  1.
<scales pt_clust_5="13000.00000" pt_clust_6="13000.00000" pt_clust_7="13000.00000" pt_clust_8="13000.00000" pt_clust_9="74.27420"></scales>
<clustering>
<clus scale="   74.274">  1  9  2 -1</clus>
<clus scale="   79.697">  5  6 -1 -1</clus>
<clus scale="   94.833">  7  8 -1 -1</clus>
<clus scale="  100.528">  2  5  1 -1</clus>
<clus scale="   74.274">  1  5  2 -1</clus>
</clustering>
</event>
<event>
 9    2  0.1751298E-004  0.9781828E+02  0.7546771E-02  0.1289238E+00
         21   -1    0    0  501  502  0.00000000000E+00  0.00000000000E+00  0.47539596905E+02  0.47539596905E+02  0.00000000000E+00 0. -1.
          2   -1    0    0  502    0 -0.00000000000E+00 -0.00000000000E+00 -0.58360854057E+03  0.58360854057E+03  0.00000000000E+00 0. -1.
         24    2    1    2    0    0 -0.28097054482E+02 -0.15671451678E+02 -0.40248233293E+03  0.41205052682E+03  0.82210519194E+02 0.  0.
         23    2    1    2    0    0  0.69503499986E+02 -0.91134860757E+01 -0.12605293205E+03  0.17025558793E+03  0.90464531194E+02 0.  0.
        -13    1    3    3    0    0 -0.82345820714E+01  0.33896020243E+02 -0.15971122650E+03  0.16347606675E+03  0.00000000000E+00 0.  1.
         14    1    3    3    0    0 -0.19862472411E+02 -0.49567471921E+02 -0.24277110643E+03  0.24857446007E+03  0.00000000000E+00 0. -1.
        -13    1    4    4    0    0 -0.17170287663E+02 -0.20442551822E+02 -0.24154696671E+02  0.36002306519E+02  0.00000000000E+00 0.  1.
         13    1    4    4    0    0  0.86673787650E+02  0.11329065746E+02 -0.10189823538E+03  0.13425328141E+03  0.00000000000E+00 0. -1.
          1    1    1    2  501    0 -0.41406445504E+02  0.24784937754E+02 -0.75336786794E+01  0.48842022718E+02  0.00000000000E+00 0. -1.
<scales pt_clust_5="13000.00000" pt_clust_6="13000.00000" pt_clust_7="13000.00000" pt_clust_8="13000.00000" pt_clust_9="48.25751"></scales>
<clustering>
<clus scale="   48.258">  1  9  2 -1</clus>
<clus scale="   82.211">  5  6 -1 -1</clus>
<clus scale="   90.239">  2  5  1 -1</clus>
<clus scale="   90.465">  7  8 -1 -1</clus>
<clus scale="   48.258">  1  5  2 -1</clus>
</clustering>
</event>
<event>
 9    2  0.1751298E-004  0.2217956E+03  0.7546771E-02  0.1144482E+00
          2   -1    0    0  502    0 -0.00000000000E+00  0.00000000000E+00  0.45327744366E+03  0.45327744366E+03  0.00000000000E+00 0. -1.
         21   -1    0    0  501  502  0.00000000000E+00 -0.00000000000E+00 -0.22497995761E+03  0.22497995761E+03  0.00000000000E+00 0. -1.
         23    2    1    2    0    0 -0.10940925359E+03 -0.87083898199E+02  0.89486453718E+02  0.18876333954E+03  0.89831970130E+02 0.  0.
         24    2    1    2    0    0 -0.12580269544E+03  0.11887306392E+03  0.16353558909E+03  0.25085937077E+03  0.78926620978E+02 0.  0.
        -11    1    4    4    0    0 -0.90968269577E+02  0.31669983743E+02  0.82425956629E+02  0.12677638686E+03  0.00000000000E+00 0.  1.
         12    1    4    4    0    0 -0.34834425864E+02  0.87203080173E+02  0.81109632463E+02  0.12408298391E+03  0.00000000000E+00 0. -1.
        -11    1    3    3    0    0 -0.67417099156E+02 -0.20840681735E+02  0.10700619385E+01  0.70572971500E+02  0.00000000000E+00 0.  1.
         11    1    3    3    0    0 -0.41992154437E+02 -0.66243216464E+02  0.88416391779E+02  0.11819036804E+03  0.00000000000E+00 0. -1.
          1    1    1    2  501    0  0.23521194903E+03 -0.31789165717E+02 -0.24724556761E+02  0.23863469096E+03  0.00000000000E+00 0. -1.
<scales pt_clust_5="13000.00000" pt_clust_6="13000.00000" pt_clust_7="13000.00000" pt_clust_8="13000.00000" pt_clust_9="207.27729"></scales>
<clustering>
<clus scale="   78.927">  5  6 -1 -1</clus>
<clus scale="   89.832">  7  8 -1 -1</clus>
<clus scale="  166.204">  1  7  2 -1</clus>
<clus scale="  207.277">  2  9  1 -1</clus>
<clus scale="  207.277">  2  5  1 -1</clus>
</clustering>
</event>
<event>
 9    2  0.1751298E-004  0.1303056E+03  0.7546771E-02  0.1243191E+00
         -1   -1    0    0    0  501 -0.00000000000E+00  0.00000000000E+00  0.18772658186E+03  0.18772658186E+03  0.00000000000E+00 0.  1.
         21   -1    0    0  501  502  0.00000000000E+00 -0.00000000000E+00 -0.26062156836E+03  0.26062156836E+03  0.00000000000E+00 0.  1.
         23    2    1    2    0    0 -0.80795138346E+01  0.18438674171E+02 -0.16006630134E+02  0.94901932949E+02  0.91350431965E+02 0.  0.
         24    2    1    2    0    0 -0.13899219623E+02  0.82789253133E+02  0.10763556457E+03  0.15902842347E+03  0.81592744584E+02 0.  0.
        -13    1    4    4    0    0 -0.14274099812E+02  0.18244623884E+02  0.88827358525E+02  0.91798234452E+02  0.00000000000E+00 0.  1.
         14    1    4    4    0    0  0.37488018869E+00  0.64544629249E+02  0.18808206047E+02  0.67230189014E+02  0.00000000000E+00 0. -1.
        -11    1    3    3    0    0 -0.23908578768E+02  0.37656998564E+02 -0.40300951186E+02  0.60115192307E+02  0.00000000000E+00 0.  1.
         11    1    3    3    0    0  0.15829064934E+02 -0.19218324392E+02  0.24294321052E+02  0.34786740642E+02  0.00000000000E+00 0. -1.
         -2    1    1    2    0  502  0.21978733458E+02 -0.10122792730E+03 -0.16452392093E+03  0.19441779381E+03  0.00000000000E+00 0.  1.
<scales pt_clust_5="13000.00000" pt_clust_6="13000.00000" pt_clust_7="13000.00000" pt_clust_8="13000.00000" pt_clust_9="101.59811"></scales>
<clustering>
<clus scale="   81.593">  5  6 -1 -1</clus>
<clus scale="   91.350">  7  8 -1 -1</clus>
<clus scale="   93.542">  1  7  2 -1</clus>
<clus scale="  101.598">  2  9  1 -1</clus>
<clus scale="  101.598">  2  5  1 -1</clus>
</clustering>
</event>
<event>
 9    2  0.1751298E-004  0.1816423E+03  0.7546771E-02  0.1167572E+00
         21   -1    0    0  501  502  0.00000000000E+00  0.00000000000E+00  0.49119511957E+03  0.49119511957E+03  0.00000000000E+00 0.  1.
         -3   -1    0    0    0  501 -0.00000000000E+00 -0.00000000000E+00 -0.48125374953E+03  0.48125374953E+03  0.00000000000E+00 0.  1.
         23    2    1    2    0    0 -0.10849743700E+03  0.10568540451E+03 -0.28840122939E+03  0.33837280225E+03  0.91541169028E+02 0.  0.
         24    2    1    2    0    0  0.16075846095E+03 -0.72302753315E+02 -0.10893194045E+03  0.22210741893E+03  0.79966036479E+02 0.  0.
        -13    1    4    4    0    0  0.62234993196E+02 -0.16517653155E+02 -0.84575326537E+02  0.10629681605E+03  0.00000000000E+00 0.  1.
         14    1    4    4    0    0  0.98523467757E+02 -0.55785100160E+02 -0.24356613916E+02  0.11581060288E+03  0.00000000000E+00 0. -1.
        -13    1    3    3    0    0  0.16413407439E+02  0.12125781048E+02 -0.25773543668E+02  0.32874154939E+02  0.00000000000E+00 0. -1.
         13    1    3    3    0    0 -0.12491084444E+03  0.93559623462E+02 -0.26262768572E+03  0.30549864731E+03  0.00000000000E+00 0.  1.
         -4    1    1    2    0  502 -0.52261023950E+02 -0.33382651194E+02  0.40727453988E+03  0.41196864791E+03  0.00000000000E+00 0.  1.
<scales pt_clust_5="13000.00000" pt_clust_6="13000.00000" pt_clust_7="13000.00000" pt_clust_8="13000.00000" pt_clust_9="62.01303"></scales>
<clustering>
<clus scale="   62.013">  1  9  2 -1</clus>
<clus scale="   79.966">  5  6 -1 -1</clus>
<clus scale="   91.541">  7  8 -1 -1</clus>
<clus scale="  176.093">  1  5  2 -1</clus>
<clus scale="   62.013">  1  5  2 -1</clus>
</clustering>
</event>
<event>
 9    2  0.1751298E-004  0.1568544E+03  0.7546771E-02  0.1202022E+00
          2   -1    0    0  502    0 -0.00000000000E+00  0.00000000000E+00  0.45766827229E+02  0.45766827229E+02  0.00000000000E+00 0. -1.
         21   -1    0    0  501  502  0.00000000000E+00 -0.00000000000E+00 -0.58066001052E+03  0.58066001052E+03  0.00000000000E+00 0. -1.
         23    2    1    2    0    0 -0.11603283675E+03  0.10049760419E+02 -0.21732280403E+03  0.27461822863E+03  0.12091878867E+03 0.  0.
         24    2    1    2    0    0  0.80178914532E+02 -0.17248200199E+02 -0.25991210468E+03  0.28353124904E+03  0.78163343554E+02 0.  0.
        -11    1    4    4    0    0  0.21166645504E+02 -0.55092626441E+01 -0.61308556477E+01  0.22714890441E+02  0.00000000000E+00 0.  1.
         12    1    4    4    0    0  0.59012269028E+02 -0.11738937555E+02 -0.25378124903E+03  0.26081635860E+03  0.00000000000E+00 0. -1.
        -11    1    3    3    0    0 -0.13588648089E+03  0.14185737060E+01 -0.21281970072E+03  0.25250618419E+03  0.00000000000E+00 0. -1.
         11    1    3    3    0    0  0.19853644142E+02  0.86311867129E+01 -0.45031033173E+01  0.22112044439E+02  0.00000000000E+00 0.  1.
          1    1    1    2  501    0  0.35853922213E+02  0.71984397799E+01 -0.57658274581E+02  0.68277360091E+02  0.00000000000E+00 0. -1.
<scales pt_clust_5="13000.00000" pt_clust_6="13000.00000" pt_clust_7="13000.00000" pt_clust_8="13000.00000" pt_clust_9="36.56942"></scales>
<clustering>
<clus scale="   36.569">  2  9  1 -1</clus>
<clus scale="   78.163">  5  6 -1 -1</clus>
<clus scale="  120.919">  7  8 -1 -1</clus>
<clus scale="  126.852">  2  5  1 -1</clus>
<clus scale="   36.569">  2  5  1 -1</clus>
</clustering>
</event>
<event>
 9    2  0.1751298E-004  0.1099476E+03  0.7546771E-02  0.1265848E+00
          2   -1    0    0  502    0 -0.00000000000E+00  0.00000000000E+00  0.34566592203E+03  0.34566592203E+03  0.00000000000E+00 0. -1.
         21   -1    0    0  501  502  0.00000000000E+00 -0.00000000000E+00 -0.76027470452E+02  0.76027470452E+02  0.00000000000E+00 0. -1.
         24    2    1    2    0    0  0.35179040719E+02 -0.14850593710E+01  0.11120457031E+03  0.14107704341E+03  0.79350522442E+02 0.  0.
         23    2    1    2    0    0 -0.11087824997E+03  0.22963450371E+02  0.13401090741E+03  0.19822597820E+03  0.92267593223E+02 0.  0.
        -13    1    3    3    0    0  0.32553751784E+02 -0.33503060801E+02  0.93196246283E+02  0.10424846358E+03  0.00000000000E+00 0.  1.
         14    1    3    3    0    0  0.26252889351E+01  0.32018001430E+02  0.18008324024E+02  0.36828579823E+02  0.00000000000E+00 0. -1.
        -13    1    4    4    0    0 -0.42086510408E+02 -0.31607588765E+02  0.77921473289E+02  0.94032281826E+02  0.00000000000E+00 0.  1.
         13    1    4    4    0    0 -0.68791739559E+02  0.54571039136E+02  0.56089434125E+02  0.10419369638E+03  0.00000000000E+00 0. -1.
          1    1    1    2  501    0  0.75699209248E+02 -0.21478391000E+02  0.24422973857E+02  0.82390370874E+02  0.00000000000E+00 0. -1.
<scales pt_clust_5="13000.00000" pt_clust_6="13000.00000" pt_clust_7="13000.00000" pt_clust_8="13000.00000" pt_clust_9="78.68730"></scales>
<clustering>
<clus scale="   78.687">  2  9  1 -1</clus>
<clus scale="   79.351">  5  6 -1 -1</clus>
<clus scale="   92.268">  7  8 -1 -1</clus>
<clus scale="   99.356">  1  5  2 -1</clus>
<clus scale="   78.687">  2  5  1 -1</clus>
</clustering>
</event>
<event>
 9    2  0.1751298E-004  0.1072554E+03  0.7546771E-02  0.1268765E+00
         21   -1    0    0  501  502  0.00000000000E+00  0.00000000000E+00  0.29290876452E+03  0.29290876452E+03  0.00000000000E+00 0.  1.
          2   -1    0    0  502    0 -0.00000000000E+00 -0.00000000000E+00 -0.15301557089E+03  0.15301557089E+03  0.00000000000E+00 0. -1.
         24    2    1    2    0    0  0.61450447292E+02 -0.24268618474E+02 -0.11837514188E+03  0.15703781754E+03  0.79265872905E+02 0.  0.
         23    2    1    2    0    0 -0.25744853151E+02  0.20462257810E+02  0.17364183503E+03  0.19695707528E+03  0.86943091566E+02 0.  0.
        -13    1    3    3    0    0  0.73591614720E+02 -0.22306079203E+02 -0.60428134500E+02  0.97800032545E+02  0.00000000000E+00 0.  1.
         14    1    3    3    0    0 -0.12141167428E+02 -0.19625392716E+01 -0.57947007377E+02  0.59237784993E+02  0.00000000000E+00 0. -1.
        -11    1    4    4    0    0  0.34660260020E+01  0.38353090137E+02  0.28713794868E+02  0.48035974801E+02  0.00000000000E+00 0. -1.
         11    1    4    4    0    0 -0.29210879153E+02 -0.17890832328E+02  0.14492804016E+03  0.14892110048E+03  0.00000000000E+00 0.  1.
          1    1    1    2  501    0 -0.35705594141E+02  0.38063606647E+01  0.84626500473E+02  0.91929442600E+02  0.00000000000E+00 0. -1.
<scales pt_clust_5="13000.00000" pt_clust_6="13000.00000" pt_clust_7="13000.00000" pt_clust_8="13000.00000" pt_clust_9="35.90791"></scales>
<clustering>
<clus scale="   35.908">  1  9  2 -1</clus>
<clus scale="   79.266">  5  6 -1 -1</clus>
<clus scale="   86.943">  7  8 -1 -1</clus>
<clus scale="  101.132">  2  5  1 -1</clus>
<clus scale="   35.908">  1  5  2 -1</clus>
</clustering>
</event>
<event>
 9    2  0.1751298E-004  0.1007335E+03  0.7546771E-02  0.1282862E+00
         21   -1    0    0  501  502  0.00000000000E+00  0.00000000000E+00  0.15920336125E+03  0.15920336125E+03  0.00000000000E+00 0. -1.
          2   -1    0    0  502    0 -0.00000000000E+00 -0.00000000000E+00 -0.17620238487E+03  0.17620238487E+03  0.00000000000E+00 0. -1.
         23    2    1    2    0    0  0.23941994838E+02  0.39699152285E+02 -0.11281650814E+03  0.15180679913E+03  0.90379743004E+02 0.  0.
         24    2    1    2    0    0 -0.27324080299E+02 -0.19862205856E+02  0.12188450372E+03  0.15066822523E+03  0.81877770249E+02 0.  0.
        -11    1    4    4    0    0  0.19315826246E+02  0.12671704970E+02  0.10022538041E+02  0.25181829147E+02  0.00000000000E+00 0.  1.
         12    1    4    4    0    0 -0.46639906544E+02 -0.32533910826E+02  0.11186196568E+03  0.12548639608E+03  0.00000000000E+00 0. -1.
        -11    1    3    3    0    0 -0.21064307598E+02 -0.87359547987E+01 -0.21650209065E+01  0.22906533486E+02  0.00000000000E+00 0.  1.
         11    1    3    3    0    0  0.45006302436E+02  0.48435107084E+02 -0.11065148723E+03  0.12890026564E+03  0.00000000000E+00 0. -1.
          1    1    1    2  501    0  0.33820854604E+01 -0.19836946429E+02 -0.26067019202E+02  0.32930721762E+02  0.00000000000E+00 0. -1.
<scales pt_clust_5="13000.00000" pt_clust_6="13000.00000" pt_clust_7="13000.00000" pt_clust_8="13000.00000" pt_clust_9="20.12320"></scales>
<clustering>
<clus scale="   20.123">  1  9  2 -1</clus>
<clus scale="   81.878">  5  6 -1 -1</clus>
<clus scale="   90.380">  7  8 -1 -1</clus>
<clus scale="   93.181">  1  5  2 -1</clus>
<clus scale="   20.123">  1  5  2 -1</clus>
</clustering>
</event>
<event>
 9    2  0.1751298E-004  0.2032179E+03  0.7546771E-02  0.1147931E+00
          2   -1    0    0  502    0 -0.00000000000E+00  0.00000000000E+00  0.10463585831E+03  0.10463585831E+03  0.00000000000E+00 0. -1.
         21   -1    0    0  501  502  0.00000000000E+00 -0.00000000000E+00 -0.61306011655E+03  0.61306011655E+03  0.00000000000E+00 0. -1.
         23    2    1    2    0    0  0.18831212534E+03  0.36205349248E+02 -0.15664112735E+03  0.26412682493E+03  0.91947011956E+02 0.  0.
         24    2    1    2    0    0 -0.17079748012E+03  0.48417473116E+02 -0.27797801073E+03  0.33992505363E+03  0.82226739698E+02 0.  0.
        -11    1    4    4    0    0 -0.56525675767E+02 -0.22806752969E+02 -0.83407528624E+02  0.10330593319E+03  0.00000000000E+00 0.  1.
         12    1    4    4    0    0 -0.11427180435E+03  0.71224226085E+02 -0.19457048210E+03  0.23661912044E+03  0.00000000000E+00 0. -1.
        -11    1    3    3    0    0  0.20553375277E+02  0.37843295832E+02 -0.18772192031E+02  0.46978202055E+02  0.00000000000E+00 0.  1.
         11    1    3    3    0    0  0.16775875006E+03 -0.16379465842E+01 -0.13786893532E+03  0.21714862288E+03  0.00000000000E+00 0. -1.
          1    1    1    2  501    0 -0.17514645223E+02 -0.84622822364E+02 -0.73805120151E+02  0.11364409629E+03  0.00000000000E+00 0. -1.
<scales pt_clust_5="13000.00000" pt_clust_6="13000.00000" pt_clust_7="13000.00000" pt_clust_8="13000.00000" pt_clust_9="86.41639"></scales>
<clustering>
<clus scale="   82.227">  5  6 -1 -1</clus>
<clus scale="   86.416">  2  9  1 -1</clus>
<clus scale="   91.947">  7  8 -1 -1</clus>
<clus scale="  199.009">  2  5  1 -1</clus>
<clus scale="   86.416">  2  5  1 -1</clus>
</clustering>
</event>
<event>
 9    2  0.1751298E-004  0.1337058E+03  0.7546771E-02  0.1238387E+00
         21   -1    0    0  501  502  0.00000000000E+00  0.00000000000E+00  0.23972265473E+03  0.23972265473E+03  0.00000000000E+00 0. -1.
          2   -1    0    0  502    0 -0.00000000000E+00 -0.00000000000E+00 -0.34264296381E+03  0.34264296381E+03  0.00000000000E+00 0. -1.
         24    2    1    2    0    0 -0.35761776655E+02  0.37279052056E+02 -0.57886675280E+02  0.11162978451E+03  0.80260259294E+02 0.  0.
         23    2    1    2    0    0  0.24081309916E+02  0.62717256157E+02 -0.23230880226E+03  0.25811484806E+03  0.90235976594E+02 0.  0.
        -13    1    3    3    0    0  0.39431722559E+01 -0.22651361620E+02 -0.89897638884E+01  0.24687013701E+02  0.00000000000E+00 0.  1.
         14    1    3    3    0    0 -0.39704948911E+02  0.59930413676E+02 -0.48896911392E+02  0.86942770804E+02  0.00000000000E+00 0. -1.
        -11    1    4    4    0    0  0.50449571203E+02  0.13990833032E+02 -0.76079601515E+02  0.92352630770E+02  0.00000000000E+00 0.  1.
         11    1    4    4    0    0 -0.26368261287E+02  0.48726423125E+02 -0.15622920075E+03  0.16576221729E+03  0.00000000000E+00 0. -1.
          1    1    1    2  501    0  0.11680466739E+02 -0.99996308212E+02  0.18727516846E+03  0.21262098599E+03  0.00000000000E+00 0. -1.
<scales pt_clust_5="13000.00000" pt_clust_6="13000.00000" pt_clust_7="13000.00000" pt_clust_8="13000.00000" pt_clust_9="98.66462"></scales>
<clustering>
<clus scale="   80.260">  5  6 -1 -1</clus>
<clus scale="   90.236">  7  8 -1 -1</clus>
<clus scale="   95.448">  2  5  1 -1</clus>
<clus scale="   98.665">  1  9  2 -1</clus>
<clus scale="   98.665">  1  5  2 -1</clus>
</clustering>
</event>
<event>
 9    2  0.1751298E-004  0.9754597E+02  0.7546771E-02  0.1291500E+00
         21   -1    0    0  501  502  0.00000000000E+00  0.00000000000E+00  0.20721012378E+03  0.20721012378E+03  0.00000000000E+00 0. -1.
          4   -1    0    0  502    0 -0.00000000000E+00 -0.00000000000E+00 -0.82246302173E+02  0.82246302173E+02  0.00000000000E+00 0. -1.
         24    2    1    2    0    0 -0.46976230920E+01 -0.45832184868E+02 -0.31783084174E+01  0.91459582100E+02  0.78943629769E+02 0.  0.
         23    2    1    2    0    0  0.38694613605E+02  0.71759171244E+01  0.72884712819E+02  0.12247542599E+03  0.90217967720E+02 0.  0.
        -11    1    3    3    0    0 -0.27906688101E+02  0.41440901396E+01 -0.19139185186E+02  0.34092009818E+02  0.00000000000E+00 0.  1.
         12    1    3    3    0    0  0.23209065009E+02 -0.49976275008E+02  0.15960876769E+02  0.57367572282E+02  0.00000000000E+00 0. -1.
        -13    1    4    4    0    0  0.36541332035E+02  0.37230279338E+02  0.76002445775E+02  0.92183156869E+02  0.00000000000E+00 0. -1.
         13    1    4    4    0    0  0.21532815702E+01 -0.30054362214E+02 -0.31177329562E+01  0.30292269119E+02  0.00000000000E+00 0.  1.
          3    1    1    2  501    0 -0.33996990513E+02  0.38656267744E+02  0.55257417201E+02  0.75521417860E+02  0.00000000000E+00 0. -1.
<scales pt_clust_5="13000.00000" pt_clust_6="13000.00000" pt_clust_7="13000.00000" pt_clust_8="13000.00000" pt_clust_9="51.47915"></scales>
<clustering>
<clus scale="   51.479">  1  9  2 -1</clus>
<clus scale="   78.944">  5  6 -1 -1</clus>
<clus scale="   87.224">  2  5  1 -1</clus>
<clus scale="   90.218">  7  8 -1 -1</clus>
<clus scale="   51.479">  1  5  2 -1</clus>
</clustering>
</event>
<event>
 9    2  0.1751298E-004  0.2077623E+03  0.7546771E-02  0.1144226E+00
          2   -1    0    0  502    0 -0.00000000000E+00  0.00000000000E+00  0.16233221766E+04  0.16233221766E+04  0.00000000000E+00 0. -1.
         21   -1    0    0  501  502  0.00000000000E+00 -0.00000000000E+00 -0.42007761354E+02  0.42007761354E+02  0.00000000000E+00 0.  1.
         24    2    1    2    0    0  0.56793646375E+02 -0.18629002268E+03  0.64280297085E+03  0.67641278942E+03  0.80056926876E+02 0.  0.
         23    2    1    2    0    0 -0.13763939728E+03  0.13300337825E+03  0.57506288431E+03  0.61279169374E+03  0.90453505719E+02 0.  0.
        -13    1    3    3    0    0 -0.11886190049E+02 -0.76233613518E+02  0.30355855170E+03  0.31321021640E+03  0.00000000000E+00 0.  1.
         14    1    3    3    0    0  0.68679836423E+02 -0.11005640916E+03  0.33924441915E+03  0.36320257303E+03  0.00000000000E+00 0. -1.
        -13    1    4    4    0    0 -0.69242656203E+02  0.99251080400E+02  0.23557273619E+03  0.26483926528E+03  0.00000000000E+00 0.  1.
         13    1    4    4    0    0 -0.68396741077E+02  0.33752297848E+02  0.33949014812E+03  0.34795242846E+03  0.00000000000E+00 0. -1.
          1    1    1    2  501    0  0.80845750905E+02  0.53286644432E+02  0.36344856006E+03  0.37612545477E+03  0.00000000000E+00 0. -1.
<scales pt_clust_5="13000.00000" pt_clust_6="13000.00000" pt_clust_7="13000.00000" pt_clust_8="13000.00000" pt_clust_9="96.82722"></scales>
<clustering>
<clus scale="   80.057">  5  6 -1 -1</clus>
<clus scale="   90.454">  7  8 -1 -1</clus>
<clus scale="   96.827">  2  9  1 -1</clus>
<clus scale="  203.451">  1  5  2 -1</clus>
<clus scale="   96.827">  2  5  1 -1</clus>
</clustering>
</event>
<event>
 9    2  0.1751298E-004  0.1646982E+03  0.7546771E-02  0.1184809E+00
         21   -1    0    0  501  502  0.00000000000E+00  0.00000000000E+00  0.13967329259E+03  0.13967329259E+03  0.00000000000E+00 0.  1.
          4   -1    0    0  502    0 -0.00000000000E+00 -0.00000000000E+00 -0.30478263351E+03  0.30478263351E+03  0.00000000000E+00 0. -1.
         24    2    1    2    0    0  0.79546377950E+02 -0.11968607491E+03 -0.17520647193E+03  0.24052742303E+03  0.80645834694E+02 0.  0.
         23    2    1    2    0    0 -0.57898886064E+02  0.11369848390E+03 -0.29172884503E+02  0.15868914774E+03  0.89730497458E+02 0.  0.
        -11    1    3    3    0    0  0.10939123827E+02 -0.20572714569E+02  0.48949550547E+01  0.23808855491E+02  0.00000000000E+00 0.  1.
         12    1    3    3    0    0  0.68607254123E+02 -0.99113360344E+02 -0.18010142698E+03  0.21671856754E+03  0.00000000000E+00 0. -1.
        -11    1    4    4    0    0  0.10392342231E+02  0.41718075035E+02  0.20611621924E+02  0.47678480680E+02  0.00000000000E+00 0.  1.
         11    1    4    4    0    0 -0.68291228295E+02  0.71980408861E+02 -0.49784506427E+02  0.11101066706E+03  0.00000000000E+00 0. -1.
          3    1    1    2  501    0 -0.21647491886E+02  0.59875910163E+01  0.39270015518E+02  0.45239355322E+02  0.00000000000E+00 0. -1.
<scales pt_clust_5="13000.00000" pt_clust_6="13000.00000" pt_clust_7="13000.00000" pt_clust_8="13000.00000" pt_clust_9="22.46030"></scales>
<clustering>
<clus scale="   22.460">  1  9  2 -1</clus>
<clus scale="   80.646">  5  6 -1 -1</clus>
<clus scale="   89.730">  7  8 -1 -1</clus>
<clus scale="  159.930">  2  5  1 -1</clus>
<clus scale="   22.460">  1  5  2 -1</clus>
</clustering>
</event>
<event>
 9    2  0.1751298E-004  0.3922808E+03  0.7546771E-02  0.1056413E+00
          2   -1    0    0  502    0 -0.00000000000E+00  0.00000000000E+00  0.25949477253E+04  0.25949477253E+04  0.00000000000E+00 0. -1.
         21   -1    0    0  501  502  0.00000000000E+00 -0.00000000000E+00 -0.15869433323E+03  0.15869433323E+03  0.00000000000E+00 0. -1.
         23    2    1    2    0    0 -0.28009466550E+03  0.19445707701E+02  0.55859697433E+03  0.63205931589E+03  0.92936762821E+02 0.  0.
         24    2    1    2    0    0  0.59285172795E+03 -0.12275876807E+03  0.15106903636E+04  0.16284756007E+04  0.56608487593E+02 0.  0.
        -11    1    4    4    0    0  0.95929822799E+02 -0.11232440617E+02  0.29536729163E+03  0.31075800165E+03  0.00000000000E+00 0.  1.
         12    1    4    4    0    0  0.49692190515E+03 -0.11152632745E+03  0.12153230720E+04  0.13177175991E+04  0.00000000000E+00 0. -1.
        -11    1    3    3    0    0 -0.50756269628E+02  0.27125639056E+02  0.59708145130E+02  0.82928051922E+02  0.00000000000E+00 0.  1.
         11    1    3    3    0    0 -0.22933839587E+03 -0.76799313545E+01  0.49888882920E+03  0.54913126397E+03  0.00000000000E+00 0. -1.
          1    1    1    2  501    0 -0.31275706245E+03  0.10331306037E+03  0.36696605410E+03  0.49310714192E+03  0.00000000000E+00 0. -1.
<scales pt_clust_5="13000.00000" pt_clust_6="13000.00000" pt_clust_7="13000.00000" pt_clust_8="13000.00000" pt_clust_9="388.17484"></scales>
<clustering>
<clus scale="   56.608">  5  6 -1 -1</clus>
<clus scale="   92.937">  7  8 -1 -1</clus>
<clus scale="  295.751">  1  7  2 -1</clus>
<clus scale="  388.175">  2  9  1 -1</clus>
<clus scale="  388.175">  2  5  1 -1</clus>
</clustering>
</event>
<event>
 9    2  0.1751298E-004  0.1349112E+03  0.7546771E-02  0.1223918E+00
         -1   -1    0    0    0  501 -0.00000000000E+00  0.00000000000E+00  0.17981942192E+03  0.17981942192E+03  0.00000000000E+00 0.  1.
         21   -1    0    0  501  502  0.00000000000E+00 -0.00000000000E+00 -0.20394288663E+03  0.20394288663E+03  0.00000000000E+00 0.  1.
         23    2    1    2    0    0  0.10653185127E+03  0.26014093789E+02  0.64297303467E+02  0.15861559209E+03  0.94863029736E+02 0.  0.
         24    2    1    2    0    0 -0.82313814689E+02  0.30350193877E+02 -0.18516718627E+01  0.11904462101E+03  0.80445601162E+02 0.  0.
        -13    1    4    4    0    0 -0.22821841143E+02  0.50351966755E+02 -0.84881713057E+01  0.55930367792E+02  0.00000000000E+00 0.  1.
         14    1    4    4    0    0 -0.59491973546E+02 -0.20001772878E+02  0.66364994430E+01  0.63114253220E+02  0.00000000000E+00 0. -1.
        -13    1    3    3    0    0  0.62138492301E+02  0.50451998692E+01  0.84933772981E+02  0.10535839815E+03  0.00000000000E+00 0.  1.
         13    1    3    3    0    0  0.44393358973E+02  0.20968893920E+02 -0.20636469514E+02  0.53257193947E+02  0.00000000000E+00 0. -1.
         -2    1    1    2    0  502 -0.24218036585E+02 -0.56364287666E+02 -0.86569096315E+02  0.10610209544E+03  0.00000000000E+00 0.  1.
<scales pt_clust_5="13000.00000" pt_clust_6="13000.00000" pt_clust_7="13000.00000" pt_clust_8="13000.00000" pt_clust_9="61.34693"></scales>
<clustering>
<clus scale="   61.347">  2  9  1 -1</clus>
<clus scale="   80.446">  5  6 -1 -1</clus>
<clus scale="   94.863">  7  8 -1 -1</clus>
<clus scale="  125.194">  2  5  1 -1</clus>
<clus scale="   61.347">  2  5  1 -1</clus>
</clustering>
</event>
<event>
 9    2  0.1751298E-004  0.2073938E+03  0.7546771E-02  0.1163124E+00
          2   -1    0    0  502    0 -0.00000000000E+00  0.00000000000E+00  0.19628251234E+04  0.19628251234E+04  0.00000000000E+00 0. -1.
         21   -1    0    0  501  502  0.00000000000E+00 -0.00000000000E+00 -0.37797722840E+02  0.37797722840E+02  0.00000000000E+00 0. -1.
         23    2    1    2    0    0  0.25170349789E+02 -0.89816779202E+02  0.50364423541E+03  0.52042398538E+03  0.92103248350E+02 0.  0.
         24    2    1    2    0    0 -0.14289223395E+03  0.18307301229E+03  0.65285625871E+03  0.69713515149E+03  0.76434328384E+02 0.  0.
        -11    1    4    4    0    0 -0.95364099703E+01  0.19982015607E+02  0.18965936955E+02  0.29153573150E+02  0.00000000000E+00 0.  1.
         12    1    4    4    0    0 -0.13335582398E+03  0.16309099668E+03  0.63389032176E+03  0.66798157834E+03  0.00000000000E+00 0. -1.
        -13    1    3    3    0    0  0.57819321699E+02 -0.55942094856E+02  0.37269502394E+03  0.38127965171E+03  0.00000000000E+00 0.  1.
         13    1    3    3    0    0 -0.32648971910E+02 -0.33874684346E+02  0.13094921147E+03  0.13914433367E+03  0.00000000000E+00 0. -1.
          1    1    1    2  501    0  0.11772188416E+03 -0.93256233084E+02  0.76852690641E+03  0.78306370935E+03  0.00000000000E+00 0. -1.
<scales pt_clust_5="13000.00000" pt_clust_6="13000.00000" pt_clust_7="13000.00000" pt_clust_8="13000.00000" pt_clust_9="192.79526"></scales>
<clustering>
<clus scale="   76.434">  5  6 -1 -1</clus>
<clus scale="   92.103">  7  8 -1 -1</clus>
<clus scale="  131.086">  1  7  2 -1</clus>
<clus scale="  192.795">  2  9  1 -1</clus>
<clus scale="  192.795">  2  5  1 -1</clus>
</clustering>
</event>
<event>
 9    2  0.1751298E-004  0.1321703E+03  0.7546771E-02  0.1238495E+00
          2   -1    0    0  502    0 -0.00000000000E+00  0.00000000000E+00  0.56352497287E+03  0.56352497287E+03  0.00000000000E+00 0. -1.
         21   -1    0    0  501  502  0.00000000000E+00 -0.00000000000E+00 -0.10117045359E+03  0.10117045359E+03  0.00000000000E+00 0. -1.
         24    2    1    2    0    0  0.52665892845E+02  0.16778654370E+02  0.35741810388E+03  0.37076804448E+03  0.81645712157E+02 0.  0.
         23    2    1    2    0    0 -0.10856686398E+02  0.75776281586E+02  0.14226967727E+03  0.18572295343E+03  0.91610271646E+02 0.  0.
        -11    1    3    3    0    0  0.23002772270E+02 -0.17700811569E+02  0.36455791856E+02  0.46599045292E+02  0.00000000000E+00 0.  1.
         12    1    3    3    0    0  0.29663120575E+02  0.34479465939E+02  0.32096231203E+03  0.32416899919E+03  0.00000000000E+00 0. -1.
        -13    1    4    4    0    0 -0.30436514178E+02  0.26399904879E+01  0.80044590925E+01  0.31581993453E+02  0.00000000000E+00 0.  1.
         13    1    4    4    0    0  0.19579827781E+02  0.73136291098E+02  0.13426521818E+03  0.15414095998E+03  0.00000000000E+00 0. -1.
          1    1    1    2  501    0 -0.41809206447E+02 -0.92554935956E+02 -0.37333261871E+02  0.10820442854E+03  0.00000000000E+00 0. -1.
<scales pt_clust_5="13000.00000" pt_clust_6="13000.00000" pt_clust_7="13000.00000" pt_clust_8="13000.00000" pt_clust_9="95.27084"></scales>
<clustering>
<clus scale="   81.646">  5  6 -1 -1</clus>
<clus scale="   91.610">  7  8 -1 -1</clus>
<clus scale="   98.596">  1  5  2 -1</clus>
<clus scale="   95.271">  2  9  1 -1</clus>
<clus scale="   95.271">  2  5  1 -1</clus>
</clustering>
</event>
<event>
 9    2  0.1751298E-004  0.1762386E+03  0.7546771E-02  0.1172939E+00
          2   -1    0    0  502    0 -0.00000000000E+00  0.00000000000E+00  0.15466795722E+03  0.15466795722E+03  0.00000000000E+00 0. -1.
         21   -1    0    0  501  502  0.00000000000E+00 -0.00000000000E+00 -0.42223874824E+03  0.42223874824E+03  0.00000000000E+00 0.  1.
         24    2    1    2    0    0  0.89834564269E+02 -0.12907083738E+03  0.53508462395E+02  0.18494881767E+03  0.81322688152E+02 0.  0.
         23    2    1    2    0    0 -0.48967015146E+02  0.12096949753E+03 -0.16291254694E+03  0.22839598723E+03  0.92697578864E+02 0.  0.
        -11    1    3    3    0    0  0.30448215387E+02 -0.91727996246E+02 -0.11557356311E+00  0.96649534260E+02  0.00000000000E+00 0.  1.
         12    1    3    3    0    0  0.59386348882E+02 -0.37342841139E+02  0.53624035958E+02  0.88299283407E+02  0.00000000000E+00 0. -1.
        -11    1    4    4    0    0 -0.74057842968E+02  0.68449452849E+02 -0.11544636856E+03  0.15328977694E+03  0.00000000000E+00 0.  1.
         11    1    4    4    0    0  0.25090827822E+02  0.52520044685E+02 -0.47466178378E+02  0.75106210291E+02  0.00000000000E+00 0. -1.
          1    1    1    2  501    0 -0.40867549123E+02  0.81013398515E+01 -0.15816670647E+03  0.16356190056E+03  0.00000000000E+00 0. -1.
<scales pt_clust_5="13000.00000" pt_clust_6="13000.00000" pt_clust_7="13000.00000" pt_clust_8="13000.00000" pt_clust_9="41.66279"></scales>
<clustering>
<clus scale="   41.663">  2  9  1 -1</clus>
<clus scale="   81.323">  5  6 -1 -1</clus>
<clus scale="   92.698">  7  8 -1 -1</clus>
<clus scale="  170.530">  1  5  2 -1</clus>
<clus scale="   41.663">  2  5  1 -1</clus>
</clustering>
</event>
<event>
 9    2  0.1751298E-004  0.1453256E+03  0.7546771E-02  0.1234227E+00
          4   -1    0    0  502    0 -0.00000000000E+00  0.00000000000E+00  0.13093791145E+03  0.13093791145E+03  0.00000000000E+00 0. -1.
         21   -1    0    0  501  502  0.00000000000E+00 -0.00000000000E+00 -0.26975349342E+03  0.26975349342E+03  0.00000000000E+00 0. -1.
         24    2    1    2    0    0  0.10974666915E+02 -0.58957367841E+01 -0.33904588580E+02  0.87745550799E+02  0.79965977341E+02 0.  0.
         23    2    1    2    0    0  0.97958329893E+02 -0.47572463405E+02 -0.12559736320E+03  0.18984763264E+03  0.91697613420E+02 0.  0.
        -13    1    3    3    0    0 -0.25828197934E+02 -0.26692688877E+02 -0.74651552031E+01  0.37885669985E+02  0.00000000000E+00 0.  1.
         14    1    3    3    0    0  0.36802864849E+02  0.20796952093E+02 -0.26439433377E+02  0.49859880814E+02  0.00000000000E+00 0. -1.
        -13    1    4    4    0    0  0.28125284480E+02  0.17859553948E+02 -0.73936667405E+02  0.81096399928E+02  0.00000000000E+00 0.  1.
         13    1    4    4    0    0  0.69833045413E+02 -0.65432017353E+02 -0.51660695791E+02  0.10875123271E+03  0.00000000000E+00 0. -1.
          3    1    1    2  501    0 -0.10893299681E+03  0.53468200189E+02  0.20686369806E+02  0.12309822144E+03  0.00000000000E+00 0. -1.
<scales pt_clust_5="13000.00000" pt_clust_6="13000.00000" pt_clust_7="13000.00000" pt_clust_8="13000.00000" pt_clust_9="112.74346"></scales>
<clustering>
<clus scale="   79.966">  5  6 -1 -1</clus>
<clus scale="   80.931">  1  5  2 -1</clus>
<clus scale="   91.698">  7  8 -1 -1</clus>
<clus scale="  112.743">  2  9  1 -1</clus>
<clus scale="  112.743">  2  5  1 -1</clus>
</clustering>
</event>
<event>
 9    2  0.1751298E-004  0.4578550E+03  0.7546771E-02  0.1078334E+00
          2   -1    0    0  502    0 -0.00000000000E+00  0.00000000000E+00  0.84249708648E+03  0.84249708648E+03  0.00000000000E+00 0. -1.
         21   -1    0    0  501  502  0.00000000000E+00 -0.00000000000E+00 -0.41768834060E+03  0.41768834060E+03  0.00000000000E+00 0.  1.
         23    2    1    2    0    0 -0.21852571696E+02 -0.38523198908E+02 -0.40590775666E+02  0.10939415516E+03  0.91421542152E+02 0.  0.
         24    2    1    2    0    0  0.25897780909E+03  0.38253059054E+03 -0.67510381368E+02  0.47361889480E+03  0.79737366516E+02 0.  0.
        -11    1    4    4    0    0  0.13519308209E+03  0.26514567493E+03 -0.31682593790E+02  0.29930450235E+03  0.00000000000E+00 0.  1.
         12    1    4    4    0    0  0.12378472701E+03  0.11738491561E+03 -0.35827787578E+02  0.17431439245E+03  0.00000000000E+00 0. -1.
        -11    1    3    3    0    0 -0.45735682699E+02  0.51946068282E+01 -0.14701132862E+01  0.46053206675E+02  0.00000000000E+00 0. -1.
         11    1    3    3    0    0  0.23883111002E+02 -0.43717805736E+02 -0.39120662380E+02  0.63340948482E+02  0.00000000000E+00 0.  1.
          1    1    1    2  501    0 -0.23712523740E+03 -0.34400739163E+03  0.53290990291E+03  0.67717237712E+03  0.00000000000E+00 0. -1.
<scales pt_clust_5="13000.00000" pt_clust_6="13000.00000" pt_clust_7="13000.00000" pt_clust_8="13000.00000" pt_clust_9="450.85850"></scales>
<clustering>
<clus scale="   79.737">  5  6 -1 -1</clus>
<clus scale="   91.422">  7  8 -1 -1</clus>
<clus scale="  101.585">  1  7  2 -1</clus>
<clus scale="  450.858">  2  9  1 -1</clus>
<clus scale="  450.858">  2  5  1 -1</clus>
</clustering>
</event>
<event>
 9    2  0.1751298E-004  0.1063467E+03  0.7546771E-02  0.1271821E+00
         21   -1    0    0  501  502  0.00000000000E+00  0.00000000000E+00  0.10348728751E+03  0.10348728751E+03  0.00000000000E+00 0. -1.
          2   -1    0    0  502    0 -0.00000000000E+00 -0.00000000000E+00 -0.67534778302E+03  0.67534778302E+03  0.00000000000E+00 0. -1.
         24    2    1    2    0    0  0.48978750183E+02  0.13806748184E+02 -0.48942142854E+03  0.49852970823E+03  0.80056174068E+02 0.  0.
         23    2    1    2    0    0 -0.76233602774E+02 -0.23294854391E+02 -0.15842925946E+03  0.19901969011E+03  0.90303900069E+02 0.  0.
        -13    1    3    3    0    0  0.25582675218E+02 -0.19308578099E+02 -0.68141845899E+02  0.75303423708E+02  0.00000000000E+00 0.  1.
         14    1    3    3    0    0  0.23396074965E+02  0.33115326283E+02 -0.42127958264E+03  0.42322628452E+03  0.00000000000E+00 0. -1.
        -11    1    4    4    0    0 -0.61541528827E+02  0.98770648394E+01 -0.14903438463E+03  0.16154307160E+03  0.00000000000E+00 0. -1.
         11    1    4    4    0    0 -0.14692073948E+02 -0.33171919230E+02 -0.93948748304E+01  0.37476618516E+02  0.00000000000E+00 0.  1.
          1    1    1    2  501    0  0.27254852591E+02  0.94881062069E+01  0.75990192490E+02  0.81285672193E+02  0.00000000000E+00 0. -1.
<scales pt_clust_5="13000.00000" pt_clust_6="13000.00000" pt_clust_7="13000.00000" pt_clust_8="13000.00000" pt_clust_9="28.85916"></scales>
<clustering>
<clus scale="   28.859">  1  9  2 -1</clus>
<clus scale="   80.056">  5  6 -1 -1</clus>
<clus scale="   90.304">  7  8 -1 -1</clus>
<clus scale="   97.795">  2  5  1 -1</clus>
<clus scale="   28.859">  1  5  2 -1</clus>
</clustering>
</event>
<event>
 9    2  0.1751298E-004  0.1014259E+03  0.7546771E-02  0.1282653E+00
          2   -1    0    0  502    0 -0.00000000000E+00  0.00000000000E+00  0.49948238597E+03  0.49948238597E+03  0.00000000000E+00 0. -1.
         21   -1    0    0  501  502  0.00000000000E+00 -0.00000000000E+00 -0.16354229617E+03  0.16354229617E+03  0.00000000000E+00 0. -1.
         23    2    1    2    0    0  0.21813567096E+02  0.35625878120E+02  0.46832007336E+03  0.47909495226E+03  0.91995908988E+02 0.  0.
         24    2    1    2    0    0 -0.26035376799E+02 -0.58347758162E+02 -0.96909848512E+02  0.14159489800E+03  0.81088190716E+02 0.  0.
        -13    1    4    4    0    0 -0.23980645576E+02  0.14470093297E+00  0.46021087396E+01  0.24418675342E+02  0.00000000000E+00 0.  1.
         14    1    4    4    0    0 -0.20547312224E+01 -0.58492459095E+02 -0.10151195725E+03  0.11717622266E+03  0.00000000000E+00 0. -1.
        -11    1    3    3    0    0  0.54029452150E+02  0.41609029227E+02  0.32483408914E+03  0.33191516759E+03  0.00000000000E+00 0. -1.
         11    1    3    3    0    0 -0.32215885054E+02 -0.59831511069E+01  0.14348598422E+03  0.14717978467E+03  0.00000000000E+00 0.  1.
          1    1    1    2  501    0  0.42218097029E+01  0.22721880042E+02 -0.35470135049E+02  0.42334831879E+02  0.00000000000E+00 0. -1.
<scales pt_clust_5="13000.00000" pt_clust_6="13000.00000" pt_clust_7="13000.00000" pt_clust_8="13000.00000" pt_clust_9="23.11077"></scales>
<clustering>
<clus scale="   23.111">  2  9  1 -1</clus>
<clus scale="   81.088">  5  6 -1 -1</clus>
<clus scale="   91.648">  2  5  1 -1</clus>
<clus scale="   91.996">  7  8 -1 -1</clus>
<clus scale="   23.111">  2  5  1 -1</clus>
</clustering>
</event>
<event>
 9    2  0.1751298E-004  0.3018212E+03  0.7546771E-02  0.1084876E+00
          2   -1    0    0  502    0 -0.00000000000E+00  0.00000000000E+00  0.57212435444E+03  0.57212435444E+03  0.00000000000E+00 0. -1.
         21   -1    0    0  501  502  0.00000000000E+00 -0.00000000000E+00 -0.23108219151E+03  0.23108219151E+03  0.00000000000E+00 0. -1.
         23    2    1    2    0    0 -0.26597123893E+03 -0.15254515454E+03  0.29833823367E+03  0.43827324281E+03  0.95220846352E+02 0.  0.
         24    2    1    2    0    0  0.22619197770E+03  0.94605014579E+02 -0.34731676875E+02  0.26035929805E+03  0.80422354756E+02 0.  0.
        -11    1    4    4    0    0  0.68705996479E+02  0.47908272613E+01 -0.38735899087E+02  0.79018579183E+02  0.00000000000E+00 0.  1.
         12    1    4    4    0    0  0.15748598122E+03  0.89814187318E+02  0.40042222111E+01  0.18134071887E+03  0.00000000000E+00 0. -1.
        -13    1    3    3    0    0 -0.59577328373E+02  0.73200097961E+00  0.30184679152E+02  0.66791531926E+02  0.00000000000E+00 0.  1.
         13    1    3    3    0    0 -0.20639391056E+03 -0.15327715552E+03  0.26815355452E+03  0.37148171088E+03  0.00000000000E+00 0. -1.
          1    1    1    2  501    0  0.39779261230E+02  0.57940139956E+02  0.77435606137E+02  0.10457400509E+03  0.00000000000E+00 0. -1.
<scales pt_clust_5="13000.00000" pt_clust_6="13000.00000" pt_clust_7="13000.00000" pt_clust_8="13000.00000" pt_clust_9="70.28125"></scales>
<clustering>
<clus scale="   70.281">  2  9  1 -1</clus>
<clus scale="   80.422">  5  6 -1 -1</clus>
<clus scale="   95.221">  7  8 -1 -1</clus>
<clus scale="  297.484">  2  5  1 -1</clus>
<clus scale="   70.281">  2  5  1 -1</clus>
</clustering>
</event>
<event>
 9    2  0.1751298E-004  0.1952846E+03  0.7546771E-02  0.1170523E+00
          2   -1    0    0  502    0 -0.00000000000E+00  0.00000000000E+00  0.18782915277E+04  0.18782915277E+04  0.00000000000E+00 0. -1.
         21   -1    0    0  501  502  0.00000000000E+00 -0.00000000000E+00 -0.41585950292E+02  0.41585950292E+02  0.00000000000E+00 0. -1.
         23    2    1    2    0    0  0.75735258448E+02 -0.66271721468E+01  0.30980008185E+03  0.33692347924E+03  0.10845087073E+03 0.  0.
         24    2    1    2    0    0 -0.19218708082E+03  0.11801862098E+03  0.11191758382E+04  0.11445334754E+04  0.80858212826E+02 0.  0.
        -11    1    4    4    0    0 -0.64374140926E+02  0.76108706803E+02  0.36058302402E+03  0.37410784873E+03  0.00000000000E+00 0.  1.
         12    1    4    4    0    0 -0.12781293990E+03  0.41909914175E+02  0.75859281416E+03  0.77042562665E+03  0.00000000000E+00 0. -1.
        -11    1    3    3    0    0  0.95919153744E+02  0.12827934310E+02  0.27884848912E+03  0.29516354761E+03  0.00000000000E+00 0.  1.
         11    1    3    3    0    0 -0.20183895296E+02 -0.19455106457E+02  0.30951592730E+02  0.41759931622E+02  0.00000000000E+00 0. -1.
          1    1    1    2  501    0  0.11645182237E+03 -0.11139144883E+03  0.40772965734E+03  0.43842052333E+03  0.00000000000E+00 0. -1.
<scales pt_clust_5="13000.00000" pt_clust_6="13000.00000" pt_clust_7="13000.00000" pt_clust_8="13000.00000" pt_clust_9="177.75829"></scales>
<clustering>
<clus scale="   80.858">  5  6 -1 -1</clus>
<clus scale="  108.451">  7  8 -1 -1</clus>
<clus scale="  132.444">  1  7  2 -1</clus>
<clus scale="  177.758">  2  9  1 -1</clus>
<clus scale="  177.758">  2  5  1 -1</clus>
</clustering>
</event>
<event>
 9    2  0.1751298E-004  0.1604644E+03  0.7546771E-02  0.1189666E+00
         -1   -1    0    0    0  501 -0.00000000000E+00  0.00000000000E+00  0.59959513153E+03  0.59959513153E+03  0.00000000000E+00 0.  1.
         21   -1    0    0  501  502  0.00000000000E+00 -0.00000000000E+00 -0.90862219862E+02  0.90862219862E+02  0.00000000000E+00 0.  1.
         23    2    1    2    0    0  0.14318163019E+03 -0.12743594272E+02  0.45170239772E+03  0.48281179886E+03  0.91699501615E+02 0.  0.
         24    2    1    2    0    0 -0.10203912358E+03  0.20036376309E+02  0.84892552269E+02  0.15742420548E+03  0.82232572160E+02 0.  0.
        -11    1    4    4    0    0 -0.75766135476E+00  0.29864668193E+02  0.11726104479E+02  0.32093207743E+02  0.00000000000E+00 0.  1.
         12    1    4    4    0    0 -0.10128146222E+03 -0.98282918841E+01  0.73166447790E+02  0.12533099774E+03  0.00000000000E+00 0. -1.
        -11    1    3    3    0    0  0.12358036592E+03 -0.37033850540E+02  0.27994639753E+03  0.30824275890E+03  0.00000000000E+00 0.  1.
         11    1    3    3    0    0  0.19601264269E+02  0.24290256268E+02  0.17175600019E+03  0.17456903996E+03  0.00000000000E+00 0. -1.
         -2    1    1    2    0  502 -0.41142506617E+02 -0.72927820366E+01 -0.27862038318E+02  0.50221347053E+02  0.00000000000E+00 0.  1.
<scales pt_clust_5="13000.00000" pt_clust_6="13000.00000" pt_clust_7="13000.00000" pt_clust_8="13000.00000" pt_clust_9="41.78385"></scales>
<clustering>
<clus scale="   41.784">  2  9  1 -1</clus>
<clus scale="   82.233">  5  6 -1 -1</clus>
<clus scale="   91.700">  7  8 -1 -1</clus>
<clus scale="  155.249">  2  5  1 -1</clus>
<clus scale="   41.784">  2  5  1 -1</clus>
</clustering>
</event>
<event>
 9    2  0.1751298E-004  0.9477916E+02  0.7546771E-02  0.1297882E+00
         21   -1    0    0  501  502  0.00000000000E+00  0.00000000000E+00  0.26605211057E+03  0.26605211057E+03  0.00000000000E+00 0. -1.
          2   -1    0    0  502    0 -0.00000000000E+00 -0.00000000000E+00 -0.98108464501E+02  0.98108464501E+02  0.00000000000E+00 0. -1.
         23    2    1    2    0    0  0.30615756772E+02  0.39927275185E+02 -0.27586911794E+02  0.10734425735E+03  0.90720670290E+02 0.  0.
         24    2    1    2    0    0  0.17668529500E+02  0.38886050226E+01  0.46561971654E+02  0.94203761817E+02  0.79868850953E+02 0.  0.
        -11    1    4    4    0    0  0.15151142827E+02 -0.32486930658E+02  0.10164545256E+01  0.35860716283E+02  0.00000000000E+00 0.  1.
         12    1    4    4    0    0  0.25173866730E+01  0.36375535680E+02  0.45545517129E+02  0.58343045534E+02  0.00000000000E+00 0. -1.
        -11    1    3    3    0    0  0.59300573628E+02  0.44412926945E+02 -0.25014342455E+02  0.78197080770E+02  0.00000000000E+00 0. -1.
         11    1    3    3    0    0 -0.28684816856E+02 -0.44856517603E+01 -0.25725693390E+01  0.29147176583E+02  0.00000000000E+00 0.  1.
          1    1    1    2  501    0 -0.48284286272E+02 -0.43815880208E+02  0.14896858621E+03  0.16261255590E+03  0.00000000000E+00 0. -1.
<scales pt_clust_5="13000.00000" pt_clust_6="13000.00000" pt_clust_7="13000.00000" pt_clust_8="13000.00000" pt_clust_9="65.20126"></scales>
<clustering>
<clus scale="   65.201">  1  9  2 -1</clus>
<clus scale="   79.869">  5  6 -1 -1</clus>
<clus scale="   84.450">  1  5  2 -1</clus>
<clus scale="   90.721">  7  8 -1 -1</clus>
<clus scale="   65.201">  1  5  2 -1</clus>
</clustering>
</event>
<event>
 9    2  0.1751298E-004  0.1762274E+03  0.7546771E-02  0.1198744E+00
          2   -1    0    0  502    0 -0.00000000000E+00  0.00000000000E+00  0.43237196244E+03  0.43237196244E+03  0.00000000000E+00 0. -1.
         21   -1    0    0  501  502  0.00000000000E+00 -0.00000000000E+00 -0.12105305066E+03  0.12105305066E+03  0.00000000000E+00 0. -1.
         24    2    1    2    0    0 -0.52391399832E+02 -0.14250493767E+02  0.13201282790E+03  0.16325313717E+03  0.79222880019E+02 0.  0.
         23    2    1    2    0    0  0.11000151574E+03 -0.12172400713E+03  0.14871537166E+03  0.23936145845E+03  0.90887725483E+02 0.  0.
        -13    1    3    3    0    0 -0.43793415706E+01  0.23451034486E+02  0.82303731698E+01  0.25236257519E+02  0.00000000000E+00 0.  1.
         14    1    3    3    0    0 -0.48012058261E+02 -0.37701528253E+02  0.12378245473E+03  0.13801687965E+03  0.00000000000E+00 0. -1.
        -11    1    4    4    0    0  0.42058182536E+02  0.13888023203E+01  0.13275067985E+02  0.44125354617E+02  0.00000000000E+00 0. -1.
         11    1    4    4    0    0  0.67943333203E+02 -0.12311280945E+03  0.13544030368E+03  0.19523610383E+03  0.00000000000E+00 0.  1.
          1    1    1    2  501    0 -0.57610115906E+02  0.13597450090E+03  0.30590712222E+02  0.15081041749E+03  0.00000000000E+00 0. -1.
<scales pt_clust_5="13000.00000" pt_clust_6="13000.00000" pt_clust_7="13000.00000" pt_clust_8="13000.00000" pt_clust_9="150.98185"></scales>
<clustering>
<clus scale="   79.223">  5  6 -1 -1</clus>
<clus scale="   90.888">  7  8 -1 -1</clus>
<clus scale="   96.043">  1  5  2 -1</clus>
<clus scale="  150.982">  2  9  1 -1</clus>
<clus scale="  150.982">  2  5  1 -1</clus>
</clustering>
</event>
<event>
 9    2  0.1751298E-004  0.1412032E+03  0.7546771E-02  0.1214517E+00
          2   -1    0    0  502    0 -0.00000000000E+00  0.00000000000E+00  0.68631835479E+03  0.68631835479E+03  0.00000000000E+00 0. -1.
         21   -1    0    0  501  502  0.00000000000E+00 -0.00000000000E+00 -0.68236230785E+02  0.68236230785E+02  0.00000000000E+00 0. -1.
         23    2    1    2    0    0  0.11366628861E+03 -0.59303436554E+01  0.26710320145E+03  0.30458586844E+03  0.92050186778E+02 0.  0.
         24    2    1    2    0    0 -0.72348832996E+02  0.10360831025E+03  0.10558030945E+03  0.18263260546E+03  0.78983740372E+02 0.  0.
        -13    1    4    4    0    0  0.92492404410E+01  0.39204018013E+02  0.51720875616E+02  0.65555720205E+02  0.00000000000E+00 0.  1.
         14    1    4    4    0    0 -0.81598073437E+02  0.64404292234E+02  0.53859433837E+02  0.11707688525E+03  0.00000000000E+00 0. -1.
        -11    1    3    3    0    0  0.10211887906E+03 -0.33434566616E+02  0.24478510880E+03  0.26733104046E+03  0.00000000000E+00 0. -1.
         11    1    3    3    0    0  0.11547409549E+02  0.27504222961E+02  0.22318092653E+02  0.37254827978E+02  0.00000000000E+00 0.  1.
          1    1    1    2  501    0 -0.41317455612E+02 -0.97677966592E+02  0.24539861310E+03  0.26733611168E+03  0.00000000000E+00 0. -1.
<scales pt_clust_5="13000.00000" pt_clust_6="13000.00000" pt_clust_7="13000.00000" pt_clust_8="13000.00000" pt_clust_9="106.05719"></scales>
<clustering>
<clus scale="   78.984">  5  6 -1 -1</clus>
<clus scale="   92.050">  7  8 -1 -1</clus>
<clus scale="  106.057">  2  9  1 -1</clus>
<clus scale="  133.055">  2  5  1 -1</clus>
<clus scale="  106.057">  2  5  1 -1</clus>
</clustering>
</event>
<event>
 9    2  0.1751298E-004  0.1106325E+03  0.7546771E-02  0.1263808E+00
         -3   -1    0    0    0  501 -0.00000000000E+00  0.00000000000E+00  0.23794273500E+03  0.23794273500E+03  0.00000000000E+00 0.  1.
         21   -1    0    0  501  502  0.00000000000E+00 -0.00000000000E+00 -0.15385108659E+03  0.15385108659E+03  0.00000000000E+00 0. -1.
         24    2    1    2    0    0 -0.37278773811E+02  0.56087770385E+02  0.17367861395E+03  0.20322196338E+03  0.81236448055E+02 0.  0.
         23    2    1    2    0    0 -0.14062536903E+02 -0.25134543045E+02 -0.84347977598E+02  0.12839312889E+03  0.92415983595E+02 0.  0.
        -13    1    3    3    0    0 -0.45709496203E+02  0.56205073680E+02  0.17910042687E+03  0.19319764817E+03  0.00000000000E+00 0.  1.
         14    1    3    3    0    0  0.84307223919E+01 -0.11730329584E+00 -0.54218129239E+01  0.10024315213E+02  0.00000000000E+00 0. -1.
        -11    1    4    4    0    0 -0.45615929524E+01 -0.53435327660E+02 -0.82607663081E+02  0.98489432794E+02  0.00000000000E+00 0. -1.
         11    1    4    4    0    0 -0.95009439506E+01  0.28300784615E+02 -0.17403145170E+01  0.29903696099E+02  0.00000000000E+00 0.  1.
         -4    1    1    2    0  502  0.51341310714E+02 -0.30953227339E+02 -0.52389879388E+01  0.60178729325E+02  0.00000000000E+00 0.  1.
<scales pt_clust_5="13000.00000" pt_clust_6="13000.00000" pt_clust_7="13000.00000" pt_clust_8="13000.00000" pt_clust_9="59.95025"></scales>
<clustering>
<clus scale="   59.950">  2  9  1 -1</clus>
<clus scale="   81.236">  5  6 -1 -1</clus>
<clus scale="   92.416">  7  8 -1 -1</clus>
<clus scale="  101.480">  1  5  2 -1</clus>
<clus scale="   59.950">  2  5  1 -1</clus>
</clustering>
</event>
<event>
 9    2  0.1751298E-004  0.9751182E+02  0.7546771E-02  0.1292532E+00
         -3   -1    0    0    0  501 -0.00000000000E+00  0.00000000000E+00  0.15075071630E+03  0.15075071630E+03  0.00000000000E+00 0.  1.
         21   -1    0    0  501  502  0.00000000000E+00 -0.00000000000E+00 -0.14086057914E+03  0.14086057914E+03  0.00000000000E+00 0.  1.
         24    2    1    2    0    0 -0.57100312644E+01 -0.55601608313E+02  0.49017247470E+02  0.10785850780E+03  0.78144890114E+02 0.  0.
         23    2    1    2    0    0 -0.19272038696E+02 -0.18113699184E+02 -0.46537501095E+02  0.10556733969E+03  0.90990145770E+02 0.  0.
        -13    1    3    3    0    0  0.15292513961E+02 -0.55967394279E+02  0.39703407488E+01  0.58154740230E+02  0.00000000000E+00 0.  1.
         14    1    3    3    0    0 -0.21002545225E+02  0.36578596575E+00  0.45046906721E+02  0.49703767568E+02  0.00000000000E+00 0. -1.
        -11    1    4    4    0    0  0.11714468793E+02  0.30375925711E+02 -0.16720134733E+01  0.32599405990E+02  0.00000000000E+00 0. -1.
         11    1    4    4    0    0 -0.30986507488E+02 -0.48489624894E+02 -0.44865487622E+02  0.72967933699E+02  0.00000000000E+00 0.  1.
         -4    1    1    2    0  502  0.24982069960E+02  0.73715307497E+02  0.74103907870E+01  0.78185447945E+02  0.00000000000E+00 0.  1.
<scales pt_clust_5="13000.00000" pt_clust_6="13000.00000" pt_clust_7="13000.00000" pt_clust_8="13000.00000" pt_clust_9="77.83352"></scales>
<clustering>
<clus scale="   77.834">  2  9  1 -1</clus>
<clus scale="   78.145">  5  6 -1 -1</clus>
<clus scale="   85.650">  1  5  2 -1</clus>
<clus scale="   90.990">  7  8 -1 -1</clus>
<clus scale="   77.834">  2  5  1 -1</clus>
</clustering>
</event>
<event>
 9    2  0.1751298E-004  0.9348074E+02  0.7546771E-02  0.1301506E+00
          2   -1    0    0  502    0 -0.00000000000E+00  0.00000000000E+00  0.32398631312E+03  0.32398631312E+03  0.00000000000E+00 0. -1.
         21   -1    0    0  501  502  0.00000000000E+00 -0.00000000000E+00 -0.14259567754E+03  0.14259567754E+03  0.00000000000E+00 0.  1.
         24    2    1    2    0    0 -0.11343554416E+02 -0.96925971390E+01  0.25107002220E+03  0.26390168162E+03  0.79908190137E+02 0.  0.
         23    2    1    2    0    0  0.31044874779E+02  0.49235658755E+02  0.12835964127E+02  0.10908234509E+03  0.91357877018E+02 0.  0.
        -13    1    3    3    0    0 -0.15450413776E+02  0.32917786813E+02  0.86011759813E+02  0.93382647214E+02  0.00000000000E+00 0.  1.
         14    1    3    3    0    0  0.41068593597E+01 -0.42610383952E+02  0.16505826239E+03  0.17051903441E+03  0.00000000000E+00 0. -1.
        -13    1    4    4    0    0  0.61852254881E+02  0.45884818764E+02  0.53346277548E+01  0.77198291952E+02  0.00000000000E+00 0. -1.
         13    1    4    4    0    0 -0.30807380103E+02  0.33508399903E+01  0.75013363724E+01  0.31884053143E+02  0.00000000000E+00 0.  1.
          1    1    1    2  501    0 -0.19701320363E+02 -0.39543061616E+02 -0.82515350744E+02  0.93597963944E+02  0.00000000000E+00 0. -1.
<scales pt_clust_5="13000.00000" pt_clust_6="13000.00000" pt_clust_7="13000.00000" pt_clust_8="13000.00000" pt_clust_9="44.17913"></scales>
<clustering>
<clus scale="   44.179">  2  9  1 -1</clus>
<clus scale="   79.908">  5  6 -1 -1</clus>
<clus scale="   82.327">  1  5  2 -1</clus>
<clus scale="   91.358">  7  8 -1 -1</clus>
<clus scale="   44.179">  2  5  1 -1</clus>
</clustering>
</event>
<event>
 9    2  0.1751298E-004  0.1049247E+03  0.7546771E-02  0.1274258E+00
         21   -1    0    0  501  502  0.00000000000E+00  0.00000000000E+00  0.63918283149E+02  0.63918283149E+02  0.00000000000E+00 0. -1.
         -1   -1    0    0    0  501 -0.00000000000E+00 -0.00000000000E+00 -0.26288032187E+03  0.26288032187E+03  0.00000000000E+00 0.  1.
         23    2    1    2    0    0 -0.42923226375E+02  0.48318876778E+02 -0.16239878338E+03  0.19658310425E+03  0.89969076999E+02 0.  0.
         24    2    1    2    0    0  0.23690486635E+02 -0.28899311576E+02 -0.47370546712E+02  0.10082476520E+03  0.80779051835E+02 0.  0.
        -11    1    4    4    0    0  0.48861190798E+02 -0.35378933349E+02 -0.21202782365E+02  0.63942496598E+02  0.00000000000E+00 0.  1.
         12    1    4    4    0    0 -0.25170704163E+02  0.64796217733E+01 -0.26167764347E+02  0.36882268603E+02  0.00000000000E+00 0. -1.
        -11    1    3    3    0    0 -0.69809038379E+02  0.32232620876E+02 -0.13295677106E+03  0.15358953954E+03  0.00000000000E+00 0. -1.
         11    1    3    3    0    0  0.26885812004E+02  0.16086255901E+02 -0.29442012326E+02  0.42993564702E+02  0.00000000000E+00 0.  1.
         -2    1    1    2    0  502  0.19232739739E+02 -0.19419565202E+02  0.10807291374E+02  0.29390735570E+02  0.00000000000E+00 0.  1.
<scales pt_clust_5="13000.00000" pt_clust_6="13000.00000" pt_clust_7="13000.00000" pt_clust_8="13000.00000" pt_clust_9="27.33163"></scales>
<clustering>
<clus scale="   27.332">  1  9  2 -1</clus>
<clus scale="   80.779">  5  6 -1 -1</clus>
<clus scale="   89.969">  7  8 -1 -1</clus>
<clus scale="   97.160">  1  5  2 -1</clus>
<clus scale="   27.332">  1  5  2 -1</clus>
</clustering>
</event>
<event>
 9    2  0.1751298E-004  0.1418818E+03  0.7546771E-02  0.1213173E+00
         21   -1    0    0  501  502  0.00000000000E+00  0.00000000000E+00  0.19728159660E+03  0.19728159660E+03  0.00000000000E+00 0.  1.
         -3   -1    0    0    0  501 -0.00000000000E+00 -0.00000000000E+00 -0.29705525552E+03  0.29705525552E+03  0.00000000000E+00 0.  1.
         23    2    1    2    0    0 -0.18554358345E+02 -0.10406337078E+03 -0.16800465516E+03  0.21846393328E+03  0.91255008830E+02 0.  0.
         24    2    1    2    0    0 -0.50351155371E+01  0.13057948108E+03  0.13241498095E+03  0.20253022134E+03  0.80052545918E+02 0.  0.
        -13    1    4    4    0    0  0.26410372197E+02  0.95955695229E+02  0.11627457465E+03  0.15305155966E+03  0.00000000000E+00 0.  1.
         14    1    4    4    0    0 -0.31445487734E+02  0.34623785854E+02  0.16140406306E+02  0.49478661678E+02  0.00000000000E+00 0. -1.
        -11    1    3    3    0    0  0.20898629255E+02  0.43482596016E+00 -0.61140653285E+01  0.21778970894E+02  0.00000000000E+00 0. -1.
         11    1    3    3    0    0 -0.39452987601E+02 -0.10449819674E+03 -0.16189058983E+03  0.19668496238E+03  0.00000000000E+00 0.  1.
         -4    1    1    2    0  502  0.23589473883E+02 -0.26516110304E+02 -0.64183984713E+02  0.73342697505E+02  0.00000000000E+00 0.  1.
<scales pt_clust_5="13000.00000" pt_clust_6="13000.00000" pt_clust_7="13000.00000" pt_clust_8="13000.00000" pt_clust_9="35.49040"></scales>
<clustering>
<clus scale="   35.490">  1  9  2 -1</clus>
<clus scale="   80.053">  5  6 -1 -1</clus>
<clus scale="   91.255">  7  8 -1 -1</clus>
<clus scale="  134.950">  1  5  2 -1</clus>
<clus scale="   35.490">  1  5  2 -1</clus>
</clustering>
</event>
<event>
 9    2  0.1751298E-004  0.3737280E+03  0.7546771E-02  0.1106566E+00
         21   -1    0    0  501  502  0.00000000000E+00  0.00000000000E+00  0.41483795359E+03  0.41483795359E+03  0.00000000000E+00 0. -1.
          2   -1    0    0  502    0 -0.00000000000E+00 -0.00000000000E+00 -0.10833178140E+04  0.10833178140E+04  0.00000000000E+00 0. -1.
         24    2    1    2    0    0  0.15670626091E+02  0.35031517461E+02 -0.48660987488E+03  0.49465469834E+03  0.80133167412E+02 0.  0.
         23    2    1    2    0    0 -0.14967876140E+02  0.33265508154E+03 -0.43608089981E+03  0.55649198889E+03  0.92915778716E+02 0.  0.
        -11    1    3    3    0    0  0.23413135615E+02 -0.15678481490E+02 -0.79910895352E+02  0.84733351741E+02  0.00000000000E+00 0.  1.
         12    1    3    3    0    0 -0.77425095240E+01  0.50709998951E+02 -0.40669897953E+03  0.40992134660E+03  0.00000000000E+00 0. -1.
        -13    1    4    4    0    0 -0.49312592215E+02  0.13294502939E+03 -0.15631121641E+03  0.21104338171E+03  0.00000000000E+00 0. -1.
         13    1    4    4    0    0  0.34344716075E+02  0.19971005215E+03 -0.27976968340E+03  0.34544860718E+03  0.00000000000E+00 0.  1.
          1    1    1    2  501    0 -0.70274995122E+00 -0.36768659900E+03  0.25421091431E+03  0.44700908033E+03  0.00000000000E+00 0. -1.
<scales pt_clust_5="13000.00000" pt_clust_6="13000.00000" pt_clust_7="13000.00000" pt_clust_8="13000.00000" pt_clust_9="361.99350"></scales>
<clustering>
<clus scale="   80.133">  5  6 -1 -1</clus>
<clus scale="   88.849">  2  5  1 -1</clus>
<clus scale="   92.916">  7  8 -1 -1</clus>
<clus scale="  361.994">  1  9  2 -1</clus>
<clus scale="  361.994">  1  5  2 -1</clus>
</clustering>
</event>
<event>
 9    2  0.1751298E-004  0.2161867E+03  0.7546771E-02  0.1137891E+00
         21   -1    0    0  501  502  0.00000000000E+00  0.00000000000E+00  0.12094723438E+03  0.12094723438E+03  0.00000000000E+00 0. -1.
          2   -1    0    0  502    0 -0.00000000000E+00 -0.00000000000E+00 -0.18016148679E+04  0.18016148679E+04  0.00000000000E+00 0. -1.
         24    2    1    2    0    0  0.97307214017E+02  0.17588959727E+03 -0.99643366997E+03  0.10196351031E+04  0.79811280898E+02 0.  0.
         23    2    1    2    0    0 -0.75550445545E+02 -0.17145229661E+03 -0.77841465305E+03  0.80616415037E+03  0.94167432896E+02 0.  0.
        -13    1    3    3    0    0  0.96468900014E+02  0.13641173295E+03 -0.65694555698E+03  0.67785829964E+03  0.00000000000E+00 0.  1.
         14    1    3    3    0    0  0.83831400328E+00  0.39477864312E+02 -0.33948811299E+03  0.34177680349E+03  0.00000000000E+00 0. -1.
        -11    1    4    4    0    0 -0.48601889031E+02 -0.17802415950E+02 -0.15008113549E+03  0.15875584040E+03  0.00000000000E+00 0.  1.
         11    1    4    4    0    0 -0.26948556514E+02 -0.15364988066E+03 -0.62833351756E+03  0.64740830996E+03  0.00000000000E+00 0. -1.
          1    1    1    2  501    0 -0.21756768472E+02 -0.44373006558E+01  0.94180689545E+02  0.96762848731E+02  0.00000000000E+00 0. -1.
<scales pt_clust_5="13000.00000" pt_clust_6="13000.00000" pt_clust_7="13000.00000" pt_clust_8="13000.00000" pt_clust_9="22.20465"></scales>
<clustering>
<clus scale="   22.205">  1  9  2 -1</clus>
<clus scale="   79.811">  5  6 -1 -1</clus>
<clus scale="   94.167">  7  8 -1 -1</clus>
<clus scale="  210.331">  2  5  1 -1</clus>
<clus scale="   22.205">  1  5  2 -1</clus>
</clustering>
</event>
<event>
 9    2  0.1751298E-004  0.1098718E+03  0.7546771E-02  0.1264536E+00
         21   -1    0    0  501  502  0.00000000000E+00  0.00000000000E+00  0.38034679059E+02  0.38034679059E+02  0.00000000000E+00 0. -1.
          2   -1    0    0  502    0 -0.00000000000E+00 -0.00000000000E+00 -0.84867703361E+03  0.84867703361E+03  0.00000000000E+00 0. -1.
         24    2    1    2    0    0 -0.46277910356E+02  0.18276173819E+02 -0.44537694867E+03  0.45529026569E+03  0.80330169373E+02 0.  0.
         23    2    1    2    0    0  0.90764005879E+02 -0.80813758426E+02 -0.26572657812E+03  0.30573158893E+03  0.89956777606E+02 0.  0.
        -13    1    3    3    0    0 -0.39948997336E+02  0.19495313545E+02 -0.95336497362E+02  0.10519048135E+03  0.00000000000E+00 0.  1.
         14    1    3    3    0    0 -0.63289130201E+01 -0.12191397253E+01 -0.35004045131E+03  0.35009978434E+03  0.00000000000E+00 0. -1.
        -13    1    4    4    0    0 -0.43804825767E+01 -0.48644986510E+02 -0.65265650491E+02  0.81517657438E+02  0.00000000000E+00 0. -1.
         13    1    4    4    0    0  0.95144488456E+02 -0.32168771916E+02 -0.20046092763E+03  0.22421393149E+03  0.00000000000E+00 0.  1.
          1    1    1    2  501    0 -0.44486095524E+02  0.62537584607E+02 -0.99538827764E+02  0.12568985805E+03  0.00000000000E+00 0. -1.
<scales pt_clust_5="13000.00000" pt_clust_6="13000.00000" pt_clust_7="13000.00000" pt_clust_8="13000.00000" pt_clust_9="76.74609"></scales>
<clustering>
<clus scale="   76.746">  1  9  2 -1</clus>
<clus scale="   80.330">  5  6 -1 -1</clus>
<clus scale="   89.957">  7  8 -1 -1</clus>
<clus scale="  102.140">  2  5  1 -1</clus>
<clus scale="   76.746">  1  5  2 -1</clus>
</clustering>
</event>
<event>
 9    2  0.1751298E-004  0.1124545E+03  0.7546771E-02  0.1256553E+00
          2   -1    0    0  502    0 -0.00000000000E+00  0.00000000000E+00  0.12789601405E+03  0.12789601405E+03  0.00000000000E+00 0. -1.
         21   -1    0    0  501  502  0.00000000000E+00 -0.00000000000E+00 -0.28895531831E+03  0.28895531831E+03  0.00000000000E+00 0.  1.
         24    2    1    2    0    0  0.70580040593E+02 -0.19312905597E+02  0.61926964740E+02  0.12500414940E+03  0.80228161835E+02 0.  0.
         23    2    1    2    0    0 -0.10048025243E+03  0.16429758843E+02 -0.93986247899E+02  0.15939590647E+03  0.78787195027E+02 0.  0.
        -11    1    3    3    0    0  0.61865004604E+02 -0.47644620781E+02  0.37642307962E+02  0.86684670114E+02  0.00000000000E+00 0.  1.
         12    1    3    3    0    0  0.87150359883E+01  0.28331715184E+02  0.24284656778E+02  0.38319479281E+02  0.00000000000E+00 0. -1.
        -11    1    4    4    0    0 -0.34121961155E+01  0.28465753228E+02 -0.96618258302E+01  0.30253810794E+02  0.00000000000E+00 0. -1.
         11    1    4    4    0    0 -0.97068056315E+02 -0.12035994385E+02 -0.84324422069E+02  0.12914209567E+03  0.00000000000E+00 0.  1.
          1    1    1    2  501    0  0.29900211838E+02  0.28831467534E+01 -0.12900002110E+03  0.13245127650E+03  0.00000000000E+00 0. -1.
<scales pt_clust_5="13000.00000" pt_clust_6="13000.00000" pt_clust_7="13000.00000" pt_clust_8="13000.00000" pt_clust_9="30.03889"></scales>
<clustering>
<clus scale="   30.039">  2  9  1 -1</clus>
<clus scale="   78.787">  7  8 -1 -1</clus>
<clus scale="   80.228">  5  6 -1 -1</clus>
<clus scale="  111.431">  2  7  1 -1</clus>
<clus scale="   30.039">  2  5  1 -1</clus>
</clustering>
</event>
<event>
 9    2  0.1751298E-004  0.2199213E+03  0.7546771E-02  0.1134955E+00
         21   -1    0    0  501  502  0.00000000000E+00  0.00000000000E+00  0.99051179769E+02  0.99051179769E+02  0.00000000000E+00 0. -1.
          2   -1    0    0  502    0 -0.00000000000E+00 -0.00000000000E+00 -0.63344907139E+03  0.63344907139E+03  0.00000000000E+00 0. -1.
         24    2    1    2    0    0 -0.18786889729E+03 -0.65450705778E+02 -0.35517684419E+03  0.41468659630E+03  0.78967493626E+02 0.  0.
         23    2    1    2    0    0  0.19639683529E+03  0.45375866303E+02 -0.11469927657E+03  0.24970503703E+03  0.92552662415E+02 0.  0.
        -11    1    3    3    0    0 -0.11786470064E+03 -0.39044162697E+00 -0.21157504053E+03  0.24219049915E+03  0.00000000000E+00 0.  1.
         12    1    3    3    0    0 -0.70004196645E+02 -0.65060264151E+02 -0.14360180366E+03  0.17249609716E+03  0.00000000000E+00 0. -1.
        -13    1    4    4    0    0  0.10679607218E+03  0.66560946671E+02 -0.88942186445E+02  0.15409890715E+03  0.00000000000E+00 0.  1.
         13    1    4    4    0    0  0.89600763110E+02 -0.21185080368E+02 -0.25757090126E+02  0.95606129887E+02  0.00000000000E+00 0. -1.
          1    1    1    2  501    0 -0.85279380009E+01  0.20074839474E+02 -0.64521770857E+02  0.68108617817E+02  0.00000000000E+00 0. -1.
<scales pt_clust_5="13000.00000" pt_clust_6="13000.00000" pt_clust_7="13000.00000" pt_clust_8="13000.00000" pt_clust_9="21.81113"></scales>
<clustering>
<clus scale="   21.811">  1  9  2 -1</clus>
<clus scale="   78.967">  5  6 -1 -1</clus>
<clus scale="   92.553">  7  8 -1 -1</clus>
<clus scale="  214.558">  2  5  1 -1</clus>
<clus scale="   21.811">  1  5  2 -1</clus>
</clustering>
</event>
<event>
 9    2  0.1751298E-004  0.9317536E+02  0.7546771E-02  0.1300411E+00
         21   -1    0    0  501  502  0.00000000000E+00  0.00000000000E+00  0.46861785094E+02  0.46861785094E+02  0.00000000000E+00 0. -1.
         -1   -1    0    0    0  501 -0.00000000000E+00 -0.00000000000E+00 -0.27341144062E+03  0.27341144062E+03  0.00000000000E+00 0.  1.
         23    2    1    2    0    0  0.75709280626E+01 -0.18374658007E+02 -0.16729041581E+03  0.19085497120E+03  0.89691637298E+02 0.  0.
         24    2    1    2    0    0  0.43257386475E+01  0.39808226249E+02 -0.49616236734E+02  0.10307596849E+03  0.80990600941E+02 0.  0.
        -11    1    4    4    0    0 -0.14024289932E+02  0.38165227936E+02 -0.66591957085E+02  0.78024060904E+02  0.00000000000E+00 0.  1.
         12    1    4    4    0    0  0.18350028580E+02  0.16429983132E+01  0.16975720351E+02  0.25051907588E+02  0.00000000000E+00 0. -1.
        -11    1    3    3    0    0  0.48149029866E+02 -0.30071537098E+01 -0.94842353919E+02  0.10640697415E+03  0.00000000000E+00 0. -1.
         11    1    3    3    0    0 -0.40578101803E+02 -0.15367504297E+02 -0.72448061887E+02  0.84447997049E+02  0.00000000000E+00 0.  1.
         -2    1    1    2    0  502 -0.11896666710E+02 -0.21433568242E+02 -0.96430029834E+01  0.26342286023E+02  0.00000000000E+00 0.  1.
<scales pt_clust_5="13000.00000" pt_clust_6="13000.00000" pt_clust_7="13000.00000" pt_clust_8="13000.00000" pt_clust_9="24.51384"></scales>
<clustering>
<clus scale="   24.514">  1  9  2 -1</clus>
<clus scale="   80.991">  5  6 -1 -1</clus>
<clus scale="   84.832">  1  5  2 -1</clus>
<clus scale="   89.692">  7  8 -1 -1</clus>
<clus scale="   24.514">  1  5  2 -1</clus>
</clustering>
</event>
<event>
 9    2  0.1751298E-004  0.1321604E+03  0.7546771E-02  0.1237379E+00
          2   -1    0    0  502    0 -0.00000000000E+00  0.00000000000E+00  0.39788462579E+03  0.39788462579E+03  0.00000000000E+00 0. -1.
         21   -1    0    0  501  502  0.00000000000E+00 -0.00000000000E+00 -0.10599994215E+03  0.10599994215E+03  0.00000000000E+00 0.  1.
         24    2    1    2    0    0 -0.57041947567E+02 -0.18317020894E+02 -0.25504936067E+02  0.10406059425E+03  0.81171475747E+02 0.  0.
         23    2    1    2    0    0 -0.18350428488E+02  0.99197508201E+02  0.19626646835E+03  0.23582250606E+03  0.83155540436E+02 0.  0.
        -11    1    3    3    0    0 -0.63920077353E+02 -0.41790416974E+02 -0.20813656501E+02  0.79154428408E+02  0.00000000000E+00 0.  1.
         12    1    3    3    0    0  0.68781297856E+01  0.23473396081E+02 -0.46912795651E+01  0.24906165841E+02  0.00000000000E+00 0. -1.
        -13    1    4    4    0    0  0.27346505947E+02  0.83241083730E+01  0.51376892947E+02  0.58793769198E+02  0.00000000000E+00 0.  1.
         13    1    4    4    0    0 -0.45696934435E+02  0.90873399828E+02  0.14488957541E+03  0.17702873686E+03  0.00000000000E+00 0. -1.
          1    1    1    2  501    0  0.75392376056E+02 -0.80880487308E+02  0.12112315135E+03  0.16400146764E+03  0.00000000000E+00 0. -1.
<scales pt_clust_5="13000.00000" pt_clust_6="13000.00000" pt_clust_7="13000.00000" pt_clust_8="13000.00000" pt_clust_9="102.72066"></scales>
<clustering>
<clus scale="   81.171">  5  6 -1 -1</clus>
<clus scale="   83.156">  7  8 -1 -1</clus>
<clus scale="  100.887">  1  5  2 -1</clus>
<clus scale="  102.721">  2  9  1 -1</clus>
<clus scale="  102.721">  2  5  1 -1</clus>
</clustering>
</event>
<event>
 9    2  0.1751298E-004  0.1074978E+03  0.7546771E-02  0.1269635E+00
          2   -1    0    0  502    0 -0.00000000000E+00  0.00000000000E+00  0.98223319528E+03  0.98223319528E+03  0.00000000000E+00 0. -1.
         21   -1    0    0  501  502  0.00000000000E+00 -0.00000000000E+00 -0.23620534398E+02  0.23620534398E+02  0.00000000000E+00 0. -1.
         24    2    1    2    0    0  0.22701553818E+02 -0.51333199765E+02  0.56878757904E+03  0.57716364216E+03  0.80300073636E+02 0.  0.
         23    2    1    2    0    0  0.22672243020E+02  0.73635512121E+02  0.20510563844E+03  0.23717651789E+03  0.90819372779E+02 0.  0.
        -13    1    3    3    0    0 -0.44448072369E+01 -0.22512365566E+02  0.34642215706E+02  0.41552930388E+02  0.00000000000E+00 0.  1.
         14    1    3    3    0    0  0.27146361055E+02 -0.28820834199E+02  0.53414536333E+03  0.53561071178E+03  0.00000000000E+00 0. -1.
        -13    1    4    4    0    0  0.22868709711E+02  0.20861567093E+02  0.17225256929E+03  0.17501180101E+03  0.00000000000E+00 0.  1.
         13    1    4    4    0    0 -0.19646669101E+00  0.52773945028E+02  0.32853069151E+02  0.62164716887E+02  0.00000000000E+00 0. -1.
          1    1    1    2  501    0 -0.45373796838E+02 -0.22302312356E+02  0.18471944341E+03  0.19151356962E+03  0.00000000000E+00 0. -1.
<scales pt_clust_5="13000.00000" pt_clust_6="13000.00000" pt_clust_7="13000.00000" pt_clust_8="13000.00000" pt_clust_9="50.55865"></scales>
<clustering>
<clus scale="   50.559">  2  9  1 -1</clus>
<clus scale="   80.300">  5  6 -1 -1</clus>
<clus scale="   90.819">  7  8 -1 -1</clus>
<clus scale="   98.771">  1  5  2 -1</clus>
<clus scale="   50.559">  2  5  1 -1</clus>
</clustering>
</event>
<event>
 9    2  0.1751298E-004  0.1347516E+03  0.7546771E-02  0.1223566E+00
          2   -1    0    0  502    0 -0.00000000000E+00  0.00000000000E+00  0.69563524449E+03  0.69563524449E+03  0.00000000000E+00 0. -1.
         21   -1    0    0  501  502  0.00000000000E+00 -0.00000000000E+00 -0.13043800823E+03  0.13043800823E+03  0.00000000000E+00 0. -1.
         24    2    1    2    0    0  0.19025544464E+02 -0.10633958229E+03  0.60619700846E+03  0.62089095434E+03  0.79753909036E+02 0.  0.
         23    2    1    2    0    0 -0.45817791980E+02  0.14947526640E+02 -0.78047725632E+01  0.10432477330E+03  0.92195689889E+02 0.  0.
        -11    1    3    3    0    0  0.24814172163E+02 -0.35633246748E+02  0.90960021443E+02  0.10079284158E+03  0.00000000000E+00 0.  1.
         12    1    3    3    0    0 -0.57886276993E+01 -0.70706335546E+02  0.51523698702E+03  0.52009811276E+03  0.00000000000E+00 0. -1.
        -11    1    4    4    0    0  0.91924085290E+00  0.23524489851E+02 -0.40360227255E+02  0.46724667688E+02  0.00000000000E+00 0. -1.
         11    1    4    4    0    0 -0.46737032833E+02 -0.85769632107E+01  0.32555454692E+02  0.57600105609E+02  0.00000000000E+00 0.  1.
          1    1    1    2  501    0  0.26792247516E+02  0.91392055654E+02 -0.33194999648E+02  0.10085752508E+03  0.00000000000E+00 0. -1.
<scales pt_clust_5="13000.00000" pt_clust_6="13000.00000" pt_clust_7="13000.00000" pt_clust_8="13000.00000" pt_clust_9="95.23829"></scales>
<clustering>
<clus scale="   79.754">  5  6 -1 -1</clus>
<clus scale="   92.196">  7  8 -1 -1</clus>
<clus scale="   95.238">  2  9  1 -1</clus>
<clus scale="  126.565">  1  5  2 -1</clus>
<clus scale="   95.238">  2  5  1 -1</clus>
</clustering>
</event>
<event>
 9    2  0.1751298E-004  0.2773692E+03  0.7546771E-02  0.1109362E+00
          2   -1    0    0  502    0 -0.00000000000E+00  0.00000000000E+00  0.11229568245E+04  0.11229568245E+04  0.00000000000E+00 0. -1.
         21   -1    0    0  501  502  0.00000000000E+00 -0.00000000000E+00 -0.19782136650E+03  0.19782136650E+03  0.00000000000E+00 0. -1.
         24    2    1    2    0    0 -0.10807349970E+03 -0.15019712244E+03  0.42500679357E+03  0.47071634647E+03  0.81878247013E+02 0.  0.
         23    2    1    2    0    0 -0.17554624714E+03  0.11755698611E+03  0.51511433861E+03  0.56417706050E+03  0.91196731730E+02 0.  0.
        -11    1    3    3    0    0 -0.50098921560E+02 -0.29863119562E+02  0.68260101997E+02  0.89783903770E+02  0.00000000000E+00 0.  1.
         12    1    3    3    0    0 -0.57974578137E+02 -0.12033400288E+03  0.35674669157E+03  0.38093244270E+03  0.00000000000E+00 0. -1.
        -13    1    4    4    0    0 -0.87376522865E+02  0.49987269911E+02  0.35714690315E+03  0.37106238603E+03  0.00000000000E+00 0. -1.
         13    1    4    4    0    0 -0.88169724274E+02  0.67569716194E+02  0.15796743547E+03  0.19311467446E+03  0.00000000000E+00 0.  1.
          1    1    1    2  501    0  0.28361974684E+03  0.32640136335E+02 -0.14985674211E+02  0.28588478401E+03  0.00000000000E+00 0. -1.
<scales pt_clust_5="13000.00000" pt_clust_6="13000.00000" pt_clust_7="13000.00000" pt_clust_8="13000.00000" pt_clust_9="261.94811"></scales>
<clustering>
<clus scale="   81.878">  5  6 -1 -1</clus>
<clus scale="   91.197">  7  8 -1 -1</clus>
<clus scale="  202.344">  1  5  2 -1</clus>
<clus scale="  261.948">  2  9  1 -1</clus>
<clus scale="  261.948">  2  5  1 -1</clus>
</clustering>
</event>
<event>
 9    2  0.1751298E-004  0.1103468E+03  0.7546771E-02  0.1265141E+00
         21   -1    0    0  501  502  0.00000000000E+00  0.00000000000E+00  0.67127829730E+02  0.67127829730E+02  0.00000000000E+00 0. -1.
          2   -1    0    0  502    0 -0.00000000000E+00 -0.00000000000E+00 -0.51648193470E+03  0.51648193470E+03  0.00000000000E+00 0. -1.
         23    2    1    2    0    0 -0.65299125567E+02 -0.73032222260E+01 -0.33958479507E+03  0.35840329519E+03  0.93903014384E+02 0.  0.
         24    2    1    2    0    0  0.47108326251E+02 -0.14672952843E+02 -0.14902924294E+03  0.17667606854E+03  0.81056942920E+02 0.  0.
        -11    1    4    4    0    0  0.69571587711E+02 -0.15586028032E+02 -0.10081510410E+03  0.12347799521E+03  0.00000000000E+00 0.  1.
         12    1    4    4    0    0 -0.22463261460E+02  0.91307518916E+00 -0.48214138835E+02  0.53198073324E+02  0.00000000000E+00 0. -1.
        -13    1    3    3    0    0 -0.10774088585E+02 -0.44675678971E+02 -0.10361363976E+03  0.11334806404E+03  0.00000000000E+00 0.  1.
         13    1    3    3    0    0 -0.54525036982E+02  0.37372456745E+02 -0.23597115531E+03  0.24505523116E+03  0.00000000000E+00 0. -1.
          1    1    1    2  501    0  0.18190799317E+02  0.21976175069E+02  0.39259933034E+02  0.48530400701E+02  0.00000000000E+00 0. -1.
<scales pt_clust_5="13000.00000" pt_clust_6="13000.00000" pt_clust_7="13000.00000" pt_clust_8="13000.00000" pt_clust_9="28.52819"></scales>
<clustering>
<clus scale="   28.528">  1  9  2 -1</clus>
<clus scale="   81.057">  5  6 -1 -1</clus>
<clus scale="   93.903">  7  8 -1 -1</clus>
<clus scale="   99.644">  1  5  2 -1</clus>
<clus scale="   28.528">  1  5  2 -1</clus>
</clustering>
</event>
<event>
 9    2  0.1751298E-004  0.2519779E+03  0.7546771E-02  0.1144053E+00
          2   -1    0    0  502    0 -0.00000000000E+00  0.00000000000E+00  0.40660142851E+03  0.40660142851E+03  0.00000000000E+00 0. -1.
         21   -1    0    0  501  502  0.00000000000E+00 -0.00000000000E+00 -0.27541362589E+03  0.27541362589E+03  0.00000000000E+00 0. -1.
         24    2    1    2    0    0 -0.32314251747E+02  0.75254934469E+02  0.10833960061E+03  0.15764430123E+03  0.80042117805E+02 0.  0.
         23    2    1    2    0    0  0.17534127078E+03  0.12636473532E+03  0.11398878093E+03  0.26090571840E+03  0.91464441969E+02 0.  0.
        -13    1    3    3    0    0 -0.24891348648E+02  0.80686511370E+01 -0.40653897257E+01  0.26480365600E+02  0.00000000000E+00 0.  1.
         14    1    3    3    0    0 -0.74229030994E+01  0.67186283332E+02  0.11240499033E+03  0.13116393563E+03  0.00000000000E+00 0. -1.
        -11    1    4    4    0    0  0.13567019489E+03  0.12301138981E+03  0.57794602476E+02  0.19203754810E+03  0.00000000000E+00 0. -1.
         11    1    4    4    0    0  0.39671075893E+02  0.33533455086E+01  0.56194178457E+02  0.68868170304E+02  0.00000000000E+00 0.  1.
          1    1    1    2  501    0 -0.14302701904E+03 -0.20161966979E+03 -0.91140578915E+02  0.26346503477E+03  0.00000000000E+00 0. -1.
<scales pt_clust_5="13000.00000" pt_clust_6="13000.00000" pt_clust_7="13000.00000" pt_clust_8="13000.00000" pt_clust_9="234.79167"></scales>
<clustering>
<clus scale="   80.042">  5  6 -1 -1</clus>
<clus scale="   91.464">  7  8 -1 -1</clus>
<clus scale="  114.517">  1  5  2 -1</clus>
<clus scale="  234.792">  2  9  1 -1</clus>
<clus scale="  234.792">  2  5  1 -1</clus>
</clustering>
</event>
<event>
 9    2  0.1751298E-004  0.1246629E+03  0.7546771E-02  0.1248392E+00
          4   -1    0    0  502    0 -0.00000000000E+00  0.00000000000E+00  0.14363194974E+03  0.14363194974E+03  0.00000000000E+00 0. -1.
         21   -1    0    0  501  502  0.00000000000E+00 -0.00000000000E+00 -0.40911805048E+03  0.40911805048E+03  0.00000000000E+00 0. -1.
         23    2    1    2    0    0 -0.35876022197E+02  0.23001774649E+02 -0.56288996492E+02  0.11147219780E+03  0.86263718623E+02 0.  0.
         24    2    1    2    0    0 -0.91986179881E+02 -0.14925098244E+02 -0.27239673659E+03  0.29842063966E+03  0.78553677315E+02 0.  0.
        -13    1    4    4    0    0 -0.60189801642E+02 -0.18285056379E+02 -0.25369860879E+03  0.26138121510E+03  0.00000000000E+00 0.  1.
         14    1    4    4    0    0 -0.31796378239E+02  0.33599581351E+01 -0.18698127807E+02  0.37039424554E+02  0.00000000000E+00 0. -1.
        -11    1    3    3    0    0 -0.26919312055E+02 -0.31009320426E+02 -0.19107805838E+02  0.45291672068E+02  0.00000000000E+00 0. -1.
         11    1    3    3    0    0 -0.89567101429E+01  0.54011095075E+02 -0.37181190654E+02  0.66180525732E+02  0.00000000000E+00 0.  1.
          3    1    1    2  501    0  0.12786220208E+03 -0.80766764044E+01  0.63199632354E+02  0.14285716276E+03  0.00000000000E+00 0. -1.
<scales pt_clust_5="13000.00000" pt_clust_6="13000.00000" pt_clust_7="13000.00000" pt_clust_8="13000.00000" pt_clust_9="96.79964"></scales>
<clustering>
<clus scale="   78.554">  5  6 -1 -1</clus>
<clus scale="   86.264">  7  8 -1 -1</clus>
<clus scale="   96.216">  1  7  2 -1</clus>
<clus scale="   96.800">  2  9  1 -1</clus>
<clus scale="   96.800">  2  5  1 -1</clus>
</clustering>
</event>
<event>
 9    2  0.1751298E-004  0.1025770E+03  0.7546771E-02  0.1280242E+00
         21   -1    0    0  501  502  0.00000000000E+00  0.00000000000E+00  0.31535602915E+02  0.31535602915E+02  0.00000000000E+00 0.  1.
         -1   -1    0    0    0  501 -0.00000000000E+00 -0.00000000000E+00 -0.68799605662E+03  0.68799605662E+03  0.00000000000E+00 0.  1.
         24    2    1    2    0    0  0.29342573456E+02  0.64344206737E+02 -0.32474194385E+03  0.34193237087E+03  0.80369475508E+02 0.  0.
         23    2    1    2    0    0 -0.21033715334E+02  0.11662733921E+02 -0.12220833331E+03  0.15457326726E+03  0.91540055037E+02 0.  0.
        -13    1    3    3    0    0 -0.17243379169E+02  0.56402438178E+02 -0.20095443324E+03  0.20943078426E+03  0.00000000000E+00 0.  1.
         14    1    3    3    0    0  0.46585952626E+02  0.79417685592E+01 -0.12378751061E+03  0.13250158661E+03  0.00000000000E+00 0. -1.
        -11    1    4    4    0    0  0.30743091609E+02  0.26522824101E+02 -0.47881388428E+02  0.62779178378E+02  0.00000000000E+00 0.  1.
         11    1    4    4    0    0 -0.51776806942E+02 -0.14860090180E+02 -0.74326944883E+02  0.91794088878E+02  0.00000000000E+00 0. -1.
         -2    1    1    2    0  502 -0.83088581225E+01 -0.76006940658E+02 -0.20951017655E+03  0.22302602142E+03  0.00000000000E+00 0.  1.
<scales pt_clust_5="13000.00000" pt_clust_6="13000.00000" pt_clust_7="13000.00000" pt_clust_8="13000.00000" pt_clust_9="76.45978"></scales>
<clustering>
<clus scale="   76.460">  1  9  2 -1</clus>
<clus scale="   80.369">  5  6 -1 -1</clus>
<clus scale="   91.540">  7  8 -1 -1</clus>
<clus scale="   92.745">  2  5  1 -1</clus>
<clus scale="   76.460">  1  5  2 -1</clus>
</clustering>
</event>
<event>
 9    2  0.1751298E-004  0.1073915E+03  0.7546771E-02  0.1277837E+00
          2   -1    0    0  502    0 -0.00000000000E+00  0.00000000000E+00  0.46907788160E+03  0.46907788160E+03  0.00000000000E+00 0. -1.
         21   -1    0    0  501  502  0.00000000000E+00 -0.00000000000E+00 -0.37874688277E+02  0.37874688277E+02  0.00000000000E+00 0.  1.
         24    2    1    2    0    0  0.43387967132E+02  0.39071286817E+02  0.27207328977E+03  0.28706672008E+03  0.70529040979E+02 0.  0.
         23    2    1    2    0    0 -0.14503679499E+01 -0.28493944948E+02  0.14018958120E+03  0.17266955815E+03  0.96683241414E+02 0.  0.
        -13    1    3    3    0    0  0.58022141574E+02  0.43608664763E+02  0.24905103657E+03  0.25941222672E+03  0.00000000000E+00 0.  1.
         14    1    3    3    0    0 -0.14634174442E+02 -0.45373779455E+01  0.23022253205E+02  0.27654493357E+02  0.00000000000E+00 0. -1.
        -13    1    4    4    0    0  0.34839845462E+02 -0.48039541332E+02  0.76775769836E+02  0.97036751785E+02  0.00000000000E+00 0.  1.
         13    1    4    4    0    0 -0.36290213412E+02  0.19545596384E+02  0.63413811363E+02  0.75632806368E+02  0.00000000000E+00 0. -1.
          1    1    1    2  501    0 -0.41937599182E+02 -0.10577341869E+02  0.18940322350E+02  0.47216291647E+02  0.00000000000E+00 0. -1.
<scales pt_clust_5="13000.00000" pt_clust_6="13000.00000" pt_clust_7="13000.00000" pt_clust_8="13000.00000" pt_clust_9="43.25092"></scales>
<clustering>
<clus scale="   43.251">  2  9  1 -1</clus>
<clus scale="   70.529">  5  6 -1 -1</clus>
<clus scale="   84.615">  1  5  2 -1</clus>
<clus scale="   96.683">  7  8 -1 -1</clus>
<clus scale="   43.251">  2  5  1 -1</clus>
</clustering>
</event>
<event>
 9    2  0.1751298E-004  0.8992826E+02  0.7546771E-02  0.1307239E+00
         21   -1    0    0  501  502  0.00000000000E+00  0.00000000000E+00  0.64668751113E+02  0.64668751113E+02  0.00000000000E+00 0. -1.
          2   -1    0    0  502    0 -0.00000000000E+00 -0.00000000000E+00 -0.19745251980E+03  0.19745251980E+03  0.00000000000E+00 0. -1.
         24    2    1    2    0    0  0.20881134569E+02  0.20269651119E+02 -0.10787707664E+03  0.13787052236E+03  0.80770890382E+02 0.  0.
         23    2    1    2    0    0 -0.80193318696E+01  0.82095051668E+01 -0.28348379670E+02  0.92812976286E+02  0.87629403048E+02 0.  0.
        -13    1    3    3    0    0 -0.79082035288E+01  0.43047426723E+02 -0.34167262500E+02  0.55524971475E+02  0.00000000000E+00 0.  1.
         14    1    3    3    0    0  0.28789338098E+02 -0.22777775603E+02 -0.73709814141E+02  0.82345550883E+02  0.00000000000E+00 0. -1.
        -11    1    4    4    0    0 -0.41515691251E+02 -0.10949851475E+02 -0.32713746116E+02  0.53978153473E+02  0.00000000000E+00 0.  1.
         11    1    4    4    0    0  0.33496359381E+02  0.19159356642E+02  0.43653664461E+01  0.38834822813E+02  0.00000000000E+00 0. -1.
          1    1    1    2  501    0 -0.12861802700E+02 -0.28479156286E+02  0.34416876253E+01  0.31437772268E+02  0.00000000000E+00 0. -1.
<scales pt_clust_5="13000.00000" pt_clust_6="13000.00000" pt_clust_7="13000.00000" pt_clust_8="13000.00000" pt_clust_9="31.24881"></scales>
<clustering>
<clus scale="   31.249">  1  9  2 -1</clus>
<clus scale="   80.771">  5  6 -1 -1</clus>
<clus scale="   83.259">  2  5  1 -1</clus>
<clus scale="   87.629">  7  8 -1 -1</clus>
<clus scale="   31.249">  1  5  2 -1</clus>
</clustering>
</event>
<event>
 9    2  0.1751298E-004  0.1022007E+03  0.7546771E-02  0.1280571E+00
         -1   -1    0    0    0  501 -0.00000000000E+00  0.00000000000E+00  0.46667046816E+03  0.46667046816E+03  0.00000000000E+00 0.  1.
         21   -1    0    0  501  502  0.00000000000E+00 -0.00000000000E+00 -0.52689575850E+02  0.52689575850E+02  0.00000000000E+00 0. -1.
         23    2    1    2    0    0  0.32348551230E+02  0.40269690056E+02  0.32390750075E+03  0.34072798727E+03  0.92257333399E+02 0.  0.
         24    2    1    2    0    0 -0.31104242729E+01 -0.81137017353E+01  0.46067537813E+01  0.82749723504E+02  0.82163177060E+02 0.  0.
        -13    1    4    4    0    0  0.12787817423E+02  0.27349174999E+02  0.24692277916E+02  0.39002746522E+02  0.00000000000E+00 0.  1.
         14    1    4    4    0    0 -0.15898241696E+02 -0.35462876735E+02 -0.20085524135E+02  0.43746976982E+02  0.00000000000E+00 0. -1.
        -11    1    3    3    0    0 -0.23254871362E+02  0.76248264461E+01  0.25150780714E+02  0.35092574584E+02  0.00000000000E+00 0.  1.
         11    1    3    3    0    0  0.55603422591E+02  0.32644863610E+02  0.29875672003E+03  0.30563541269E+03  0.00000000000E+00 0. -1.
         -2    1    1    2    0  502 -0.29238126957E+02 -0.32155988321E+02  0.85466637787E+02  0.95882333239E+02  0.00000000000E+00 0.  1.
<scales pt_clust_5="13000.00000" pt_clust_6="13000.00000" pt_clust_7="13000.00000" pt_clust_8="13000.00000" pt_clust_9="43.46122"></scales>
<clustering>
<clus scale="   43.461">  2  9  1 -1</clus>
<clus scale="   82.163">  5  6 -1 -1</clus>
<clus scale="   92.257">  7  8 -1 -1</clus>
<clus scale="   93.190">  2  5  1 -1</clus>
<clus scale="   43.461">  2  5  1 -1</clus>
</clustering>
</event>
<event>
 9    2  0.1751298E-004  0.1622040E+03  0.7546771E-02  0.1187715E+00
         21   -1    0    0  501  502  0.00000000000E+00  0.00000000000E+00  0.40483720580E+02  0.40483720580E+02  0.00000000000E+00 0.  1.
          2   -1    0    0  502    0 -0.00000000000E+00 -0.00000000000E+00 -0.14138890334E+04  0.14138890334E+04  0.00000000000E+00 0. -1.
         23    2    1    2    0    0  0.11239451418E+03  0.21383457980E+02 -0.57706448727E+03  0.59525891367E+03  0.90774295611E+02 0.  0.
         24    2    1    2    0    0 -0.19329345581E+03  0.38067606339E+02 -0.43916252693E+03  0.48809442732E+03  0.80999643284E+02 0.  0.
        -11    1    4    4    0    0 -0.17124780364E+03  0.32278319480E+01 -0.36657692707E+03  0.40461694553E+03  0.00000000000E+00 0.  1.
         12    1    4    4    0    0 -0.22045652171E+02  0.34839774390E+02 -0.72585599854E+02  0.83477481787E+02  0.00000000000E+00 0. -1.
        -11    1    3    3    0    0  0.24379148278E+02 -0.29109799301E+02 -0.89054414031E+02  0.96811218072E+02  0.00000000000E+00 0.  1.
         11    1    3    3    0    0  0.88015365898E+02  0.50493257281E+02 -0.48801007324E+03  0.49844769560E+03  0.00000000000E+00 0. -1.
          1    1    1    2  501    0  0.80898941638E+02 -0.59451064318E+02 -0.35717829859E+03  0.37101941295E+03  0.00000000000E+00 0. -1.
<scales pt_clust_5="13000.00000" pt_clust_6="13000.00000" pt_clust_7="13000.00000" pt_clust_8="13000.00000" pt_clust_9="100.39461"></scales>
<clustering>
<clus scale="   81.000">  5  6 -1 -1</clus>
<clus scale="   90.774">  7  8 -1 -1</clus>
<clus scale="  100.395">  1  9  2 -1</clus>
<clus scale="  156.943">  1  5  2 -1</clus>
<clus scale="  100.395">  1  5  2 -1</clus>
</clustering>
</event>
<event>
 9    2  0.1751298E-004  0.9918507E+02  0.7546771E-02  0.1289060E+00
         21   -1    0    0  501  502  0.00000000000E+00  0.00000000000E+00  0.11286616144E+03  0.11286616144E+03  0.00000000000E+00 0.  1.
          2   -1    0    0  502    0 -0.00000000000E+00 -0.00000000000E+00 -0.39949612341E+03  0.39949612341E+03  0.00000000000E+00 0. -1.
         23    2    1    2    0    0  0.41129660670E+02 -0.34477347079E+01 -0.33599980561E+03  0.35081471559E+03  0.92041074779E+02 0.  0.
         24    2    1    2    0    0  0.69905649578E+01  0.44368224064E+02  0.32353168788E+02  0.96128842685E+02  0.78591472567E+02 0.  0.
        -13    1    4    4    0    0 -0.17316589270E+02  0.57162814123E+02  0.96720410910E+01  0.60506197709E+02  0.00000000000E+00 0.  1.
         14    1    4    4    0    0  0.24307154228E+02 -0.12794590059E+02  0.22681127697E+02  0.35622644975E+02  0.00000000000E+00 0. -1.
        -13    1    3    3    0    0  0.42899183174E+02  0.39211330022E+02 -0.19947421617E+03  0.20776869647E+03  0.00000000000E+00 0. -1.
         13    1    3    3    0    0 -0.17695225043E+01 -0.42659064730E+02 -0.13652558944E+03  0.14304601912E+03  0.00000000000E+00 0.  1.
          1    1    1    2  501    0 -0.48120225627E+02 -0.40920489356E+02  0.17016674851E+02  0.65418726574E+02  0.00000000000E+00 0. -1.
<scales pt_clust_5="13000.00000" pt_clust_6="13000.00000" pt_clust_7="13000.00000" pt_clust_8="13000.00000" pt_clust_9="63.16678"></scales>
<clustering>
<clus scale="   63.167">  1  9  2 -1</clus>
<clus scale="   78.591">  5  6 -1 -1</clus>
<clus scale="   86.849">  1  5  2 -1</clus>
<clus scale="   92.041">  7  8 -1 -1</clus>
<clus scale="   63.167">  1  5  2 -1</clus>
</clustering>
</event>
<event>
 9    2  0.1751298E-004  0.1244775E+03  0.7546771E-02  0.1238909E+00
         -1   -1    0    0    0  501 -0.00000000000E+00  0.00000000000E+00  0.11193189692E+03  0.11193189692E+03  0.00000000000E+00 0.  1.
         21   -1    0    0  501  502  0.00000000000E+00 -0.00000000000E+00 -0.25754469353E+03  0.25754469353E+03  0.00000000000E+00 0. -1.
         24    2    1    2    0    0  0.42350399072E+02  0.54144584906E+02 -0.94260954355E+00  0.10597288416E+03  0.80648442563E+02 0.  0.
         23    2    1    2    0    0 -0.96436911490E+02 -0.74096366309E+02 -0.65270362878E+02  0.16538257459E+03  0.91108870642E+02 0.  0.
        -13    1    3    3    0    0  0.41475850863E+02  0.72602446683E+02  0.10449643239E+02  0.84264799964E+02  0.00000000000E+00 0.  1.
         14    1    3    3    0    0  0.87454820944E+00 -0.18457861777E+02 -0.11392252782E+02  0.21708084194E+02  0.00000000000E+00 0. -1.
        -11    1    4    4    0    0 -0.10351483173E+02  0.19745985139E+02 -0.24476036295E-01  0.22294791590E+02  0.00000000000E+00 0.  1.
         11    1    4    4    0    0 -0.86085428317E+02 -0.93842351448E+02 -0.65245886842E+02  0.14308778300E+03  0.00000000000E+00 0. -1.
         -2    1    1    2    0  502  0.54086512418E+02  0.19951781403E+02 -0.79399824183E+02  0.98121131705E+02  0.00000000000E+00 0.  1.
<scales pt_clust_5="13000.00000" pt_clust_6="13000.00000" pt_clust_7="13000.00000" pt_clust_8="13000.00000" pt_clust_9="57.64915"></scales>
<clustering>
<clus scale="   57.649">  2  9  1 -1</clus>
<clus scale="   80.648">  5  6 -1 -1</clus>
<clus scale="   91.109">  7  8 -1 -1</clus>
<clus scale="  117.038">  1  5  2 -1</clus>
<clus scale="   57.649">  2  5  1 -1</clus>
</clustering>
</event>
<event>
 9    2  0.1751298E-004  0.1377595E+03  0.7546771E-02  0.1218439E+00
         21   -1    0    0  501  502  0.00000000000E+00  0.00000000000E+00  0.14781784948E+03  0.14781784948E+03  0.00000000000E+00 0.  1.
          2   -1    0    0  502    0 -0.00000000000E+00 -0.00000000000E+00 -0.36189806728E+03  0.36189806728E+03  0.00000000000E+00 0. -1.
         24    2    1    2    0    0 -0.50887656122E+02  0.97064219303E+02 -0.22402508723E+03  0.26260863513E+03  0.82249859109E+02 0.  0.
         23    2    1    2    0    0  0.60955217351E+02 -0.38396642748E+02  0.90179766089E+02  0.14720293252E+03  0.91359030391E+02 0.  0.
        -11    1    3    3    0    0 -0.65762609291E+02  0.64581004133E+02 -0.11214031700E+03  0.14515811232E+03  0.00000000000E+00 0.  1.
         12    1    3    3    0    0  0.14874953168E+02  0.32483215169E+02 -0.11188477023E+03  0.11745052281E+03  0.00000000000E+00 0. -1.
        -11    1    4    4    0    0  0.46670857881E+02 -0.66252700095E+02  0.46405297137E+02  0.93386513200E+02  0.00000000000E+00 0. -1.
         11    1    4    4    0    0  0.14284359470E+02  0.27856057347E+02  0.43774468952E+02  0.53816419320E+02  0.00000000000E+00 0.  1.
          1    1    1    2  501    0 -0.10067561229E+02 -0.58667576555E+02 -0.80234896656E+02  0.99904349101E+02  0.00000000000E+00 0. -1.
<scales pt_clust_5="13000.00000" pt_clust_6="13000.00000" pt_clust_7="13000.00000" pt_clust_8="13000.00000" pt_clust_9="59.52515"></scales>
<clustering>
<clus scale="   59.525">  1  9  2 -1</clus>
<clus scale="   82.250">  5  6 -1 -1</clus>
<clus scale="   91.359">  7  8 -1 -1</clus>
<clus scale="  131.895">  2  5  1 -1</clus>
<clus scale="   59.525">  1  5  2 -1</clus>
</clustering>
</event>
<event>
 9    2  0.1751298E-004  0.2553117E+03  0.7546771E-02  0.1143525E+00
         21   -1    0    0  501  502  0.00000000000E+00  0.00000000000E+00  0.93195165771E+02  0.93195165771E+02  0.00000000000E+00 0. -1.
          2   -1    0    0  502    0 -0.00000000000E+00 -0.00000000000E+00 -0.15307935324E+04  0.15307935324E+04  0.00000000000E+00 0. -1.
         24    2    1    2    0    0  0.76941983120E+02  0.25344800177E+00 -0.57548314936E+03  0.58618316723E+03  0.80682819356E+02 0.  0.
         23    2    1    2    0    0  0.88962438779E+02 -0.18726076509E+03 -0.70981000988E+03  0.74507205140E+03  0.91220622619E+02 0.  0.
        -13    1    3    3    0    0  0.93457785780E+02  0.27322677943E+01 -0.51588827878E+03  0.52429241764E+03  0.00000000000E+00 0.  1.
         14    1    3    3    0    0 -0.16515802660E+02 -0.24788197925E+01 -0.59594870578E+02  0.61890749586E+02  0.00000000000E+00 0. -1.
        -11    1    4    4    0    0  0.80625619786E+02 -0.76093366927E+02 -0.42500045808E+03  0.43922213107E+03  0.00000000000E+00 0.  1.
         11    1    4    4    0    0  0.83368189935E+01 -0.11116739817E+03 -0.28480955180E+03  0.30584992033E+03  0.00000000000E+00 0. -1.
          1    1    1    2  501    0 -0.16590442190E+03  0.18700731709E+03 -0.15230520739E+03  0.29273347955E+03  0.00000000000E+00 0. -1.
<scales pt_clust_5="13000.00000" pt_clust_6="13000.00000" pt_clust_7="13000.00000" pt_clust_8="13000.00000" pt_clust_9="238.45938"></scales>
<clustering>
<clus scale="   80.683">  5  6 -1 -1</clus>
<clus scale="   91.221">  7  8 -1 -1</clus>
<clus scale="  111.489">  2  5  1 -1</clus>
<clus scale="  238.459">  1  9  2 -1</clus>
<clus scale="  238.459">  1  5  2 -1</clus>
</clustering>
</event>
<event>
 9    2  0.1751298E-004  0.1492770E+03  0.7546771E-02  0.1202788E+00
         21   -1    0    0  501  502  0.00000000000E+00  0.00000000000E+00  0.61050702900E+02  0.61050702900E+02  0.00000000000E+00 0. -1.
          2   -1    0    0  502    0 -0.00000000000E+00 -0.00000000000E+00 -0.10133149281E+04  0.10133149281E+04  0.00000000000E+00 0. -1.
         23    2    1    2    0    0  0.53708574820E+02 -0.10946721876E+03 -0.70554954650E+03  0.72163443462E+03  0.89935597327E+02 0.  0.
         24    2    1    2    0    0  0.71031799949E+01  0.11537390772E+03 -0.56043822912E+02  0.15251048381E+03  0.82200631607E+02 0.  0.
        -13    1    4    4    0    0  0.36772653534E+02  0.83766138705E+02 -0.59326767824E+02  0.10903512930E+03  0.00000000000E+00 0.  1.
         14    1    4    4    0    0 -0.29669473539E+02  0.31607769013E+02  0.32829449120E+01  0.43475354505E+02  0.00000000000E+00 0. -1.
        -13    1    3    3    0    0 -0.25094928462E+02 -0.18935536810E+02 -0.15412896495E+03  0.15730240883E+03  0.00000000000E+00 0.  1.
         13    1    3    3    0    0  0.78803503282E+02 -0.90531681950E+02 -0.55142058155E+03  0.56433202578E+03  0.00000000000E+00 0. -1.
          1    1    1    2  501    0 -0.60811754815E+02 -0.59066889575E+01 -0.19067085581E+03  0.20022071260E+03  0.00000000000E+00 0. -1.
<scales pt_clust_5="13000.00000" pt_clust_6="13000.00000" pt_clust_7="13000.00000" pt_clust_8="13000.00000" pt_clust_9="61.09797"></scales>
<clustering>
<clus scale="   61.098">  1  9  2 -1</clus>
<clus scale="   82.201">  5  6 -1 -1</clus>
<clus scale="   89.936">  7  8 -1 -1</clus>
<clus scale="  144.749">  1  5  2 -1</clus>
<clus scale="   61.098">  1  5  2 -1</clus>
</clustering>
</event>
<event>
 9    2  0.2586508E-004  0.1438142E+03  0.7546771E-02  0.1233406E+00
         21   -1    0    0  501  502  0.00000000000E+00  0.00000000000E+00  0.17390913555E+03  0.17390913555E+03  0.00000000000E+00 0.  1.
          2   -1    0    0  502    0 -0.00000000000E+00 -0.00000000000E+00 -0.74847569719E+03  0.74847569719E+03  0.00000000000E+00 0. -1.
         24    2    1    2    0    0  0.15544752979E+02  0.17976074879E+02  0.13940886554E+03  0.16324045781E+03  0.81534266793E+02 0.  0.
         23    2    1    2    0    0 -0.12114410498E+03 -0.19489072467E+02 -0.43214981883E+03  0.45818061329E+03  0.90112653731E+02 0.  0.
        -11    1    3    3    0    0  0.10679301999E+01  0.23926429714E+02  0.14473794359E+03  0.14670612403E+03  0.00000000000E+00 0.  1.
         12    1    3    3    0    0  0.14476822779E+02 -0.59503548351E+01 -0.53290780543E+01  0.16534333774E+02  0.00000000000E+00 0. -1.
        -13    1    4    4    0    0 -0.58935330632E+02 -0.51229076309E+02 -0.17340548335E+03  0.19017689952E+03  0.00000000000E+00 0. -1.
         13    1    4    4    0    0 -0.62208774350E+02  0.31740003842E+02 -0.25874433548E+03  0.26800371377E+03  0.00000000000E+00 0.  1.
          1    1    1    2  501    0  0.10559935200E+03  0.15129975874E+01 -0.28182560834E+03  0.30096376164E+03  0.00000000000E+00 0. -1.
<scales pt_clust_5="13000.00000" pt_clust_6="13000.00000" pt_clust_7="13000.00000" pt_clust_8="13000.00000" pt_clust_9="112.08142"></scales>
<clustering>
<clus scale="   81.534">  5  6 -1 -1</clus>
<clus scale="   84.927">  2  5  1 -1</clus>
<clus scale="   90.113">  7  8 -1 -1</clus>
<clus scale="  112.081">  1  9  2 -1</clus>
<clus scale="  112.081">  1  5  2 -1</clus>
</clustering>
</event>
<event>
 9    2  0.1751298E-004  0.1804138E+03  0.7546771E-02  0.1199175E+00
         21   -1    0    0  501  502  0.00000000000E+00  0.00000000000E+00  0.76571331923E+02  0.76571331923E+02  0.00000000000E+00 0. -1.
          2   -1    0    0  502    0 -0.00000000000E+00 -0.00000000000E+00 -0.84497813392E+03  0.84497813392E+03  0.00000000000E+00 0. -1.
         24    2    1    2    0    0  0.36406774384E+02  0.20127377257E+02 -0.22460006070E+03  0.24147174816E+03  0.78312536385E+02 0.  0.
         23    2    1    2    0    0  0.57288424471E+02 -0.14531027856E+03 -0.47670113232E+03  0.50992275354E+03  0.91543456280E+02 0.  0.
        -11    1    3    3    0    0  0.36867597183E+02  0.35750282653E+02 -0.74063931407E+02  0.90126402166E+02  0.00000000000E+00 0.  1.
         12    1    3    3    0    0 -0.46082279852E+00 -0.15622905396E+02 -0.15053612929E+03  0.15134534599E+03  0.00000000000E+00 0. -1.
        -11    1    4    4    0    0  0.28551233830E+02  0.32811194281E+00 -0.12419359649E+03  0.12743362986E+03  0.00000000000E+00 0.  1.
         11    1    4    4    0    0  0.28737190641E+02 -0.14563839050E+03 -0.35250753583E+03  0.38248912368E+03  0.00000000000E+00 0. -1.
          1    1    1    2  501    0 -0.93695198855E+02  0.12518290130E+03 -0.67105608972E+02  0.17015496414E+03  0.00000000000E+00 0. -1.
<scales pt_clust_5="13000.00000" pt_clust_6="13000.00000" pt_clust_7="13000.00000" pt_clust_8="13000.00000" pt_clust_9="155.46357"></scales>
<clustering>
<clus scale="   78.313">  5  6 -1 -1</clus>
<clus scale="   88.676">  2  5  1 -1</clus>
<clus scale="   91.543">  7  8 -1 -1</clus>
<clus scale="  155.464">  1  9  2 -1</clus>
<clus scale="  155.464">  1  5  2 -1</clus>
</clustering>
</event>
<event>
 9    2  0.1751298E-004  0.1460938E+03  0.7546771E-02  0.1207778E+00
         21   -1    0    0  501  502  0.00000000000E+00  0.00000000000E+00  0.11240717162E+03  0.11240717162E+03  0.00000000000E+00 0.  1.
          2   -1    0    0  502    0 -0.00000000000E+00 -0.00000000000E+00 -0.35010064051E+03  0.35010064051E+03  0.00000000000E+00 0. -1.
         23    2    1    2    0    0 -0.72810920969E+02 -0.12705756653E+03 -0.17326722414E+03  0.24463352878E+03  0.91536752274E+02 0.  0.
         24    2    1    2    0    0  0.12093556027E+02  0.63982970638E+02  0.99427342915E+01  0.10300153595E+03  0.79185755118E+02 0.  0.
        -13    1    4    4    0    0  0.38129376725E+02  0.56886519345E+01  0.62087698647E+01  0.39048161974E+02  0.00000000000E+00 0.  1.
         14    1    4    4    0    0 -0.26035820698E+02  0.58294318703E+02  0.37339644268E+01  0.63953373975E+02  0.00000000000E+00 0. -1.
        -11    1    3    3    0    0 -0.63823919825E+01 -0.78261625179E+02 -0.12914518186E+03  0.15114263098E+03  0.00000000000E+00 0. -1.
         11    1    3    3    0    0 -0.66428528986E+02 -0.48795941349E+02 -0.44122042279E+02  0.93490897794E+02  0.00000000000E+00 0.  1.
          1    1    1    2  501    0  0.60717364942E+02  0.63074595890E+02 -0.74368979051E+02  0.11487274741E+03  0.00000000000E+00 0. -1.
<scales pt_clust_5="13000.00000" pt_clust_6="13000.00000" pt_clust_7="13000.00000" pt_clust_8="13000.00000" pt_clust_9="87.55005"></scales>
<clustering>
<clus scale="   79.186">  5  6 -1 -1</clus>
<clus scale="   87.550">  1  9  2 -1</clus>
<clus scale="   91.537">  7  8 -1 -1</clus>
<clus scale="  138.690">  1  5  2 -1</clus>
<clus scale="   87.550">  1  5  2 -1</clus>
</clustering>
</event>
<event>
 9    2  0.1751298E-004  0.2789353E+03  0.7546771E-02  0.1129504E+00
          2   -1    0    0  502    0 -0.00000000000E+00  0.00000000000E+00  0.82805246303E+03  0.82805246303E+03  0.00000000000E+00 0. -1.
         21   -1    0    0  501  502  0.00000000000E+00 -0.00000000000E+00 -0.30560338820E+03  0.30560338820E+03  0.00000000000E+00 0.  1.
         24    2    1    2    0    0  0.50686328064E+02 -0.73926633006E+02 -0.19136916643E+03  0.22596376286E+03  0.80020080876E+02 0.  0.
         23    2    1    2    0    0 -0.34294189842E+02  0.30903354642E+03  0.44235538155E+03  0.54819793385E+03  0.90359652627E+02 0.  0.
        -11    1    3    3    0    0  0.37754130384E+02 -0.53483231632E+02 -0.19085187083E+03  0.20176785429E+03  0.00000000000E+00 0.  1.
         12    1    3    3    0    0  0.12932197679E+02 -0.20443401374E+02 -0.51729560397E+00  0.24195908566E+02  0.00000000000E+00 0. -1.
        -11    1    4    4    0    0  0.24485280003E+02  0.80946714700E+02  0.15571196730E+03  0.17719513627E+03  0.00000000000E+00 0. -1.
         11    1    4    4    0    0 -0.58779469845E+02  0.22808683172E+03  0.28664341424E+03  0.37100279758E+03  0.00000000000E+00 0.  1.
          1    1    1    2  501    0 -0.16392138222E+02 -0.23510691342E+03  0.27146285971E+03  0.35949415452E+03  0.00000000000E+00 0. -1.
<scales pt_clust_5="13000.00000" pt_clust_6="13000.00000" pt_clust_7="13000.00000" pt_clust_8="13000.00000" pt_clust_9="263.89403"></scales>
<clustering>
<clus scale="   80.020">  5  6 -1 -1</clus>
<clus scale="   90.360">  7  8 -1 -1</clus>
<clus scale="  120.156">  1  5  2 -1</clus>
<clus scale="  263.894">  2  9  1 -1</clus>
<clus scale="  263.894">  2  5  1 -1</clus>
</clustering>
</event>
<event>
 9    2  0.1751298E-004  0.1314582E+03  0.7546771E-02  0.1229092E+00
         21   -1    0    0  501  502  0.00000000000E+00  0.00000000000E+00  0.48543430742E+03  0.48543430742E+03  0.00000000000E+00 0. -1.
          2   -1    0    0  502    0 -0.00000000000E+00 -0.00000000000E+00 -0.88277378611E+02  0.88277378611E+02  0.00000000000E+00 0. -1.
         23    2    1    2    0    0  0.76977309827E+02  0.58021347513E+02 -0.13137793898E+02  0.13633424032E+03  0.95511467688E+02 0.  0.
         24    2    1    2    0    0 -0.64468998345E+02 -0.13169086397E+02  0.29734395597E+03  0.31520519481E+03  0.81309348171E+02 0.  0.
        -13    1    4    4    0    0 -0.16581176272E+02 -0.44319670508E+02  0.14317636772E+03  0.15079337145E+03  0.00000000000E+00 0.  1.
         14    1    4    4    0    0 -0.47887822073E+02  0.31150584111E+02  0.15416758824E+03  0.16441182335E+03  0.00000000000E+00 0. -1.
        -13    1    3    3    0    0  0.79589049468E+02  0.24561471789E+02 -0.40886555279E+02  0.92786815304E+02  0.00000000000E+00 0. -1.
         13    1    3    3    0    0 -0.26117396414E+01  0.33459875724E+02  0.27748761381E+02  0.43547425017E+02  0.00000000000E+00 0.  1.
          1    1    1    2  501    0 -0.12508311482E+02 -0.44852261116E+02  0.11295076675E+03  0.12217225091E+03  0.00000000000E+00 0. -1.
<scales pt_clust_5="13000.00000" pt_clust_6="13000.00000" pt_clust_7="13000.00000" pt_clust_8="13000.00000" pt_clust_9="46.56375"></scales>
<clustering>
<clus scale="   46.564">  1  9  2 -1</clus>
<clus scale="   81.309">  5  6 -1 -1</clus>
<clus scale="   95.511">  7  8 -1 -1</clus>
<clus scale="  121.532">  1  5  2 -1</clus>
<clus scale="   46.564">  1  5  2 -1</clus>
</clustering>
</event>
<event>
 9    2  0.1751298E-004  0.3226219E+03  0.7546771E-02  0.1118344E+00
         21   -1    0    0  501  502  0.00000000000E+00  0.00000000000E+00  0.44857820818E+03  0.44857820818E+03  0.00000000000E+00 0.  1.
         -3   -1    0    0    0  501 -0.00000000000E+00 -0.00000000000E+00 -0.81616396971E+03  0.81616396971E+03  0.00000000000E+00 0.  1.
         24    2    1    2    0    0  0.17473451693E+02  0.59700705628E+02 -0.22398747887E+03  0.24630721183E+03  0.81408575357E+02 0.  0.
         23    2    1    2    0    0  0.98373597166E+02 -0.30343782258E+03  0.33494160173E+03  0.46904553964E+03  0.77884304517E+02 0.  0.
        -13    1    3    3    0    0  0.43592781854E+02  0.42008793744E+02 -0.88703014245E+02  0.10739317538E+03  0.00000000000E+00 0.  1.
         14    1    3    3    0    0 -0.26119330160E+02  0.17691911884E+02 -0.13528446463E+03  0.13891403645E+03  0.00000000000E+00 0. -1.
        -13    1    4    4    0    0  0.77111389784E+01 -0.13156253547E+03  0.10890969404E+03  0.17096632375E+03  0.00000000000E+00 0.  1.
         13    1    4    4    0    0  0.90662458188E+02 -0.17187528712E+03  0.22603190769E+03  0.29807921588E+03  0.00000000000E+00 0. -1.
         -4    1    1    2    0  502 -0.11584704886E+03  0.24373711696E+03 -0.47853988439E+03  0.54938942642E+03  0.00000000000E+00 0.  1.
<scales pt_clust_5="13000.00000" pt_clust_6="13000.00000" pt_clust_7="13000.00000" pt_clust_8="13000.00000" pt_clust_9="313.07993"></scales>
<clustering>
<clus scale="   77.884">  7  8 -1 -1</clus>
<clus scale="   81.409">  5  6 -1 -1</clus>
<clus scale="  102.454">  2  5  1 -1</clus>
<clus scale="  313.080">  1  9  2 -1</clus>
<clus scale="  313.080">  1  5  2 -1</clus>
</clustering>
</event>
<event>
 9    2  0.1751298E-004  0.9328498E+02  0.7546771E-02  0.1302243E+00
          2   -1    0    0  502    0 -0.00000000000E+00  0.00000000000E+00  0.19077140078E+03  0.19077140078E+03  0.00000000000E+00 0. -1.
         21   -1    0    0  501  502  0.00000000000E+00 -0.00000000000E+00 -0.82022905620E+02  0.82022905620E+02  0.00000000000E+00 0. -1.
         24    2    1    2    0    0  0.14599486681E+02 -0.12167336396E+02  0.68814190825E+02  0.10604805805E+03  0.78419440646E+02 0.  0.
         23    2    1    2    0    0  0.95935243616E+01  0.48602759773E+02 -0.60816991674E+01  0.10326149082E+03  0.90397369734E+02 0.  0.
        -13    1    3    3    0    0  0.45237460174E+02 -0.15583206534E+02  0.52994855505E+02  0.71398311177E+02  0.00000000000E+00 0.  1.
         14    1    3    3    0    0 -0.30637973493E+02  0.34158701382E+01  0.15819335320E+02  0.34649746875E+02  0.00000000000E+00 0. -1.
        -13    1    4    4    0    0  0.35766377849E+02  0.33704848725E+01  0.23770804649E+02  0.43077199380E+02  0.00000000000E+00 0.  1.
         13    1    4    4    0    0 -0.26172853487E+02  0.45232274900E+02 -0.29852503817E+02  0.60184291443E+02  0.00000000000E+00 0. -1.
          1    1    1    2  501    0 -0.24193011043E+02 -0.36435423377E+02  0.46016003504E+02  0.63484757528E+02  0.00000000000E+00 0. -1.
<scales pt_clust_5="13000.00000" pt_clust_6="13000.00000" pt_clust_7="13000.00000" pt_clust_8="13000.00000" pt_clust_9="43.73607"></scales>
<clustering>
<clus scale="   43.736">  2  9  1 -1</clus>
<clus scale="   78.419">  5  6 -1 -1</clus>
<clus scale="   81.731">  1  5  2 -1</clus>
<clus scale="   90.397">  7  8 -1 -1</clus>
<clus scale="   43.736">  2  5  1 -1</clus>
</clustering>
</event>
<event>
 9    2  0.1751298E-004  0.1865324E+03  0.7546771E-02  0.1185112E+00
         21   -1    0    0  501  502  0.00000000000E+00  0.00000000000E+00  0.34064345536E+02  0.34064345536E+02  0.00000000000E+00 0. -1.
          2   -1    0    0  502    0 -0.00000000000E+00 -0.00000000000E+00 -0.17099511495E+04  0.17099511495E+04  0.00000000000E+00 0. -1.
         23    2    1    2    0    0 -0.59562871934E+02 -0.25634952836E+02 -0.25412797401E+03  0.27665400339E+03  0.88042739045E+02 0.  0.
         24    2    1    2    0    0  0.52265458664E+02  0.17787831310E+03 -0.65451355513E+03  0.68512328960E+03  0.81446643086E+02 0.  0.
        -13    1    4    4    0    0  0.67619940033E+02  0.11296866272E+03 -0.49534914090E+03  0.51254770162E+03  0.00000000000E+00 0.  1.
         14    1    4    4    0    0 -0.15354481369E+02  0.64909650386E+02 -0.15916441423E+03  0.17257558798E+03  0.00000000000E+00 0. -1.
        -11    1    3    3    0    0  0.20824512978E+02  0.37472083610E+01 -0.29756228278E+02  0.36512121721E+02  0.00000000000E+00 0.  1.
         11    1    3    3    0    0 -0.80387384912E+02 -0.29382161197E+02 -0.22437174573E+03  0.24014188167E+03  0.00000000000E+00 0. -1.
          1    1    1    2  501    0  0.72974132697E+01 -0.15224336027E+03 -0.76724527481E+03  0.78223820202E+03  0.00000000000E+00 0. -1.
<scales pt_clust_5="13000.00000" pt_clust_6="13000.00000" pt_clust_7="13000.00000" pt_clust_8="13000.00000" pt_clust_9="167.81178"></scales>
<clustering>
<clus scale="   81.447">  5  6 -1 -1</clus>
<clus scale="   88.043">  7  8 -1 -1</clus>
<clus scale="  109.345">  2  7  1 -1</clus>
<clus scale="  167.812">  1  9  2 -1</clus>
<clus scale="  167.812">  1  5  2 -1</clus>
</clustering>
</event>
<event>
 9    2  0.1751298E-004  0.2230363E+03  0.7546771E-02  0.1132268E+00
         21   -1    0    0  501  502  0.00000000000E+00  0.00000000000E+00  0.46633927415E+02  0.46633927415E+02  0.00000000000E+00 0.  1.
          2   -1    0    0  502    0 -0.00000000000E+00 -0.00000000000E+00 -0.12854369823E+04  0.12854369823E+04  0.00000000000E+00 0. -1.
         24    2    1    2    0    0  0.84833607592E+01  0.19801998824E+03 -0.65519792119E+03  0.68929806463E+03  0.81016188629E+02 0.  0.
         23    2    1    2    0    0 -0.30608812254E+02 -0.21040353809E+03 -0.56773226218E+03  0.61285903621E+03  0.89831667681E+02 0.  0.
        -13    1    3    3    0    0 -0.77414650458E+00  0.23724757119E+02 -0.21583391469E+02  0.32082802098E+02  0.00000000000E+00 0.  1.
         14    1    3    3    0    0  0.92575072638E+01  0.17429523112E+03 -0.63361452972E+03  0.65721526253E+03  0.00000000000E+00 0. -1.
        -13    1    4    4    0    0 -0.44291596554E+02 -0.79138513140E+02 -0.15547392321E+03  0.17999108474E+03  0.00000000000E+00 0.  1.
         13    1    4    4    0    0  0.13682784300E+02 -0.13126502495E+03 -0.41225833898E+03  0.43286795148E+03  0.00000000000E+00 0. -1.
          1    1    1    2  501    0  0.22125451494E+02  0.12383549844E+02 -0.15872871496E+02  0.29913808853E+02  0.00000000000E+00 0. -1.
<scales pt_clust_5="13000.00000" pt_clust_6="13000.00000" pt_clust_7="13000.00000" pt_clust_8="13000.00000" pt_clust_9="25.35523"></scales>
<clustering>
<clus scale="   25.355">  1  9  2 -1</clus>
<clus scale="   81.016">  5  6 -1 -1</clus>
<clus scale="   89.832">  7  8 -1 -1</clus>
<clus scale="  219.634">  2  5  1 -1</clus>
<clus scale="   25.355">  1  5  2 -1</clus>
</clustering>
</event>
<event>
 9    2  0.1751298E-004  0.1457444E+03  0.7546771E-02  0.1207679E+00
          2   -1    0    0  502    0 -0.00000000000E+00  0.00000000000E+00  0.56166974010E+03  0.56166974010E+03  0.00000000000E+00 0. -1.
         21   -1    0    0  501  502  0.00000000000E+00 -0.00000000000E+00 -0.98095780801E+02  0.98095780801E+02  0.00000000000E+00 0. -1.
         23    2    1    2    0    0  0.16743714918E+02  0.71484759273E+02  0.16132260140E+03  0.19898265092E+03  0.90436114719E+02 0.  0.
         24    2    1    2    0    0 -0.53208238306E+02 -0.18046786229E+03  0.27465966967E+03  0.34259539404E+03  0.80832567296E+02 0.  0.
        -13    1    4    4    0    0 -0.50485761058E+02 -0.50618857610E+02  0.12865487543E+03  0.14718409489E+03  0.00000000000E+00 0.  1.
         14    1    4    4    0    0 -0.27224772485E+01 -0.12984900468E+03  0.14600479424E+03  0.19541129916E+03  0.00000000000E+00 0. -1.
        -11    1    3    3    0    0 -0.17632519230E+02  0.15647271462E+02  0.11814134782E+03  0.12047041506E+03  0.00000000000E+00 0.  1.
         11    1    3    3    0    0  0.34376234148E+02  0.55837487811E+02  0.43181253581E+02  0.78512235862E+02  0.00000000000E+00 0. -1.
          1    1    1    2  501    0  0.36464523388E+02  0.10898310302E+03  0.27591688225E+02  0.11818747594E+03  0.00000000000E+00 0. -1.
<scales pt_clust_5="13000.00000" pt_clust_6="13000.00000" pt_clust_7="13000.00000" pt_clust_8="13000.00000" pt_clust_9="114.92162"></scales>
<clustering>
<clus scale="   80.833">  5  6 -1 -1</clus>
<clus scale="   90.436">  7  8 -1 -1</clus>
<clus scale="  114.922">  2  9  1 -1</clus>
<clus scale="  139.988">  2  5  1 -1</clus>
<clus scale="  114.922">  2  5  1 -1</clus>
</clustering>
</event>
<event>
 9    2  0.1751298E-004  0.1008104E+03  0.7546771E-02  0.1283750E+00
         21   -1    0    0  501  502  0.00000000000E+00  0.00000000000E+00  0.15623794080E+03  0.15623794080E+03  0.00000000000E+00 0. -1.
          2   -1    0    0  502    0 -0.00000000000E+00 -0.00000000000E+00 -0.11870747182E+03  0.11870747182E+03  0.00000000000E+00 0. -1.
         24    2    1    2    0    0 -0.65123234122E+01  0.12781427475E+02  0.11438836606E+02  0.83748940698E+02  0.81714520378E+02 0.  0.
         23    2    1    2    0    0  0.63221947682E+02 -0.48699918119E+02  0.10761670324E+02  0.12234062837E+03  0.92101678098E+02 0.  0.
        -11    1    3    3    0    0 -0.12071686686E+02  0.24211226554E+02  0.42391304024E+02  0.50288485437E+02  0.00000000000E+00 0.  1.
         12    1    3    3    0    0  0.55593632740E+01 -0.11429799078E+02 -0.30952467418E+02  0.33460455261E+02  0.00000000000E+00 0. -1.
        -11    1    4    4    0    0  0.28794267533E+02 -0.73476799279E+02  0.15353840372E+01  0.78932295540E+02  0.00000000000E+00 0. -1.
         11    1    4    4    0    0  0.34427680148E+02  0.24776881161E+02  0.92262862868E+01  0.43408332830E+02  0.00000000000E+00 0.  1.
          1    1    1    2  501    0 -0.56709624269E+02  0.35918490644E+02  0.15329962050E+02  0.68855843553E+02  0.00000000000E+00 0. -1.
<scales pt_clust_5="13000.00000" pt_clust_6="13000.00000" pt_clust_7="13000.00000" pt_clust_8="13000.00000" pt_clust_9="67.12764"></scales>
<clustering>
<clus scale="   67.128">  1  9  2 -1</clus>
<clus scale="   81.715">  5  6 -1 -1</clus>
<clus scale="   91.418">  2  5  1 -1</clus>
<clus scale="   92.102">  7  8 -1 -1</clus>
<clus scale="   67.128">  1  5  2 -1</clus>
</clustering>
</event>
<event>
 9    2  0.1751298E-004  0.2169572E+03  0.7546771E-02  0.1136926E+00
         -1   -1    0    0    0  501 -0.00000000000E+00  0.00000000000E+00  0.65360120341E+03  0.65360120341E+03  0.00000000000E+00 0.  1.
         21   -1    0    0  501  502  0.00000000000E+00 -0.00000000000E+00 -0.96258232511E+02  0.96258232511E+02  0.00000000000E+00 0.  1.
         24    2    1    2    0    0  0.38826362345E+02 -0.18359721762E+03  0.31612668792E+03  0.37651417982E+03  0.81310639268E+02 0.  0.
         23    2    1    2    0    0 -0.43896161747E+02  0.21192205489E+03  0.15228776008E+03  0.27987717889E+03  0.91114450181E+02 0.  0.
        -11    1    3    3    0    0  0.58158959554E+02 -0.17050479442E+03  0.29068341926E+03  0.34198128564E+03  0.00000000000E+00 0.  1.
         12    1    3    3    0    0 -0.19332597209E+02 -0.13092423203E+02  0.25443268658E+02  0.34532894176E+02  0.00000000000E+00 0. -1.
        -13    1    4    4    0    0  0.13739231515E+02  0.10882062124E+03  0.39560294146E+02  0.11660064735E+03  0.00000000000E+00 0. -1.
         13    1    4    4    0    0 -0.57635393262E+02  0.10310143364E+03  0.11272746593E+03  0.16327653154E+03  0.00000000000E+00 0.  1.
         -2    1    1    2    0  502  0.50697994016E+01 -0.28324837263E+02  0.88928522895E+02  0.93468077204E+02  0.00000000000E+00 0.  1.
<scales pt_clust_5="13000.00000" pt_clust_6="13000.00000" pt_clust_7="13000.00000" pt_clust_8="13000.00000" pt_clust_9="28.77499"></scales>
<clustering>
<clus scale="   28.775">  2  9  1 -1</clus>
<clus scale="   81.311">  5  6 -1 -1</clus>
<clus scale="   91.114">  7  8 -1 -1</clus>
<clus scale="  213.026">  1  5  2 -1</clus>
<clus scale="   28.775">  2  5  1 -1</clus>
</clustering>
</event>
<event>
 9    2  0.1751298E-004  0.1552337E+03  0.7546771E-02  0.1195722E+00
         21   -1    0    0  501  502  0.00000000000E+00  0.00000000000E+00  0.70433330298E+02  0.70433330298E+02  0.00000000000E+00 0. -1.
          2   -1    0    0  502    0 -0.00000000000E+00 -0.00000000000E+00 -0.10728101514E+04  0.10728101514E+04  0.00000000000E+00 0. -1.
         24    2    1    2    0    0  0.25123454145E+01 -0.14219779989E+03 -0.35210672830E+03  0.38844006061E+03  0.81731306128E+02 0.  0.
         23    2    1    2    0    0 -0.11755533684E+03  0.68410528927E+02 -0.10899866628E+03  0.19654343828E+03  0.90825966502E+02 0.  0.
        -13    1    3    3    0    0  0.34763528876E+02 -0.83817900803E+02 -0.14689341081E+03  0.17266041113E+03  0.00000000000E+00 0.  1.
         14    1    3    3    0    0 -0.32251183461E+02 -0.58379899091E+02 -0.20521331750E+03  0.21577964948E+03  0.00000000000E+00 0. -1.
        -11    1    4    4    0    0 -0.70087815435E+02  0.26051365662E+01 -0.88376252203E+02  0.11282486677E+03  0.00000000000E+00 0.  1.
         11    1    4    4    0    0 -0.47467521406E+02  0.65805392361E+02 -0.20622414076E+02  0.83718571503E+02  0.00000000000E+00 0. -1.
          1    1    1    2  501    0  0.11504299143E+03  0.73787270967E+02 -0.54127142648E+03  0.55825998277E+03  0.00000000000E+00 0. -1.
<scales pt_clust_5="13000.00000" pt_clust_6="13000.00000" pt_clust_7="13000.00000" pt_clust_8="13000.00000" pt_clust_9="136.67286"></scales>
<clustering>
<clus scale="   81.731">  5  6 -1 -1</clus>
<clus scale="   90.826">  7  8 -1 -1</clus>
<clus scale="  136.673">  1  9  2 -1</clus>
<clus scale="  150.094">  2  5  1 -1</clus>
<clus scale="  136.673">  1  5  2 -1</clus>
</clustering>
</event>
<event>
 9    2  0.1751298E-004  0.1200069E+03  0.7546771E-02  0.1246958E+00
         21   -1    0    0  501  502  0.00000000000E+00  0.00000000000E+00  0.53521342125E+02  0.53521342125E+02  0.00000000000E+00 0. -1.
          2   -1    0    0  502    0 -0.00000000000E+00 -0.00000000000E+00 -0.54881770935E+03  0.54881770935E+03  0.00000000000E+00 0. -1.
         24    2    1    2    0    0  0.60249582492E+02 -0.54688915318E+02 -0.34800824304E+03  0.36637266054E+03  0.80612030854E+02 0.  0.
         23    2    1    2    0    0 -0.40971047115E+02  0.33399041689E+02 -0.23910019510E+02  0.10928933161E+03  0.92619362358E+02 0.  0.
        -13    1    3    3    0    0  0.13988198375E+02  0.19835473577E+02 -0.47754650457E+02  0.53568856121E+02  0.00000000000E+00 0.  1.
         14    1    3    3    0    0  0.46261384117E+02 -0.74524388895E+02 -0.30025359258E+03  0.31280380442E+03  0.00000000000E+00 0. -1.
        -11    1    4    4    0    0  0.17991158905E+02 -0.13619748237E+02  0.12226209147E+02  0.25664363052E+02  0.00000000000E+00 0.  1.
         11    1    4    4    0    0 -0.58962206020E+02  0.47018789926E+02 -0.36136228657E+02  0.83624968559E+02  0.00000000000E+00 0. -1.
          1    1    1    2  501    0 -0.19278535377E+02  0.21289873629E+02 -0.12337810468E+03  0.12667705933E+03  0.00000000000E+00 0. -1.
<scales pt_clust_5="13000.00000" pt_clust_6="13000.00000" pt_clust_7="13000.00000" pt_clust_8="13000.00000" pt_clust_9="28.72145"></scales>
<clustering>
<clus scale="   28.721">  1  9  2 -1</clus>
<clus scale="   80.612">  5  6 -1 -1</clus>
<clus scale="   92.619">  7  8 -1 -1</clus>
<clus scale="  111.003">  2  5  1 -1</clus>
<clus scale="   28.721">  1  5  2 -1</clus>
</clustering>
</event>
<event>
 9    2  0.1751298E-004  0.1806910E+03  0.7546771E-02  0.1196591E+00
          2   -1    0    0  502    0 -0.00000000000E+00  0.00000000000E+00  0.96903138947E+03  0.96903138947E+03  0.00000000000E+00 0. -1.
         21   -1    0    0  501  502  0.00000000000E+00 -0.00000000000E+00 -0.56689312695E+02  0.56689312695E+02  0.00000000000E+00 0.  1.
         23    2    1    2    0    0  0.12216988013E+02 -0.19084492227E+01  0.36070677007E+03  0.37259823109E+03  0.92559012874E+02 0.  0.
         24    2    1    2    0    0 -0.15566461080E+03 -0.56700540054E+02  0.22165278875E+03  0.28856699345E+03  0.81820099303E+02 0.  0.
        -11    1    4    4    0    0 -0.60424908908E+02 -0.65230587373E+02  0.99541217290E+02  0.13347154410E+03  0.00000000000E+00 0.  1.
         12    1    4    4    0    0 -0.95239701894E+02  0.85300473186E+01  0.12211157146E+03  0.15509544935E+03  0.00000000000E+00 0. -1.
        -13    1    3    3    0    0 -0.38551033766E+02 -0.13804807965E+02  0.17336107004E+03  0.17813145577E+03  0.00000000000E+00 0. -1.
         13    1    3    3    0    0  0.50768021778E+02  0.11896358742E+02  0.18734570003E+03  0.19446677532E+03  0.00000000000E+00 0.  1.
          1    1    1    2  501    0  0.14344762279E+03  0.58608989277E+02  0.32998251796E+03  0.36455547763E+03  0.00000000000E+00 0. -1.
<scales pt_clust_5="13000.00000" pt_clust_6="13000.00000" pt_clust_7="13000.00000" pt_clust_8="13000.00000" pt_clust_9="161.10471"></scales>
<clustering>
<clus scale="   81.820">  5  6 -1 -1</clus>
<clus scale="   92.559">  7  8 -1 -1</clus>
<clus scale="   93.381">  1  7  2 -1</clus>
<clus scale="  161.105">  2  9  1 -1</clus>
<clus scale="  161.105">  2  5  1 -1</clus>
</clustering>
</event>
<event>
 9    2  0.1751298E-004  0.1256364E+03  0.7546771E-02  0.1255822E+00
          2   -1    0    0  502    0 -0.00000000000E+00  0.00000000000E+00  0.16513411147E+03  0.16513411147E+03  0.00000000000E+00 0. -1.
         21   -1    0    0  501  502  0.00000000000E+00 -0.00000000000E+00 -0.13090259064E+03  0.13090259064E+03  0.00000000000E+00 0. -1.
         24    2    1    2    0    0 -0.47072553106E+00 -0.70557770160E+01  0.66222865283E+01  0.81341666030E+02  0.80762654623E+02 0.  0.
         23    2    1    2    0    0 -0.51426323557E+02 -0.65916952177E+02  0.14015780337E+02  0.12412404237E+03  0.90667659382E+02 0.  0.
        -13    1    3    3    0    0 -0.11807956204E+01 -0.30658162939E+02  0.33592793382E+02  0.45494977748E+02  0.00000000000E+00 0.  1.
         14    1    3    3    0    0  0.71007008935E+00  0.23602385923E+02 -0.26970506854E+02  0.35846688281E+02  0.00000000000E+00 0. -1.
        -11    1    4    4    0    0 -0.64160868760E+02 -0.12215308599E+02 -0.55950728236E+01  0.65552541401E+02  0.00000000000E+00 0.  1.
         11    1    4    4    0    0  0.12734545203E+02 -0.53701643577E+02  0.19610853160E+02  0.58571500972E+02  0.00000000000E+00 0. -1.
          1    1    1    2  501    0  0.51897049088E+02  0.72972729193E+02  0.13593453961E+02  0.90570993704E+02  0.00000000000E+00 0. -1.
<scales pt_clust_5="13000.00000" pt_clust_6="13000.00000" pt_clust_7="13000.00000" pt_clust_8="13000.00000" pt_clust_9="86.97059"></scales>
<clustering>
<clus scale="   80.763">  5  6 -1 -1</clus>
<clus scale="   81.072">  1  5  2 -1</clus>
<clus scale="   86.971">  2  9  1 -1</clus>
<clus scale="   90.668">  7  8 -1 -1</clus>
<clus scale="   86.971">  2  5  1 -1</clus>
</clustering>
</event>
<event>
 9    2  0.1751298E-004  0.1156432E+03  0.7546771E-02  0.1251592E+00
         -1   -1    0    0    0  501 -0.00000000000E+00  0.00000000000E+00  0.18775059398E+03  0.18775059398E+03  0.00000000000E+00 0.  1.
         21   -1    0    0  501  502  0.00000000000E+00 -0.00000000000E+00 -0.12063241688E+03  0.12063241688E+03  0.00000000000E+00 0.  1.
         24    2    1    2    0    0  0.16350361333E+02 -0.53223520130E+02  0.14665094729E+02  0.10527009634E+03  0.88128603584E+02 0.  0.
         23    2    1    2    0    0 -0.49237970085E+02  0.81195778992E+02 -0.42135438532E+01  0.13187283729E+03  0.91408747060E+02 0.  0.
        -11    1    3    3    0    0  0.29250030222E+02 -0.61865060227E+02 -0.16552161588E+02  0.70404715738E+02  0.00000000000E+00 0.  1.
         12    1    3    3    0    0 -0.12899668888E+02  0.86415400976E+01  0.31217256317E+02  0.34865380604E+02  0.00000000000E+00 0. -1.
        -13    1    4    4    0    0 -0.33924756995E+02  0.95491254883E+02  0.16197260755E+02  0.10262465665E+03  0.00000000000E+00 0.  1.
         13    1    4    4    0    0 -0.15313213090E+02 -0.14295475891E+02 -0.20410804608E+02  0.29248180642E+02  0.00000000000E+00 0. -1.
         -2    1    1    2    0  502  0.32887608751E+02 -0.27972258862E+02  0.56666626227E+02  0.71240077226E+02  0.00000000000E+00 0.  1.
<scales pt_clust_5="13000.00000" pt_clust_6="13000.00000" pt_clust_7="13000.00000" pt_clust_8="13000.00000" pt_clust_9="43.17458"></scales>
<clustering>
<clus scale="   43.175">  2  9  1 -1</clus>
<clus scale="   88.129">  5  6 -1 -1</clus>
<clus scale="   91.409">  7  8 -1 -1</clus>
<clus scale="  113.068">  1  5  2 -1</clus>
<clus scale="   43.175">  2  5  1 -1</clus>
</clustering>
</event>
<event>
 9    2  0.1751298E-004  0.1001883E+03  0.7546771E-02  0.1285384E+00
          4   -1    0    0  502    0 -0.00000000000E+00  0.00000000000E+00  0.82034834860E+02  0.82034834860E+02  0.00000000000E+00 0. -1.
         21   -1    0    0  501  502  0.00000000000E+00 -0.00000000000E+00 -0.75711584281E+03  0.75711584281E+03  0.00000000000E+00 0. -1.
         23    2    1    2    0    0  0.42010132474E+02 -0.24849937825E+02  0.22955770547E+02  0.10520346310E+03  0.90324031172E+02 0.  0.
         24    2    1    2    0    0  0.30430796146E+02  0.65107741164E+02 -0.18044447684E+03  0.20976197097E+03  0.79213786236E+02 0.  0.
        -13    1    4    4    0    0  0.21808888643E+02 -0.96261027893E+01 -0.15399286627E+02  0.28380054745E+02  0.00000000000E+00 0.  1.
         14    1    4    4    0    0  0.86219075029E+01  0.74733843953E+02 -0.16504519021E+03  0.18138191622E+03  0.00000000000E+00 0. -1.
        -11    1    3    3    0    0  0.56489406649E+02  0.13468874560E+02  0.26997062268E+02  0.64041432031E+02  0.00000000000E+00 0. -1.
         11    1    3    3    0    0 -0.14479274175E+02 -0.38318812385E+02 -0.40412917209E+01  0.41162031073E+02  0.00000000000E+00 0.  1.
          3    1    1    2  501    0 -0.72440928620E+02 -0.40257803338E+02 -0.51759230166E+03  0.52418524360E+03  0.00000000000E+00 0. -1.
<scales pt_clust_5="13000.00000" pt_clust_6="13000.00000" pt_clust_7="13000.00000" pt_clust_8="13000.00000" pt_clust_9="82.87568"></scales>
<clustering>
<clus scale="   79.214">  5  6 -1 -1</clus>
<clus scale="   82.876">  2  9  1 -1</clus>
<clus scale="   90.300">  2  5  1 -1</clus>
<clus scale="   90.324">  7  8 -1 -1</clus>
<clus scale="   82.876">  2  5  1 -1</clus>
</clustering>
</event>
<event>
 9    2  0.1751298E-004  0.1325299E+03  0.7546771E-02  0.1226157E+00
         21   -1    0    0  501  502  0.00000000000E+00  0.00000000000E+00  0.14422721053E+03  0.14422721053E+03  0.00000000000E+00 0.  1.
          2   -1    0    0  502    0 -0.00000000000E+00 -0.00000000000E+00 -0.38567067985E+03  0.38567067985E+03  0.00000000000E+00 0. -1.
         23    2    1    2    0    0 -0.13480916793E+00  0.96266670299E+02 -0.31291042176E+03  0.34009536324E+03  0.92112073396E+02 0.  0.
         24    2    1    2    0    0 -0.24169590754E+02 -0.89881208633E+02  0.11660444217E+02  0.12493114359E+03  0.82516809787E+02 0.  0.
        -11    1    4    4    0    0  0.89223044355E+01 -0.62900983075E+02  0.38702731027E+02  0.74391145825E+02  0.00000000000E+00 0.  1.
         12    1    4    4    0    0 -0.33091895189E+02 -0.26980225558E+02 -0.27042286810E+02  0.50539997767E+02  0.00000000000E+00 0. -1.
        -11    1    3    3    0    0 -0.26052988559E+02 -0.38834261276E+01 -0.99586639326E+02  0.10301134862E+03  0.00000000000E+00 0. -1.
         11    1    3    3    0    0  0.25918179391E+02  0.10015009643E+03 -0.21332378244E+03  0.23708401462E+03  0.00000000000E+00 0.  1.
          1    1    1    2  501    0  0.24304399921E+02 -0.63854616662E+01  0.59806508234E+02  0.64871383547E+02  0.00000000000E+00 0. -1.
<scales pt_clust_5="13000.00000" pt_clust_6="13000.00000" pt_clust_7="13000.00000" pt_clust_8="13000.00000" pt_clust_9="25.12923"></scales>
<clustering>
<clus scale="   25.129">  1  9  2 -1</clus>
<clus scale="   82.517">  5  6 -1 -1</clus>
<clus scale="   92.112">  7  8 -1 -1</clus>
<clus scale="  126.050">  1  5  2 -1</clus>
<clus scale="   25.129">  1  5  2 -1</clus>
</clustering>
</event>
<event>
 9    2  0.1751298E-004  0.9375200E+02  0.7546771E-02  0.1300760E+00
         21   -1    0    0  501  502  0.00000000000E+00  0.00000000000E+00  0.13507129302E+03  0.13507129302E+03  0.00000000000E+00 0.  1.
          2   -1    0    0  502    0 -0.00000000000E+00 -0.00000000000E+00 -0.13030019756E+03  0.13030019756E+03  0.00000000000E+00 0. -1.
         23    2    1    2    0    0 -0.16576838477E+02  0.25909605291E+02 -0.22594689132E+02  0.98740779806E+02  0.91066582232E+02 0.  0.
         24    2    1    2    0    0 -0.50416113459E+02 -0.11334093460E+02  0.24141715651E+02  0.97994745171E+02  0.79686269054E+02 0.  0.
        -11    1    4    4    0    0 -0.21234270976E+02 -0.13694545747E+02  0.51853638732E+02  0.57682186997E+02  0.00000000000E+00 0.  1.
         12    1    4    4    0    0 -0.29181842482E+02  0.23604522862E+01 -0.27711923081E+02  0.40312558174E+02  0.00000000000E+00 0. -1.
        -13    1    3    3    0    0  0.19150933162E+02  0.32870526177E+02 -0.42674998849E+02  0.57169793238E+02  0.00000000000E+00 0. -1.
         13    1    3    3    0    0 -0.35727771639E+02 -0.69609208857E+01  0.20080309717E+02  0.41570986567E+02  0.00000000000E+00 0.  1.
          1    1    1    2  501    0  0.66992951935E+02 -0.14575511831E+02  0.32240689360E+01  0.68635965606E+02  0.00000000000E+00 0. -1.
<scales pt_clust_5="13000.00000" pt_clust_6="13000.00000" pt_clust_7="13000.00000" pt_clust_8="13000.00000" pt_clust_9="68.56020"></scales>
<clustering>
<clus scale="   68.560">  1  9  2 -1</clus>
<clus scale="   79.686">  5  6 -1 -1</clus>
<clus scale="   82.742">  1  5  2 -1</clus>
<clus scale="   91.067">  7  8 -1 -1</clus>
<clus scale="   68.560">  1  5  2 -1</clus>
</clustering>
</event>
<event>
 9    2  0.1751298E-004  0.1825115E+03  0.7546771E-02  0.1166943E+00
          4   -1    0    0  502    0 -0.00000000000E+00  0.00000000000E+00  0.67160576586E+03  0.67160576586E+03  0.00000000000E+00 0. -1.
         21   -1    0    0  501  502  0.00000000000E+00 -0.00000000000E+00 -0.65314587150E+02  0.65314587150E+02  0.00000000000E+00 0. -1.
         23    2    1    2    0    0  0.16874761222E+03  0.32848665418E+02  0.39108408997E+03  0.43670458521E+03  0.90605396461E+02 0.  0.
         24    2    1    2    0    0 -0.12981092983E+03 -0.41773068468E+02  0.12094171447E+03  0.19783573561E+03  0.76916924233E+02 0.  0.
        -13    1    4    4    0    0 -0.27936284068E+02  0.88608180382E+01 -0.31633545100E+01  0.29478074489E+02  0.00000000000E+00 0.  1.
         14    1    4    4    0    0 -0.10187464576E+03 -0.50633886507E+02  0.12410506898E+03  0.16835766112E+03  0.00000000000E+00 0. -1.
        -13    1    3    3    0    0 -0.21065286495E+00  0.24583142841E+02  0.39184047173E+02  0.46257592235E+02  0.00000000000E+00 0.  1.
         13    1    3    3    0    0  0.16895826508E+03  0.82655225772E+01  0.35190004280E+03  0.39044699298E+03  0.00000000000E+00 0. -1.
          3    1    1    2  501    0 -0.38936682391E+02  0.89244030500E+01  0.94265374268E+02  0.10238003219E+03  0.00000000000E+00 0. -1.
<scales pt_clust_5="13000.00000" pt_clust_6="13000.00000" pt_clust_7="13000.00000" pt_clust_8="13000.00000" pt_clust_9="39.94636"></scales>
<clustering>
<clus scale="   39.946">  2  9  1 -1</clus>
<clus scale="   76.917">  5  6 -1 -1</clus>
<clus scale="   90.605">  7  8 -1 -1</clus>
<clus scale="  176.117">  2  5  1 -1</clus>
<clus scale="   39.946">  2  5  1 -1</clus>
</clustering>
</event>
<event>
 9    2  0.1751298E-004  0.1684673E+03  0.7546771E-02  0.1198937E+00
         21   -1    0    0  501  502  0.00000000000E+00  0.00000000000E+00  0.26796838117E+03  0.26796838117E+03  0.00000000000E+00 0.  1.
         -1   -1    0    0    0  501 -0.00000000000E+00 -0.00000000000E+00 -0.29695864743E+03  0.29695864743E+03  0.00000000000E+00 0.  1.
         23    2    1    2    0    0  0.19362270992E+01 -0.51774783731E+02 -0.11553330288E+03  0.15916278468E+03  0.96438948282E+02 0.  0.
         24    2    1    2    0    0 -0.14682474822E+03 -0.18414508269E+02  0.15764400593E+03  0.22976831186E+03  0.77751165432E+02 0.  0.
        -11    1    4    4    0    0 -0.12969844807E+03 -0.14153198942E+02  0.86668488640E+02  0.15663150192E+03  0.00000000000E+00 0.  1.
         12    1    4    4    0    0 -0.17126300158E+02 -0.42613093276E+01  0.70975517288E+02  0.73136809943E+02  0.00000000000E+00 0. -1.
        -11    1    3    3    0    0  0.15595887272E+02  0.25771739923E+02 -0.24729663769E+02  0.38973972707E+02  0.00000000000E+00 0.  1.
         11    1    3    3    0    0 -0.13659660173E+02 -0.77546523654E+02 -0.90803639111E+02  0.12018881197E+03  0.00000000000E+00 0. -1.
         -2    1    1    2    0  502  0.14488852112E+03  0.70189292001E+02 -0.71100969303E+02  0.17599593206E+03  0.00000000000E+00 0.  1.
<scales pt_clust_5="13000.00000" pt_clust_6="13000.00000" pt_clust_7="13000.00000" pt_clust_8="13000.00000" pt_clust_9="149.45239"></scales>
<clustering>
<clus scale="   77.751">  5  6 -1 -1</clus>
<clus scale="   96.439">  7  8 -1 -1</clus>
<clus scale="  109.475">  2  7  1 -1</clus>
<clus scale="  149.452">  1  9  2 -1</clus>
<clus scale="  149.452">  1  5  2 -1</clus>
</clustering>
</event>
<event>
 9    2  0.1751298E-004  0.1190688E+03  0.7546771E-02  0.1248437E+00
         21   -1    0    0  501  502  0.00000000000E+00  0.00000000000E+00  0.52948233404E+02  0.52948233404E+02  0.00000000000E+00 0. -1.
         -1   -1    0    0    0  501 -0.00000000000E+00 -0.00000000000E+00 -0.65553185894E+03  0.65553185894E+03  0.00000000000E+00 0.  1.
         23    2    1    2    0    0 -0.78841511974E+02 -0.80278424871E+01 -0.51079735602E+03  0.52514121123E+03  0.92622473234E+02 0.  0.
         24    2    1    2    0    0  0.52847626567E+02 -0.28479878122E+02 -0.26771519870E+02  0.10437424717E+03  0.81075854018E+02 0.  0.
        -11    1    4    4    0    0 -0.19575549965E+02  0.60878105653E+01 -0.33157846191E+01  0.20766752792E+02  0.00000000000E+00 0.  1.
         12    1    4    4    0    0  0.72423176531E+02 -0.34567688687E+02 -0.23455735250E+02  0.83607494378E+02  0.00000000000E+00 0. -1.
        -13    1    3    3    0    0 -0.54670116583E+02  0.39892693788E+02 -0.25986461092E+03  0.26853280000E+03  0.00000000000E+00 0. -1.
         13    1    3    3    0    0 -0.24171395391E+02 -0.47920536275E+02 -0.25093274509E+03  0.25660841123E+03  0.00000000000E+00 0.  1.
         -2    1    1    2    0  502  0.25993885407E+02  0.36507720609E+02 -0.65014749654E+02  0.78964633952E+02  0.00000000000E+00 0.  1.
<scales pt_clust_5="13000.00000" pt_clust_6="13000.00000" pt_clust_7="13000.00000" pt_clust_8="13000.00000" pt_clust_9="44.81624"></scales>
<clustering>
<clus scale="   44.816">  1  9  2 -1</clus>
<clus scale="   81.076">  5  6 -1 -1</clus>
<clus scale="   92.622">  7  8 -1 -1</clus>
<clus scale="  110.326">  1  5  2 -1</clus>
<clus scale="   44.816">  1  5  2 -1</clus>
</clustering>
</event>
<event>
 9    2  0.1751298E-004  0.9416362E+02  0.7546771E-02  0.1298334E+00
         21   -1    0    0  501  502  0.00000000000E+00  0.00000000000E+00  0.37173123203E+02  0.37173123203E+02  0.00000000000E+00 0.  1.
         -3   -1    0    0    0  501 -0.00000000000E+00 -0.00000000000E+00 -0.38407072139E+03  0.38407072139E+03  0.00000000000E+00 0.  1.
         24    2    1    2    0    0 -0.17759209625E+02 -0.74968446178E+01 -0.13853117948E+03  0.16303349982E+03  0.83770174705E+02 0.  0.
         23    2    1    2    0    0  0.14274063213E+02 -0.12479794026E+02 -0.68303656046E+02  0.11668723775E+03  0.92687797928E+02 0.  0.
        -11    1    3    3    0    0 -0.11560830772E+02 -0.22721191128E+02 -0.14358951941E+03  0.14583502809E+03  0.00000000000E+00 0.  1.
         12    1    3    3    0    0 -0.61983788534E+01  0.15224346511E+02  0.50583399272E+01  0.17198471732E+02  0.00000000000E+00 0. -1.
        -11    1    4    4    0    0 -0.15673569595E+02 -0.25318517581E+02  0.10371360468E+02  0.31531781337E+02  0.00000000000E+00 0.  1.
         11    1    4    4    0    0  0.29947632808E+02  0.12838723555E+02 -0.78675016514E+02  0.85155456412E+02  0.00000000000E+00 0. -1.
         -4    1    1    2    0  502  0.34851464120E+01  0.19976638644E+02 -0.14006276266E+03  0.14152310703E+03  0.00000000000E+00 0.  1.
<scales pt_clust_5="13000.00000" pt_clust_6="13000.00000" pt_clust_7="13000.00000" pt_clust_8="13000.00000" pt_clust_9="20.27838"></scales>
<clustering>
<clus scale="   20.278">  1  9  2 -1</clus>
<clus scale="   83.770">  5  6 -1 -1</clus>
<clus scale="   85.400">  2  5  1 -1</clus>
<clus scale="   92.688">  7  8 -1 -1</clus>
<clus scale="   20.278">  1  5  2 -1</clus>
</clustering>
</event>
<event>
 9    2  0.1751298E-004  0.1169765E+03  0.7546771E-02  0.1251990E+00
          2   -1    0    0  502    0 -0.00000000000E+00  0.00000000000E+00  0.78843821552E+03  0.78843821552E+03  0.00000000000E+00 0. -1.
         21   -1    0    0  501  502  0.00000000000E+00 -0.00000000000E+00 -0.33757457999E+02  0.33757457999E+02  0.00000000000E+00 0. -1.
         24    2    1    2    0    0 -0.55756416061E+02 -0.55995921486E+02  0.61345653008E+03  0.62375874886E+03  0.80633376006E+02 0.  0.
         23    2    1    2    0    0  0.32590085530E+02  0.36517533212E+02  0.12909246915E+03  0.16582916425E+03  0.91862953456E+02 0.  0.
        -13    1    3    3    0    0 -0.67528677148E+02 -0.13635376423E+02  0.38261926343E+03  0.38877184372E+03  0.00000000000E+00 0.  1.
         14    1    3    3    0    0  0.11772261087E+02 -0.42360545063E+02  0.23083726665E+03  0.23498690513E+03  0.00000000000E+00 0. -1.
        -11    1    4    4    0    0  0.49571684403E+02  0.25483454257E+02  0.13388004573E+03  0.14501939519E+03  0.00000000000E+00 0.  1.
         11    1    4    4    0    0 -0.16981598873E+02  0.11034078955E+02 -0.47875765869E+01  0.20809769058E+02  0.00000000000E+00 0. -1.
          1    1    1    2  501    0  0.23166330531E+02  0.19478388274E+02  0.12131758298E+02  0.32607760417E+02  0.00000000000E+00 0. -1.
<scales pt_clust_5="13000.00000" pt_clust_6="13000.00000" pt_clust_7="13000.00000" pt_clust_8="13000.00000" pt_clust_9="30.26692"></scales>
<clustering>
<clus scale="   30.267">  2  9  1 -1</clus>
<clus scale="   80.633">  5  6 -1 -1</clus>
<clus scale="   91.863">  7  8 -1 -1</clus>
<clus scale="  108.381">  1  5  2 -1</clus>
<clus scale="   30.267">  2  5  1 -1</clus>
</clustering>
</event>
<event>
 9    2  0.1751298E-004  0.1933668E+03  0.7546771E-02  0.1168034E+00
          2   -1    0    0  502    0 -0.00000000000E+00  0.00000000000E+00  0.89658763552E+03  0.89658763552E+03  0.00000000000E+00 0. -1.
         21   -1    0    0  501  502  0.00000000000E+00 -0.00000000000E+00 -0.82779956073E+02  0.82779956073E+02  0.00000000000E+00 0. -1.
         24    2    1    2    0    0 -0.48919530858E+02  0.10931300324E+03  0.28054626740E+03  0.31553894033E+03  0.80722744836E+02 0.  0.
         23    2    1    2    0    0 -0.13392183984E+03  0.26456100166E+02  0.20429588342E+03  0.26372549543E+03  0.95808895917E+02 0.  0.
        -13    1    3    3    0    0 -0.44399073076E+02  0.31841978565E+02  0.18246989246E+03  0.19047427895E+03  0.00000000000E+00 0.  1.
         14    1    3    3    0    0 -0.45204577818E+01  0.77471024678E+02  0.98076374944E+02  0.12506466138E+03  0.00000000000E+00 0. -1.
        -11    1    4    4    0    0 -0.13175195553E+03  0.27269009780E+01  0.20000169168E+03  0.23951344524E+03  0.00000000000E+00 0. -1.
         11    1    4    4    0    0 -0.21698843184E+01  0.23729199188E+02  0.42941917373E+01  0.24212050197E+02  0.00000000000E+00 0.  1.
          1    1    1    2  501    0  0.18284137070E+03 -0.13576910341E+03  0.32896552863E+03  0.40010315583E+03  0.00000000000E+00 0. -1.
<scales pt_clust_5="13000.00000" pt_clust_6="13000.00000" pt_clust_7="13000.00000" pt_clust_8="13000.00000" pt_clust_9="167.96251"></scales>
<clustering>
<clus scale="   80.723">  5  6 -1 -1</clus>
<clus scale="   95.809">  7  8 -1 -1</clus>
<clus scale="  144.425">  1  5  2 -1</clus>
<clus scale="  167.963">  2  9  1 -1</clus>
<clus scale="  167.963">  2  5  1 -1</clus>
</clustering>
</event>
<event>
 9    2  0.1751298E-004  0.1868515E+03  0.7546771E-02  0.1187948E+00
          2   -1    0    0  502    0 -0.00000000000E+00  0.00000000000E+00  0.17975923814E+04  0.17975923814E+04  0.00000000000E+00 0. -1.
         21   -1    0    0  501  502  0.00000000000E+00 -0.00000000000E+00 -0.30946901579E+02  0.30946901579E+02  0.00000000000E+00 0.  1.
         24    2    1    2    0    0 -0.56862190671E+02 -0.24237115680E+02  0.23777884790E+03  0.25878816140E+03  0.81312886253E+02 0.  0.
         23    2    1    2    0    0  0.71479626357E+02 -0.14531326064E+03  0.83159192800E+03  0.85200951608E+03  0.90276243095E+02 0.  0.
        -13    1    3    3    0    0 -0.58247978536E+02 -0.22951503713E+02  0.82834734786E+02  0.10383251809E+03  0.00000000000E+00 0.  1.
         14    1    3    3    0    0  0.13857878650E+01 -0.12856119663E+01  0.15494411311E+03  0.15495564331E+03  0.00000000000E+00 0. -1.
        -11    1    4    4    0    0  0.20014836903E+02 -0.11880856442E+03  0.66024684101E+03  0.67114972975E+03  0.00000000000E+00 0.  1.
         11    1    4    4    0    0  0.51464789454E+02 -0.26504696218E+02  0.17134508699E+03  0.18085978633E+03  0.00000000000E+00 0. -1.
          1    1    1    2  501    0 -0.14617435686E+02  0.16955037632E+03  0.69727470392E+03  0.71774160550E+03  0.00000000000E+00 0. -1.
<scales pt_clust_5="13000.00000" pt_clust_6="13000.00000" pt_clust_7="13000.00000" pt_clust_8="13000.00000" pt_clust_9="163.59613"></scales>
<clustering>
<clus scale="   81.313">  5  6 -1 -1</clus>
<clus scale="   90.276">  7  8 -1 -1</clus>
<clus scale="  102.140">  1  5  2 -1</clus>
<clus scale="  163.596">  2  9  1 -1</clus>
<clus scale="  163.596">  2  5  1 -1</clus>
</clustering>
</event>
<event>
 9    2  0.1751298E-004  0.1911537E+03  0.7546771E-02  0.1189036E+00
         21   -1    0    0  501  502  0.00000000000E+00  0.00000000000E+00  0.15078605621E+03  0.15078605621E+03  0.00000000000E+00 0.  1.
         -3   -1    0    0    0  501 -0.00000000000E+00 -0.00000000000E+00 -0.39540960314E+03  0.39540960314E+03  0.00000000000E+00 0.  1.
         23    2    1    2    0    0  0.17941346392E+02 -0.21537939418E+01 -0.11829792413E+03  0.15055451500E+03  0.91354980126E+02 0.  0.
         24    2    1    2    0    0 -0.10117979025E+03  0.15081569004E+03 -0.10508278648E+03  0.22394299065E+03  0.78264607154E+02 0.  0.
        -11    1    4    4    0    0 -0.89985063200E+02  0.64960509946E+02 -0.63924279200E+02  0.12807612159E+03  0.00000000000E+00 0.  1.
         12    1    4    4    0    0 -0.11194727052E+02  0.85855180090E+02 -0.41158507276E+02  0.95866869059E+02  0.00000000000E+00 0. -1.
        -13    1    3    3    0    0 -0.30438219558E+02 -0.25163220200E+02 -0.52877218944E+02  0.65997523771E+02  0.00000000000E+00 0.  1.
         13    1    3    3    0    0  0.48379565950E+02  0.23009426258E+02 -0.65420705187E+02  0.84556991227E+02  0.00000000000E+00 0. -1.
         -4    1    1    2    0  502  0.83238443860E+02 -0.14866189609E+03 -0.21242836319E+02  0.17169815369E+03  0.00000000000E+00 0.  1.
<scales pt_clust_5="13000.00000" pt_clust_6="13000.00000" pt_clust_7="13000.00000" pt_clust_8="13000.00000" pt_clust_9="174.39718"></scales>
<clustering>
<clus scale="   78.265">  5  6 -1 -1</clus>
<clus scale="   91.355">  7  8 -1 -1</clus>
<clus scale="   93.125">  2  7  1 -1</clus>
<clus scale="  174.397">  1  9  2 -1</clus>
<clus scale="  174.397">  1  5  2 -1</clus>
</clustering>
</event>
<event>
 9    2  0.1751298E-004  0.9480545E+02  0.7546771E-02  0.1296649E+00
         21   -1    0    0  501  502  0.00000000000E+00  0.00000000000E+00  0.51101692980E+03  0.51101692980E+03  0.00000000000E+00 0. -1.
          2   -1    0    0  502    0 -0.00000000000E+00 -0.00000000000E+00 -0.69378918608E+02  0.69378918608E+02  0.00000000000E+00 0. -1.
         24    2    1    2    0    0  0.63722080277E+01  0.31255104077E+02 -0.23298057671E+02  0.91050114985E+02  0.82035586069E+02 0.  0.
         23    2    1    2    0    0 -0.17135755124E+02  0.24363132081E+02  0.30669161338E+03  0.32126673464E+03  0.90914095512E+02 0.  0.
        -13    1    3    3    0    0 -0.22589035586E+02  0.36385660042E+02  0.12599310593E+02  0.44642170790E+02  0.00000000000E+00 0.  1.
         14    1    3    3    0    0  0.28961243614E+02 -0.51305559652E+01 -0.35897368264E+02  0.46407944195E+02  0.00000000000E+00 0. -1.
        -11    1    4    4    0    0 -0.51050194370E+02  0.21629611305E+02  0.24090026122E+03  0.24719809523E+03  0.00000000000E+00 0. -1.
         11    1    4    4    0    0  0.33914439247E+02  0.27335207762E+01  0.65791352152E+02  0.74068639405E+02  0.00000000000E+00 0.  1.
          1    1    1    2  501    0  0.10763547096E+02 -0.55618236159E+02  0.15824445549E+03  0.16807899878E+03  0.00000000000E+00 0. -1.
<scales pt_clust_5="13000.00000" pt_clust_6="13000.00000" pt_clust_7="13000.00000" pt_clust_8="13000.00000" pt_clust_9="56.65017"></scales>
<clustering>
<clus scale="   56.650">  1  9  2 -1</clus>
<clus scale="   82.036">  5  6 -1 -1</clus>
<clus scale="   86.328">  2  5  1 -1</clus>
<clus scale="   90.914">  7  8 -1 -1</clus>
<clus scale="   56.650">  1  5  2 -1</clus>
</clustering>
</event>
<event>
 9    2  0.1751298E-004  0.1051195E+03  0.7546771E-02  0.1274972E+00
          2   -1    0    0  502    0 -0.00000000000E+00  0.00000000000E+00  0.84439970834E+03  0.84439970834E+03  0.00000000000E+00 0. -1.
         21   -1    0    0  501  502  0.00000000000E+00 -0.00000000000E+00 -0.36734707358E+02  0.36734707358E+02  0.00000000000E+00 0.  1.
         24    2    1    2    0    0 -0.56434943198E+02  0.12240753464E+01  0.67233761737E+03  0.67950717284E+03  0.80658074836E+02 0.  0.
         23    2    1    2    0    0  0.88307688532E+01 -0.11739531710E+02  0.56670640573E+02  0.10908743811E+03  0.92047316998E+02 0.  0.
        -11    1    3    3    0    0 -0.48593204711E+02 -0.29619618918E+02  0.27106232847E+03  0.27697185288E+03  0.00000000000E+00 0.  1.
         12    1    3    3    0    0 -0.78417384869E+01  0.30843694265E+02  0.40127528890E+03  0.40253531996E+03  0.00000000000E+00 0. -1.
        -11    1    4    4    0    0 -0.29238690512E+02  0.56924360080E+01 -0.90764387306E+01  0.31139791114E+02  0.00000000000E+00 0.  1.
         11    1    4    4    0    0  0.38069459365E+02 -0.17431967718E+02  0.65747079304E+02  0.77947646994E+02  0.00000000000E+00 0. -1.
          1    1    1    2  501    0  0.47604174345E+02  0.10515456363E+02  0.78656743037E+02  0.92539804748E+02  0.00000000000E+00 0. -1.
<scales pt_clust_5="13000.00000" pt_clust_6="13000.00000" pt_clust_7="13000.00000" pt_clust_8="13000.00000" pt_clust_9="48.75174"></scales>
<clustering>
<clus scale="   48.752">  2  9  1 -1</clus>
<clus scale="   80.658">  5  6 -1 -1</clus>
<clus scale="   92.047">  7  8 -1 -1</clus>
<clus scale="   95.305">  1  5  2 -1</clus>
<clus scale="   48.752">  2  5  1 -1</clus>
</clustering>
</event>
<event>
 9    2  0.1751298E-004  0.1057246E+03  0.7546771E-02  0.1272545E+00
         -1   -1    0    0    0  501 -0.00000000000E+00  0.00000000000E+00  0.12311654394E+03  0.12311654394E+03  0.00000000000E+00 0.  1.
         21   -1    0    0  501  502  0.00000000000E+00 -0.00000000000E+00 -0.19649170544E+03  0.19649170544E+03  0.00000000000E+00 0.  1.
         23    2    1    2    0    0  0.32726828400E+02  0.50397566518E+02  0.73131094071E+02  0.12943890416E+03  0.88291069665E+02 0.  0.
         24    2    1    2    0    0 -0.88718954038E+01 -0.50874469010E+02 -0.13180130210E+03  0.16214219907E+03  0.79066980206E+02 0.  0.
        -13    1    4    4    0    0  0.22200700858E+02  0.10650329597E+02 -0.25477541130E+02  0.35431705310E+02  0.00000000000E+00 0.  1.
         14    1    4    4    0    0 -0.31072596262E+02 -0.61524798608E+02 -0.10632376097E+03  0.12671049376E+03  0.00000000000E+00 0. -1.
        -11    1    3    3    0    0  0.42915617736E+02  0.38876225884E+01  0.69387365759E+02  0.81679069424E+02  0.00000000000E+00 0. -1.
         11    1    3    3    0    0 -0.10188789336E+02  0.46509943930E+02  0.37437283121E+01  0.47759834738E+02  0.00000000000E+00 0.  1.
         -2    1    1    2    0  502 -0.23854932996E+02  0.47690249187E+00 -0.14704953476E+02  0.28027146144E+02  0.00000000000E+00 0.  1.
<scales pt_clust_5="13000.00000" pt_clust_6="13000.00000" pt_clust_7="13000.00000" pt_clust_8="13000.00000" pt_clust_9="23.85970"></scales>
<clustering>
<clus scale="   23.860">  2  9  1 -1</clus>
<clus scale="   79.067">  5  6 -1 -1</clus>
<clus scale="   88.291">  7  8 -1 -1</clus>
<clus scale="   98.153">  2  5  1 -1</clus>
<clus scale="   23.860">  2  5  1 -1</clus>
</clustering>
</event>
<event>
 9    2  0.1751298E-004  0.1279244E+03  0.7546771E-02  0.1258238E+00
          2   -1    0    0  502    0 -0.00000000000E+00  0.00000000000E+00  0.10252039455E+03  0.10252039455E+03  0.00000000000E+00 0. -1.
         21   -1    0    0  501  502  0.00000000000E+00 -0.00000000000E+00 -0.32985761278E+03  0.32985761278E+03  0.00000000000E+00 0. -1.
         24    2    1    2    0    0 -0.11611849186E+02 -0.17462134028E+02 -0.35633506416E+02  0.81431738444E+02  0.70154259173E+02 0.  0.
         23    2    1    2    0    0  0.72867147919E+02  0.59486950768E+02 -0.23200663129E+03  0.26643223358E+03  0.91163257802E+02 0.  0.
        -13    1    3    3    0    0 -0.36935385413E+02 -0.12468033693E+02 -0.39307573148E+02  0.55360273361E+02  0.00000000000E+00 0.  1.
         14    1    3    3    0    0  0.25323536227E+02 -0.49941003352E+01  0.36740667317E+01  0.26071465083E+02  0.00000000000E+00 0. -1.
        -13    1    4    4    0    0  0.71980522919E+02  0.26292118091E+02 -0.79766604085E+02  0.11061275822E+03  0.00000000000E+00 0.  1.
         13    1    4    4    0    0  0.88662499974E+00  0.33194832677E+02 -0.15224002720E+03  0.15581947536E+03  0.00000000000E+00 0. -1.
          1    1    1    2  501    0 -0.61255298733E+02 -0.42024816739E+02  0.40302919470E+02  0.84514035299E+02  0.00000000000E+00 0. -1.
<scales pt_clust_5="13000.00000" pt_clust_6="13000.00000" pt_clust_7="13000.00000" pt_clust_8="13000.00000" pt_clust_9="89.74360"></scales>
<clustering>
<clus scale="   70.154">  5  6 -1 -1</clus>
<clus scale="   73.221">  1  5  2 -1</clus>
<clus scale="   89.744">  2  9  1 -1</clus>
<clus scale="   91.163">  7  8 -1 -1</clus>
<clus scale="   89.744">  2  5  1 -1</clus>
</clustering>
</event>
<event>
 9    2  0.1751298E-004  0.1041039E+03  0.7546771E-02  0.1275959E+00
         21   -1    0    0  501  502  0.00000000000E+00  0.00000000000E+00  0.52100773675E+02  0.52100773675E+02  0.00000000000E+00 0. -1.
          2   -1    0    0  502    0 -0.00000000000E+00 -0.00000000000E+00 -0.33522210026E+03  0.33522210026E+03  0.00000000000E+00 0. -1.
         24    2    1    2    0    0  0.43545189597E+02 -0.10284808847E+02 -0.15374391848E+03  0.17898010328E+03  0.79967018642E+02 0.  0.
         23    2    1    2    0    0 -0.65940760570E+02  0.12697432836E+02 -0.14344135740E+03  0.18178760122E+03  0.89229480785E+02 0.  0.
        -11    1    3    3    0    0  0.35777455715E+02 -0.11078071367E+02 -0.15529366517E+02  0.40545175139E+02  0.00000000000E+00 0.  1.
         12    1    3    3    0    0  0.77677338826E+01  0.79326251949E+00 -0.13821455197E+03  0.13843492814E+03  0.00000000000E+00 0. -1.
        -13    1    4    4    0    0 -0.17657333243E+02  0.46318237509E+02 -0.87701517342E+02  0.10074083922E+03  0.00000000000E+00 0. -1.
         13    1    4    4    0    0 -0.48283427328E+02 -0.33620804673E+02 -0.55739840053E+02  0.81046761999E+02  0.00000000000E+00 0.  1.
          1    1    1    2  501    0  0.22395570973E+02 -0.24126239888E+01  0.14063949294E+02  0.26555169430E+02  0.00000000000E+00 0. -1.
<scales pt_clust_5="13000.00000" pt_clust_6="13000.00000" pt_clust_7="13000.00000" pt_clust_8="13000.00000" pt_clust_9="22.52515"></scales>
<clustering>
<clus scale="   22.525">  1  9  2 -1</clus>
<clus scale="   79.967">  5  6 -1 -1</clus>
<clus scale="   89.229">  7  8 -1 -1</clus>
<clus scale="   96.283">  2  5  1 -1</clus>
<clus scale="   22.525">  1  5  2 -1</clus>
</clustering>
</event>
<event>
 9    2  0.1751298E-004  0.1612578E+03  0.7546771E-02  0.1188788E+00
          4   -1    0    0  502    0 -0.00000000000E+00  0.00000000000E+00  0.76360274518E+02  0.76360274518E+02  0.00000000000E+00 0. -1.
         21   -1    0    0  501  502  0.00000000000E+00 -0.00000000000E+00 -0.75248031853E+03  0.75248031853E+03  0.00000000000E+00 0. -1.
         24    2    1    2    0    0 -0.90907900358E+02 -0.86587278930E+02 -0.29686796925E+03  0.33242629021E+03  0.81332920983E+02 0.  0.
         23    2    1    2    0    0  0.47067694200E+02  0.14487731657E+03 -0.38430303248E+03  0.42330339846E+03  0.91061197458E+02 0.  0.
        -11    1    3    3    0    0 -0.68457182753E+02 -0.22390502375E+02 -0.21059039620E+03  0.22256692351E+03  0.00000000000E+00 0.  1.
         12    1    3    3    0    0 -0.22450717605E+02 -0.64196776556E+02 -0.86277573049E+02  0.10985936670E+03  0.00000000000E+00 0. -1.
        -13    1    4    4    0    0  0.33992065880E+02  0.16299291575E+02 -0.16046225502E+03  0.16483101266E+03  0.00000000000E+00 0.  1.
         13    1    4    4    0    0  0.13075628320E+02  0.12857802500E+03 -0.22384077746E+03  0.25847238580E+03  0.00000000000E+00 0. -1.
          3    1    1    2  501    0  0.43840206157E+02 -0.58290037644E+02  0.50509577196E+01  0.73110904374E+02  0.00000000000E+00 0. -1.
<scales pt_clust_5="13000.00000" pt_clust_6="13000.00000" pt_clust_7="13000.00000" pt_clust_8="13000.00000" pt_clust_9="72.93626"></scales>
<clustering>
<clus scale="   72.936">  2  9  1 -1</clus>
<clus scale="   81.333">  5  6 -1 -1</clus>
<clus scale="   91.061">  7  8 -1 -1</clus>
<clus scale="  155.971">  1  5  2 -1</clus>
<clus scale="   72.936">  2  5  1 -1</clus>
</clustering>
</event>
<event>
 9    2  0.1751298E-004  0.2197947E+03  0.7546771E-02  0.1135218E+00
         21   -1    0    0  501  502  0.00000000000E+00  0.00000000000E+00  0.26413056808E+03  0.26413056808E+03  0.00000000000E+00 0.  1.
         -3   -1    0    0    0  501 -0.00000000000E+00 -0.00000000000E+00 -0.38656194851E+03  0.38656194851E+03  0.00000000000E+00 0.  1.
         23    2    1    2    0    0 -0.11900776818E+03  0.10035729227E+03 -0.93515404263E+02  0.20558868738E+03  0.96369821753E+02 0.  0.
         24    2    1    2    0    0  0.21015609244E+03 -0.16407496972E+03 -0.11796662552E+03  0.30263285820E+03  0.81143966176E+02 0.  0.
        -13    1    4    4    0    0  0.97713943202E+02 -0.58942665751E+02 -0.91872028147E+02  0.14650161125E+03  0.00000000000E+00 0.  1.
         14    1    4    4    0    0  0.11244214923E+03 -0.10513230397E+03 -0.26094597374E+02  0.15613124695E+03  0.00000000000E+00 0. -1.
        -11    1    3    3    0    0 -0.12545623649E+03  0.80120690203E+02 -0.49765891064E+02  0.15695616008E+03  0.00000000000E+00 0. -1.
         11    1    3    3    0    0  0.64484683083E+01  0.20236602067E+02 -0.43749513198E+02  0.48632527303E+02  0.00000000000E+00 0.  1.
         -4    1    1    2    0  502 -0.91148324255E+02  0.63717677447E+02  0.89050649352E+02  0.14247097102E+03  0.00000000000E+00 0.  1.
<scales pt_clust_5="13000.00000" pt_clust_6="13000.00000" pt_clust_7="13000.00000" pt_clust_8="13000.00000" pt_clust_9="111.21133"></scales>
<clustering>
<clus scale="   81.144">  5  6 -1 -1</clus>
<clus scale="   96.370">  7  8 -1 -1</clus>
<clus scale="  111.211">  1  9  2 -1</clus>
<clus scale="  213.558">  1  5  2 -1</clus>
<clus scale="  111.211">  1  5  2 -1</clus>
</clustering>
</event>
<event>
 9    2  0.1751298E-004  0.2554007E+03  0.7546771E-02  0.1122010E+00
          2   -1    0    0  502    0 -0.00000000000E+00  0.00000000000E+00  0.70821370885E+03  0.70821370885E+03  0.00000000000E+00 0. -1.
         21   -1    0    0  501  502  0.00000000000E+00 -0.00000000000E+00 -0.20506293120E+03  0.20506293120E+03  0.00000000000E+00 0. -1.
         24    2    1    2    0    0  0.16216462407E+03 -0.50658284634E+02  0.19543017755E+03  0.27147113431E+03  0.81486166697E+02 0.  0.
         23    2    1    2    0    0 -0.35041047279E+03 -0.47086778236E+01  0.23972608124E+03  0.43413929595E+03  0.90546469691E+02 0.  0.
        -13    1    3    3    0    0  0.58957407548E+02 -0.50896370379E+02  0.47945606444E+02  0.91461454175E+02  0.00000000000E+00 0.  1.
         14    1    3    3    0    0  0.10320721652E+03  0.23808574546E+00  0.14748457110E+03  0.18000968013E+03  0.00000000000E+00 0. -1.
        -11    1    4    4    0    0 -0.28278869586E+03 -0.94143579914E+01  0.14578183791E+03  0.31829297967E+03  0.00000000000E+00 0. -1.
         11    1    4    4    0    0 -0.67621776931E+02  0.47056801677E+01  0.93944243328E+02  0.11584631628E+03  0.00000000000E+00 0.  1.
          1    1    1    2  501    0  0.18824584872E+03  0.55366962457E+02  0.67994518869E+02  0.20766620979E+03  0.00000000000E+00 0. -1.
<scales pt_clust_5="13000.00000" pt_clust_6="13000.00000" pt_clust_7="13000.00000" pt_clust_8="13000.00000" pt_clust_9="238.81138"></scales>
<clustering>
<clus scale="   81.486">  5  6 -1 -1</clus>
<clus scale="   90.546">  7  8 -1 -1</clus>
<clus scale="  188.424">  1  5  2 -1</clus>
<clus scale="  238.811">  2  9  1 -1</clus>
<clus scale="  238.811">  2  5  1 -1</clus>
</clustering>
</event>
<event>
 9    2  0.1751298E-004  0.4982799E+03  0.7546771E-02  0.1014537E+00
          2   -1    0    0  502    0 -0.00000000000E+00  0.00000000000E+00  0.20008309794E+04  0.20008309794E+04  0.00000000000E+00 0. -1.
         21   -1    0    0  501  502  0.00000000000E+00 -0.00000000000E+00 -0.33461075782E+03  0.33461075782E+03  0.00000000000E+00 0. -1.
         24    2    1    2    0    0  0.45344213155E+03 -0.20793612305E+03  0.16772707951E+04  0.17517644754E+04  0.81205045500E+02 0.  0.
         23    2    1    2    0    0 -0.40931397295E+03  0.13421644279E+03  0.88326050836E+02  0.45230908036E+03  0.10597184035E+03 0.  0.
        -11    1    3    3    0    0  0.40458615269E+03 -0.20879631546E+03  0.15481046216E+04  0.16136647036E+04  0.00000000000E+00 0.  1.
         12    1    3    3    0    0  0.48855978864E+02  0.86019241129E+00  0.12916617346E+03  0.13809977179E+03  0.00000000000E+00 0. -1.
        -13    1    4    4    0    0 -0.60119910920E+02  0.16184791778E+02 -0.24375324774E+02  0.66861854834E+02  0.00000000000E+00 0.  1.
         13    1    4    4    0    0 -0.34919406203E+03  0.11803165101E+03  0.11270137561E+03  0.38544722552E+03  0.00000000000E+00 0. -1.
          1    1    1    2  501    0 -0.44128158603E+02  0.73719680256E+02 -0.99376624309E+02  0.13136818145E+03  0.00000000000E+00 0. -1.
<scales pt_clust_5="13000.00000" pt_clust_6="13000.00000" pt_clust_7="13000.00000" pt_clust_8="13000.00000" pt_clust_9="85.91790"></scales>
<clustering>
<clus scale="   81.205">  5  6 -1 -1</clus>
<clus scale="   85.918">  2  9  1 -1</clus>
<clus scale="  105.972">  7  8 -1 -1</clus>
<clus scale="  493.606">  1  5  2 -1</clus>
<clus scale="   85.918">  2  5  1 -1</clus>
</clustering>
</event>
<event>
 9    2  0.1751298E-004  0.1435011E+03  0.7546771E-02  0.1227131E+00
          2   -1    0    0  502    0 -0.00000000000E+00  0.00000000000E+00  0.55827800566E+03  0.55827800566E+03  0.00000000000E+00 0. -1.
         21   -1    0    0  501  502  0.00000000000E+00 -0.00000000000E+00 -0.17296779710E+03  0.17296779710E+03  0.00000000000E+00 0. -1.
         24    2    1    2    0    0  0.47600918998E+02 -0.30106338084E+02  0.37358424761E+03  0.38604841196E+03  0.79347005196E+02 0.  0.
         23    2    1    2    0    0 -0.10367257752E+03 -0.66498575358E+02  0.11653673236E+03  0.19202481494E+03  0.90125777166E+02 0.  0.
        -13    1    3    3    0    0  0.49151496897E+02  0.99713768093E+01  0.13295893157E+03  0.14210339717E+03  0.00000000000E+00 0.  1.
         14    1    3    3    0    0 -0.15505778995E+01 -0.40077714893E+02  0.24062531604E+03  0.24394501479E+03  0.00000000000E+00 0. -1.
        -13    1    4    4    0    0 -0.28635864900E+02  0.18513488364E+02  0.79237779403E+01  0.35007831507E+02  0.00000000000E+00 0.  1.
         13    1    4    4    0    0 -0.75036712623E+02 -0.85012063722E+02  0.10861295442E+03  0.15701698344E+03  0.00000000000E+00 0. -1.
          1    1    1    2  501    0  0.56071658525E+02  0.96604913442E+02 -0.10481077141E+03  0.15317257586E+03  0.00000000000E+00 0. -1.
<scales pt_clust_5="13000.00000" pt_clust_6="13000.00000" pt_clust_7="13000.00000" pt_clust_8="13000.00000" pt_clust_9="111.66878"></scales>
<clustering>
<clus scale="   79.347">  5  6 -1 -1</clus>
<clus scale="   90.126">  7  8 -1 -1</clus>
<clus scale="   97.305">  1  5  2 -1</clus>
<clus scale="  111.669">  2  9  1 -1</clus>
<clus scale="  111.669">  2  5  1 -1</clus>
</clustering>
</event>
<event>
 9    2  0.1751298E-004  0.1253330E+03  0.7546771E-02  0.1248483E+00
          2   -1    0    0  502    0 -0.00000000000E+00  0.00000000000E+00  0.68358623638E+03  0.68358623638E+03  0.00000000000E+00 0. -1.
         21   -1    0    0  501  502  0.00000000000E+00 -0.00000000000E+00 -0.70626338564E+02  0.70626338564E+02  0.00000000000E+00 0. -1.
         23    2    1    2    0    0  0.26229970393E+02  0.11138279684E+02  0.22164234996E+02  0.97072958409E+02  0.90110117746E+02 0.  0.
         24    2    1    2    0    0 -0.99414874528E+01  0.84203754524E+02  0.52977522253E+03  0.54277654428E+03  0.82191758450E+02 0.  0.
        -13    1    4    4    0    0  0.31680001223E+02  0.22714151653E+02  0.11552865556E+03  0.12192795175E+03  0.00000000000E+00 0.  1.
         14    1    4    4    0    0 -0.41621488675E+02  0.61489602871E+02  0.41424656697E+03  0.42084859252E+03  0.00000000000E+00 0. -1.
        -13    1    3    3    0    0  0.66332208223E+01 -0.31094778840E+02  0.36453941216E+02  0.48371217886E+02  0.00000000000E+00 0.  1.
         13    1    3    3    0    0  0.19596749570E+02  0.42233058524E+02 -0.14289706221E+02  0.48701740522E+02  0.00000000000E+00 0. -1.
          1    1    1    2  501    0 -0.16288482940E+02 -0.95342034208E+02  0.61020440284E+02  0.11436307226E+03  0.00000000000E+00 0. -1.
<scales pt_clust_5="13000.00000" pt_clust_6="13000.00000" pt_clust_7="13000.00000" pt_clust_8="13000.00000" pt_clust_9="94.61965"></scales>
<clustering>
<clus scale="   82.192">  5  6 -1 -1</clus>
<clus scale="   90.110">  7  8 -1 -1</clus>
<clus scale="   94.509">  1  7  2 -1</clus>
<clus scale="   94.620">  2  9  1 -1</clus>
<clus scale="   94.620">  2  5  1 -1</clus>
</clustering>
</event>
<event>
 9    2  0.1751298E-004  0.1926597E+03  0.7546771E-02  0.1156814E+00
         21   -1    0    0  501  502  0.00000000000E+00  0.00000000000E+00  0.40907326681E+03  0.40907326681E+03  0.00000000000E+00 0. -1.
          2   -1    0    0  502    0 -0.00000000000E+00 -0.00000000000E+00 -0.27478298837E+03  0.27478298837E+03  0.00000000000E+00 0. -1.
         24    2    1    2    0    0  0.77048565950E+02  0.14855510627E+03 -0.15590166394E+03  0.24272964055E+03  0.81284983040E+02 0.  0.
         23    2    1    2    0    0 -0.83838393281E+02 -0.18369614242E+03  0.32397941043E+03  0.39190683026E+03  0.88629319586E+02 0.  0.
        -13    1    3    3    0    0  0.21267462903E+02 -0.41476828105E+01 -0.30494417143E+02  0.37408792121E+02  0.00000000000E+00 0.  1.
         14    1    3    3    0    0  0.55781103047E+02  0.15270278908E+03 -0.12540724679E+03  0.20532084843E+03  0.00000000000E+00 0. -1.
        -13    1    4    4    0    0 -0.12534864226E+02 -0.10158949063E+03  0.10088420936E+03  0.14371907015E+03  0.00000000000E+00 0.  1.
         13    1    4    4    0    0 -0.71303529054E+02 -0.82106651793E+02  0.22309520107E+03  0.24818776011E+03  0.00000000000E+00 0. -1.
          1    1    1    2  501    0  0.67898273304E+01  0.35141036155E+02 -0.33787468053E+02  0.49219784383E+02  0.00000000000E+00 0. -1.
<scales pt_clust_5="13000.00000" pt_clust_6="13000.00000" pt_clust_7="13000.00000" pt_clust_8="13000.00000" pt_clust_9="35.79100"></scales>
<clustering>
<clus scale="   35.791">  1  9  2 -1</clus>
<clus scale="   81.285">  5  6 -1 -1</clus>
<clus scale="   88.629">  7  8 -1 -1</clus>
<clus scale="  189.393">  2  5  1 -1</clus>
<clus scale="   35.791">  1  5  2 -1</clus>
</clustering>
</event>
<event>
 9    2  0.1751298E-004  0.1729574E+03  0.7546771E-02  0.1184118E+00
         21   -1    0    0  501  502  0.00000000000E+00  0.00000000000E+00  0.23903218360E+03  0.23903218360E+03  0.00000000000E+00 0.  1.
          2   -1    0    0  502    0 -0.00000000000E+00 -0.00000000000E+00 -0.64725924676E+03  0.64725924676E+03  0.00000000000E+00 0. -1.
         24    2    1    2    0    0  0.91548048335E+02  0.69041990035E+02 -0.31233849605E+02  0.14367408618E+03  0.80739384053E+02 0.  0.
         23    2    1    2    0    0  0.97084805302E+02 -0.10966721144E+03  0.11978417195E+03  0.20968157616E+03  0.90364588439E+02 0.  0.
        -11    1    3    3    0    0  0.53636566928E+02  0.81793450321E+02 -0.98170021778E+01  0.98302712877E+02  0.00000000000E+00 0.  1.
         12    1    3    3    0    0  0.37911481407E+02 -0.12751460286E+02 -0.21416847428E+02  0.45371373305E+02  0.00000000000E+00 0. -1.
        -11    1    4    4    0    0  0.87268540057E+02 -0.59084297307E+02  0.11787744007E+03  0.15811971145E+03  0.00000000000E+00 0.  1.
         11    1    4    4    0    0  0.98162652453E+01 -0.50582914134E+02  0.19067318837E+01  0.51561864708E+02  0.00000000000E+00 0. -1.
          1    1    1    2  501    0 -0.18863285364E+03  0.40625221406E+02 -0.49677738551E+03  0.53293576802E+03  0.00000000000E+00 0. -1.
<scales pt_clust_5="13000.00000" pt_clust_6="13000.00000" pt_clust_7="13000.00000" pt_clust_8="13000.00000" pt_clust_9="147.47380"></scales>
<clustering>
<clus scale="   80.739">  5  6 -1 -1</clus>
<clus scale="   90.365">  7  8 -1 -1</clus>
<clus scale="  140.238">  2  5  1 -1</clus>
<clus scale="  147.474">  1  9  2 -1</clus>
<clus scale="  147.474">  1  5  2 -1</clus>
</clustering>
</event>
<event>
 9    2  0.1751298E-004  0.1300577E+03  0.7546771E-02  0.1240455E+00
         -3   -1    0    0    0  501 -0.00000000000E+00  0.00000000000E+00  0.65851952748E+02  0.65851952748E+02  0.00000000000E+00 0.  1.
         21   -1    0    0  501  502  0.00000000000E+00 -0.00000000000E+00 -0.65095353278E+03  0.65095353278E+03  0.00000000000E+00 0.  1.
         23    2    1    2    0    0 -0.12276202910E+02  0.40674022803E+02 -0.46338939346E+02  0.10970525829E+03  0.89904755763E+02 0.  0.
         24    2    1    2    0    0 -0.76771052675E+02 -0.87756570578E+02 -0.15264445038E+03  0.20805958153E+03  0.79959058458E+02 0.  0.
        -11    1    4    4    0    0 -0.73335232665E+02 -0.42727847904E+02 -0.13522996335E+03  0.15965859928E+03  0.00000000000E+00 0.  1.
         12    1    4    4    0    0 -0.34358200104E+01 -0.45028722673E+02 -0.17414487024E+02  0.48400982253E+02  0.00000000000E+00 0. -1.
        -11    1    3    3    0    0 -0.44258762665E+02  0.29283778102E+02 -0.10192693154E+01  0.53079342898E+02  0.00000000000E+00 0.  1.
         11    1    3    3    0    0  0.31982559754E+02  0.11390244701E+02 -0.45319670031E+02  0.56625915396E+02  0.00000000000E+00 0. -1.
         -4    1    1    2    0  502  0.89047255585E+02  0.47082547775E+02 -0.38611819031E+03  0.39904064570E+03  0.00000000000E+00 0.  1.
<scales pt_clust_5="13000.00000" pt_clust_6="13000.00000" pt_clust_7="13000.00000" pt_clust_8="13000.00000" pt_clust_9="102.57463"></scales>
<clustering>
<clus scale="   79.959">  5  6 -1 -1</clus>
<clus scale="   89.905">  7  8 -1 -1</clus>
<clus scale="   99.438">  1  7  2 -1</clus>
<clus scale="  102.575">  2  9  1 -1</clus>
<clus scale="  102.575">  2  5  1 -1</clus>
</clustering>
</event>
<event>
 9    2  0.1751298E-004  0.1256981E+03  0.7546771E-02  0.1247479E+00
          2   -1    0    0  502    0 -0.00000000000E+00  0.00000000000E+00  0.96442970060E+03  0.96442970060E+03  0.00000000000E+00 0. -1.
         21   -1    0    0  501  502  0.00000000000E+00 -0.00000000000E+00 -0.28018443052E+02  0.28018443052E+02  0.00000000000E+00 0.  1.
         23    2    1    2    0    0  0.18434591373E+02  0.20235752408E+02  0.32083290647E+03  0.33477099195E+03  0.91588991381E+02 0.  0.
         24    2    1    2    0    0 -0.38820837128E+01  0.87130103428E+02  0.26119781246E+03  0.28710358461E+03  0.81224661055E+02 0.  0.
        -13    1    4    4    0    0 -0.20250178040E+02  0.71447675444E+02  0.10128752446E+03  0.12559459641E+03  0.00000000000E+00 0.  1.
         14    1    4    4    0    0  0.16368094327E+02  0.15682427984E+02  0.15991028800E+03  0.16150898820E+03  0.00000000000E+00 0. -1.
        -11    1    3    3    0    0  0.38349406435E+02 -0.20590295447E+02  0.96168772615E+02  0.10556074112E+03  0.00000000000E+00 0. -1.
         11    1    3    3    0    0 -0.19914815062E+02  0.40826047855E+02  0.22466413385E+03  0.22921025082E+03  0.00000000000E+00 0.  1.
          1    1    1    2  501    0 -0.14552507660E+02 -0.10736585584E+03  0.35438053862E+03  0.37057356710E+03  0.00000000000E+00 0. -1.
<scales pt_clust_5="13000.00000" pt_clust_6="13000.00000" pt_clust_7="13000.00000" pt_clust_8="13000.00000" pt_clust_9="95.93006"></scales>
<clustering>
<clus scale="   81.225">  5  6 -1 -1</clus>
<clus scale="   91.589">  7  8 -1 -1</clus>
<clus scale="   95.592">  1  7  2 -1</clus>
<clus scale="   95.930">  2  9  1 -1</clus>
<clus scale="   95.930">  2  5  1 -1</clus>
</clustering>
</event>
<event>
 9    2  0.1751298E-004  0.1056392E+03  0.7546771E-02  0.1272821E+00
          2   -1    0    0  502    0 -0.00000000000E+00  0.00000000000E+00  0.52497093285E+03  0.52497093285E+03  0.00000000000E+00 0. -1.
         21   -1    0    0  501  502  0.00000000000E+00 -0.00000000000E+00 -0.54486594672E+02  0.54486594672E+02  0.00000000000E+00 0. -1.
         24    2    1    2    0    0 -0.13015294845E+02 -0.44459273105E+02  0.31492729563E+03  0.32840665905E+03  0.80781850141E+02 0.  0.
         23    2    1    2    0    0  0.55617477097E+02  0.69726562881E+02  0.15666174363E+03  0.20150692606E+03  0.90039113742E+02 0.  0.
        -11    1    3    3    0    0 -0.41232415583E+02 -0.22441606710E+01  0.16608686303E+03  0.17114319859E+03  0.00000000000E+00 0.  1.
         12    1    3    3    0    0  0.28217120738E+02 -0.42215112434E+02  0.14884043261E+03  0.15726346047E+03  0.00000000000E+00 0. -1.
        -13    1    4    4    0    0  0.74841786997E+02  0.57723092578E+02  0.15100881872E+03  0.17814856673E+03  0.00000000000E+00 0. -1.
         13    1    4    4    0    0 -0.19224309900E+02  0.12003470303E+02  0.56529249091E+01  0.23358359328E+02  0.00000000000E+00 0.  1.
          1    1    1    2  501    0 -0.42602182252E+02 -0.25267289776E+02 -0.11047010777E+01  0.49543942412E+02  0.00000000000E+00 0. -1.
<scales pt_clust_5="13000.00000" pt_clust_6="13000.00000" pt_clust_7="13000.00000" pt_clust_8="13000.00000" pt_clust_9="49.53162"></scales>
<clustering>
<clus scale="   49.532">  2  9  1 -1</clus>
<clus scale="   80.782">  5  6 -1 -1</clus>
<clus scale="   90.039">  7  8 -1 -1</clus>
<clus scale="   97.869">  1  5  2 -1</clus>
<clus scale="   49.532">  2  5  1 -1</clus>
</clustering>
</event>
<event>
 9    2  0.1751298E-004  0.1147988E+03  0.7546771E-02  0.1252026E+00
          2   -1    0    0  502    0 -0.00000000000E+00  0.00000000000E+00  0.17943563690E+03  0.17943563690E+03  0.00000000000E+00 0. -1.
         21   -1    0    0  501  502  0.00000000000E+00 -0.00000000000E+00 -0.29885918580E+03  0.29885918580E+03  0.00000000000E+00 0. -1.
         24    2    1    2    0    0  0.32675283087E+02 -0.59774492089E+02 -0.36245356985E+01  0.10613000747E+03  0.81300536270E+02 0.  0.
         23    2    1    2    0    0  0.14375256710E+02  0.14716524661E+03 -0.18551435604E+03  0.25087538330E+03  0.81600391128E+02 0.  0.
        -11    1    3    3    0    0  0.14941882384E+02 -0.63658842286E+02 -0.31722619398E+02  0.72677593740E+02  0.00000000000E+00 0.  1.
         12    1    3    3    0    0  0.17733400703E+02  0.38843501967E+01  0.28098083700E+02  0.33452413733E+02  0.00000000000E+00 0. -1.
        -13    1    4    4    0    0  0.18270837796E+02  0.38083815829E+02 -0.87654331777E+01  0.43139695881E+02  0.00000000000E+00 0.  1.
         13    1    4    4    0    0 -0.38955810866E+01  0.10908143078E+03 -0.17674892286E+03  0.20773568742E+03  0.00000000000E+00 0. -1.
          1    1    1    2  501    0 -0.47050539797E+02 -0.87390754518E+02  0.69715342837E+02  0.12128943193E+03  0.00000000000E+00 0. -1.
<scales pt_clust_5="13000.00000" pt_clust_6="13000.00000" pt_clust_7="13000.00000" pt_clust_8="13000.00000" pt_clust_9="99.25174"></scales>
<clustering>
<clus scale="   81.301">  5  6 -1 -1</clus>
<clus scale="   81.600">  7  8 -1 -1</clus>
<clus scale="   99.252">  2  9  1 -1</clus>
<clus scale="  114.586">  1  5  2 -1</clus>
<clus scale="   99.252">  2  5  1 -1</clus>
</clustering>
</event>
<event>
 9    2  0.1751298E-004  0.1278267E+03  0.7546771E-02  0.1233432E+00
         21   -1    0    0  501  502  0.00000000000E+00  0.00000000000E+00  0.38254454814E+03  0.38254454814E+03  0.00000000000E+00 0. -1.
          2   -1    0    0  502    0 -0.00000000000E+00 -0.00000000000E+00 -0.83212507972E+02  0.83212507972E+02  0.00000000000E+00 0. -1.
         24    2    1    2    0    0 -0.10873015233E+03  0.36070495018E+02  0.47911538291E+02  0.14820451034E+03  0.80905715177E+02 0.  0.
         23    2    1    2    0    0  0.31470897503E+02 -0.19526487642E+02  0.20131717067E+03  0.22399486071E+03  0.90958195389E+02 0.  0.
        -13    1    3    3    0    0  0.25006189718E+00  0.29861078788E+02  0.18598217420E+02  0.35180111548E+02  0.00000000000E+00 0.  1.
         14    1    3    3    0    0 -0.10898021422E+03  0.62094162307E+01  0.29313320871E+02  0.11302439879E+03  0.00000000000E+00 0. -1.
        -13    1    4    4    0    0  0.52309922566E+02  0.13209156736E+02  0.78964785530E+02  0.95636014003E+02  0.00000000000E+00 0.  1.
         13    1    4    4    0    0 -0.20839025063E+02 -0.32735644378E+02  0.12235238514E+03  0.12835884670E+03  0.00000000000E+00 0. -1.
          1    1    1    2  501    0  0.77259254824E+02 -0.16544007377E+02  0.50103331210E+02  0.93557685063E+02  0.00000000000E+00 0. -1.
<scales pt_clust_5="13000.00000" pt_clust_6="13000.00000" pt_clust_7="13000.00000" pt_clust_8="13000.00000" pt_clust_9="79.01078"></scales>
<clustering>
<clus scale="   79.011">  1  9  2 -1</clus>
<clus scale="   80.906">  5  6 -1 -1</clus>
<clus scale="   90.958">  7  8 -1 -1</clus>
<clus scale="  120.880">  2  5  1 -1</clus>
<clus scale="   79.011">  1  5  2 -1</clus>
</clustering>
</event>
<event>
 9    2  0.1751298E-004  0.1032525E+03  0.7546771E-02  0.1279164E+00
          4   -1    0    0  502    0 -0.00000000000E+00  0.00000000000E+00  0.75720045805E+02  0.75720045805E+02  0.00000000000E+00 0. -1.
         21   -1    0    0  501  502  0.00000000000E+00 -0.00000000000E+00 -0.26451573290E+03  0.26451573290E+03  0.00000000000E+00 0. -1.
         23    2    1    2    0    0 -0.45363314659E+02 -0.52246650469E+02 -0.31471851732E+02  0.11943125903E+03  0.92118431266E+02 0.  0.
         24    2    1    2    0    0  0.17372392727E+02 -0.71705698620E+01 -0.11900515561E+03  0.14476361621E+03  0.80256217300E+02 0.  0.
        -11    1    4    4    0    0  0.44637293124E+02  0.14471207193E+02 -0.58910507439E+02  0.75315016177E+02  0.00000000000E+00 0.  1.
         12    1    4    4    0    0 -0.27264900397E+02 -0.21641777055E+02 -0.60094648170E+02  0.69448600032E+02  0.00000000000E+00 0. -1.
        -11    1    3    3    0    0  0.37678291927E+01 -0.63010838859E+02 -0.27881409796E+02  0.69006777659E+02  0.00000000000E+00 0.  1.
         11    1    3    3    0    0 -0.49131143852E+02  0.10764188390E+02 -0.35904419355E+01  0.50424481367E+02  0.00000000000E+00 0. -1.
          3    1    1    2  501    0  0.27990921932E+02  0.59417220331E+02 -0.38318679756E+02  0.76040903471E+02  0.00000000000E+00 0. -1.
<scales pt_clust_5="13000.00000" pt_clust_6="13000.00000" pt_clust_7="13000.00000" pt_clust_8="13000.00000" pt_clust_9="65.68030"></scales>
<clustering>
<clus scale="   65.680">  2  9  1 -1</clus>
<clus scale="   80.256">  5  6 -1 -1</clus>
<clus scale="   92.118">  7  8 -1 -1</clus>
<clus scale="   92.824">  2  5  1 -1</clus>
<clus scale="   65.680">  2  5  1 -1</clus>
</clustering>
</event>
<event>
 9    2  0.1751298E-004  0.9984151E+02  0.7546771E-02  0.1288430E+00
         21   -1    0    0  501  502  0.00000000000E+00  0.00000000000E+00  0.15597545099E+03  0.15597545099E+03  0.00000000000E+00 0.  1.
          2   -1    0    0  502    0 -0.00000000000E+00 -0.00000000000E+00 -0.15636595327E+03  0.15636595327E+03  0.00000000000E+00 0. -1.
         24    2    1    2    0    0  0.30973831655E+02  0.21162715705E+02 -0.11637305198E+03  0.14534199842E+03  0.78577162673E+02 0.  0.
         23    2    1    2    0    0 -0.10087857387E+02 -0.20567402375E+02  0.78645488954E+02  0.12421349199E+03  0.93376098394E+02 0.  0.
        -13    1    3    3    0    0 -0.19473602520E+02  0.12306015638E+02 -0.62164847590E+01  0.23860090083E+02  0.00000000000E+00 0.  1.
         14    1    3    3    0    0  0.50447434175E+02  0.88567000667E+01 -0.11015656722E+03  0.12148190834E+03  0.00000000000E+00 0. -1.
        -11    1    4    4    0    0  0.20407335658E+02 -0.49229506554E+02  0.35070143673E+02  0.63795913988E+02  0.00000000000E+00 0. -1.
         11    1    4    4    0    0 -0.30495193045E+02  0.28662104179E+02  0.43575345281E+02  0.60417577998E+02  0.00000000000E+00 0.  1.
          1    1    1    2  501    0 -0.20885974268E+02 -0.59531333033E+00  0.37337060743E+02  0.42785913850E+02  0.00000000000E+00 0. -1.
<scales pt_clust_5="13000.00000" pt_clust_6="13000.00000" pt_clust_7="13000.00000" pt_clust_8="13000.00000" pt_clust_9="20.89446"></scales>
<clustering>
<clus scale="   20.894">  1  9  2 -1</clus>
<clus scale="   78.577">  5  6 -1 -1</clus>
<clus scale="   86.160">  2  5  1 -1</clus>
<clus scale="   93.376">  7  8 -1 -1</clus>
<clus scale="   20.894">  1  5  2 -1</clus>
</clustering>
</event>
<event>
 9    2  0.1751298E-004  0.1192604E+03  0.7546771E-02  0.1248063E+00
          2   -1    0    0  502    0 -0.00000000000E+00  0.00000000000E+00  0.47498138171E+03  0.47498138171E+03  0.00000000000E+00 0. -1.
         21   -1    0    0  501  502  0.00000000000E+00 -0.00000000000E+00 -0.49557182192E+02  0.49557182192E+02  0.00000000000E+00 0.  1.
         24    2    1    2    0    0 -0.26924110383E+02  0.81847638056E+02  0.15834839789E+03  0.19731706206E+03  0.80223838683E+02 0.  0.
         23    2    1    2    0    0  0.49891140243E+02 -0.45739135941E+02  0.90631071306E+02  0.14566145325E+03  0.91771855403E+02 0.  0.
        -13    1    3    3    0    0 -0.55599265984E+02  0.56481411416E+02  0.11190383327E+03  0.13712729894E+03  0.00000000000E+00 0.  1.
         14    1    3    3    0    0  0.28675155601E+02  0.25366226640E+02  0.46444564614E+02  0.60189763124E+02  0.00000000000E+00 0. -1.
        -11    1    4    4    0    0  0.51107949227E+02  0.10770959913E+02  0.21802877312E+02  0.56598599900E+02  0.00000000000E+00 0.  1.
         11    1    4    4    0    0 -0.12168089839E+01 -0.56510095854E+02  0.68828193994E+02  0.89062853345E+02  0.00000000000E+00 0. -1.
          1    1    1    2  501    0 -0.22967029860E+02 -0.36108502115E+02  0.17644473032E+03  0.18156004859E+03  0.00000000000E+00 0. -1.
<scales pt_clust_5="13000.00000" pt_clust_6="13000.00000" pt_clust_7="13000.00000" pt_clust_8="13000.00000" pt_clust_9="42.79381"></scales>
<clustering>
<clus scale="   42.794">  2  9  1 -1</clus>
<clus scale="   80.224">  5  6 -1 -1</clus>
<clus scale="   91.772">  7  8 -1 -1</clus>
<clus scale="  110.620">  1  5  2 -1</clus>
<clus scale="   42.794">  2  5  1 -1</clus>
</clustering>
</event>
<event>
 9    2  0.1751298E-004  0.1086867E+03  0.7546771E-02  0.1267534E+00
         -1   -1    0    0    0  501 -0.00000000000E+00  0.00000000000E+00  0.67337538226E+03  0.67337538226E+03  0.00000000000E+00 0.  1.
         21   -1    0    0  501  502  0.00000000000E+00 -0.00000000000E+00 -0.37965836695E+02  0.37965836695E+02  0.00000000000E+00 0.  1.
         23    2    1    2    0    0 -0.67316014056E+02 -0.71584487221E+01  0.35616314456E+03  0.37404120018E+03  0.92043167871E+02 0.  0.
         24    2    1    2    0    0  0.28611268388E+02 -0.10147923286E+02  0.41808514590E+02  0.96106491180E+02  0.81036539468E+02 0.  0.
        -13    1    4    4    0    0  0.53778436221E+02 -0.80323482865E+01  0.96641311446E+01  0.55227115190E+02  0.00000000000E+00 0.  1.
         14    1    4    4    0    0 -0.25167167833E+02 -0.21155749990E+01  0.32144383445E+02  0.40879375990E+02  0.00000000000E+00 0. -1.
        -13    1    3    3    0    0 -0.11148718721E+02  0.28256396544E+02  0.36178606936E+02  0.47239913999E+02  0.00000000000E+00 0.  1.
         13    1    3    3    0    0 -0.56167295335E+02 -0.35414845266E+02  0.31998453762E+03  0.32680128618E+03  0.00000000000E+00 0. -1.
         -2    1    1    2    0  502  0.38704745668E+02  0.17306372008E+02  0.23743788642E+03  0.24119352760E+03  0.00000000000E+00 0.  1.
<scales pt_clust_5="13000.00000" pt_clust_6="13000.00000" pt_clust_7="13000.00000" pt_clust_8="13000.00000" pt_clust_9="42.39776"></scales>
<clustering>
<clus scale="   42.398">  2  9  1 -1</clus>
<clus scale="   81.037">  5  6 -1 -1</clus>
<clus scale="   92.043">  7  8 -1 -1</clus>
<clus scale="   99.538">  2  5  1 -1</clus>
<clus scale="   42.398">  2  5  1 -1</clus>
</clustering>
</event>
<event>
 9    2  0.1751298E-004  0.1089072E+03  0.7546771E-02  0.1267342E+00
         21   -1    0    0  501  502  0.00000000000E+00  0.00000000000E+00  0.49902211896E+03  0.49902211896E+03  0.00000000000E+00 0. -1.
          4   -1    0    0  502    0 -0.00000000000E+00 -0.00000000000E+00 -0.66971972800E+02  0.66971972800E+02  0.00000000000E+00 0. -1.
         23    2    1    2    0    0  0.38889941866E+02 -0.73974920464E+02  0.27411987502E+02  0.12663007248E+03  0.91099076619E+02 0.  0.
         24    2    1    2    0    0 -0.25253974670E+02  0.70327091273E+01  0.11741524435E+03  0.14412817836E+03  0.79368570339E+02 0.  0.
        -13    1    4    4    0    0 -0.50075490801E+02  0.10820177924E+02  0.47585733252E+02  0.69921620679E+02  0.00000000000E+00 0.  1.
         14    1    4    4    0    0  0.24821516131E+02 -0.37874687963E+01  0.69829511096E+02  0.74206557681E+02  0.00000000000E+00 0. -1.
        -11    1    3    3    0    0  0.37245853886E+02 -0.67581393306E+01  0.43328385592E+02  0.57534990023E+02  0.00000000000E+00 0.  1.
         11    1    3    3    0    0  0.16440879802E+01 -0.67216781134E+02 -0.15916398090E+02  0.69095082455E+02  0.00000000000E+00 0. -1.
          3    1    1    2  501    0 -0.13635967196E+02  0.66942211337E+02  0.28722291431E+03  0.29523584092E+03  0.00000000000E+00 0. -1.
<scales pt_clust_5="13000.00000" pt_clust_6="13000.00000" pt_clust_7="13000.00000" pt_clust_8="13000.00000" pt_clust_9="68.31690"></scales>
<clustering>
<clus scale="   68.317">  1  9  2 -1</clus>
<clus scale="   79.369">  5  6 -1 -1</clus>
<clus scale="   91.099">  7  8 -1 -1</clus>
<clus scale="   99.303">  1  5  2 -1</clus>
<clus scale="   68.317">  1  5  2 -1</clus>
</clustering>
</event>
<event>
 9    2  0.1751298E-004  0.2009178E+03  0.7546771E-02  0.1150073E+00
         21   -1    0    0  501  502  0.00000000000E+00  0.00000000000E+00  0.23758870733E+03  0.23758870733E+03  0.00000000000E+00 0.  1.
          2   -1    0    0  502    0 -0.00000000000E+00 -0.00000000000E+00 -0.65953480198E+03  0.65953480198E+03  0.00000000000E+00 0. -1.
         23    2    1    2    0    0  0.13556436581E+03 -0.10674076898E+03 -0.53314830739E+03  0.56809264491E+03  0.93331915752E+02 0.  0.
         24    2    1    2    0    0 -0.19152519529E+03  0.11582999035E+03  0.45978195701E+02  0.24261095477E+03  0.81532777458E+02 0.  0.
        -13    1    4    4    0    0 -0.15477968611E+03  0.50475190326E+02  0.24631677276E+02  0.16465483776E+03  0.00000000000E+00 0.  1.
         14    1    4    4    0    0 -0.36745509176E+02  0.65354800027E+02  0.21346518425E+02  0.77956117015E+02  0.00000000000E+00 0. -1.
        -13    1    3    3    0    0  0.60449857218E+02 -0.10273390808E+03 -0.36267674554E+03  0.38176283589E+03  0.00000000000E+00 0. -1.
         13    1    3    3    0    0  0.75114508590E+02 -0.40068609004E+01 -0.17047156184E+03  0.18632980903E+03  0.00000000000E+00 0.  1.
          1    1    1    2  501    0  0.55960829478E+02 -0.90892213754E+01  0.65224017037E+02  0.86419909625E+02  0.00000000000E+00 0. -1.
<scales pt_clust_5="13000.00000" pt_clust_6="13000.00000" pt_clust_7="13000.00000" pt_clust_8="13000.00000" pt_clust_9="56.69417"></scales>
<clustering>
<clus scale="   56.694">  1  9  2 -1</clus>
<clus scale="   81.533">  5  6 -1 -1</clus>
<clus scale="   93.332">  7  8 -1 -1</clus>
<clus scale="  195.716">  1  5  2 -1</clus>
<clus scale="   56.694">  1  5  2 -1</clus>
</clustering>
</event>
<event>
 9    2  0.1751298E-004  0.2231064E+03  0.7546771E-02  0.1132446E+00
          2   -1    0    0  502    0 -0.00000000000E+00  0.00000000000E+00  0.68700729606E+03  0.68700729606E+03  0.00000000000E+00 0. -1.
         21   -1    0    0  501  502  0.00000000000E+00 -0.00000000000E+00 -0.11836691351E+03  0.11836691351E+03  0.00000000000E+00 0.  1.
         23    2    1    2    0    0  0.17140192087E+02  0.21753821929E+03  0.44890270800E+03  0.50758214549E+03  0.92246030448E+02 0.  0.
         24    2    1    2    0    0  0.32852683573E+01 -0.16216803484E+03  0.20310210775E+02  0.18216820273E+03  0.80395801571E+02 0.  0.
        -11    1    4    4    0    0  0.19395017704E+02 -0.60184317779E+02 -0.26803454458E+02  0.68678555526E+02  0.00000000000E+00 0.  1.
         12    1    4    4    0    0 -0.16109749347E+02 -0.10198371707E+03  0.47113665233E+02  0.11348964720E+03  0.00000000000E+00 0. -1.
        -11    1    3    3    0    0  0.27537137891E+02  0.14974070556E+02  0.90380321523E+02  0.95661482693E+02  0.00000000000E+00 0.  1.
         11    1    3    3    0    0 -0.10396945804E+02  0.20256414873E+03  0.35852238648E+03  0.41192066280E+03  0.00000000000E+00 0. -1.
          1    1    1    2  501    0 -0.20425460444E+02 -0.55370184444E+02  0.99427463779E+02  0.11562386135E+03  0.00000000000E+00 0. -1.
<scales pt_clust_5="13000.00000" pt_clust_6="13000.00000" pt_clust_7="13000.00000" pt_clust_8="13000.00000" pt_clust_9="59.01746"></scales>
<clustering>
<clus scale="   59.017">  2  9  1 -1</clus>
<clus scale="   80.396">  5  6 -1 -1</clus>
<clus scale="   92.246">  7  8 -1 -1</clus>
<clus scale="  218.473">  2  5  1 -1</clus>
<clus scale="   59.017">  2  5  1 -1</clus>
</clustering>
</event>
<event>
 9    2  0.2133128E-004  0.3080170E+03  0.7546771E-02  0.1124585E+00
         21   -1    0    0  501  502  0.00000000000E+00  0.00000000000E+00  0.25143582320E+03  0.25143582320E+03  0.00000000000E+00 0. -1.
          2   -1    0    0  502    0 -0.00000000000E+00 -0.00000000000E+00 -0.15033214039E+04  0.15033214039E+04  0.00000000000E+00 0. -1.
         23    2    1    2    0    0  0.34985773338E+02  0.17273508475E+02  0.21216365182E+02  0.10296742433E+03  0.92896597840E+02 0.  0.
         24    2    1    2    0    0 -0.15302606778E+03 -0.25931500558E+03  0.38018066145E+02  0.31330062337E+03  0.77785973743E+02 0.  0.
        -13    1    4    4    0    0 -0.58459597954E+02 -0.44640238929E+02  0.27358959911E+02  0.78477947298E+02  0.00000000000E+00 0.  1.
         14    1    4    4    0    0 -0.94566469825E+02 -0.21467476665E+03  0.10659106234E+02  0.23482267607E+03  0.00000000000E+00 0. -1.
        -13    1    3    3    0    0  0.41304200739E+02 -0.14506775015E+02 -0.21966544491E+02  0.48979716178E+02  0.00000000000E+00 0.  1.
         13    1    3    3    0    0 -0.63184274011E+01  0.31780283490E+02  0.43182909673E+02  0.53987708150E+02  0.00000000000E+00 0. -1.
          1    1    1    2  501    0  0.11804029444E+03  0.24204149710E+03 -0.13111200121E+04  0.13384891794E+04  0.00000000000E+00 0. -1.
<scales pt_clust_5="13000.00000" pt_clust_6="13000.00000" pt_clust_7="13000.00000" pt_clust_8="13000.00000" pt_clust_9="298.03341"></scales>
<clustering>
<clus scale="   77.786">  5  6 -1 -1</clus>
<clus scale="   92.897">  7  8 -1 -1</clus>
<clus scale="  100.758">  2  7  1 -1</clus>
<clus scale="  298.033">  1  9  2 -1</clus>
<clus scale="  298.033">  1  5  2 -1</clus>
</clustering>
</event>
<event>
 9    2  0.1751298E-004  0.1071843E+03  0.7546771E-02  0.1273177E+00
          2   -1    0    0  502    0 -0.00000000000E+00  0.00000000000E+00  0.59867903468E+03  0.59867903468E+03  0.00000000000E+00 0. -1.
         21   -1    0    0  501  502  0.00000000000E+00 -0.00000000000E+00 -0.10127104584E+03  0.10127104584E+03  0.00000000000E+00 0.  1.
         24    2    1    2    0    0 -0.44440195014E+02  0.38237128057E+02  0.53933676656E+03  0.54752185829E+03  0.73885239733E+02 0.  0.
         23    2    1    2    0    0  0.13658591904E+02 -0.33860624212E+02  0.25983952858E+01  0.98120487859E+02  0.91037242240E+02 0.  0.
        -13    1    3    3    0    0 -0.56446318523E+01  0.35857417762E+02  0.98511319995E+02  0.10498617263E+03  0.00000000000E+00 0.  1.
         14    1    3    3    0    0 -0.38795563161E+02  0.23797102953E+01  0.44082544657E+03  0.44253568566E+03  0.00000000000E+00 0. -1.
        -13    1    4    4    0    0  0.48679295472E+02 -0.10889703189E+01  0.96604809437E+01  0.49640553544E+02  0.00000000000E+00 0.  1.
         13    1    4    4    0    0 -0.35020703569E+02 -0.32771653894E+02 -0.70620856579E+01  0.48479934315E+02  0.00000000000E+00 0. -1.
          1    1    1    2  501    0  0.30781603110E+02 -0.43765038444E+01 -0.44527173008E+02  0.54307734366E+02  0.00000000000E+00 0. -1.
<scales pt_clust_5="13000.00000" pt_clust_6="13000.00000" pt_clust_7="13000.00000" pt_clust_8="13000.00000" pt_clust_9="31.09117"></scales>
<clustering>
<clus scale="   31.091">  2  9  1 -1</clus>
<clus scale="   73.885">  5  6 -1 -1</clus>
<clus scale="   91.037">  7  8 -1 -1</clus>
<clus scale="   93.058">  1  5  2 -1</clus>
<clus scale="   31.091">  2  5  1 -1</clus>
</clustering>
</event>
<event>
 9    2  0.1751298E-004  0.1555358E+03  0.7546771E-02  0.1210325E+00
         21   -1    0    0  501  502  0.00000000000E+00  0.00000000000E+00  0.15872001887E+03  0.15872001887E+03  0.00000000000E+00 0.  1.
          2   -1    0    0  502    0 -0.00000000000E+00 -0.00000000000E+00 -0.40488392199E+03  0.40488392199E+03  0.00000000000E+00 0. -1.
         23    2    1    2    0    0  0.51596588059E+02 -0.29773291730E+02 -0.71122735326E+02  0.13001956569E+03  0.91093288355E+02 0.  0.
         24    2    1    2    0    0  0.27436782841E+01  0.13625521020E+03  0.59434689439E+02  0.17039206689E+03  0.83234392355E+02 0.  0.
        -13    1    4    4    0    0  0.47867517034E+01  0.13693156461E+03  0.29214265423E+02  0.14009510942E+03  0.00000000000E+00 0.  1.
         14    1    4    4    0    0 -0.20430734193E+01 -0.67635440364E+00  0.30220424016E+02  0.30296957471E+02  0.00000000000E+00 0. -1.
        -11    1    3    3    0    0 -0.24214513722E+02 -0.91200382988E+01 -0.35035799057E+02  0.43554850349E+02  0.00000000000E+00 0.  1.
         11    1    3    3    0    0  0.75811101780E+02 -0.20653253432E+02 -0.36086936270E+02  0.86464715346E+02  0.00000000000E+00 0. -1.
          1    1    1    2  501    0 -0.54340266343E+02 -0.10648191847E+03 -0.23447585724E+03  0.26319230828E+03  0.00000000000E+00 0. -1.
<scales pt_clust_5="13000.00000" pt_clust_6="13000.00000" pt_clust_7="13000.00000" pt_clust_8="13000.00000" pt_clust_9="131.39035"></scales>
<clustering>
<clus scale="   83.234">  5  6 -1 -1</clus>
<clus scale="   91.093">  7  8 -1 -1</clus>
<clus scale="  108.842">  2  7  1 -1</clus>
<clus scale="  131.390">  1  9  2 -1</clus>
<clus scale="  131.390">  1  5  2 -1</clus>
</clustering>
</event>
<event>
 9    2  0.1751298E-004  0.1411310E+03  0.7546771E-02  0.1214970E+00
         21   -1    0    0  501  502  0.00000000000E+00  0.00000000000E+00  0.26700278914E+03  0.26700278914E+03  0.00000000000E+00 0.  1.
          2   -1    0    0  502    0 -0.00000000000E+00 -0.00000000000E+00 -0.10303502257E+03  0.10303502257E+03  0.00000000000E+00 0. -1.
         23    2    1    2    0    0  0.94001883476E+02 -0.22431960804E+02  0.17191988103E+02  0.13574167045E+03  0.93758677880E+02 0.  0.
         24    2    1    2    0    0 -0.11264221982E+03  0.51825168355E+02  0.11080389972E+03  0.18424218188E+03  0.79331958432E+02 0.  0.
        -13    1    4    4    0    0 -0.69284396030E+02  0.71474639763E+02  0.77260961208E+02  0.12600876076E+03  0.00000000000E+00 0.  1.
         14    1    4    4    0    0 -0.43357823792E+02 -0.19649471409E+02  0.33542938515E+02  0.58233421116E+02  0.00000000000E+00 0. -1.
        -13    1    3    3    0    0  0.79919544082E+02 -0.52002610625E+02  0.30907625403E+02  0.10023315991E+03  0.00000000000E+00 0.  1.
         13    1    3    3    0    0  0.14082339395E+02  0.29570649821E+02 -0.13715637301E+02  0.35508510533E+02  0.00000000000E+00 0. -1.
          1    1    1    2  501    0  0.18640336346E+02 -0.29393207551E+02  0.35971878751E+02  0.50053959384E+02  0.00000000000E+00 0. -1.
<scales pt_clust_5="13000.00000" pt_clust_6="13000.00000" pt_clust_7="13000.00000" pt_clust_8="13000.00000" pt_clust_9="34.80550"></scales>
<clustering>
<clus scale="   34.805">  1  9  2 -1</clus>
<clus scale="   79.332">  5  6 -1 -1</clus>
<clus scale="   93.759">  7  8 -1 -1</clus>
<clus scale="  131.988">  1  5  2 -1</clus>
<clus scale="   34.805">  1  5  2 -1</clus>
</clustering>
</event>
<event>
 9    2  0.1751298E-004  0.1275881E+03  0.7546771E-02  0.1250303E+00
         21   -1    0    0  501  502  0.00000000000E+00  0.00000000000E+00  0.12945064031E+04  0.12945064031E+04  0.00000000000E+00 0. -1.
          2   -1    0    0  502    0 -0.00000000000E+00 -0.00000000000E+00 -0.19184092470E+02  0.19184092470E+02  0.00000000000E+00 0. -1.
         24    2    1    2    0    0  0.30522036210E+02 -0.18180934287E+02  0.49303831413E+03  0.50054878469E+03  0.78741130206E+02 0.  0.
         23    2    1    2    0    0  0.38113192043E+02  0.81661517005E+02  0.48632641619E+03  0.50276859948E+03  0.90231162963E+02 0.  0.
        -11    1    3    3    0    0  0.43062019634E+02  0.44933664339E+01  0.13954874882E+03  0.14611085235E+03  0.00000000000E+00 0.  1.
         12    1    3    3    0    0 -0.12539983424E+02 -0.22674300721E+02  0.35348956531E+03  0.35443793234E+03  0.00000000000E+00 0. -1.
        -13    1    4    4    0    0 -0.25404225665E+02  0.18132962855E+02  0.66806730506E+02  0.73738173726E+02  0.00000000000E+00 0.  1.
         13    1    4    4    0    0  0.63517417708E+02  0.63528554150E+02  0.41951968569E+03  0.42903042575E+03  0.00000000000E+00 0. -1.
          1    1    1    2  501    0 -0.68635228253E+02 -0.63480582718E+02  0.29595758031E+03  0.31037311141E+03  0.00000000000E+00 0. -1.
<scales pt_clust_5="13000.00000" pt_clust_6="13000.00000" pt_clust_7="13000.00000" pt_clust_8="13000.00000" pt_clust_9="90.20572"></scales>
<clustering>
<clus scale="   78.741">  5  6 -1 -1</clus>
<clus scale="   86.385">  2  5  1 -1</clus>
<clus scale="   90.206">  1  9  2 -1</clus>
<clus scale="   90.231">  7  8 -1 -1</clus>
<clus scale="   90.206">  1  5  2 -1</clus>
</clustering>
</event>
<event>
 9    2  0.1751298E-004  0.1417050E+03  0.7546771E-02  0.1213392E+00
         21   -1    0    0  501  502  0.00000000000E+00  0.00000000000E+00  0.19295522453E+03  0.19295522453E+03  0.00000000000E+00 0. -1.
          2   -1    0    0  502    0 -0.00000000000E+00 -0.00000000000E+00 -0.17952692037E+03  0.17952692037E+03  0.00000000000E+00 0. -1.
         24    2    1    2    0    0 -0.11810386317E+03 -0.24043725006E+02 -0.79241228930E+02  0.16449569084E+03  0.79076145175E+02 0.  0.
         23    2    1    2    0    0  0.86045552553E+02  0.25019465979E+02  0.20300564335E+02  0.12882866866E+03  0.90304496923E+02 0.  0.
        -11    1    3    3    0    0 -0.47759821688E+02 -0.45708342260E+02 -0.57849812529E+02  0.87845625557E+02  0.00000000000E+00 0.  1.
         12    1    3    3    0    0 -0.70344041478E+02  0.21664617255E+02 -0.21391416401E+02  0.76650065283E+02  0.00000000000E+00 0. -1.
        -11    1    4    4    0    0  0.27613034887E+01  0.31081071944E+02  0.31781003994E+02  0.44538635419E+02  0.00000000000E+00 0.  1.
         11    1    4    4    0    0  0.83284249064E+02 -0.60616059653E+01 -0.11480439659E+02  0.84290033242E+02  0.00000000000E+00 0. -1.
          1    1    1    2  501    0  0.32058310613E+02 -0.97574097322E+00  0.72368968756E+02  0.79157785395E+02  0.00000000000E+00 0. -1.
<scales pt_clust_5="13000.00000" pt_clust_6="13000.00000" pt_clust_7="13000.00000" pt_clust_8="13000.00000" pt_clust_9="32.07316"></scales>
<clustering>
<clus scale="   32.073">  1  9  2 -1</clus>
<clus scale="   79.076">  5  6 -1 -1</clus>
<clus scale="   90.304">  7  8 -1 -1</clus>
<clus scale="  134.827">  2  5  1 -1</clus>
<clus scale="   32.073">  1  5  2 -1</clus>
</clustering>
</event>
<event>
 9    2  0.1751298E-004  0.1193182E+03  0.7546771E-02  0.1248190E+00
         21   -1    0    0  501  502  0.00000000000E+00  0.00000000000E+00  0.22471347436E+02  0.22471347436E+02  0.00000000000E+00 0.  1.
         -3   -1    0    0    0  501 -0.00000000000E+00 -0.00000000000E+00 -0.13429077185E+04  0.13429077185E+04  0.00000000000E+00 0.  1.
         24    2    1    2    0    0 -0.46336411877E+02  0.80136764055E+02 -0.58484149421E+03  0.59759477810E+03  0.80690652771E+02 0.  0.
         23    2    1    2    0    0  0.10696786453E+03 -0.98009148835E+01 -0.45624536287E+03  0.47340450644E+03  0.66436538181E+02 0.  0.
        -13    1    3    3    0    0 -0.40428375894E+02  0.93530650659E+02 -0.55590373727E+03  0.56516493283E+03  0.00000000000E+00 0.  1.
         14    1    3    3    0    0 -0.59080359831E+01 -0.13393886604E+02 -0.28937756940E+02  0.32429845271E+02  0.00000000000E+00 0. -1.
        -11    1    4    4    0    0  0.52017417942E+02  0.28472745106E+02 -0.20870302380E+03  0.21696419319E+03  0.00000000000E+00 0.  1.
         11    1    4    4    0    0  0.54950446585E+02 -0.38273659989E+02 -0.24754233907E+03  0.25644031325E+03  0.00000000000E+00 0. -1.
         -4    1    1    2    0  502 -0.60631452650E+02 -0.70335849171E+02 -0.27934951395E+03  0.29437978136E+03  0.00000000000E+00 0.  1.
<scales pt_clust_5="13000.00000" pt_clust_6="13000.00000" pt_clust_7="13000.00000" pt_clust_8="13000.00000" pt_clust_9="92.86175"></scales>
<clustering>
<clus scale="   66.437">  7  8 -1 -1</clus>
<clus scale="   80.691">  5  6 -1 -1</clus>
<clus scale="   92.862">  1  9  2 -1</clus>
<clus scale="  110.180">  1  7  2 -1</clus>
<clus scale="   92.862">  1  5  2 -1</clus>
</clustering>
</event>
<event>
 9    2  0.1751298E-004  0.9515916E+02  0.7546771E-02  0.1297297E+00
         21   -1    0    0  501  502  0.00000000000E+00  0.00000000000E+00  0.99248154965E+02  0.99248154965E+02  0.00000000000E+00 0. -1.
          2   -1    0    0  502    0 -0.00000000000E+00 -0.00000000000E+00 -0.26706912407E+03  0.26706912407E+03  0.00000000000E+00 0. -1.
         23    2    1    2    0    0 -0.18229444224E+02  0.29423838789E+01 -0.19018142051E+03  0.21210264178E+03  0.92073816479E+02 0.  0.
         24    2    1    2    0    0  0.61642984688E+02  0.38304370956E+01  0.36444185292E+02  0.10807400267E+03  0.80853457579E+02 0.  0.
        -13    1    4    4    0    0 -0.12405428635E+02  0.22211955528E+02  0.96496965038E+01  0.27209966384E+02  0.00000000000E+00 0.  1.
         14    1    4    4    0    0  0.74048413323E+02 -0.18381518432E+02  0.26794488788E+02  0.80864036289E+02  0.00000000000E+00 0. -1.
        -11    1    3    3    0    0  0.38540870957E+01  0.45631944680E+02 -0.89353856764E+02  0.10040537875E+03  0.00000000000E+00 0.  1.
         11    1    3    3    0    0 -0.22083531319E+02 -0.42689560802E+02 -0.10082756375E+03  0.11169726303E+03  0.00000000000E+00 0. -1.
          1    1    1    2  501    0 -0.43413540465E+02 -0.67728209745E+01 -0.14083733882E+02  0.46140634583E+02  0.00000000000E+00 0. -1.
<scales pt_clust_5="13000.00000" pt_clust_6="13000.00000" pt_clust_7="13000.00000" pt_clust_8="13000.00000" pt_clust_9="43.93867"></scales>
<clustering>
<clus scale="   43.939">  1  9  2 -1</clus>
<clus scale="   80.853">  5  6 -1 -1</clus>
<clus scale="   84.350">  1  5  2 -1</clus>
<clus scale="   92.074">  7  8 -1 -1</clus>
<clus scale="   43.939">  1  5  2 -1</clus>
</clustering>
</event>
<event>
 9    2  0.1751298E-004  0.2066320E+03  0.7546771E-02  0.1173991E+00
         21   -1    0    0  501  502  0.00000000000E+00  0.00000000000E+00  0.78218184092E+03  0.78218184092E+03  0.00000000000E+00 0.  1.
         -1   -1    0    0    0  501 -0.00000000000E+00 -0.00000000000E+00 -0.14754498611E+03  0.14754498611E+03  0.00000000000E+00 0.  1.
         24    2    1    2    0    0 -0.17422721020E+02  0.63273794964E+02  0.28050380862E+03  0.29892198821E+03  0.79779972754E+02 0.  0.
         23    2    1    2    0    0  0.11067359730E+03 -0.21046720680E+03  0.23107650738E+02  0.25672003713E+03  0.93947451611E+02 0.  0.
        -13    1    3    3    0    0 -0.47992988606E+02  0.29930159358E+02  0.13011289204E+03  0.14187496632E+03  0.00000000000E+00 0.  1.
         14    1    3    3    0    0  0.30570267585E+02  0.33343635606E+02  0.15039091658E+03  0.15704702189E+03  0.00000000000E+00 0. -1.
        -13    1    4    4    0    0  0.91451509752E+02 -0.12150569320E+03  0.52805778122E+02  0.16098280132E+03  0.00000000000E+00 0.  1.
         13    1    4    4    0    0  0.19222087545E+02 -0.88961513593E+02 -0.29698127384E+02  0.95737235810E+02  0.00000000000E+00 0. -1.
         -2    1    1    2    0  502 -0.93250876277E+02  0.14719341183E+03  0.33102539546E+03  0.37408480169E+03  0.00000000000E+00 0.  1.
<scales pt_clust_5="13000.00000" pt_clust_6="13000.00000" pt_clust_7="13000.00000" pt_clust_8="13000.00000" pt_clust_9="184.03979"></scales>
<clustering>
<clus scale="   79.780">  5  6 -1 -1</clus>
<clus scale="   93.947">  7  8 -1 -1</clus>
<clus scale="  103.305">  2  5  1 -1</clus>
<clus scale="  184.040">  1  9  2 -1</clus>
<clus scale="  184.040">  1  5  2 -1</clus>
</clustering>
</event>
<event>
 9    2  0.1751298E-004  0.1418808E+03  0.7546771E-02  0.1212492E+00
          2   -1    0    0  502    0 -0.00000000000E+00  0.00000000000E+00  0.50062975281E+03  0.50062975281E+03  0.00000000000E+00 0. -1.
         21   -1    0    0  501  502  0.00000000000E+00 -0.00000000000E+00 -0.59069877904E+02  0.59069877904E+02  0.00000000000E+00 0. -1.
         24    2    1    2    0    0 -0.87306361389E+02 -0.60380579934E+02  0.32541757635E+03  0.35613546556E+03  0.98324237412E+02 0.  0.
         23    2    1    2    0    0  0.64882169906E+02  0.71505502257E+02  0.11916907085E+03  0.17834969290E+03  0.91019847751E+02 0.  0.
        -11    1    3    3    0    0 -0.27028103514E+02 -0.47955767685E+02  0.51478484408E+02  0.75367820658E+02  0.00000000000E+00 0.  1.
         12    1    3    3    0    0 -0.60278257875E+02 -0.12424812249E+02  0.27393909194E+03  0.28076764491E+03  0.00000000000E+00 0. -1.
        -11    1    4    4    0    0 -0.90837118371E+00  0.58979718860E+02  0.28184997840E+02  0.65374509393E+02  0.00000000000E+00 0. -1.
         11    1    4    4    0    0  0.65790541089E+02  0.12525783396E+02  0.90984073009E+02  0.11297518350E+03  0.00000000000E+00 0.  1.
          1    1    1    2  501    0  0.22424191483E+02 -0.11124922323E+02 -0.30267722954E+01  0.25214472251E+02  0.00000000000E+00 0. -1.
<scales pt_clust_5="13000.00000" pt_clust_6="13000.00000" pt_clust_7="13000.00000" pt_clust_8="13000.00000" pt_clust_9="25.03214"></scales>
<clustering>
<clus scale="   25.032">  2  9  1 -1</clus>
<clus scale="   91.020">  7  8 -1 -1</clus>
<clus scale="   98.324">  5  6 -1 -1</clus>
<clus scale="  136.920">  2  7  1 -1</clus>
<clus scale="   25.032">  2  5  1 -1</clus>
</clustering>
</event>
<event>
 9    2  0.1751298E-004  0.2333977E+03  0.7546771E-02  0.1158302E+00
         21   -1    0    0  501  502  0.00000000000E+00  0.00000000000E+00  0.21206613353E+03  0.21206613353E+03  0.00000000000E+00 0. -1.
          2   -1    0    0  502    0 -0.00000000000E+00 -0.00000000000E+00 -0.10407321858E+04  0.10407321858E+04  0.00000000000E+00 0. -1.
         24    2    1    2    0    0  0.69255032003E+00  0.56492509962E+02  0.11423668520E+03  0.15373611909E+03  0.85981921117E+02 0.  0.
         23    2    1    2    0    0 -0.21432855909E+03  0.87640103028E+01 -0.15390734148E+03  0.27905458285E+03  0.90390548903E+02 0.  0.
        -11    1    3    3    0    0  0.12110529645E+02 -0.18846078735E+02  0.97886189166E+01  0.24447017656E+02  0.00000000000E+00 0.  1.
         12    1    3    3    0    0 -0.11417979325E+02  0.75338588697E+02  0.10444806628E+03  0.12928910143E+03  0.00000000000E+00 0. -1.
        -11    1    4    4    0    0 -0.10607144843E+03  0.42411597920E+02 -0.10648600108E+03  0.15617030523E+03  0.00000000000E+00 0.  1.
         11    1    4    4    0    0 -0.10825711066E+03 -0.33647587617E+02 -0.47421340397E+02  0.12288427762E+03  0.00000000000E+00 0. -1.
          1    1    1    2  501    0  0.21363600877E+03 -0.65256520265E+02 -0.78899539600E+03  0.82000761740E+03  0.00000000000E+00 0. -1.
<scales pt_clust_5="13000.00000" pt_clust_6="13000.00000" pt_clust_7="13000.00000" pt_clust_8="13000.00000" pt_clust_9="215.18386"></scales>
<clustering>
<clus scale="   85.982">  5  6 -1 -1</clus>
<clus scale="   90.391">  7  8 -1 -1</clus>
<clus scale="  102.882">  2  5  1 -1</clus>
<clus scale="  215.184">  1  9  2 -1</clus>
<clus scale="  215.184">  1  5  2 -1</clus>
</clustering>
</event>
<event>
 9    2  0.1751298E-004  0.8986228E+02  0.7546771E-02  0.1309700E+00
          2   -1    0    0  502    0 -0.00000000000E+00  0.00000000000E+00  0.12257685408E+04  0.12257685408E+04  0.00000000000E+00 0. -1.
         21   -1    0    0  501  502  0.00000000000E+00 -0.00000000000E+00 -0.25619857336E+02  0.25619857336E+02  0.00000000000E+00 0.  1.
         24    2    1    2    0    0  0.40180806278E+01 -0.36390753062E+01  0.89418712134E+03  0.89775424245E+03  0.79766434180E+02 0.  0.
         23    2    1    2    0    0  0.24741818782E+02 -0.34699974066E+02  0.95803396691E+02  0.13808028999E+03  0.89842249908E+02 0.  0.
        -13    1    3    3    0    0  0.34842963350E+02 -0.94829468962E+00  0.21042048653E+03  0.21328786301E+03  0.00000000000E+00 0.  1.
         14    1    3    3    0    0 -0.30824882722E+02 -0.26907806166E+01  0.68376663481E+03  0.68446637944E+03  0.00000000000E+00 0. -1.
        -11    1    4    4    0    0 -0.43665802458E+01 -0.26655187767E+02 -0.94222737168E+01  0.28606735220E+02  0.00000000000E+00 0.  1.
         11    1    4    4    0    0  0.29108399028E+02 -0.80447862995E+01  0.10522567041E+03  0.10947355477E+03  0.00000000000E+00 0. -1.
          1    1    1    2  501    0 -0.28759899410E+02  0.38339049373E+02  0.21015816545E+03  0.21555386572E+03  0.00000000000E+00 0. -1.
<scales pt_clust_5="13000.00000" pt_clust_6="13000.00000" pt_clust_7="13000.00000" pt_clust_8="13000.00000" pt_clust_9="47.92720"></scales>
<clustering>
<clus scale="   47.927">  2  9  1 -1</clus>
<clus scale="   79.766">  5  6 -1 -1</clus>
<clus scale="   79.789">  1  5  2 -1</clus>
<clus scale="   89.842">  7  8 -1 -1</clus>
<clus scale="   47.927">  2  5  1 -1</clus>
</clustering>
</event>
<event>
 9    2  0.1751298E-004  0.2031278E+03  0.7546771E-02  0.1180345E+00
         21   -1    0    0  501  502  0.00000000000E+00  0.00000000000E+00  0.95480724648E+03  0.95480724648E+03  0.00000000000E+00 0. -1.
          2   -1    0    0  502    0 -0.00000000000E+00 -0.00000000000E+00 -0.62223628967E+02  0.62223628967E+02  0.00000000000E+00 0. -1.
         23    2    1    2    0    0 -0.13971522836E+02  0.17126901074E+02  0.15003806253E+03  0.17716029063E+03  0.91574091193E+02 0.  0.
         24    2    1    2    0    0 -0.12295270672E+03 -0.14304209810E+03  0.35066950864E+03  0.40608524945E+03  0.79735284612E+02 0.  0.
        -11    1    4    4    0    0 -0.27885017038E+02 -0.36747033471E+02  0.16870469533E+03  0.17489766399E+03  0.00000000000E+00 0.  1.
         12    1    4    4    0    0 -0.95067689684E+02 -0.10629506463E+03  0.18196481331E+03  0.23118758546E+03  0.00000000000E+00 0. -1.
        -11    1    3    3    0    0  0.26931587620E+02 -0.11578665932E+02  0.10784716243E+03  0.11176039710E+03  0.00000000000E+00 0. -1.
         11    1    3    3    0    0 -0.40903110456E+02  0.28705567007E+02  0.42190900100E+02  0.65399893527E+02  0.00000000000E+00 0.  1.
          1    1    1    2  501    0  0.13692422956E+03  0.12591519702E+03  0.39187604635E+03  0.43378533537E+03  0.00000000000E+00 0. -1.
<scales pt_clust_5="13000.00000" pt_clust_6="13000.00000" pt_clust_7="13000.00000" pt_clust_8="13000.00000" pt_clust_9="186.82391"></scales>
<clustering>
<clus scale="   79.735">  5  6 -1 -1</clus>
<clus scale="   91.574">  7  8 -1 -1</clus>
<clus scale="   94.204">  2  7  1 -1</clus>
<clus scale="  186.824">  1  9  2 -1</clus>
<clus scale="  186.824">  1  5  2 -1</clus>
</clustering>
</event>
<event>
 9    2  0.1751298E-004  0.4127309E+03  0.7546771E-02  0.1039619E+00
         -1   -1    0    0    0  501 -0.00000000000E+00  0.00000000000E+00  0.12024506706E+04  0.12024506706E+04  0.00000000000E+00 0.  1.
         21   -1    0    0  501  502  0.00000000000E+00 -0.00000000000E+00 -0.21207162981E+03  0.21207162981E+03  0.00000000000E+00 0.  1.
         23    2    1    2    0    0  0.28907395157E+03 -0.18321337671E+03  0.37862392336E+03  0.51832429806E+03  0.90405263858E+02 0.  0.
         24    2    1    2    0    0 -0.41443096059E+03  0.24295709322E+03  0.57278893454E+03  0.75196882785E+03  0.81171326785E+02 0.  0.
        -11    1    4    4    0    0 -0.32166273536E+03  0.15475018574E+03  0.45217875289E+03  0.57609040946E+03  0.00000000000E+00 0.  1.
         12    1    4    4    0    0 -0.92768225229E+02  0.88206907480E+02  0.12061018165E+03  0.17587841839E+03  0.00000000000E+00 0. -1.
        -11    1    3    3    0    0  0.26055935584E+03 -0.17722385047E+03  0.37361281326E+03  0.48875966008E+03  0.00000000000E+00 0.  1.
         11    1    3    3    0    0  0.28514595730E+02 -0.59895262447E+01  0.50111101021E+01  0.29564637978E+02  0.00000000000E+00 0. -1.
         -2    1    1    2    0  502  0.12535700902E+03 -0.59743716508E+02  0.38966182911E+02  0.14422917452E+03  0.00000000000E+00 0.  1.
<scales pt_clust_5="13000.00000" pt_clust_6="13000.00000" pt_clust_7="13000.00000" pt_clust_8="13000.00000" pt_clust_9="138.86573"></scales>
<clustering>
<clus scale="   81.171">  5  6 -1 -1</clus>
<clus scale="   90.405">  7  8 -1 -1</clus>
<clus scale="  138.866">  2  9  1 -1</clus>
<clus scale="  410.807">  2  5  1 -1</clus>
<clus scale="  138.866">  2  5  1 -1</clus>
</clustering>
</event>
<event>
 9    2  0.1751298E-004  0.1138208E+03  0.7546771E-02  0.1258297E+00
         21   -1    0    0  501  502  0.00000000000E+00  0.00000000000E+00  0.28165892788E+03  0.28165892788E+03  0.00000000000E+00 0. -1.
          2   -1    0    0  502    0 -0.00000000000E+00 -0.00000000000E+00 -0.11170978914E+03  0.11170978914E+03  0.00000000000E+00 0. -1.
         23    2    1    2    0    0  0.75553553127E+02  0.22704499873E+02  0.10888646137E+03  0.16359626292E+03  0.93186061551E+02 0.  0.
         24    2    1    2    0    0 -0.54869282203E+02  0.16566115890E+02  0.12028372631E+03  0.15576466422E+03  0.80680737961E+02 0.  0.
        -11    1    4    4    0    0  0.19976916085E+02  0.94665593263E+01  0.16380035327E+02  0.27513605344E+02  0.00000000000E+00 0.  1.
         12    1    4    4    0    0 -0.74846198288E+02  0.70995565633E+01  0.10390369099E+03  0.12825105887E+03  0.00000000000E+00 0. -1.
        -13    1    3    3    0    0  0.46292839490E+02  0.49488967426E+02  0.10328911780E+03  0.12353471877E+03  0.00000000000E+00 0. -1.
         13    1    3    3    0    0  0.29260713637E+02 -0.26784467553E+02  0.55973435642E+01  0.40061544149E+02  0.00000000000E+00 0.  1.
          1    1    1    2  501    0 -0.20684270924E+02 -0.39270615763E+02 -0.59221048943E+02  0.74007789887E+02  0.00000000000E+00 0. -1.
<scales pt_clust_5="13000.00000" pt_clust_6="13000.00000" pt_clust_7="13000.00000" pt_clust_8="13000.00000" pt_clust_9="44.38493"></scales>
<clustering>
<clus scale="   44.385">  1  9  2 -1</clus>
<clus scale="   80.681">  5  6 -1 -1</clus>
<clus scale="   93.186">  7  8 -1 -1</clus>
<clus scale="  103.831">  1  5  2 -1</clus>
<clus scale="   44.385">  1  5  2 -1</clus>
</clustering>
</event>
<event>
 9    2  0.1751298E-004  0.1575610E+03  0.7546771E-02  0.1211036E+00
         21   -1    0    0  501  502  0.00000000000E+00  0.00000000000E+00  0.10570239805E+03  0.10570239805E+03  0.00000000000E+00 0. -1.
          2   -1    0    0  502    0 -0.00000000000E+00 -0.00000000000E+00 -0.40747183921E+03  0.40747183921E+03  0.00000000000E+00 0. -1.
         23    2    1    2    0    0  0.31982134584E+02  0.33898421434E+02 -0.13967003568E+03  0.17361442260E+03  0.91990700408E+02 0.  0.
         24    2    1    2    0    0 -0.62640238219E+02 -0.14835233966E+03 -0.88089648830E+02  0.19985633297E+03  0.79060429234E+02 0.  0.
        -13    1    4    4    0    0 -0.66245438384E+01 -0.38629008005E+02  0.12149644857E+02  0.41032897907E+02  0.00000000000E+00 0.  1.
         14    1    4    4    0    0 -0.56015694380E+02 -0.10972333166E+03 -0.10023929369E+03  0.15882343506E+03  0.00000000000E+00 0. -1.
        -11    1    3    3    0    0 -0.29167277311E+02  0.40027506449E+01 -0.71300546157E+02  0.77139613434E+02  0.00000000000E+00 0.  1.
         11    1    3    3    0    0  0.61149411894E+02  0.29895670789E+02 -0.68369489521E+02  0.96474809170E+02  0.00000000000E+00 0. -1.
          1    1    1    2  501    0  0.30658103635E+02  0.11445391823E+03 -0.74009756645E+02  0.13970348168E+03  0.00000000000E+00 0. -1.
<scales pt_clust_5="13000.00000" pt_clust_6="13000.00000" pt_clust_7="13000.00000" pt_clust_8="13000.00000" pt_clust_9="136.28983"></scales>
<clustering>
<clus scale="   79.060">  5  6 -1 -1</clus>
<clus scale="   91.991">  7  8 -1 -1</clus>
<clus scale="  103.122">  2  7  1 -1</clus>
<clus scale="  136.290">  1  9  2 -1</clus>
<clus scale="  136.290">  1  5  2 -1</clus>
</clustering>
</event>
<event>
 9    2  0.2981258E-004  0.8022549E+02  0.7546771E-02  0.1328619E+00
         -1   -1    0    0    0  501 -0.00000000000E+00  0.00000000000E+00  0.14871111786E+03  0.14871111786E+03  0.00000000000E+00 0.  1.
         21   -1    0    0  501  502  0.00000000000E+00 -0.00000000000E+00 -0.20418939768E+03  0.20418939768E+03  0.00000000000E+00 0.  1.
         23    2    1    2    0    0 -0.81186895526E+01  0.37546705478E+01  0.12035926067E+03  0.14473984397E+03  0.79895307321E+02 0.  0.
         24    2    1    2    0    0 -0.19983521499E+02 -0.83792125046E+01 -0.13836539774E+03  0.16109388778E+03  0.79603423647E+02 0.  0.
        -13    1    4    4    0    0 -0.42161949521E+02  0.11889910135E+02 -0.44114179593E+02  0.62169613088E+02  0.00000000000E+00 0.  1.
         14    1    4    4    0    0  0.22178428022E+02 -0.20269122640E+02 -0.94251218144E+02  0.98924274694E+02  0.00000000000E+00 0. -1.
        -13    1    3    3    0    0 -0.39629528340E+02 -0.91105739714E+01  0.91451761790E+02  0.10008459826E+03  0.00000000000E+00 0.  1.
         13    1    3    3    0    0  0.31510838787E+02  0.12865244519E+02  0.28907498877E+02  0.44655245704E+02  0.00000000000E+00 0. -1.
         -2    1    1    2    0  502  0.28102211051E+02  0.46245419568E+01 -0.37472142749E+02  0.47066783792E+02  0.00000000000E+00 0.  1.
<scales pt_clust_5="13000.00000" pt_clust_6="13000.00000" pt_clust_7="13000.00000" pt_clust_8="13000.00000" pt_clust_9="28.48018"></scales>
<clustering>
<clus scale="   28.480">  2  9  1 -1</clus>
<clus scale="   79.603">  5  6 -1 -1</clus>
<clus scale="   79.895">  7  8 -1 -1</clus>
<clus scale="   79.935">  2  5  1 -1</clus>
<clus scale="   28.480">  2  5  1 -1</clus>
</clustering>
</event>
<event>
 9    2  0.1751298E-004  0.1423463E+03  0.7546771E-02  0.1227845E+00
         21   -1    0    0  501  502  0.00000000000E+00  0.00000000000E+00  0.71870371418E+02  0.71870371418E+02  0.00000000000E+00 0.  1.
         -1   -1    0    0    0  501 -0.00000000000E+00 -0.00000000000E+00 -0.47697159281E+03  0.47697159281E+03  0.00000000000E+00 0.  1.
         23    2    1    2    0    0  0.25218670479E+02  0.25025077897E+02 -0.75241971134E+02  0.12373268245E+03  0.91576124735E+02 0.  0.
         24    2    1    2    0    0 -0.89410080594E+01 -0.13427121551E+03 -0.21640055729E+03  0.26676612314E+03  0.78906668405E+02 0.  0.
        -13    1    4    4    0    0 -0.14069518863E+02 -0.14286096144E+03 -0.21152633929E+03  0.25563763001E+03  0.00000000000E+00 0.  1.
         14    1    4    4    0    0  0.51285108035E+01  0.85897459289E+01 -0.48742180036E+01  0.11128493129E+02  0.00000000000E+00 0. -1.
        -13    1    3    3    0    0  0.57983919251E+02  0.23088049191E+02 -0.63058797291E+02  0.88722065029E+02  0.00000000000E+00 0. -1.
         13    1    3    3    0    0 -0.32765248772E+02  0.19370287059E+01 -0.12183173843E+02  0.35010617421E+02  0.00000000000E+00 0.  1.
         -2    1    1    2    0  502 -0.16277662420E+02  0.10924613762E+03 -0.11345869297E+03  0.15834315864E+03  0.00000000000E+00 0.  1.
<scales pt_clust_5="13000.00000" pt_clust_6="13000.00000" pt_clust_7="13000.00000" pt_clust_8="13000.00000" pt_clust_9="118.47449"></scales>
<clustering>
<clus scale="   78.907">  5  6 -1 -1</clus>
<clus scale="   91.576">  7  8 -1 -1</clus>
<clus scale="   98.226">  2  7  1 -1</clus>
<clus scale="  118.474">  1  9  2 -1</clus>
<clus scale="  118.474">  1  5  2 -1</clus>
</clustering>
</event>
<event>
 9    2  0.1751298E-004  0.9107286E+02  0.7546771E-02  0.1305789E+00
         -3   -1    0    0    0  501 -0.00000000000E+00  0.00000000000E+00  0.23089676166E+03  0.23089676166E+03  0.00000000000E+00 0.  1.
         21   -1    0    0  501  502  0.00000000000E+00 -0.00000000000E+00 -0.12029671013E+03  0.12029671013E+03  0.00000000000E+00 0.  1.
         24    2    1    2    0    0  0.10740025991E+01 -0.19021727615E+02  0.16997185422E+03  0.18868563062E+03  0.79679711174E+02 0.  0.
         23    2    1    2    0    0 -0.41554483159E+02  0.22502766625E+02 -0.13792762397E+02  0.10144855972E+03  0.88704117140E+02 0.  0.
        -11    1    3    3    0    0  0.11720680266E+02 -0.45730937460E+02  0.68309521897E+02  0.83035436824E+02  0.00000000000E+00 0.  1.
         12    1    3    3    0    0 -0.10646677666E+02  0.26709209845E+02  0.10166233232E+03  0.10565019379E+03  0.00000000000E+00 0. -1.
        -11    1    4    4    0    0  0.22822373351E+02 -0.47640229695E+01 -0.20722689833E+02  0.31192731751E+02  0.00000000000E+00 0. -1.
         11    1    4    4    0    0 -0.64376856509E+02  0.27266789595E+02  0.69299274352E+01  0.70255827965E+02  0.00000000000E+00 0.  1.
         -4    1    1    2    0  502  0.40480480559E+02 -0.34810390101E+01 -0.45579040292E+02  0.61059281463E+02  0.00000000000E+00 0.  1.
<scales pt_clust_5="13000.00000" pt_clust_6="13000.00000" pt_clust_7="13000.00000" pt_clust_8="13000.00000" pt_clust_9="40.62988"></scales>
<clustering>
<clus scale="   40.630">  2  9  1 -1</clus>
<clus scale="   79.680">  5  6 -1 -1</clus>
<clus scale="   82.309">  1  5  2 -1</clus>
<clus scale="   88.704">  7  8 -1 -1</clus>
<clus scale="   40.630">  2  5  1 -1</clus>
</clustering>
</event>
<event>
 9    2  0.1751298E-004  0.9324433E+02  0.7546771E-02  0.1296768E+00
         21   -1    0    0  501  502  0.00000000000E+00  0.00000000000E+00  0.19587479172E+03  0.19587479172E+03  0.00000000000E+00 0.  1.
         -1   -1    0    0    0  501 -0.00000000000E+00 -0.00000000000E+00 -0.94238435880E+02  0.94238435880E+02  0.00000000000E+00 0.  1.
         23    2    1    2    0    0 -0.55056842431E+01 -0.15638879418E+02  0.88237426695E+01  0.94257271131E+02  0.92367134945E+02 0.  0.
         24    2    1    2    0    0 -0.28910774618E+02  0.28894506376E+01  0.11825043623E+03  0.15120034745E+03  0.89633685566E+02 0.  0.
        -11    1    4    4    0    0 -0.20424884351E+02  0.45966606769E+02  0.61584244718E+02  0.79515558453E+02  0.00000000000E+00 0.  1.
         12    1    4    4    0    0 -0.84858902668E+01 -0.43077156131E+02  0.56666191508E+02  0.71684789000E+02  0.00000000000E+00 0. -1.
        -11    1    3    3    0    0  0.40809390217E+02  0.15519760447E+01 -0.88530656054E+01  0.41787459005E+02  0.00000000000E+00 0.  1.
         11    1    3    3    0    0 -0.46315074460E+02 -0.17190855462E+02  0.17676808275E+02  0.52469812126E+02  0.00000000000E+00 0. -1.
         -2    1    1    2    0  502  0.34416458861E+02  0.12749428780E+02 -0.25437823056E+02  0.44655609016E+02  0.00000000000E+00 0.  1.
<scales pt_clust_5="13000.00000" pt_clust_6="13000.00000" pt_clust_7="13000.00000" pt_clust_8="13000.00000" pt_clust_9="36.70207"></scales>
<clustering>
<clus scale="   36.702">  1  9  2 -1</clus>
<clus scale="   89.634">  5  6 -1 -1</clus>
<clus scale="   90.537">  1  5  2 -1</clus>
<clus scale="   92.367">  7  8 -1 -1</clus>
<clus scale="   36.702">  1  5  2 -1</clus>
</clustering>
</event>
<event>
 9    2  0.1751298E-004  0.1374169E+03  0.7546771E-02  0.1219636E+00
          4   -1    0    0  502    0 -0.00000000000E+00  0.00000000000E+00  0.10626236803E+03  0.10626236803E+03  0.00000000000E+00 0. -1.
         21   -1    0    0  501  502  0.00000000000E+00 -0.00000000000E+00 -0.58682160322E+03  0.58682160322E+03  0.00000000000E+00 0.  1.
         24    2    1    2    0    0 -0.52031853275E+02  0.89744648741E+02  0.46345413490E+02  0.13902333085E+03  0.80113503456E+02 0.  0.
         23    2    1    2    0    0  0.15458718272E+02 -0.90928232780E+02 -0.35262856324E+03  0.37598439540E+03  0.92252081189E+02 0.  0.
        -11    1    3    3    0    0 -0.14892085596E+02 -0.14254738232E+02  0.63265838043E+01  0.21563799250E+02  0.00000000000E+00 0.  1.
         12    1    3    3    0    0 -0.37139767679E+02  0.10399938697E+03  0.40018829686E+02  0.11745953160E+03  0.00000000000E+00 0. -1.
        -11    1    4    4    0    0 -0.26516435654E+02  0.21886724546E+01 -0.50868133463E+02  0.57406259667E+02  0.00000000000E+00 0. -1.
         11    1    4    4    0    0  0.41975153926E+02 -0.93116905235E+02 -0.30176042978E+03  0.31857813573E+03  0.00000000000E+00 0.  1.
          3    1    1    2  501    0  0.36573135003E+02  0.11835840395E+01 -0.17427608544E+03  0.17807624499E+03  0.00000000000E+00 0. -1.
<scales pt_clust_5="13000.00000" pt_clust_6="13000.00000" pt_clust_7="13000.00000" pt_clust_8="13000.00000" pt_clust_9="36.59228"></scales>
<clustering>
<clus scale="   36.592">  2  9  1 -1</clus>
<clus scale="   80.114">  5  6 -1 -1</clus>
<clus scale="   92.252">  7  8 -1 -1</clus>
<clus scale="  129.581">  1  5  2 -1</clus>
<clus scale="   36.592">  2  5  1 -1</clus>
</clustering>
</event>
<event>
 9    2  0.1751298E-004  0.1423830E+03  0.7546771E-02  0.1222126E+00
         21   -1    0    0  501  502  0.00000000000E+00  0.00000000000E+00  0.10240736615E+03  0.10240736615E+03  0.00000000000E+00 0. -1.
          2   -1    0    0  502    0 -0.00000000000E+00 -0.00000000000E+00 -0.46548343945E+03  0.46548343945E+03  0.00000000000E+00 0. -1.
         23    2    1    2    0    0  0.88101061784E+01  0.68295707738E+02 -0.88625734615E+01  0.11091815835E+03  0.86500699287E+02 0.  0.
         24    2    1    2    0    0  0.10529130577E+03 -0.17410738091E+02 -0.28254391575E+03  0.31294160328E+03  0.81926734726E+02 0.  0.
        -13    1    4    4    0    0  0.20576610997E+02 -0.33147199113E+02 -0.41495817520E+02  0.56956444769E+02  0.00000000000E+00 0.  1.
         14    1    4    4    0    0  0.84714694776E+02  0.15736461022E+02 -0.24104809823E+03  0.25598515851E+03  0.00000000000E+00 0. -1.
        -13    1    3    3    0    0 -0.19399818184E+02 -0.13585374651E+02  0.13017039483E+01  0.23719396770E+02  0.00000000000E+00 0.  1.
         13    1    3    3    0    0  0.28209924362E+02  0.81881082389E+02 -0.10164277410E+02  0.87198761580E+02  0.00000000000E+00 0. -1.
          1    1    1    2  501    0 -0.11410141195E+03 -0.50884969647E+02 -0.71669584088E+02  0.14403104398E+03  0.00000000000E+00 0. -1.
<scales pt_clust_5="13000.00000" pt_clust_6="13000.00000" pt_clust_7="13000.00000" pt_clust_8="13000.00000" pt_clust_9="116.45135"></scales>
<clustering>
<clus scale="   81.927">  5  6 -1 -1</clus>
<clus scale="   86.501">  7  8 -1 -1</clus>
<clus scale="  110.564">  2  7  1 -1</clus>
<clus scale="  116.451">  1  9  2 -1</clus>
<clus scale="  116.451">  1  5  2 -1</clus>
</clustering>
</event>
<event>
 9    2  0.1751298E-004  0.1313332E+03  0.7546771E-02  0.1227322E+00
         21   -1    0    0  501  502  0.00000000000E+00  0.00000000000E+00  0.94556779361E+02  0.94556779361E+02  0.00000000000E+00 0.  1.
          2   -1    0    0  502    0 -0.00000000000E+00 -0.00000000000E+00 -0.61828404501E+03  0.61828404501E+03  0.00000000000E+00 0. -1.
         23    2    1    2    0    0  0.33676365060E+02 -0.85822674025E+02 -0.41296001776E+03  0.43288610144E+03  0.91404439792E+02 0.  0.
         24    2    1    2    0    0  0.19658985503E+02  0.12359605695E+03  0.57862272136E+00  0.15084472727E+03  0.84210070278E+02 0.  0.
        -11    1    4    4    0    0  0.15720449399E+02  0.12210151528E+03  0.25371462433E+02  0.12569655393E+03  0.00000000000E+00 0.  1.
         12    1    4    4    0    0  0.39385361039E+01  0.14945416681E+01 -0.24792839712E+02  0.25148173341E+02  0.00000000000E+00 0. -1.
        -13    1    3    3    0    0  0.51200939708E+02 -0.76154343005E+02 -0.39647559535E+03  0.40695689930E+03  0.00000000000E+00 0. -1.
         13    1    3    3    0    0 -0.17524574648E+02 -0.96683310205E+01 -0.16484422416E+02  0.25929202142E+02  0.00000000000E+00 0.  1.
          1    1    1    2  501    0 -0.53335350562E+02 -0.37773382924E+02 -0.11134587061E+03  0.12910999566E+03  0.00000000000E+00 0. -1.
<scales pt_clust_5="13000.00000" pt_clust_6="13000.00000" pt_clust_7="13000.00000" pt_clust_8="13000.00000" pt_clust_9="65.35665"></scales>
<clustering>
<clus scale="   65.357">  1  9  2 -1</clus>
<clus scale="   84.210">  5  6 -1 -1</clus>
<clus scale="   91.404">  7  8 -1 -1</clus>
<clus scale="  126.432">  1  5  2 -1</clus>
<clus scale="   65.357">  1  5  2 -1</clus>
</clustering>
</event>
<event>
 9    2  0.1751298E-004  0.1059631E+03  0.7546771E-02  0.1274482E+00
          4   -1    0    0  502    0 -0.00000000000E+00  0.00000000000E+00  0.20484833551E+03  0.20484833551E+03  0.00000000000E+00 0. -1.
         21   -1    0    0  501  502  0.00000000000E+00 -0.00000000000E+00 -0.12224320942E+03  0.12224320942E+03  0.00000000000E+00 0. -1.
         24    2    1    2    0    0  0.43413956327E+02 -0.46271046001E+01  0.10958735511E+03  0.14240636806E+03  0.79774705035E+02 0.  0.
         23    2    1    2    0    0 -0.73429394244E+02  0.45797643615E+02 -0.36974966677E+02  0.13276413487E+03  0.93647569366E+02 0.  0.
        -11    1    3    3    0    0  0.53192871719E+01  0.34303219752E+02  0.56726042539E+02  0.66504508144E+02  0.00000000000E+00 0.  1.
         12    1    3    3    0    0  0.38094669156E+02 -0.38930324352E+02  0.52861312574E+02  0.75901859920E+02  0.00000000000E+00 0. -1.
        -13    1    4    4    0    0 -0.36562288857E+02  0.52061217168E+02 -0.61145016448E+02  0.88237658264E+02  0.00000000000E+00 0. -1.
         13    1    4    4    0    0 -0.36867105388E+02 -0.62635735532E+01  0.24170049771E+02  0.44526476609E+02  0.00000000000E+00 0.  1.
          3    1    1    2  501    0  0.30015437917E+02 -0.41170539015E+02  0.99927376567E+01  0.51921041996E+02  0.00000000000E+00 0. -1.
<scales pt_clust_5="13000.00000" pt_clust_6="13000.00000" pt_clust_7="13000.00000" pt_clust_8="13000.00000" pt_clust_9="50.95037"></scales>
<clustering>
<clus scale="   50.950">  2  9  1 -1</clus>
<clus scale="   79.775">  5  6 -1 -1</clus>
<clus scale="   93.648">  7  8 -1 -1</clus>
<clus scale="   93.927">  1  5  2 -1</clus>
<clus scale="   50.950">  2  5  1 -1</clus>
</clustering>
</event>
<event>
 9    2  0.1751298E-004  0.1020285E+03  0.7546771E-02  0.1284063E+00
         21   -1    0    0  501  502  0.00000000000E+00  0.00000000000E+00  0.41799754502E+02  0.41799754502E+02  0.00000000000E+00 0. -1.
          2   -1    0    0  502    0 -0.00000000000E+00 -0.00000000000E+00 -0.84988392406E+03  0.84988392406E+03  0.00000000000E+00 0. -1.
         23    2    1    2    0    0  0.18340348368E+02 -0.58963832915E+02 -0.47393307779E+03  0.48701610033E+03  0.93589624345E+02 0.  0.
         24    2    1    2    0    0 -0.46342870941E+02 -0.94886514624E+01 -0.31556473733E+03  0.32840922486E+03  0.77677663033E+02 0.  0.
        -13    1    4    4    0    0 -0.66082475730E+02 -0.13054709505E+02 -0.27534818547E+03  0.28346770941E+03  0.00000000000E+00 0.  1.
         14    1    4    4    0    0  0.19739604789E+02  0.35660580426E+01 -0.40216551863E+02  0.44941515450E+02  0.00000000000E+00 0. -1.
        -13    1    3    3    0    0 -0.16061459019E+02 -0.71287687930E+02 -0.26402401463E+03  0.27394996846E+03  0.00000000000E+00 0. -1.
         13    1    3    3    0    0  0.34401807387E+02  0.12323855014E+02 -0.20990906316E+03  0.21306613187E+03  0.00000000000E+00 0.  1.
          1    1    1    2  501    0  0.28002522573E+02  0.68452484378E+02 -0.18586354439E+02  0.76258353374E+02  0.00000000000E+00 0. -1.
<scales pt_clust_5="13000.00000" pt_clust_6="13000.00000" pt_clust_7="13000.00000" pt_clust_8="13000.00000" pt_clust_9="73.95866"></scales>
<clustering>
<clus scale="   73.959">  1  9  2 -1</clus>
<clus scale="   77.678">  5  6 -1 -1</clus>
<clus scale="   87.662">  1  5  2 -1</clus>
<clus scale="   93.590">  7  8 -1 -1</clus>
<clus scale="   73.959">  1  5  2 -1</clus>
</clustering>
</event>
<event>
 9    2  0.1751298E-004  0.9781118E+02  0.7546771E-02  0.1288625E+00
          2   -1    0    0  502    0 -0.00000000000E+00  0.00000000000E+00  0.66596302961E+03  0.66596302961E+03  0.00000000000E+00 0. -1.
         21   -1    0    0  501  502  0.00000000000E+00 -0.00000000000E+00 -0.13612280835E+03  0.13612280835E+03  0.00000000000E+00 0. -1.
         24    2    1    2    0    0 -0.26983765757E+02  0.17271112882E+02  0.59562159648E+03  0.60252683489E+03  0.85129816262E+02 0.  0.
         23    2    1    2    0    0  0.10471543918E+02 -0.78202064546E+02 -0.23320899377E+02  0.12347926629E+03  0.92076320105E+02 0.  0.
        -13    1    3    3    0    0 -0.12890578249E+02  0.19775992975E+02  0.38092442219E+02  0.44813960548E+02  0.00000000000E+00 0.  1.
         14    1    3    3    0    0 -0.14093187507E+02 -0.25048800934E+01  0.55752915426E+03  0.55771287434E+03  0.00000000000E+00 0. -1.
        -13    1    4    4    0    0  0.38920153268E+02 -0.82011444165E+02 -0.26587414175E+02  0.94591468416E+02  0.00000000000E+00 0. -1.
         13    1    4    4    0    0 -0.28448609350E+02  0.38093796188E+01  0.32665147987E+01  0.28887797873E+02  0.00000000000E+00 0.  1.
          1    1    1    2  501    0  0.16512221839E+02  0.60930951665E+02 -0.42460475841E+02  0.76079736786E+02  0.00000000000E+00 0. -1.
<scales pt_clust_5="13000.00000" pt_clust_6="13000.00000" pt_clust_7="13000.00000" pt_clust_8="13000.00000" pt_clust_9="63.12871"></scales>
<clustering>
<clus scale="   63.129">  2  9  1 -1</clus>
<clus scale="   85.130">  5  6 -1 -1</clus>
<clus scale="   91.302">  1  5  2 -1</clus>
<clus scale="   92.076">  7  8 -1 -1</clus>
<clus scale="   63.129">  2  5  1 -1</clus>
</clustering>
</event>
<event>
 9    2  0.1751298E-004  0.1155169E+03  0.7546771E-02  0.1255488E+00
          2   -1    0    0  502    0 -0.00000000000E+00  0.00000000000E+00  0.91921455416E+03  0.91921455416E+03  0.00000000000E+00 0. -1.
         21   -1    0    0  501  502  0.00000000000E+00 -0.00000000000E+00 -0.20526814709E+02  0.20526814709E+02  0.00000000000E+00 0.  1.
         24    2    1    2    0    0  0.43535262809E+02 -0.44255611688E+02  0.39392721292E+03  0.40713784511E+03  0.82028638684E+02 0.  0.
         23    2    1    2    0    0 -0.72103167499E+02  0.26244322954E+02  0.28267292625E+03  0.30796284646E+03  0.95128861629E+02 0.  0.
        -13    1    3    3    0    0  0.57709842464E+02 -0.13260918778E+02  0.15743590965E+03  0.16820328038E+03  0.00000000000E+00 0.  1.
         14    1    3    3    0    0 -0.14174579655E+02 -0.30994692910E+02  0.23649130327E+03  0.23893456473E+03  0.00000000000E+00 0. -1.
        -11    1    4    4    0    0 -0.93222768866E+02  0.19501352236E+02  0.25679046300E+03  0.27388342276E+03  0.00000000000E+00 0.  1.
         11    1    4    4    0    0  0.21119601367E+02  0.67429707181E+01  0.25882463247E+02  0.34079423700E+02  0.00000000000E+00 0. -1.
          1    1    1    2  501    0  0.28567904690E+02  0.18011288733E+02  0.22208760028E+03  0.22464067730E+03  0.00000000000E+00 0. -1.
<scales pt_clust_5="13000.00000" pt_clust_6="13000.00000" pt_clust_7="13000.00000" pt_clust_8="13000.00000" pt_clust_9="33.77178"></scales>
<clustering>
<clus scale="   33.772">  2  9  1 -1</clus>
<clus scale="   82.029">  5  6 -1 -1</clus>
<clus scale="   95.129">  7  8 -1 -1</clus>
<clus scale="  104.992">  1  5  2 -1</clus>
<clus scale="   33.772">  2  5  1 -1</clus>
</clustering>
</event>
<event>
 9    2  0.1751298E-004  0.1693875E+03  0.7546771E-02  0.1201818E+00
         21   -1    0    0  501  502  0.00000000000E+00  0.00000000000E+00  0.39162699745E+03  0.39162699745E+03  0.00000000000E+00 0.  1.
         -1   -1    0    0    0  501 -0.00000000000E+00 -0.00000000000E+00 -0.33815560691E+03  0.33815560691E+03  0.00000000000E+00 0.  1.
         23    2    1    2    0    0 -0.12772364630E+02  0.42216230944E+02  0.76144792554E+02  0.12662372246E+03  0.91050503579E+02 0.  0.
         24    2    1    2    0    0  0.52971783160E+02  0.10309302221E+03 -0.27486851391E+03  0.30933385444E+03  0.81856902752E+02 0.  0.
        -13    1    4    4    0    0  0.65225207976E+02  0.10239716276E+03 -0.20386283760E+03  0.23727529001E+03  0.00000000000E+00 0.  1.
         14    1    4    4    0    0 -0.12253424816E+02  0.69585945268E+00 -0.71005676307E+02  0.72058564431E+02  0.00000000000E+00 0. -1.
        -13    1    3    3    0    0 -0.71034036911E+01  0.67084212322E+02  0.75307885819E+02  0.10110404321E+03  0.00000000000E+00 0.  1.
         13    1    3    3    0    0 -0.56689609394E+01 -0.24867981377E+02  0.83690673487E+00  0.25519679245E+02  0.00000000000E+00 0. -1.
         -2    1    1    2    0  502 -0.40199418530E+02 -0.14530925315E+03  0.25219511189E+03  0.29382502746E+03  0.00000000000E+00 0.  1.
<scales pt_clust_5="13000.00000" pt_clust_6="13000.00000" pt_clust_7="13000.00000" pt_clust_8="13000.00000" pt_clust_9="148.29557"></scales>
<clustering>
<clus scale="   81.857">  5  6 -1 -1</clus>
<clus scale="   91.051">  7  8 -1 -1</clus>
<clus scale="  101.171">  2  7  1 -1</clus>
<clus scale="  148.296">  1  9  2 -1</clus>
<clus scale="  148.296">  1  5  2 -1</clus>
</clustering>
</event>
<event>
 9    2  0.1751298E-004  0.1218033E+03  0.7546771E-02  0.1243732E+00
         21   -1    0    0  501  502  0.00000000000E+00  0.00000000000E+00  0.29180758329E+02  0.29180758329E+02  0.00000000000E+00 0. -1.
          2   -1    0    0  502    0 -0.00000000000E+00 -0.00000000000E+00 -0.10662498236E+04  0.10662498236E+04  0.00000000000E+00 0. -1.
         24    2    1    2    0    0  0.10454878901E+03  0.28702998586E+02 -0.57362846349E+03  0.58934560938E+03  0.80773273823E+02 0.  0.
         23    2    1    2    0    0 -0.45166944646E+02  0.41273347837E+02 -0.27545242078E+03  0.29689020996E+03  0.92337525010E+02 0.  0.
        -11    1    3    3    0    0  0.19015666688E+02 -0.26857718808E+02 -0.12382317082E+03  0.12812146686E+03  0.00000000000E+00 0.  1.
         12    1    3    3    0    0  0.85533122321E+02  0.55560717393E+02 -0.44980529267E+03  0.46122414252E+03  0.00000000000E+00 0. -1.
        -13    1    4    4    0    0 -0.69414716145E+02  0.49101601117E+02 -0.22021003728E+03  0.23605471944E+03  0.00000000000E+00 0.  1.
         13    1    4    4    0    0  0.24247771499E+02 -0.78282532800E+01 -0.55242383498E+02  0.60835490519E+02  0.00000000000E+00 0. -1.
          1    1    1    2  501    0 -0.59381844363E+02 -0.69976346423E+02 -0.18798818102E+03  0.20919476261E+03  0.00000000000E+00 0. -1.
<scales pt_clust_5="13000.00000" pt_clust_6="13000.00000" pt_clust_7="13000.00000" pt_clust_8="13000.00000" pt_clust_9="91.77632"></scales>
<clustering>
<clus scale="   80.773">  5  6 -1 -1</clus>
<clus scale="   91.776">  1  9  2 -1</clus>
<clus scale="   92.338">  7  8 -1 -1</clus>
<clus scale="  113.288">  2  5  1 -1</clus>
<clus scale="   91.776">  1  5  2 -1</clus>
</clustering>
</event>
<event>
 9    2  0.1751298E-004  0.1615125E+03  0.7546771E-02  0.1188086E+00
          2   -1    0    0  502    0 -0.00000000000E+00  0.00000000000E+00  0.48286542388E+03  0.48286542388E+03  0.00000000000E+00 0. -1.
         21   -1    0    0  501  502  0.00000000000E+00 -0.00000000000E+00 -0.10386726589E+03  0.10386726589E+03  0.00000000000E+00 0.  1.
         23    2    1    2    0    0 -0.61781033415E+02  0.10423774369E+03  0.18472004845E+03  0.23820168031E+03  0.89085020645E+02 0.  0.
         24    2    1    2    0    0  0.94982633822E+02 -0.14304363754E+03  0.51784705350E+02  0.19716187819E+03  0.81902182722E+02 0.  0.
        -11    1    4    4    0    0  0.81826460530E+02 -0.71017404870E+02  0.15321348693E+01  0.10835768950E+03  0.00000000000E+00 0.  1.
         12    1    4    4    0    0  0.13156173292E+02 -0.72026232667E+02  0.50252570480E+02  0.88804188684E+02  0.00000000000E+00 0. -1.
        -13    1    3    3    0    0 -0.19785008787E+02 -0.10217150809E+02  0.83201859399E+01  0.23771037786E+02  0.00000000000E+00 0.  1.
         13    1    3    3    0    0 -0.41996024628E+02  0.11445489450E+03  0.17639986251E+03  0.21443064253E+03  0.00000000000E+00 0. -1.
          1    1    1    2  501    0 -0.33201600407E+02  0.38805893845E+02  0.14249340419E+03  0.15136913128E+03  0.00000000000E+00 0. -1.
<scales pt_clust_5="13000.00000" pt_clust_6="13000.00000" pt_clust_7="13000.00000" pt_clust_8="13000.00000" pt_clust_9="51.07099"></scales>
<clustering>
<clus scale="   51.071">  2  9  1 -1</clus>
<clus scale="   81.902">  5  6 -1 -1</clus>
<clus scale="   89.085">  7  8 -1 -1</clus>
<clus scale="  157.665">  2  5  1 -1</clus>
<clus scale="   51.071">  2  5  1 -1</clus>
</clustering>
</event>
<event>
 9    2  0.1751298E-004  0.1423287E+03  0.7546771E-02  0.1212460E+00
         21   -1    0    0  501  502  0.00000000000E+00  0.00000000000E+00  0.65409270066E+03  0.65409270066E+03  0.00000000000E+00 0. -1.
          2   -1    0    0  502    0 -0.00000000000E+00 -0.00000000000E+00 -0.20930613229E+03  0.20930613229E+03  0.00000000000E+00 0. -1.
         24    2    1    2    0    0  0.10455380637E+03  0.42000758817E+02 -0.15847164241E+03  0.21089888011E+03  0.81667092613E+02 0.  0.
         23    2    1    2    0    0 -0.90783937942E+02  0.37132470649E+02  0.19851639363E+03  0.23986498602E+03  0.92227486225E+02 0.  0.
        -11    1    3    3    0    0  0.52912780228E+00  0.33277573880E+02 -0.25964915998E+02  0.42212009694E+02  0.00000000000E+00 0.  1.
         12    1    3    3    0    0  0.10402467856E+03  0.87231849363E+01 -0.13250672641E+03  0.16868687042E+03  0.00000000000E+00 0. -1.
        -13    1    4    4    0    0  0.17957992941E+02  0.12269342985E+02  0.21149175896E+02  0.30336676298E+02  0.00000000000E+00 0.  1.
         13    1    4    4    0    0 -0.10874193088E+03  0.24863127664E+02  0.17736721774E+03  0.20952830973E+03  0.00000000000E+00 0. -1.
          1    1    1    2  501    0 -0.13769868425E+02 -0.79133229466E+02  0.40474181715E+03  0.41263496681E+03  0.00000000000E+00 0. -1.
<scales pt_clust_5="13000.00000" pt_clust_6="13000.00000" pt_clust_7="13000.00000" pt_clust_8="13000.00000" pt_clust_9="80.32233"></scales>
<clustering>
<clus scale="   80.322">  1  9  2 -1</clus>
<clus scale="   81.667">  5  6 -1 -1</clus>
<clus scale="   92.227">  7  8 -1 -1</clus>
<clus scale="  135.724">  2  5  1 -1</clus>
<clus scale="   80.322">  1  5  2 -1</clus>
</clustering>
</event>
<event>
 9    2  0.1751298E-004  0.1686653E+03  0.7546771E-02  0.1180882E+00
         21   -1    0    0  501  502  0.00000000000E+00  0.00000000000E+00  0.66433817917E+02  0.66433817917E+02  0.00000000000E+00 0. -1.
          2   -1    0    0  502    0 -0.00000000000E+00 -0.00000000000E+00 -0.67058192664E+03  0.67058192664E+03  0.00000000000E+00 0. -1.
         23    2    1    2    0    0 -0.40013951390E+02  0.12111017662E+03 -0.32663966824E+03  0.36230389909E+03  0.91114495234E+02 0.  0.
         24    2    1    2    0    0  0.44948219650E+02 -0.17084003610E+03 -0.17642722232E+03  0.26195184107E+03  0.79281409411E+02 0.  0.
        -11    1    4    4    0    0  0.50250768151E+02 -0.44425920292E+02 -0.58915033101E+02  0.89273642352E+02  0.00000000000E+00 0.  1.
         12    1    4    4    0    0 -0.53025485012E+01 -0.12641411581E+03 -0.11751218922E+03  0.17267819871E+03  0.00000000000E+00 0. -1.
        -11    1    3    3    0    0  0.28610500311E+02  0.38925699846E+02 -0.80455320381E+02  0.93844709037E+02  0.00000000000E+00 0.  1.
         11    1    3    3    0    0 -0.68624451701E+02  0.82184476769E+02 -0.24618434786E+03  0.26845919005E+03  0.00000000000E+00 0. -1.
          1    1    1    2  501    0 -0.49342682600E+01  0.49729859483E+02 -0.10108121816E+03  0.11276000440E+03  0.00000000000E+00 0. -1.
<scales pt_clust_5="13000.00000" pt_clust_6="13000.00000" pt_clust_7="13000.00000" pt_clust_8="13000.00000" pt_clust_9="49.97408"></scales>
<clustering>
<clus scale="   49.974">  1  9  2 -1</clus>
<clus scale="   79.281">  5  6 -1 -1</clus>
<clus scale="   91.114">  7  8 -1 -1</clus>
<clus scale="  162.578">  1  5  2 -1</clus>
<clus scale="   49.974">  1  5  2 -1</clus>
</clustering>
</event>
<event>
 9    2  0.1751298E-004  0.1012668E+03  0.7546771E-02  0.1281882E+00
         -1   -1    0    0    0  501 -0.00000000000E+00  0.00000000000E+00  0.31348112229E+03  0.31348112229E+03  0.00000000000E+00 0.  1.
         21   -1    0    0  501  502  0.00000000000E+00 -0.00000000000E+00 -0.17557187259E+03  0.17557187259E+03  0.00000000000E+00 0.  1.
         24    2    1    2    0    0  0.28181818232E+02  0.40566417221E+02  0.26698235536E+03  0.28335205109E+03  0.81049106696E+02 0.  0.
         23    2    1    2    0    0 -0.41995501065E+02  0.16371490595E+02 -0.70577845576E+02  0.12290940659E+03  0.89965783097E+02 0.  0.
        -13    1    3    3    0    0  0.41152661653E+02  0.18733433254E+02  0.61643136376E+02  0.76448409695E+02  0.00000000000E+00 0.  1.
         14    1    3    3    0    0 -0.12970843421E+02  0.21832983967E+02  0.20533921899E+03  0.20690364139E+03  0.00000000000E+00 0. -1.
        -11    1    4    4    0    0 -0.56519742160E+02 -0.19442976287E+02 -0.55050745296E+02  0.81259431074E+02  0.00000000000E+00 0. -1.
         11    1    4    4    0    0  0.14524241096E+02  0.35814466882E+02 -0.15527100280E+02  0.41649975517E+02  0.00000000000E+00 0.  1.
         -2    1    1    2    0  502  0.13813682833E+02 -0.56937907816E+02 -0.58495260081E+02  0.82791537199E+02  0.00000000000E+00 0.  1.
<scales pt_clust_5="13000.00000" pt_clust_6="13000.00000" pt_clust_7="13000.00000" pt_clust_8="13000.00000" pt_clust_9="58.58962"></scales>
<clustering>
<clus scale="   58.590">  2  9  1 -1</clus>
<clus scale="   81.049">  5  6 -1 -1</clus>
<clus scale="   89.966">  7  8 -1 -1</clus>
<clus scale="   93.435">  1  5  2 -1</clus>
<clus scale="   58.590">  2  5  1 -1</clus>
</clustering>
</event>
<event>
 9    2  0.1751298E-004  0.1163264E+03  0.7546771E-02  0.1255594E+00
         -1   -1    0    0    0  501 -0.00000000000E+00  0.00000000000E+00  0.21114285199E+03  0.21114285199E+03  0.00000000000E+00 0.  1.
         21   -1    0    0  501  502  0.00000000000E+00 -0.00000000000E+00 -0.22891192041E+03  0.22891192041E+03  0.00000000000E+00 0.  1.
         24    2    1    2    0    0  0.40317416073E+02 -0.68428275536E+02  0.15183392914E+03  0.18631194869E+03  0.73148323654E+02 0.  0.
         23    2    1    2    0    0 -0.11658923289E+02 -0.36813900397E+01 -0.14590507095E+03  0.17260895407E+03  0.91411586639E+02 0.  0.
        -11    1    3    3    0    0  0.56011254160E+02 -0.41676779225E+02  0.13248913630E+03  0.14975842466E+03  0.00000000000E+00 0.  1.
         12    1    3    3    0    0 -0.15693838087E+02 -0.26751496311E+02  0.19344792843E+02  0.36553524029E+02  0.00000000000E+00 0. -1.
        -11    1    4    4    0    0 -0.84872473160E+01 -0.47082028478E+02 -0.88143328063E+02  0.10028956603E+03  0.00000000000E+00 0.  1.
         11    1    4    4    0    0 -0.31716759731E+01  0.43400638438E+02 -0.57761742887E+02  0.72319388041E+02  0.00000000000E+00 0. -1.
         -2    1    1    2    0  502 -0.28658492784E+02  0.72109665576E+02 -0.23697926603E+02  0.81133869644E+02  0.00000000000E+00 0.  1.
<scales pt_clust_5="13000.00000" pt_clust_6="13000.00000" pt_clust_7="13000.00000" pt_clust_8="13000.00000" pt_clust_9="77.59583"></scales>
<clustering>
<clus scale="   73.148">  5  6 -1 -1</clus>
<clus scale="   77.596">  2  9  1 -1</clus>
<clus scale="   91.412">  7  8 -1 -1</clus>
<clus scale="  102.598">  1  5  2 -1</clus>
<clus scale="   77.596">  2  5  1 -1</clus>
</clustering>
</event>
<event>
 9    2  0.1751298E-004  0.2066965E+03  0.7546771E-02  0.1171984E+00
         21   -1    0    0  501  502  0.00000000000E+00  0.00000000000E+00  0.44331991627E+03  0.44331991627E+03  0.00000000000E+00 0.  1.
         -1   -1    0    0    0  501 -0.00000000000E+00 -0.00000000000E+00 -0.20176445034E+03  0.20176445034E+03  0.00000000000E+00 0.  1.
         23    2    1    2    0    0 -0.12209050817E+02  0.49652586355E+02 -0.45805351536E+02  0.11734142099E+03  0.95165322453E+02 0.  0.
         24    2    1    2    0    0 -0.16490292995E+03  0.71837903226E+02  0.23407000766E+03  0.30645466486E+03  0.82292359796E+02 0.  0.
        -11    1    4    4    0    0 -0.14465657482E+03  0.34828917113E+02  0.14431785106E+03  0.20728294730E+03  0.00000000000E+00 0.  1.
         12    1    4    4    0    0 -0.20246355129E+02  0.37008986113E+02  0.89752156600E+02  0.99171717558E+02  0.00000000000E+00 0. -1.
        -13    1    3    3    0    0  0.54003788883E+00  0.71920072086E+02 -0.90118184008E+01  0.72484489931E+02  0.00000000000E+00 0. -1.
         13    1    3    3    0    0 -0.12749088706E+02 -0.22267485731E+02 -0.36793533135E+02  0.44856931060E+02  0.00000000000E+00 0.  1.
         -2    1    1    2    0  502  0.17711198077E+03 -0.12149048958E+03  0.53290809804E+02  0.22128828076E+03  0.00000000000E+00 0.  1.
<scales pt_clust_5="13000.00000" pt_clust_6="13000.00000" pt_clust_7="13000.00000" pt_clust_8="13000.00000" pt_clust_9="189.60866"></scales>
<clustering>
<clus scale="   82.292">  5  6 -1 -1</clus>
<clus scale="   95.165">  7  8 -1 -1</clus>
<clus scale="  108.032">  2  7  1 -1</clus>
<clus scale="  189.609">  1  9  2 -1</clus>
<clus scale="  189.609">  1  5  2 -1</clus>
</clustering>
</event>
<event>
 9    2  0.1751298E-004  0.1868269E+03  0.7546771E-02  0.1184684E+00
          2   -1    0    0  502    0 -0.00000000000E+00  0.00000000000E+00  0.18570740586E+04  0.18570740586E+04  0.00000000000E+00 0. -1.
         21   -1    0    0  501  502  0.00000000000E+00 -0.00000000000E+00 -0.30639495653E+02  0.30639495653E+02  0.00000000000E+00 0. -1.
         24    2    1    2    0    0 -0.72974397628E+02  0.19332789827E+02  0.33250789744E+03  0.35019014068E+03  0.79828649593E+02 0.  0.
         23    2    1    2    0    0 -0.61947594982E+02  0.11696567995E+03  0.89023152849E+03  0.90409698895E+03  0.85794616982E+02 0.  0.
        -11    1    3    3    0    0 -0.65973615816E+02 -0.18761876838E+02  0.17429967525E+03  0.18730964417E+03  0.00000000000E+00 0.  1.
         12    1    3    3    0    0 -0.70007818116E+01  0.38094666665E+02  0.15820822219E+03  0.16288049651E+03  0.00000000000E+00 0. -1.
        -11    1    4    4    0    0  0.19621380752E+02  0.44413137745E+02  0.26930338754E+03  0.27364546392E+03  0.00000000000E+00 0.  1.
         11    1    4    4    0    0 -0.81568975734E+02  0.72552542205E+02  0.62092814095E+03  0.63045152502E+03  0.00000000000E+00 0. -1.
          1    1    1    2  501    0  0.13492199261E+03 -0.13629846978E+03  0.60369513698E+03  0.63342642459E+03  0.00000000000E+00 0. -1.
<scales pt_clust_5="13000.00000" pt_clust_6="13000.00000" pt_clust_7="13000.00000" pt_clust_8="13000.00000" pt_clust_9="165.96252"></scales>
<clustering>
<clus scale="   79.829">  5  6 -1 -1</clus>
<clus scale="   85.795">  7  8 -1 -1</clus>
<clus scale="  109.871">  1  5  2 -1</clus>
<clus scale="  165.963">  2  9  1 -1</clus>
<clus scale="  165.963">  2  5  1 -1</clus>
</clustering>
</event>
<event>
 9    2  0.1751298E-004  0.1785926E+03  0.7546771E-02  0.1170537E+00
         21   -1    0    0  501  502  0.00000000000E+00  0.00000000000E+00  0.12216497840E+03  0.12216497840E+03  0.00000000000E+00 0.  1.
          2   -1    0    0  502    0 -0.00000000000E+00 -0.00000000000E+00 -0.42280014091E+03  0.42280014091E+03  0.00000000000E+00 0. -1.
         24    2    1    2    0    0 -0.12149516318E+03  0.87131996525E+02 -0.27472785654E+03  0.32291553422E+03  0.80286907961E+02 0.  0.
         23    2    1    2    0    0  0.12370090499E+03 -0.11449935544E+03 -0.14606404803E+02  0.19235871110E+03  0.91523277830E+02 0.  0.
        -11    1    3    3    0    0 -0.92557088962E+00  0.21140592003E+02 -0.91210165536E+02  0.93632663151E+02  0.00000000000E+00 0.  1.
         12    1    3    3    0    0 -0.12056959229E+03  0.65991404523E+02 -0.18351769100E+03  0.22928287107E+03  0.00000000000E+00 0. -1.
        -11    1    4    4    0    0  0.14419371435E+02 -0.29254697247E+02 -0.39835559119E+02  0.51484243744E+02  0.00000000000E+00 0. -1.
         11    1    4    4    0    0  0.10928153355E+03 -0.85244658195E+02  0.25229154316E+02  0.14087446736E+03  0.00000000000E+00 0.  1.
          1    1    1    2  501    0 -0.22057418039E+01  0.27367358916E+02 -0.11300901163E+02  0.29690873986E+02  0.00000000000E+00 0. -1.
<scales pt_clust_5="13000.00000" pt_clust_6="13000.00000" pt_clust_7="13000.00000" pt_clust_8="13000.00000" pt_clust_9="27.45610"></scales>
<clustering>
<clus scale="   27.456">  1  9  2 -1</clus>
<clus scale="   80.287">  5  6 -1 -1</clus>
<clus scale="   91.523">  7  8 -1 -1</clus>
<clus scale="  173.103">  2  5  1 -1</clus>
<clus scale="   27.456">  1  5  2 -1</clus>
</clustering>
</event>
<event>
 9    2  0.1751298E-004  0.4570507E+03  0.7546771E-02  0.1025640E+00
          2   -1    0    0  502    0 -0.00000000000E+00  0.00000000000E+00  0.51475216795E+03  0.51475216795E+03  0.00000000000E+00 0. -1.
         21   -1    0    0  501  502  0.00000000000E+00 -0.00000000000E+00 -0.35835267277E+03  0.35835267277E+03  0.00000000000E+00 0. -1.
         24    2    1    2    0    0 -0.24080200530E+03  0.86220341321E+02  0.29296175554E+02  0.27024623631E+03  0.82190080455E+02 0.  0.
         23    2    1    2    0    0 -0.14345474889E+03 -0.75759198208E+02 -0.32055082450E+02  0.18681283096E+03  0.86906756984E+02 0.  0.
        -13    1    3    3    0    0 -0.10569866748E+02  0.29672891123E+02  0.55598128585E+01  0.31986154343E+02  0.00000000000E+00 0.  1.
         14    1    3    3    0    0 -0.23023213855E+03  0.56547450198E+02  0.23736362695E+02  0.23826008197E+03  0.00000000000E+00 0. -1.
        -13    1    4    4    0    0 -0.11794322658E+03 -0.92808434731E+02 -0.12883816496E+02  0.15063201181E+03  0.00000000000E+00 0. -1.
         13    1    4    4    0    0 -0.25511522303E+02  0.17049236523E+02 -0.19171265954E+02  0.36180819151E+02  0.00000000000E+00 0.  1.
          1    1    1    2  501    0  0.38425675418E+03 -0.10461143112E+02  0.15915840208E+03  0.41604577345E+03  0.00000000000E+00 0. -1.
<scales pt_clust_5="13000.00000" pt_clust_6="13000.00000" pt_clust_7="13000.00000" pt_clust_8="13000.00000" pt_clust_9="384.39932"></scales>
<clustering>
<clus scale="   82.190">  5  6 -1 -1</clus>
<clus scale="   86.907">  7  8 -1 -1</clus>
<clus scale="  165.651">  5  7 -1 -1</clus>
<clus scale="  384.399">  2  9  1 -1</clus>
<clus scale="  384.399">  2  5  1 -1</clus>
</clustering>
</event>
<event>
 9    2  0.1751298E-004  0.1349210E+03  0.7546771E-02  0.1224983E+00
          2   -1    0    0  502    0 -0.00000000000E+00  0.00000000000E+00  0.72790930136E+03  0.72790930136E+03  0.00000000000E+00 0. -1.
         21   -1    0    0  501  502  0.00000000000E+00 -0.00000000000E+00 -0.56500220134E+02  0.56500220134E+02  0.00000000000E+00 0.  1.
         23    2    1    2    0    0 -0.36452264414E+02  0.73395280866E+02  0.33444034185E+03  0.35614183289E+03  0.90945192512E+02 0.  0.
         24    2    1    2    0    0 -0.90256472043E+02 -0.56637688623E+02  0.13740911810E+03  0.19128675428E+03  0.79720123597E+02 0.  0.
        -13    1    4    4    0    0 -0.95522388178E+02 -0.58426647697E+02  0.90293593769E+02  0.14384412703E+03  0.00000000000E+00 0.  1.
         14    1    4    4    0    0  0.52659161358E+01  0.17889590747E+01  0.47115524331E+02  0.47442627249E+02  0.00000000000E+00 0. -1.
        -13    1    3    3    0    0 -0.61783209292E+02  0.51618733883E+02  0.28728992159E+03  0.29835743277E+03  0.00000000000E+00 0.  1.
         13    1    3    3    0    0  0.25330944878E+02  0.21776546982E+02  0.47150420260E+02  0.57784400123E+02  0.00000000000E+00 0. -1.
          1    1    1    2  501    0  0.12670873646E+03 -0.16757592243E+02  0.19955962127E+03  0.23698093433E+03  0.00000000000E+00 0. -1.
<scales pt_clust_5="13000.00000" pt_clust_6="13000.00000" pt_clust_7="13000.00000" pt_clust_8="13000.00000" pt_clust_9="108.85032"></scales>
<clustering>
<clus scale="   79.720">  5  6 -1 -1</clus>
<clus scale="   90.945">  7  8 -1 -1</clus>
<clus scale="  122.420">  1  7  2 -1</clus>
<clus scale="  108.850">  2  9  1 -1</clus>
<clus scale="  108.850">  2  5  1 -1</clus>
</clustering>
</event>
<event>
 9    2  0.1751298E-004  0.1414180E+03  0.7546771E-02  0.1233505E+00
         21   -1    0    0  501  502  0.00000000000E+00  0.00000000000E+00  0.77852239510E+02  0.77852239510E+02  0.00000000000E+00 0. -1.
          2   -1    0    0  502    0 -0.00000000000E+00 -0.00000000000E+00 -0.54198173804E+03  0.54198173804E+03  0.00000000000E+00 0. -1.
         24    2    1    2    0    0 -0.17664671988E+02 -0.26054069599E+02 -0.66107563998E+02  0.11097554144E+03  0.83393678429E+02 0.  0.
         23    2    1    2    0    0  0.26428649641E+02 -0.85966782286E+02 -0.37231259298E+03  0.39359157702E+03  0.90602987953E+02 0.  0.
        -11    1    3    3    0    0 -0.43658909488E+02 -0.39816888305E+02 -0.37744987111E+02  0.70115397909E+02  0.00000000000E+00 0.  1.
         12    1    3    3    0    0  0.25994237500E+02  0.13762818706E+02 -0.28362576888E+02  0.40860143535E+02  0.00000000000E+00 0. -1.
        -11    1    4    4    0    0 -0.72747324763E+01 -0.87956881164E+02 -0.31443454251E+03  0.32658600123E+03  0.00000000000E+00 0. -1.
         11    1    4    4    0    0  0.33703382117E+02  0.19900988780E+01 -0.57878050469E+02  0.67005575781E+02  0.00000000000E+00 0.  1.
          1    1    1    2  501    0 -0.87639776529E+01  0.11202085188E+03 -0.25709341547E+02  0.11526685909E+03  0.00000000000E+00 0. -1.
<scales pt_clust_5="13000.00000" pt_clust_6="13000.00000" pt_clust_7="13000.00000" pt_clust_8="13000.00000" pt_clust_9="108.58246"></scales>
<clustering>
<clus scale="   83.394">  5  6 -1 -1</clus>
<clus scale="   89.137">  2  5  1 -1</clus>
<clus scale="   90.603">  7  8 -1 -1</clus>
<clus scale="  108.582">  1  9  2 -1</clus>
<clus scale="  108.582">  1  5  2 -1</clus>
</clustering>
</event>
<event>
 9    2  0.1751298E-004  0.1210764E+03  0.7546771E-02  0.1254954E+00
         -1   -1    0    0    0  501 -0.00000000000E+00  0.00000000000E+00  0.13321558841E+03  0.13321558841E+03  0.00000000000E+00 0.  1.
         21   -1    0    0  501  502  0.00000000000E+00 -0.00000000000E+00 -0.24346160056E+03  0.24346160056E+03  0.00000000000E+00 0.  1.
         24    2    1    2    0    0 -0.41622816900E+02  0.16579761655E+02 -0.83250148040E+01  0.92526491949E+02  0.80526383613E+02 0.  0.
         23    2    1    2    0    0 -0.63738398650E+02  0.10615528771E+02 -0.12831590355E+03  0.17218078751E+03  0.94899839678E+02 0.  0.
        -13    1    3    3    0    0 -0.54549191759E+02 -0.15914970062E+02 -0.90946882108E+01  0.57546624118E+02  0.00000000000E+00 0.  1.
         14    1    3    3    0    0  0.12926374859E+02  0.32494731717E+02  0.76967340673E+00  0.34979867832E+02  0.00000000000E+00 0. -1.
        -13    1    4    4    0    0 -0.86020269159E+02  0.22806914476E+02 -0.93453329258E+02  0.12904714954E+03  0.00000000000E+00 0.  1.
         13    1    4    4    0    0  0.22281870509E+02 -0.12191385705E+02 -0.34862574287E+02  0.43133637972E+02  0.00000000000E+00 0. -1.
         -2    1    1    2    0  502  0.10536121555E+03 -0.27195290425E+02  0.26394906202E+02  0.11196990952E+03  0.00000000000E+00 0.  1.
<scales pt_clust_5="13000.00000" pt_clust_6="13000.00000" pt_clust_7="13000.00000" pt_clust_8="13000.00000" pt_clust_9="75.18993"></scales>
<clustering>
<clus scale="   80.526">  5  6 -1 -1</clus>
<clus scale="   92.151">  1  5  2 -1</clus>
<clus scale="   75.190">  2  9  1 -1</clus>
<clus scale="   94.900">  7  8 -1 -1</clus>
<clus scale="   75.190">  2  5  1 -1</clus>
</clustering>
</event>
<event>
 9    2  0.1751298E-004  0.1420509E+03  0.7546771E-02  0.1216658E+00
          2   -1    0    0  502    0 -0.00000000000E+00  0.00000000000E+00  0.55136805812E+03  0.55136805812E+03  0.00000000000E+00 0. -1.
         21   -1    0    0  501  502  0.00000000000E+00 -0.00000000000E+00 -0.19624253135E+03  0.19624253135E+03  0.00000000000E+00 0.  1.
         23    2    1    2    0    0  0.37570576843E+02  0.75481072664E+02  0.39805931361E+03  0.42054320217E+03  0.10628465159E+03 0.  0.
         24    2    1    2    0    0 -0.55382710610E+02 -0.12178558825E+03  0.92980660372E+02  0.18238111555E+03  0.81966419735E+02 0.  0.
        -13    1    4    4    0    0 -0.47405528383E+02 -0.13409100191E+03  0.83666642866E+02  0.16500844840E+03  0.00000000000E+00 0.  1.
         14    1    4    4    0    0 -0.79771822276E+01  0.12305413660E+02  0.93140175059E+01  0.17372667145E+02  0.00000000000E+00 0. -1.
        -11    1    3    3    0    0  0.67568618146E+02  0.78469759058E+02  0.33516643251E+03  0.35079845884E+03  0.00000000000E+00 0. -1.
         11    1    3    3    0    0 -0.29998041303E+02 -0.29886863936E+01  0.62892881099E+02  0.69744743324E+02  0.00000000000E+00 0.  1.
          1    1    1    2  501    0  0.17812133767E+02  0.46304515591E+02 -0.13591444721E+03  0.14468627175E+03  0.00000000000E+00 0. -1.
<scales pt_clust_5="13000.00000" pt_clust_6="13000.00000" pt_clust_7="13000.00000" pt_clust_8="13000.00000" pt_clust_9="49.61230"></scales>
<clustering>
<clus scale="   49.612">  2  9  1 -1</clus>
<clus scale="   81.966">  5  6 -1 -1</clus>
<clus scale="  106.285">  7  8 -1 -1</clus>
<clus scale="  124.902">  2  5  1 -1</clus>
<clus scale="   49.612">  2  5  1 -1</clus>
</clustering>
</event>
<event>
 9    2  0.1751298E-004  0.1230583E+03  0.7546771E-02  0.1242142E+00
         21   -1    0    0  501  502  0.00000000000E+00  0.00000000000E+00  0.74004378982E+02  0.74004378982E+02  0.00000000000E+00 0.  1.
         -1   -1    0    0    0  501 -0.00000000000E+00 -0.00000000000E+00 -0.37557546516E+03  0.37557546516E+03  0.00000000000E+00 0.  1.
         24    2    1    2    0    0  0.64501767362E+02  0.34256127219E+02 -0.14483737436E+03  0.18053486878E+03  0.79252845942E+02 0.  0.
         23    2    1    2    0    0 -0.42130733382E+02 -0.10097889876E+03 -0.13094338682E+03  0.19409477679E+03  0.92492567995E+02 0.  0.
        -13    1    3    3    0    0  0.74248084396E+02  0.39320205706E+02 -0.14702326030E+03  0.16933604366E+03  0.00000000000E+00 0.  1.
         14    1    3    3    0    0 -0.97463170340E+01 -0.50640784866E+01  0.21858859458E+01  0.11198825118E+02  0.00000000000E+00 0. -1.
        -13    1    4    4    0    0  0.10703857173E+02 -0.32617660414E+02  0.32615306744E+01  0.34483647017E+02  0.00000000000E+00 0.  1.
         13    1    4    4    0    0 -0.52834590554E+02 -0.68361238346E+02 -0.13420491749E+03  0.15961112977E+03  0.00000000000E+00 0. -1.
         -2    1    1    2    0  502 -0.22371033980E+02  0.66722771540E+02 -0.25790325010E+02  0.74950198582E+02  0.00000000000E+00 0.  1.
<scales pt_clust_5="13000.00000" pt_clust_6="13000.00000" pt_clust_7="13000.00000" pt_clust_8="13000.00000" pt_clust_9="70.37323"></scales>
<clustering>
<clus scale="   70.373">  1  9  2 -1</clus>
<clus scale="   79.253">  5  6 -1 -1</clus>
<clus scale="   92.493">  7  8 -1 -1</clus>
<clus scale="  113.444">  2  5  1 -1</clus>
<clus scale="   70.373">  1  5  2 -1</clus>
</clustering>
</event>
<event>
 9    2  0.1751298E-004  0.1137158E+03  0.7546771E-02  0.1259825E+00
          2   -1    0    0  502    0 -0.00000000000E+00  0.00000000000E+00  0.55590229433E+03  0.55590229433E+03  0.00000000000E+00 0. -1.
         21   -1    0    0  501  502  0.00000000000E+00 -0.00000000000E+00 -0.90474283957E+02  0.90474283957E+02  0.00000000000E+00 0. -1.
         24    2    1    2    0    0  0.33534772295E+02 -0.64221655067E+02  0.39066754791E+03  0.40520304742E+03  0.79494494916E+02 0.  0.
         23    2    1    2    0    0  0.13233851945E+01  0.41973567889E+02  0.13358563055E+03  0.16926755805E+03  0.95093920779E+02 0.  0.
        -11    1    3    3    0    0 -0.10047661968E+02 -0.49821737405E+02  0.11486266268E+03  0.12560490558E+03  0.00000000000E+00 0.  1.
         12    1    3    3    0    0  0.43582434263E+02 -0.14399917663E+02  0.27580488523E+03  0.27959814184E+03  0.00000000000E+00 0. -1.
        -11    1    4    4    0    0 -0.30533883521E+02  0.56742850444E+02  0.61454487472E+02  0.89043377912E+02  0.00000000000E+00 0.  1.
         11    1    4    4    0    0  0.31857268716E+02 -0.14769282556E+02  0.72131143077E+02  0.80224180138E+02  0.00000000000E+00 0. -1.
          1    1    1    2  501    0 -0.34858157489E+02  0.22248087179E+02 -0.58825168082E+02  0.71905972815E+02  0.00000000000E+00 0. -1.
<scales pt_clust_5="13000.00000" pt_clust_6="13000.00000" pt_clust_7="13000.00000" pt_clust_8="13000.00000" pt_clust_9="41.35297"></scales>
<clustering>
<clus scale="   41.353">  2  9  1 -1</clus>
<clus scale="   79.494">  5  6 -1 -1</clus>
<clus scale="   95.094">  7  8 -1 -1</clus>
<clus scale="  101.034">  1  5  2 -1</clus>
<clus scale="   41.353">  2  5  1 -1</clus>
</clustering>
</event>
<event>
 9    2  0.1751298E-004  0.1768308E+03  0.7546771E-02  0.1201579E+00
         -3   -1    0    0    0  501 -0.00000000000E+00  0.00000000000E+00  0.90463595373E+02  0.90463595373E+02  0.00000000000E+00 0.  1.
         21   -1    0    0  501  502  0.00000000000E+00 -0.00000000000E+00 -0.49817001410E+03  0.49817001410E+03  0.00000000000E+00 0.  1.
         24    2    1    2    0    0 -0.26167621531E+02  0.27579463214E+02 -0.57768141107E+02  0.10642918927E+03  0.80898967824E+02 0.  0.
         23    2    1    2    0    0  0.13643419395E+03  0.75459663510E+02 -0.20710167235E+03  0.27441107470E+03  0.90010472348E+02 0.  0.
        -13    1    3    3    0    0  0.70783359884E+01  0.40231942063E+02 -0.27880283399E+01  0.40944903280E+02  0.00000000000E+00 0.  1.
         14    1    3    3    0    0 -0.33245957520E+02 -0.12652478849E+02 -0.54980112767E+02  0.65484285995E+02  0.00000000000E+00 0. -1.
        -11    1    4    4    0    0  0.11599423660E+03  0.49705903744E+02 -0.20591736576E+03  0.24151045798E+03  0.00000000000E+00 0.  1.
         11    1    4    4    0    0  0.20439957353E+02  0.25753759766E+02 -0.11843065897E+01  0.32900616723E+02  0.00000000000E+00 0. -1.
         -4    1    1    2    0  502 -0.11026657242E+03 -0.10303912672E+03 -0.14283660527E+03  0.20779334550E+03  0.00000000000E+00 0.  1.
<scales pt_clust_5="13000.00000" pt_clust_6="13000.00000" pt_clust_7="13000.00000" pt_clust_8="13000.00000" pt_clust_9="152.20801"></scales>
<clustering>
<clus scale="   80.899">  5  6 -1 -1</clus>
<clus scale="   89.387">  1  5  2 -1</clus>
<clus scale="   90.010">  7  8 -1 -1</clus>
<clus scale="  152.208">  2  9  1 -1</clus>
<clus scale="  152.208">  2  5  1 -1</clus>
</clustering>
</event>
<event>
 9    2  0.1751298E-004  0.1206050E+03  0.7546771E-02  0.1245894E+00
         21   -1    0    0  501  502  0.00000000000E+00  0.00000000000E+00  0.47322144544E+02  0.47322144544E+02  0.00000000000E+00 0. -1.
          2   -1    0    0  502    0 -0.00000000000E+00 -0.00000000000E+00 -0.48426642482E+03  0.48426642482E+03  0.00000000000E+00 0. -1.
         23    2    1    2    0    0 -0.48389072714E+02 -0.69320194103E+02 -0.36403615035E+03  0.38493780860E+03  0.92238853328E+02 0.  0.
         24    2    1    2    0    0  0.26969200956E+02  0.53595284263E+02 -0.62510776086E+02  0.11811676941E+03  0.80275661273E+02 0.  0.
        -11    1    4    4    0    0  0.34879936247E+02 -0.93255730193E+01 -0.16100783118E+02  0.39532410523E+02  0.00000000000E+00 0.  1.
         12    1    4    4    0    0 -0.79107352908E+01  0.62920857282E+02 -0.46409992968E+02  0.78584358884E+02  0.00000000000E+00 0. -1.
        -13    1    3    3    0    0 -0.71082924021E+01  0.20476230693E+02 -0.33148585233E+02  0.39605966056E+02  0.00000000000E+00 0.  1.
         13    1    3    3    0    0 -0.41280780312E+02 -0.89796424796E+02 -0.33088756511E+03  0.34533184254E+03  0.00000000000E+00 0. -1.
          1    1    1    2  501    0  0.21419871758E+02  0.15724909840E+02 -0.10397353839E+02  0.28533991352E+02  0.00000000000E+00 0. -1.
<scales pt_clust_5="13000.00000" pt_clust_6="13000.00000" pt_clust_7="13000.00000" pt_clust_8="13000.00000" pt_clust_9="26.57224"></scales>
<clustering>
<clus scale="   26.572">  1  9  2 -1</clus>
<clus scale="   80.276">  5  6 -1 -1</clus>
<clus scale="   92.239">  7  8 -1 -1</clus>
<clus scale="  111.722">  1  5  2 -1</clus>
<clus scale="   26.572">  1  5  2 -1</clus>
</clustering>
</event>
<event>
 9    2  0.1751298E-004  0.9686583E+02  0.7546771E-02  0.1293399E+00
         21   -1    0    0  501  502  0.00000000000E+00  0.00000000000E+00  0.26855911245E+03  0.26855911245E+03  0.00000000000E+00 0. -1.
          2   -1    0    0  502    0 -0.00000000000E+00 -0.00000000000E+00 -0.72912582054E+02  0.72912582054E+02  0.00000000000E+00 0. -1.
         23    2    1    2    0    0 -0.30443398583E+02  0.25997473799E+02 -0.15201838435E+02  0.10040582621E+03  0.90816104761E+02 0.  0.
         24    2    1    2    0    0 -0.33655400013E+01 -0.20624634453E+02  0.13506210343E+03  0.15790656482E+03  0.79094936782E+02 0.  0.
        -13    1    4    4    0    0  0.28896703983E+02 -0.34957304764E+02  0.88813773988E+02  0.99724215251E+02  0.00000000000E+00 0.  1.
         14    1    4    4    0    0 -0.32262243984E+02  0.14332670312E+02  0.46248329444E+02  0.58182349571E+02  0.00000000000E+00 0. -1.
        -11    1    3    3    0    0 -0.41463208596E+02  0.54547765976E+02 -0.12852627824E+02  0.69712599163E+02  0.00000000000E+00 0. -1.
         11    1    3    3    0    0  0.11019810014E+02 -0.28550292176E+02 -0.23492106111E+01  0.30693227047E+02  0.00000000000E+00 0.  1.
          1    1    1    2  501    0  0.33808938584E+02 -0.53728393465E+01  0.75786265400E+02  0.83159303473E+02  0.00000000000E+00 0. -1.
<scales pt_clust_5="13000.00000" pt_clust_6="13000.00000" pt_clust_7="13000.00000" pt_clust_8="13000.00000" pt_clust_9="34.23320"></scales>
<clustering>
<clus scale="   34.233">  1  9  2 -1</clus>
<clus scale="   79.095">  5  6 -1 -1</clus>
<clus scale="   85.973">  1  5  2 -1</clus>
<clus scale="   90.816">  7  8 -1 -1</clus>
<clus scale="   34.233">  1  5  2 -1</clus>
</clustering>
</event>
<event>
 9    2  0.1751298E-004  0.1325579E+03  0.7546771E-02  0.1225668E+00
          2   -1    0    0  502    0 -0.00000000000E+00  0.00000000000E+00  0.36765382793E+03  0.36765382793E+03  0.00000000000E+00 0. -1.
         21   -1    0    0  501  502  0.00000000000E+00 -0.00000000000E+00 -0.26466912823E+03  0.26466912823E+03  0.00000000000E+00 0. -1.
         23    2    1    2    0    0  0.80327775188E+02  0.73030705001E+02  0.23759863579E+03  0.27746898113E+03  0.93540838274E+02 0.  0.
         24    2    1    2    0    0 -0.62130824404E+02 -0.38671744930E+02  0.79001209068E+02  0.13772936244E+03  0.85862931734E+02 0.  0.
        -13    1    4    4    0    0 -0.71089848567E+02 -0.34326066219E+02  0.24984562857E+02  0.82802619358E+02  0.00000000000E+00 0.  1.
         14    1    4    4    0    0  0.89590241626E+01 -0.43456787113E+01  0.54016646211E+02  0.54926743080E+02  0.00000000000E+00 0. -1.
        -11    1    3    3    0    0  0.36099377631E+01  0.53193304762E+02  0.47076196771E+02  0.71124732861E+02  0.00000000000E+00 0.  1.
         11    1    3    3    0    0  0.76717837425E+02  0.19837400239E+02  0.19052243901E+03  0.20634424827E+03  0.00000000000E+00 0. -1.
          1    1    1    2  501    0 -0.18196950783E+02 -0.34358960071E+02 -0.21361514515E+03  0.21712461259E+03  0.00000000000E+00 0. -1.
<scales pt_clust_5="13000.00000" pt_clust_6="13000.00000" pt_clust_7="13000.00000" pt_clust_8="13000.00000" pt_clust_9="38.88016"></scales>
<clustering>
<clus scale="   38.880">  2  9  1 -1</clus>
<clus scale="   85.863">  5  6 -1 -1</clus>
<clus scale="   93.541">  7  8 -1 -1</clus>
<clus scale="  127.256">  2  5  1 -1</clus>
<clus scale="   38.880">  2  5  1 -1</clus>
</clustering>
</event>
<event>
 9    2  0.1751298E-004  0.2839915E+03  0.7546771E-02  0.1118983E+00
         21   -1    0    0  501  502  0.00000000000E+00  0.00000000000E+00  0.98700516464E+02  0.98700516464E+02  0.00000000000E+00 0. -1.
          2   -1    0    0  502    0 -0.00000000000E+00 -0.00000000000E+00 -0.16479070186E+04  0.16479070186E+04  0.00000000000E+00 0. -1.
         23    2    1    2    0    0 -0.79004711374E+02 -0.84779446902E+02 -0.15726758611E+03  0.21583393330E+03  0.91770878204E+02 0.  0.
         24    2    1    2    0    0  0.26106559502E+02  0.29604294863E+03 -0.34902823943E+03  0.46536609241E+03  0.80136809042E+02 0.  0.
        -11    1    4    4    0    0  0.20537525933E+02  0.13255618818E+03 -0.99558730490E+02  0.16704751963E+03  0.00000000000E+00 0.  1.
         12    1    4    4    0    0  0.55690335694E+01  0.16348676045E+03 -0.24946950894E+03  0.29831857278E+03  0.00000000000E+00 0. -1.
        -11    1    3    3    0    0 -0.52955246576E+02 -0.82539856182E+02 -0.59667245150E+02  0.11479227388E+03  0.00000000000E+00 0. -1.
         11    1    3    3    0    0 -0.26049464798E+02 -0.22395907197E+01 -0.97600340963E+02  0.10104165942E+03  0.00000000000E+00 0.  1.
          1    1    1    2  501    0  0.52898151872E+02 -0.21126350173E+03 -0.10429106766E+04  0.10654075093E+04  0.00000000000E+00 0. -1.
<scales pt_clust_5="13000.00000" pt_clust_6="13000.00000" pt_clust_7="13000.00000" pt_clust_8="13000.00000" pt_clust_9="272.45060"></scales>
<clustering>
<clus scale="   80.137">  5  6 -1 -1</clus>
<clus scale="   91.771">  7  8 -1 -1</clus>
<clus scale="  147.822">  2  7  1 -1</clus>
<clus scale="  272.451">  1  9  2 -1</clus>
<clus scale="  272.451">  1  5  2 -1</clus>
</clustering>
</event>
<event>
 9    2  0.1751298E-004  0.1263921E+03  0.7546771E-02  0.1235804E+00
          2   -1    0    0  502    0 -0.00000000000E+00  0.00000000000E+00  0.10504631539E+04  0.10504631539E+04  0.00000000000E+00 0. -1.
         21   -1    0    0  501  502  0.00000000000E+00 -0.00000000000E+00 -0.20247053789E+02  0.20247053789E+02  0.00000000000E+00 0.  1.
         24    2    1    2    0    0  0.76488165569E+02  0.26285198141E+02  0.46014407553E+03  0.47406561128E+03  0.80400761422E+02 0.  0.
         23    2    1    2    0    0 -0.83509294473E+02 -0.48866936001E+02  0.54950305936E+03  0.56530271603E+03  0.90839247082E+02 0.  0.
        -11    1    3    3    0    0  0.31181760113E+02  0.47889517032E+02  0.16336236038E+03  0.17306926011E+03  0.00000000000E+00 0.  1.
         12    1    3    3    0    0  0.45306405456E+02 -0.21604318891E+02  0.29678171515E+03  0.30099635117E+03  0.00000000000E+00 0. -1.
        -13    1    4    4    0    0  0.31240536912E+01 -0.44817606477E+02  0.22277098962E+03  0.22725600405E+03  0.00000000000E+00 0.  1.
         13    1    4    4    0    0 -0.86633348164E+02 -0.40493295236E+01  0.32673206974E+03  0.33804671198E+03  0.00000000000E+00 0. -1.
          1    1    1    2  501    0  0.70211289040E+01  0.22581737859E+02  0.20568965238E+02  0.31341880397E+02  0.00000000000E+00 0. -1.
<scales pt_clust_5="13000.00000" pt_clust_6="13000.00000" pt_clust_7="13000.00000" pt_clust_8="13000.00000" pt_clust_9="23.64807"></scales>
<clustering>
<clus scale="   23.648">  2  9  1 -1</clus>
<clus scale="   80.401">  5  6 -1 -1</clus>
<clus scale="   90.839">  7  8 -1 -1</clus>
<clus scale="  119.111">  1  5  2 -1</clus>
<clus scale="   23.648">  2  5  1 -1</clus>
</clustering>
</event>
<event>
 9    2  0.1751298E-004  0.9087605E+02  0.7546771E-02  0.1306679E+00
         21   -1    0    0  501  502  0.00000000000E+00  0.00000000000E+00  0.29439563100E+03  0.29439563100E+03  0.00000000000E+00 0. -1.
          2   -1    0    0  502    0 -0.00000000000E+00 -0.00000000000E+00 -0.29851400880E+03  0.29851400880E+03  0.00000000000E+00 0. -1.
         24    2    1    2    0    0  0.13574248603E+02 -0.12022969626E+02 -0.25703164702E+03  0.26988864398E+03  0.80285743152E+02 0.  0.
         23    2    1    2    0    0  0.21567359261E+02 -0.19816820362E+02  0.36130668040E+02  0.10111245384E+03  0.89779985481E+02 0.  0.
        -13    1    3    3    0    0 -0.26198098775E+02 -0.28832547583E+02 -0.13065124748E+03  0.13633563235E+03  0.00000000000E+00 0.  1.
         14    1    3    3    0    0  0.39772347378E+02  0.16809577957E+02 -0.12638039954E+03  0.13355301163E+03  0.00000000000E+00 0. -1.
        -11    1    4    4    0    0  0.55283369017E+02 -0.41787479408E+01  0.31209699391E+02  0.63621994312E+02  0.00000000000E+00 0. -1.
         11    1    4    4    0    0 -0.33716009755E+02 -0.15638072421E+02  0.49209686491E+01  0.37490459524E+02  0.00000000000E+00 0.  1.
          1    1    1    2  501    0 -0.35141607864E+02  0.31839789988E+02  0.21678260118E+03  0.22190854198E+03  0.00000000000E+00 0. -1.
<scales pt_clust_5="13000.00000" pt_clust_6="13000.00000" pt_clust_7="13000.00000" pt_clust_8="13000.00000" pt_clust_9="47.42051"></scales>
<clustering>
<clus scale="   47.421">  1  9  2 -1</clus>
<clus scale="   80.286">  5  6 -1 -1</clus>
<clus scale="   81.510">  2  5  1 -1</clus>
<clus scale="   89.780">  7  8 -1 -1</clus>
<clus scale="   47.421">  1  5  2 -1</clus>
</clustering>
</event>
<event>
 9    2  0.1751298E-004  0.9176532E+02  0.7546771E-02  0.1306954E+00
         21   -1    0    0  501  502  0.00000000000E+00  0.00000000000E+00  0.11133740136E+03  0.11133740136E+03  0.00000000000E+00 0.  1.
          4   -1    0    0  502    0 -0.00000000000E+00 -0.00000000000E+00 -0.18633826039E+03  0.18633826039E+03  0.00000000000E+00 0. -1.
         23    2    1    2    0    0 -0.52442024933E+01 -0.90792160312E+01 -0.86337064858E+02  0.12599493489E+03  0.91163046388E+02 0.  0.
         24    2    1    2    0    0 -0.25458621180E+02  0.16689586789E+02  0.67250341081E+02  0.10743921657E+03  0.78063392068E+02 0.  0.
        -11    1    4    4    0    0 -0.15313192956E+02  0.29120695184E+02  0.80285821184E+02  0.86765902575E+02  0.00000000000E+00 0.  1.
         12    1    4    4    0    0 -0.10145428224E+02 -0.12431108395E+02 -0.13035480104E+02  0.20673313990E+02  0.00000000000E+00 0. -1.
        -11    1    3    3    0    0 -0.11035046166E+02 -0.49590540628E+02 -0.49603086786E+02  0.71003240647E+02  0.00000000000E+00 0.  1.
         11    1    3    3    0    0  0.57908436729E+01  0.40511324597E+02 -0.36733978072E+02  0.54991694246E+02  0.00000000000E+00 0. -1.
          3    1    1    2  501    0  0.30702823674E+02 -0.76103707576E+01 -0.55914135248E+02  0.64241510296E+02  0.00000000000E+00 0. -1.
<scales pt_clust_5="13000.00000" pt_clust_6="13000.00000" pt_clust_7="13000.00000" pt_clust_8="13000.00000" pt_clust_9="31.63198"></scales>
<clustering>
<clus scale="   31.632">  1  9  2 -1</clus>
<clus scale="   78.063">  5  6 -1 -1</clus>
<clus scale="   78.766">  1  5  2 -1</clus>
<clus scale="   91.163">  7  8 -1 -1</clus>
<clus scale="   31.632">  1  5  2 -1</clus>
</clustering>
</event>
<event>
 9    2  0.1751298E-004  0.1155471E+03  0.7546771E-02  0.1254764E+00
         21   -1    0    0  501  502  0.00000000000E+00  0.00000000000E+00  0.67061363725E+02  0.67061363725E+02  0.00000000000E+00 0. -1.
          2   -1    0    0  502    0 -0.00000000000E+00 -0.00000000000E+00 -0.31607314697E+03  0.31607314697E+03  0.00000000000E+00 0. -1.
         24    2    1    2    0    0  0.55833715277E+02 -0.60839856692E+02 -0.19817204294E+03  0.22925690244E+03  0.80421867615E+02 0.  0.
         23    2    1    2    0    0 -0.20661285981E+02  0.33387160002E+02 -0.29538423984E+02  0.10443575943E+03  0.92155944817E+02 0.  0.
        -13    1    3    3    0    0  0.71804387079E+00 -0.20682815607E+02 -0.11052369376E+01  0.20724767722E+02  0.00000000000E+00 0.  1.
         14    1    3    3    0    0  0.55115671406E+02 -0.40157041084E+02 -0.19706680600E+03  0.20853213472E+03  0.00000000000E+00 0. -1.
        -13    1    4    4    0    0 -0.29424942734E+02 -0.26431224373E+02 -0.87933677282E+01  0.40518640066E+02  0.00000000000E+00 0. -1.
         13    1    4    4    0    0  0.87636567530E+01  0.59818384375E+02 -0.20745056256E+02  0.63917119365E+02  0.00000000000E+00 0.  1.
          1    1    1    2  501    0 -0.35172429295E+02  0.27452696690E+02 -0.21301316325E+02  0.49441848825E+02  0.00000000000E+00 0. -1.
<scales pt_clust_5="13000.00000" pt_clust_6="13000.00000" pt_clust_7="13000.00000" pt_clust_8="13000.00000" pt_clust_9="44.61783"></scales>
<clustering>
<clus scale="   44.618">  1  9  2 -1</clus>
<clus scale="   80.422">  5  6 -1 -1</clus>
<clus scale="   92.156">  7  8 -1 -1</clus>
<clus scale="  106.424">  2  5  1 -1</clus>
<clus scale="   44.618">  1  5  2 -1</clus>
</clustering>
</event>
<event>
 9    2  0.1751298E-004  0.1443387E+03  0.7546771E-02  0.1231778E+00
         21   -1    0    0  501  502  0.00000000000E+00  0.00000000000E+00  0.12736567218E+03  0.12736567218E+03  0.00000000000E+00 0. -1.
         -1   -1    0    0    0  501 -0.00000000000E+00 -0.00000000000E+00 -0.27049911698E+03  0.27049911698E+03  0.00000000000E+00 0.  1.
         24    2    1    2    0    0  0.88040424526E+01  0.29706498886E+02 -0.10786660787E+03  0.13849404656E+03  0.81150530498E+02 0.  0.
         23    2    1    2    0    0  0.43176561582E+02  0.76942076127E+02 -0.50419183933E+02  0.13976516009E+03  0.95957841350E+02 0.  0.
        -11    1    3    3    0    0 -0.35155074081E+02  0.28223259856E+01 -0.46532185500E+02  0.58387404849E+02  0.00000000000E+00 0.  1.
         12    1    3    3    0    0  0.43959116534E+02  0.26884172901E+02 -0.61334422371E+02  0.80106641713E+02  0.00000000000E+00 0. -1.
        -11    1    4    4    0    0  0.46664242801E+02  0.30875973438E+02 -0.69977566493E+02  0.89597640060E+02  0.00000000000E+00 0.  1.
         11    1    4    4    0    0 -0.34876812192E+01  0.46066102689E+02  0.19558382560E+02  0.50167520026E+02  0.00000000000E+00 0. -1.
         -2    1    1    2    0  502 -0.51980604035E+02 -0.10664857501E+03  0.15152347003E+02  0.11960558251E+03  0.00000000000E+00 0.  1.
<scales pt_clust_5="13000.00000" pt_clust_6="13000.00000" pt_clust_7="13000.00000" pt_clust_8="13000.00000" pt_clust_9="107.82282"></scales>
<clustering>
<clus scale="   81.151">  5  6 -1 -1</clus>
<clus scale="   86.864">  2  5  1 -1</clus>
<clus scale="   95.958">  7  8 -1 -1</clus>
<clus scale="  107.823">  1  9  2 -1</clus>
<clus scale="  107.823">  1  5  2 -1</clus>
</clustering>
</event>
<event>
 9    2  0.1751298E-004  0.1088658E+03  0.7546771E-02  0.1269342E+00
         21   -1    0    0  501  502  0.00000000000E+00  0.00000000000E+00  0.47122072383E+03  0.47122072383E+03  0.00000000000E+00 0.  1.
         -1   -1    0    0    0  501 -0.00000000000E+00 -0.00000000000E+00 -0.26810208804E+03  0.26810208804E+03  0.00000000000E+00 0.  1.
         24    2    1    2    0    0  0.55297549306E+02  0.18954614040E+02 -0.23604145554E+03  0.25537759858E+03  0.78006748243E+02 0.  0.
         23    2    1    2    0    0 -0.24011758377E+02  0.16215652757E+02  0.95012614563E+02  0.13659346916E+03  0.93759623278E+02 0.  0.
        -13    1    3    3    0    0  0.32501076267E+02  0.48981792431E+02 -0.16105246993E+03  0.17144513414E+03  0.00000000000E+00 0.  1.
         14    1    3    3    0    0  0.22796473039E+02 -0.30027178391E+02 -0.74988985604E+02  0.83932464441E+02  0.00000000000E+00 0. -1.
        -11    1    4    4    0    0 -0.13081188414E+02  0.40756376407E+02  0.55238005002E+01  0.43159148278E+02  0.00000000000E+00 0.  1.
         11    1    4    4    0    0 -0.10930569963E+02 -0.24540723649E+02  0.89488814063E+02  0.93434320885E+02  0.00000000000E+00 0. -1.
         -2    1    1    2    0  502 -0.31285790929E+02 -0.35170266797E+02  0.34414747677E+03  0.34735174412E+03  0.00000000000E+00 0.  1.
<scales pt_clust_5="13000.00000" pt_clust_6="13000.00000" pt_clust_7="13000.00000" pt_clust_8="13000.00000" pt_clust_9="47.07174"></scales>
<clustering>
<clus scale="   47.072">  1  9  2 -1</clus>
<clus scale="   78.007">  5  6 -1 -1</clus>
<clus scale="   93.760">  7  8 -1 -1</clus>
<clus scale="   95.635">  2  5  1 -1</clus>
<clus scale="   47.072">  1  5  2 -1</clus>
</clustering>
</event>
<event>
 9    2  0.1751298E-004  0.1198564E+03  0.7546771E-02  0.1255788E+00
         -1   -1    0    0    0  501 -0.00000000000E+00  0.00000000000E+00  0.74370410666E+02  0.74370410666E+02  0.00000000000E+00 0.  1.
         21   -1    0    0  501  502  0.00000000000E+00 -0.00000000000E+00 -0.35775230167E+03  0.35775230167E+03  0.00000000000E+00 0.  1.
         23    2    1    2    0    0 -0.93177900788E+02 -0.23217973117E+02 -0.50482824246E+02  0.14220400168E+03  0.91936212005E+02 0.  0.
         24    2    1    2    0    0  0.50662961492E+02 -0.48114893143E+02 -0.14086427923E+03  0.16595782978E+03  0.53079916109E+02 0.  0.
        -13    1    4    4    0    0  0.55341597188E+02 -0.54765473307E+02 -0.13530728272E+03  0.15610896900E+03  0.00000000000E+00 0.  1.
         14    1    4    4    0    0 -0.46786356953E+01  0.66505801637E+01 -0.55569965105E+01  0.98488607819E+01  0.00000000000E+00 0. -1.
        -13    1    3    3    0    0 -0.35203849514E+02  0.20024189674E+02 -0.56625935791E+02  0.69618789108E+02  0.00000000000E+00 0. -1.
         13    1    3    3    0    0 -0.57974051275E+02 -0.43242162791E+02  0.61431115448E+01  0.72585212568E+02  0.00000000000E+00 0.  1.
         -2    1    1    2    0  502  0.42514939296E+02  0.71332866260E+02 -0.92034787528E+02  0.12396088088E+03  0.00000000000E+00 0.  1.
<scales pt_clust_5="13000.00000" pt_clust_6="13000.00000" pt_clust_7="13000.00000" pt_clust_8="13000.00000" pt_clust_9="83.04154"></scales>
<clustering>
<clus scale="   53.080">  5  6 -1 -1</clus>
<clus scale="   83.042">  2  9  1 -1</clus>
<clus scale="   91.936">  7  8 -1 -1</clus>
<clus scale="   93.439">  2  5  1 -1</clus>
<clus scale="   83.042">  2  5  1 -1</clus>
</clustering>
</event>
<event>
 9    2  0.1751298E-004  0.1005813E+03  0.7546771E-02  0.1289438E+00
          2   -1    0    0  502    0 -0.00000000000E+00  0.00000000000E+00  0.11341895908E+03  0.11341895908E+03  0.00000000000E+00 0. -1.
         21   -1    0    0  501  502  0.00000000000E+00 -0.00000000000E+00 -0.15431885324E+03  0.15431885324E+03  0.00000000000E+00 0. -1.
         24    2    1    2    0    0 -0.84507588386E+01 -0.17007421193E+01  0.25353294652E+02  0.84742667456E+02  0.80400387369E+02 0.  0.
         23    2    1    2    0    0  0.54539348199E+02 -0.19672377652E+02 -0.66111055148E+02  0.13219171466E+03  0.98703773325E+02 0.  0.
        -13    1    3    3    0    0 -0.23851904438E+02 -0.34553885686E+02  0.29294414465E+01  0.42088786969E+02  0.00000000000E+00 0.  1.
         14    1    3    3    0    0  0.15401145600E+02  0.32853143567E+02  0.22423853206E+02  0.42653880487E+02  0.00000000000E+00 0. -1.
        -13    1    4    4    0    0  0.50442848817E+02  0.20101059701E+02  0.72895438974E+00  0.54305294147E+02  0.00000000000E+00 0. -1.
         13    1    4    4    0    0  0.40964993823E+01 -0.39773437352E+02 -0.66840009538E+02  0.77886420517E+02  0.00000000000E+00 0.  1.
          1    1    1    2  501    0 -0.46088589361E+02  0.21373119771E+02 -0.14213366867E+00  0.50803430199E+02  0.00000000000E+00 0. -1.
<scales pt_clust_5="13000.00000" pt_clust_6="13000.00000" pt_clust_7="13000.00000" pt_clust_8="13000.00000" pt_clust_9="50.80326"></scales>
<clustering>
<clus scale="   50.803">  2  9  1 -1</clus>
<clus scale="   80.400">  5  6 -1 -1</clus>
<clus scale="   82.695">  1  5  2 -1</clus>
<clus scale="   98.704">  7  8 -1 -1</clus>
<clus scale="   50.803">  2  5  1 -1</clus>
</clustering>
</event>
<event>
 9    2  0.1751298E-004  0.1507030E+03  0.7546771E-02  0.1202135E+00
         -3   -1    0    0    0  501 -0.00000000000E+00  0.00000000000E+00  0.18314538573E+03  0.18314538573E+03  0.00000000000E+00 0.  1.
         21   -1    0    0  501  502  0.00000000000E+00 -0.00000000000E+00 -0.14179057172E+03  0.14179057172E+03  0.00000000000E+00 0.  1.
         23    2    1    2    0    0 -0.30342378779E+02  0.12213359449E+03  0.34024072703E+02  0.16038789388E+03  0.93431066180E+02 0.  0.
         24    2    1    2    0    0  0.40508123051E+02 -0.10227521628E+03 -0.10007026232E+02  0.13629393600E+03  0.79842147512E+02 0.  0.
        -13    1    4    4    0    0  0.36093796055E+02 -0.11186439492E+03 -0.22772717597E+02  0.11972886716E+03  0.00000000000E+00 0.  1.
         14    1    4    4    0    0  0.44143269955E+01  0.95891786399E+01  0.12765691365E+02  0.16565068845E+02  0.00000000000E+00 0. -1.
        -13    1    3    3    0    0  0.97036235659E+01  0.11578198474E+03  0.24787142473E+02  0.11880248622E+03  0.00000000000E+00 0.  1.
         13    1    3    3    0    0 -0.40046002345E+02  0.63516097510E+01  0.92369302292E+01  0.41585407661E+02  0.00000000000E+00 0. -1.
         -4    1    1    2    0  502 -0.10165744272E+02 -0.19858378208E+02  0.17337767540E+02  0.28254127574E+02  0.00000000000E+00 0.  1.
<scales pt_clust_5="13000.00000" pt_clust_6="13000.00000" pt_clust_7="13000.00000" pt_clust_8="13000.00000" pt_clust_9="22.30915"></scales>
<clustering>
<clus scale="   22.309">  2  9  1 -1</clus>
<clus scale="   79.842">  5  6 -1 -1</clus>
<clus scale="   93.431">  7  8 -1 -1</clus>
<clus scale="  142.677">  2  5  1 -1</clus>
<clus scale="   22.309">  2  5  1 -1</clus>
</clustering>
</event>
<event>
 9    2  0.1751298E-004  0.9194496E+02  0.7546771E-02  0.1305469E+00
          2   -1    0    0  502    0 -0.00000000000E+00  0.00000000000E+00  0.87678282058E+02  0.87678282058E+02  0.00000000000E+00 0. -1.
         21   -1    0    0  501  502  0.00000000000E+00 -0.00000000000E+00 -0.27448157725E+03  0.27448157725E+03  0.00000000000E+00 0. -1.
         23    2    1    2    0    0 -0.11564306625E+02 -0.26947794310E+01  0.48641582283E+02  0.10421700988E+03  0.91401239585E+02 0.  0.
         24    2    1    2    0    0 -0.84651140523E+01  0.12203505922E+02 -0.20305721855E+03  0.21869295742E+03  0.79836031374E+02 0.  0.
        -13    1    4    4    0    0  0.32068435955E+02  0.22708247057E+02 -0.10168159885E+03  0.10901007574E+03  0.00000000000E+00 0.  1.
         14    1    4    4    0    0 -0.40533550007E+02 -0.10504741134E+02 -0.10137561970E+03  0.10968288168E+03  0.00000000000E+00 0. -1.
        -13    1    3    3    0    0 -0.38130081784E+02  0.30073698355E+02  0.16880542097E+02  0.51412869703E+02  0.00000000000E+00 0. -1.
         13    1    3    3    0    0  0.26565775159E+02 -0.32768477786E+02  0.31761040186E+02  0.52804140178E+02  0.00000000000E+00 0.  1.
          1    1    1    2  501    0  0.20029420677E+02 -0.95087264913E+01 -0.32387658923E+02  0.39249892008E+02  0.00000000000E+00 0. -1.
<scales pt_clust_5="13000.00000" pt_clust_6="13000.00000" pt_clust_7="13000.00000" pt_clust_8="13000.00000" pt_clust_9="22.17191"></scales>
<clustering>
<clus scale="   22.172">  2  9  1 -1</clus>
<clus scale="   79.836">  5  6 -1 -1</clus>
<clus scale="   80.458">  2  5  1 -1</clus>
<clus scale="   91.401">  7  8 -1 -1</clus>
<clus scale="   22.172">  2  5  1 -1</clus>
</clustering>
</event>
<event>
 9    2  0.1751298E-004  0.1603251E+03  0.7546771E-02  0.1210140E+00
         21   -1    0    0  501  502  0.00000000000E+00  0.00000000000E+00  0.16625419710E+03  0.16625419710E+03  0.00000000000E+00 0.  1.
          2   -1    0    0  502    0 -0.00000000000E+00 -0.00000000000E+00 -0.64301237224E+03  0.64301237224E+03  0.00000000000E+00 0. -1.
         24    2    1    2    0    0  0.21414860953E+02  0.49784587338E+02 -0.45854874452E+03  0.46927671183E+03  0.83765027035E+02 0.  0.
         23    2    1    2    0    0 -0.69561527353E+01  0.11763357032E+03  0.52524461510E+02  0.15766822618E+03  0.90633357888E+02 0.  0.
        -13    1    3    3    0    0  0.49097246020E+02  0.11076523086E+02 -0.19051639265E+03  0.19705259399E+03  0.00000000000E+00 0.  1.
         14    1    3    3    0    0 -0.27682385067E+02  0.38708064253E+02 -0.26803235187E+03  0.27222411783E+03  0.00000000000E+00 0. -1.
        -11    1    4    4    0    0 -0.33404247341E+02  0.93910290332E+02  0.66137354295E+02  0.11962080088E+03  0.00000000000E+00 0.  1.
         11    1    4    4    0    0  0.26448094606E+02  0.23723279989E+02 -0.13612892785E+02  0.38047425297E+02  0.00000000000E+00 0. -1.
          1    1    1    2  501    0 -0.14458708218E+02 -0.16741815766E+03 -0.70733892125E+02  0.18232163133E+03  0.00000000000E+00 0. -1.
<scales pt_clust_5="13000.00000" pt_clust_6="13000.00000" pt_clust_7="13000.00000" pt_clust_8="13000.00000" pt_clust_9="132.24882"></scales>
<clustering>
<clus scale="   83.765">  5  6 -1 -1</clus>
<clus scale="   90.633">  7  8 -1 -1</clus>
<clus scale="   99.768">  2  5  1 -1</clus>
<clus scale="  132.249">  1  9  2 -1</clus>
<clus scale="  132.249">  1  5  2 -1</clus>
</clustering>
</event>
<event>
 9    2  0.3694069E-004  0.2363016E+03  0.7546771E-02  0.1146903E+00
         -3   -1    0    0    0  501 -0.00000000000E+00  0.00000000000E+00  0.60893753547E+03  0.60893753547E+03  0.00000000000E+00 0.  1.
         21   -1    0    0  501  502  0.00000000000E+00 -0.00000000000E+00 -0.50929080549E+03  0.50929080549E+03  0.00000000000E+00 0.  1.
         23    2    1    2    0    0  0.80015120030E+02  0.10534134716E+02  0.30244208709E+03  0.32908526379E+03  0.10155051637E+03 0.  0.
         24    2    1    2    0    0 -0.13260053869E+03 -0.18274609263E+03 -0.43357729306E+03  0.49642736754E+03  0.86439718615E+02 0.  0.
        -13    1    4    4    0    0 -0.48190172570E+02 -0.50795539348E+02 -0.63334044372E+02  0.94412291183E+02  0.00000000000E+00 0.  1.
         14    1    4    4    0    0 -0.84410366117E+02 -0.13195055328E+03 -0.37024324869E+03  0.40201507636E+03  0.00000000000E+00 0. -1.
        -13    1    3    3    0    0 -0.88320748763E+01  0.29552002069E+02  0.35105844038E+02  0.46730575200E+02  0.00000000000E+00 0. -1.
         13    1    3    3    0    0  0.88847194907E+02 -0.19017867352E+02  0.26733624305E+03  0.28235468859E+03  0.00000000000E+00 0.  1.
         -4    1    1    2    0  502  0.52585418657E+02  0.17221195791E+03  0.23078193594E+03  0.29271570963E+03  0.00000000000E+00 0.  1.
<scales pt_clust_5="13000.00000" pt_clust_6="13000.00000" pt_clust_7="13000.00000" pt_clust_8="13000.00000" pt_clust_9="219.92423"></scales>
<clustering>
<clus scale="   86.440">  5  6 -1 -1</clus>
<clus scale="  101.551">  7  8 -1 -1</clus>
<clus scale="  129.715">  1  7  2 -1</clus>
<clus scale="  219.924">  2  9  1 -1</clus>
<clus scale="  219.924">  2  5  1 -1</clus>
</clustering>
</event>
<event>
 9    2  0.1751298E-004  0.1307033E+03  0.7546771E-02  0.1243873E+00
         21   -1    0    0  501  502  0.00000000000E+00  0.00000000000E+00  0.24600481182E+03  0.24600481182E+03  0.00000000000E+00 0. -1.
          2   -1    0    0  502    0 -0.00000000000E+00 -0.00000000000E+00 -0.14739915712E+03  0.14739915712E+03  0.00000000000E+00 0. -1.
         24    2    1    2    0    0 -0.36803146241E+02  0.22425050658E+02 -0.54672339808E+02  0.10652477476E+03  0.80629451366E+02 0.  0.
         23    2    1    2    0    0  0.77675655036E+02  0.60309183981E+02  0.13956247775E+03  0.19358594171E+03  0.91253090758E+02 0.  0.
        -11    1    3    3    0    0 -0.53484079067E+02  0.14239783445E+01 -0.10014287598E+02  0.54432163140E+02  0.00000000000E+00 0.  1.
         12    1    3    3    0    0  0.16680932826E+02  0.21001072314E+02 -0.44658052210E+02  0.52092611621E+02  0.00000000000E+00 0. -1.
        -11    1    4    4    0    0  0.95805877608E+00 -0.21328751568E+02  0.30556867674E+02  0.37276744521E+02  0.00000000000E+00 0.  1.
         11    1    4    4    0    0  0.76717596260E+02  0.81637935549E+02  0.10900561007E+03  0.15630919718E+03  0.00000000000E+00 0. -1.
          1    1    1    2  501    0 -0.40872508795E+02 -0.82734234639E+02  0.13715516758E+02  0.93293252471E+02  0.00000000000E+00 0. -1.
<scales pt_clust_5="13000.00000" pt_clust_6="13000.00000" pt_clust_7="13000.00000" pt_clust_8="13000.00000" pt_clust_9="93.57482"></scales>
<clustering>
<clus scale="   80.629">  5  6 -1 -1</clus>
<clus scale="   91.253">  7  8 -1 -1</clus>
<clus scale="   91.425">  2  5  1 -1</clus>
<clus scale="   93.575">  1  9  2 -1</clus>
<clus scale="   93.575">  1  5  2 -1</clus>
</clustering>
</event>
<event>
 9    2  0.1751298E-004  0.1265937E+03  0.7546771E-02  0.1234327E+00
          2   -1    0    0  502    0 -0.00000000000E+00  0.00000000000E+00  0.90460372272E+03  0.90460372272E+03  0.00000000000E+00 0. -1.
         21   -1    0    0  501  502  0.00000000000E+00 -0.00000000000E+00 -0.37131078645E+02  0.37131078645E+02  0.00000000000E+00 0. -1.
         23    2    1    2    0    0 -0.75062847304E+02 -0.62750413391E+02  0.50282877076E+03  0.51961516035E+03  0.87126900168E+02 0.  0.
         24    2    1    2    0    0  0.95462174576E+02  0.37085547107E+01  0.32482848062E+03  0.34804306493E+03  0.80583205890E+02 0.  0.
        -13    1    4    4    0    0  0.10315196481E+03 -0.57867964659E+01  0.22639822217E+03  0.24885732832E+03  0.00000000000E+00 0.  1.
         14    1    4    4    0    0 -0.76897902377E+01  0.94953511767E+01  0.98430258450E+02  0.99185736607E+02  0.00000000000E+00 0. -1.
        -11    1    3    3    0    0 -0.15603481098E+02 -0.68361045926E+02  0.30565632535E+03  0.31359606255E+03  0.00000000000E+00 0. -1.
         11    1    3    3    0    0 -0.59459366206E+02  0.56106325349E+01  0.19717244541E+03  0.20601909780E+03  0.00000000000E+00 0.  1.
          1    1    1    2  501    0 -0.20399327272E+02  0.59041858680E+02  0.39815392699E+02  0.74076576091E+02  0.00000000000E+00 0. -1.
<scales pt_clust_5="13000.00000" pt_clust_6="13000.00000" pt_clust_7="13000.00000" pt_clust_8="13000.00000" pt_clust_9="62.46658"></scales>
<clustering>
<clus scale="   62.467">  2  9  1 -1</clus>
<clus scale="   80.583">  5  6 -1 -1</clus>
<clus scale="   87.127">  7  8 -1 -1</clus>
<clus scale="  122.182">  2  5  1 -1</clus>
<clus scale="   62.467">  2  5  1 -1</clus>
</clustering>
</event>
<event>
 9    2  0.1751298E-004  0.2937395E+03  0.7546771E-02  0.1114343E+00
          2   -1    0    0  502    0 -0.00000000000E+00  0.00000000000E+00  0.10094383818E+04  0.10094383818E+04  0.00000000000E+00 0. -1.
         21   -1    0    0  501  502  0.00000000000E+00 -0.00000000000E+00 -0.16575658165E+03  0.16575658165E+03  0.00000000000E+00 0. -1.
         24    2    1    2    0    0 -0.11645121121E+03 -0.37294408459E+02  0.67356160578E+02  0.16454642253E+03  0.87102900657E+02 0.  0.
         23    2    1    2    0    0 -0.14662549812E+03 -0.12797566205E+03  0.63250287866E+03  0.66829121624E+03  0.93147471318E+02 0.  0.
        -11    1    3    3    0    0 -0.96282898360E+02 -0.62794769437E+00  0.74947696067E+02  0.12201617918E+03  0.00000000000E+00 0.  1.
         12    1    3    3    0    0 -0.20168312854E+02 -0.36666460764E+02 -0.75915354891E+01  0.42530243351E+02  0.00000000000E+00 0. -1.
        -13    1    4    4    0    0  0.54050878662E+01 -0.39005844163E+02  0.10398425891E+03  0.11119081327E+03  0.00000000000E+00 0.  1.
         13    1    4    4    0    0 -0.15203058599E+03 -0.88969817890E+02  0.52851861975E+03  0.55710040298E+03  0.00000000000E+00 0. -1.
          1    1    1    2  501    0  0.26307670933E+03  0.16527007051E+03  0.14382276090E+03  0.34235732467E+03  0.00000000000E+00 0. -1.
<scales pt_clust_5="13000.00000" pt_clust_6="13000.00000" pt_clust_7="13000.00000" pt_clust_8="13000.00000" pt_clust_9="278.57932"></scales>
<clustering>
<clus scale="   87.103">  5  6 -1 -1</clus>
<clus scale="   93.147">  7  8 -1 -1</clus>
<clus scale="  150.129">  1  5  2 -1</clus>
<clus scale="  278.579">  2  9  1 -1</clus>
<clus scale="  278.579">  2  5  1 -1</clus>
</clustering>
</event>
<event>
 9    2  0.1751298E-004  0.1269265E+03  0.7546771E-02  0.1236118E+00
          2   -1    0    0  502    0 -0.00000000000E+00  0.00000000000E+00  0.36834862356E+03  0.36834862356E+03  0.00000000000E+00 0. -1.
         21   -1    0    0  501  502  0.00000000000E+00 -0.00000000000E+00 -0.10397995433E+03  0.10397995433E+03  0.00000000000E+00 0. -1.
         23    2    1    2    0    0 -0.10110575775E+03  0.11161777842E+02  0.21421820398E+03  0.25425257268E+03  0.91694995841E+02 0.  0.
         24    2    1    2    0    0  0.35425079730E+02 -0.79963688739E+02  0.20325566604E+02  0.11839060515E+03  0.77162678404E+02 0.  0.
        -13    1    4    4    0    0  0.12003946894E+01 -0.61045211778E+02  0.41591315858E+02  0.73876900200E+02  0.00000000000E+00 0.  1.
         14    1    4    4    0    0  0.34224685041E+02 -0.18918476961E+02 -0.21265749254E+02  0.44513704946E+02  0.00000000000E+00 0. -1.
        -11    1    3    3    0    0 -0.27403148706E+02  0.33846016733E+02  0.25686852503E+02  0.50559863521E+02  0.00000000000E+00 0.  1.
         11    1    3    3    0    0 -0.73702609039E+02 -0.22684238891E+02  0.18853135148E+03  0.20369270916E+03  0.00000000000E+00 0. -1.
          1    1    1    2  501    0  0.65680678015E+02  0.68801910897E+02  0.29824898651E+02  0.99685400070E+02  0.00000000000E+00 0. -1.
<scales pt_clust_5="13000.00000" pt_clust_6="13000.00000" pt_clust_7="13000.00000" pt_clust_8="13000.00000" pt_clust_9="95.11916"></scales>
<clustering>
<clus scale="   77.163">  5  6 -1 -1</clus>
<clus scale="   91.695">  7  8 -1 -1</clus>
<clus scale="   95.119">  2  9  1 -1</clus>
<clus scale="  116.861">  2  5  1 -1</clus>
<clus scale="   95.119">  2  5  1 -1</clus>
</clustering>
</event>
<event>
 9    2  0.1751298E-004  0.7708360E+03  0.7546771E-02  0.9603217E-01
         21   -1    0    0  501  502  0.00000000000E+00  0.00000000000E+00  0.70902130370E+03  0.70902130370E+03  0.00000000000E+00 0.  1.
          2   -1    0    0  502    0 -0.00000000000E+00 -0.00000000000E+00 -0.76374185263E+03  0.76374185263E+03  0.00000000000E+00 0. -1.
         24    2    1    2    0    0 -0.38475659684E+03 -0.24298874210E+03  0.15051939681E+03  0.48713083051E+03  0.86943600204E+02 0.  0.
         23    2    1    2    0    0 -0.16720451705E+02 -0.28183965447E+03 -0.95579703213E+01  0.29648785485E+03  0.90002938500E+02 0.  0.
        -13    1    3    3    0    0 -0.35205185432E+03 -0.24714265887E+03  0.14330498758E+03  0.45338319492E+03  0.00000000000E+00 0.  1.
         14    1    3    3    0    0 -0.32704742516E+02  0.41539167691E+01  0.72144092252E+01  0.33747635592E+02  0.00000000000E+00 0. -1.
        -11    1    4    4    0    0 -0.34554638605E+02 -0.10094883615E+03  0.29223990865E+02  0.11062880372E+03  0.00000000000E+00 0.  1.
         11    1    4    4    0    0  0.17834186899E+02 -0.18089081832E+03 -0.38781961187E+02  0.18585905113E+03  0.00000000000E+00 0. -1.
          1    1    1    2  501    0  0.40147704855E+03  0.52482839657E+03 -0.19568197542E+03  0.68914447097E+03  0.00000000000E+00 0. -1.
<scales pt_clust_5="13000.00000" pt_clust_6="13000.00000" pt_clust_7="13000.00000" pt_clust_8="13000.00000" pt_clust_9="660.77916"></scales>
<clustering>
<clus scale="   86.944">  5  6 -1 -1</clus>
<clus scale="   90.003">  7  8 -1 -1</clus>
<clus scale="  291.322">  5  7 -1 -1</clus>
<clus scale="  660.779">  1  9  2 -1</clus>
<clus scale="  660.779">  1  5  2 -1</clus>
</clustering>
</event>
<event>
 9    2  0.1751298E-004  0.1994926E+03  0.7546771E-02  0.1150756E+00
          2   -1    0    0  502    0 -0.00000000000E+00  0.00000000000E+00  0.11961530303E+04  0.11961530303E+04  0.00000000000E+00 0. -1.
         21   -1    0    0  501  502  0.00000000000E+00 -0.00000000000E+00 -0.10235053793E+03  0.10235053793E+03  0.00000000000E+00 0.  1.
         24    2    1    2    0    0 -0.13645809323E+03  0.12293688355E+03  0.10322798783E+04  0.10515621268E+04  0.80292408948E+02 0.  0.
         23    2    1    2    0    0  0.12571695986E+03 -0.94375512966E+02  0.93729268271E+02  0.20257487282E+03  0.86832666230E+02 0.  0.
        -13    1    3    3    0    0 -0.76993877121E+02  0.70031187015E+02  0.36489934820E+03  0.37945218221E+03  0.00000000000E+00 0.  1.
         14    1    3    3    0    0 -0.59464216113E+02  0.52905696538E+02  0.66738053008E+03  0.67210994461E+03  0.00000000000E+00 0. -1.
        -11    1    4    4    0    0  0.62204909750E+01 -0.26926463325E+02 -0.11216725161E+02  0.29825221852E+02  0.00000000000E+00 0. -1.
         11    1    4    4    0    0  0.11949646888E+03 -0.67449049640E+02  0.10494599343E+03  0.17274965097E+03  0.00000000000E+00 0.  1.
          1    1    1    2  501    0  0.10741133375E+02 -0.28561370587E+02 -0.32206654165E+02  0.44366568590E+02  0.00000000000E+00 0. -1.
<scales pt_clust_5="13000.00000" pt_clust_6="13000.00000" pt_clust_7="13000.00000" pt_clust_8="13000.00000" pt_clust_9="30.51432"></scales>
<clustering>
<clus scale="   30.514">  2  9  1 -1</clus>
<clus scale="   80.292">  5  6 -1 -1</clus>
<clus scale="   86.833">  7  8 -1 -1</clus>
<clus scale="  196.734">  1  5  2 -1</clus>
<clus scale="   30.514">  2  5  1 -1</clus>
</clustering>
</event>
<event>
 9    2  0.1751298E-004  0.1111051E+03  0.7546771E-02  0.1263171E+00
         21   -1    0    0  501  502  0.00000000000E+00  0.00000000000E+00  0.52803181827E+02  0.52803181827E+02  0.00000000000E+00 0.  1.
          2   -1    0    0  502    0 -0.00000000000E+00 -0.00000000000E+00 -0.58529138541E+03  0.58529138541E+03  0.00000000000E+00 0. -1.
         24    2    1    2    0    0 -0.60756548530E+02  0.35652331704E+02 -0.42664236315E+03  0.43962492739E+03  0.79271204131E+02 0.  0.
         23    2    1    2    0    0  0.36034470343E+02  0.17327598266E+02 -0.32861518652E+02  0.10495618971E+03  0.91308234222E+02 0.  0.
        -13    1    3    3    0    0 -0.26999451593E+02  0.21417623840E+02 -0.47330411424E+02  0.58547867962E+02  0.00000000000E+00 0.  1.
         14    1    3    3    0    0 -0.33757096937E+02  0.14234707864E+02 -0.37931195173E+03  0.38107705943E+03  0.00000000000E+00 0. -1.
        -13    1    4    4    0    0  0.62513085036E+02  0.21447962215E+02 -0.49685755989E+01  0.66276599395E+02  0.00000000000E+00 0.  1.
         13    1    4    4    0    0 -0.26478614693E+02 -0.41203639490E+01 -0.27892943053E+02  0.38679590320E+02  0.00000000000E+00 0. -1.
          1    1    1    2  501    0  0.24722078188E+02 -0.52979929969E+02 -0.72984321777E+02  0.93513450127E+02  0.00000000000E+00 0. -1.
<scales pt_clust_5="13000.00000" pt_clust_6="13000.00000" pt_clust_7="13000.00000" pt_clust_8="13000.00000" pt_clust_9="58.46413"></scales>
<clustering>
<clus scale="   58.464">  1  9  2 -1</clus>
<clus scale="   79.271">  5  6 -1 -1</clus>
<clus scale="   91.308">  7  8 -1 -1</clus>
<clus scale="  101.445">  2  5  1 -1</clus>
<clus scale="   58.464">  1  5  2 -1</clus>
</clustering>
</event>
<event>
 9    2  0.1751298E-004  0.1400420E+03  0.7546771E-02  0.1214805E+00
          2   -1    0    0  502    0 -0.00000000000E+00  0.00000000000E+00  0.13390406152E+04  0.13390406152E+04  0.00000000000E+00 0. -1.
         21   -1    0    0  501  502  0.00000000000E+00 -0.00000000000E+00 -0.47494192667E+02  0.47494192667E+02  0.00000000000E+00 0.  1.
         24    2    1    2    0    0 -0.99646101805E+02  0.32525565442E+02  0.51255798046E+03  0.53032440646E+03  0.86839131367E+02 0.  0.
         23    2    1    2    0    0  0.11911788097E+03  0.10154421002E+03  0.24588342456E+03  0.30616057224E+03  0.93676792031E+02 0.  0.
        -13    1    3    3    0    0 -0.10716300914E+03  0.48370327119E+02  0.42139197849E+03  0.43748691250E+03  0.00000000000E+00 0.  1.
         14    1    3    3    0    0  0.75169073366E+01 -0.15844761677E+02  0.91166001978E+02  0.92837493962E+02  0.00000000000E+00 0. -1.
        -13    1    4    4    0    0  0.37379890273E+02 -0.79143629585E+00  0.11530919820E+03  0.12121919715E+03  0.00000000000E+00 0.  1.
         13    1    4    4    0    0  0.81737990693E+02  0.10233564632E+03  0.13057422636E+03  0.18494137509E+03  0.00000000000E+00 0. -1.
          1    1    1    2  501    0 -0.19471779160E+02 -0.13406977547E+03  0.53310501753E+03  0.55004982919E+03  0.00000000000E+00 0. -1.
<scales pt_clust_5="13000.00000" pt_clust_6="13000.00000" pt_clust_7="13000.00000" pt_clust_8="13000.00000" pt_clust_9="135.47647"></scales>
<clustering>
<clus scale="   86.839">  5  6 -1 -1</clus>
<clus scale="   93.677">  7  8 -1 -1</clus>
<clus scale="  135.476">  2  9  1 -1</clus>
<clus scale="  135.563">  1  5  2 -1</clus>
<clus scale="  135.476">  2  5  1 -1</clus>
</clustering>
</event>
<event>
 9    2  0.1751298E-004  0.1271508E+03  0.7546771E-02  0.1234755E+00
         21   -1    0    0  501  502  0.00000000000E+00  0.00000000000E+00  0.50671024007E+03  0.50671024007E+03  0.00000000000E+00 0.  1.
          2   -1    0    0  502    0 -0.00000000000E+00 -0.00000000000E+00 -0.62862566072E+02  0.62862566072E+02  0.00000000000E+00 0. -1.
         24    2    1    2    0    0  0.90148993996E+02 -0.16907222538E+02  0.12703436830E+03  0.17591261605E+03  0.79967633850E+02 0.  0.
         23    2    1    2    0    0 -0.60996950484E+02  0.79371150414E+02  0.28945379223E+03  0.31949734964E+03  0.90965109272E+02 0.  0.
        -13    1    3    3    0    0  0.77728190771E+02  0.12827101853E+02  0.11897987088E+03  0.14269693710E+03  0.00000000000E+00 0.  1.
         14    1    3    3    0    0  0.12420803225E+02 -0.29734324391E+02  0.80544974259E+01  0.33215678956E+02  0.00000000000E+00 0. -1.
        -13    1    4    4    0    0  0.11933980041E+02  0.46411086595E+02  0.61913687334E+02  0.78292486982E+02  0.00000000000E+00 0. -1.
         13    1    4    4    0    0 -0.72930930525E+02  0.32960063819E+02  0.22754010489E+03  0.24120486266E+03  0.00000000000E+00 0.  1.
          1    1    1    2  501    0 -0.29152043512E+02 -0.62463927876E+02  0.27359513468E+02  0.74162840452E+02  0.00000000000E+00 0. -1.
<scales pt_clust_5="13000.00000" pt_clust_6="13000.00000" pt_clust_7="13000.00000" pt_clust_8="13000.00000" pt_clust_9="68.93177"></scales>
<clustering>
<clus scale="   68.932">  1  9  2 -1</clus>
<clus scale="   79.968">  5  6 -1 -1</clus>
<clus scale="   90.965">  7  8 -1 -1</clus>
<clus scale="  119.530">  2  5  1 -1</clus>
<clus scale="   68.932">  1  5  2 -1</clus>
</clustering>
</event>
<event>
 9    2  0.1751298E-004  0.1674747E+03  0.7546771E-02  0.1212246E+00
          2   -1    0    0  502    0 -0.00000000000E+00  0.00000000000E+00  0.26099524304E+03  0.26099524304E+03  0.00000000000E+00 0. -1.
         21   -1    0    0  501  502  0.00000000000E+00 -0.00000000000E+00 -0.16801535125E+03  0.16801535125E+03  0.00000000000E+00 0. -1.
         24    2    1    2    0    0 -0.12098268375E+02  0.30114812903E+02  0.76185208430E+02  0.11317185731E+03  0.77138921756E+02 0.  0.
         23    2    1    2    0    0  0.61611022985E+02 -0.14178492286E+03 -0.35086104204E+02  0.18312346866E+03  0.91674901481E+02 0.  0.
        -11    1    3    3    0    0 -0.99192580066E+01  0.37271642919E+02  0.20110580817E+01  0.38621385267E+02  0.00000000000E+00 0.  1.
         12    1    3    3    0    0 -0.21790103681E+01 -0.71568300165E+01  0.74174150348E+02  0.74550472044E+02  0.00000000000E+00 0. -1.
        -13    1    4    4    0    0  0.47561589344E+02 -0.72400357873E+02 -0.62910424611E+02  0.10705904037E+03  0.00000000000E+00 0.  1.
         13    1    4    4    0    0  0.14049433641E+02 -0.69384564991E+02  0.27824320407E+02  0.76064428287E+02  0.00000000000E+00 0. -1.
          1    1    1    2  501    0 -0.49512754610E+02  0.11167010996E+03  0.51880787564E+02  0.13271526832E+03  0.00000000000E+00 0. -1.
<scales pt_clust_5="13000.00000" pt_clust_6="13000.00000" pt_clust_7="13000.00000" pt_clust_8="13000.00000" pt_clust_9="140.15532"></scales>
<clustering>
<clus scale="   77.139">  5  6 -1 -1</clus>
<clus scale="   83.688">  1  5  2 -1</clus>
<clus scale="   91.675">  7  8 -1 -1</clus>
<clus scale="  140.155">  2  9  1 -1</clus>
<clus scale="  140.155">  2  5  1 -1</clus>
</clustering>
</event>
<event>
 9    2  0.1751298E-004  0.3232031E+03  0.7546771E-02  0.1074648E+00
          2   -1    0    0  502    0 -0.00000000000E+00  0.00000000000E+00  0.84567301986E+03  0.84567301986E+03  0.00000000000E+00 0. -1.
         21   -1    0    0  501  502  0.00000000000E+00 -0.00000000000E+00 -0.13796891248E+03  0.13796891248E+03  0.00000000000E+00 0. -1.
         23    2    1    2    0    0  0.21359685861E+03  0.23389680615E+03  0.38840361671E+03  0.50967387062E+03  0.92621547096E+02 0.  0.
         24    2    1    2    0    0 -0.19374652929E+03 -0.23019463911E+03  0.24117817362E+03  0.39327829759E+03  0.77289187095E+02 0.  0.
        -11    1    4    4    0    0 -0.62767486422E+02 -0.75433859871E+02  0.12731674314E+03  0.16074693667E+03  0.00000000000E+00 0.  1.
         12    1    4    4    0    0 -0.13097904287E+03 -0.15476077923E+03  0.11386143049E+03  0.23253136092E+03  0.00000000000E+00 0. -1.
        -13    1    3    3    0    0  0.98648731664E+02  0.16436036814E+03  0.18869000541E+03  0.26897922042E+03  0.00000000000E+00 0.  1.
         13    1    3    3    0    0  0.11494812694E+03  0.69536438009E+02  0.19971361129E+03  0.24069465020E+03  0.00000000000E+00 0. -1.
          1    1    1    2  501    0 -0.19850329319E+02 -0.37021670453E+01  0.78122317044E+02  0.80689764129E+02  0.00000000000E+00 0. -1.
<scales pt_clust_5="13000.00000" pt_clust_6="13000.00000" pt_clust_7="13000.00000" pt_clust_8="13000.00000" pt_clust_9="20.19262"></scales>
<clustering>
<clus scale="   20.193">  2  9  1 -1</clus>
<clus scale="   77.289">  5  6 -1 -1</clus>
<clus scale="   92.622">  7  8 -1 -1</clus>
<clus scale="  319.147">  2  5  1 -1</clus>
<clus scale="   20.193">  2  5  1 -1</clus>
</clustering>
</event>
<event>
 9    2  0.1751298E-004  0.1699597E+03  0.7546771E-02  0.1179385E+00
         -1   -1    0    0    0  501 -0.00000000000E+00  0.00000000000E+00  0.97576420594E+03  0.97576420594E+03  0.00000000000E+00 0.  1.
         21   -1    0    0  501  502  0.00000000000E+00 -0.00000000000E+00 -0.82813110825E+02  0.82813110825E+02  0.00000000000E+00 0.  1.
         23    2    1    2    0    0 -0.14045833370E+03 -0.39923133042E+02  0.74424840902E+03  0.76389586655E+03  0.91152622311E+02 0.  0.
         24    2    1    2    0    0  0.11672472682E+03  0.44856696455E+02  0.46585199999E+01  0.14861178899E+03  0.80168428631E+02 0.  0.
        -13    1    4    4    0    0  0.97592605098E+02  0.65728496605E+02 -0.72713497023E+01  0.11788733758E+03  0.00000000000E+00 0.  1.
         14    1    4    4    0    0  0.19132121725E+02 -0.20871800149E+02  0.11929869702E+02  0.30724451407E+02  0.00000000000E+00 0. -1.
        -13    1    3    3    0    0 -0.99646876957E+02 -0.65145368386E+02  0.60533455205E+03  0.61693057877E+03  0.00000000000E+00 0.  1.
         13    1    3    3    0    0 -0.40811456739E+02  0.25222235344E+02  0.13891385696E+03  0.14696528778E+03  0.00000000000E+00 0. -1.
         -2    1    1    2    0  502  0.23733606872E+02 -0.49335634133E+01  0.14404416609E+03  0.14606966122E+03  0.00000000000E+00 0.  1.
<scales pt_clust_5="13000.00000" pt_clust_6="13000.00000" pt_clust_7="13000.00000" pt_clust_8="13000.00000" pt_clust_9="24.24097"></scales>
<clustering>
<clus scale="   24.241">  2  9  1 -1</clus>
<clus scale="   80.168">  5  6 -1 -1</clus>
<clus scale="   91.153">  7  8 -1 -1</clus>
<clus scale="  164.330">  2  5  1 -1</clus>
<clus scale="   24.241">  2  5  1 -1</clus>
</clustering>
</event>
<event>
 9    2  0.2259837E-004  0.6031448E+03  0.7546771E-02  0.9899790E-01
         -3   -1    0    0    0  501 -0.00000000000E+00  0.00000000000E+00  0.37850207821E+04  0.37850207821E+04  0.00000000000E+00 0.  1.
         21   -1    0    0  501  502  0.00000000000E+00 -0.00000000000E+00 -0.26142514335E+03  0.26142514335E+03  0.00000000000E+00 0. -1.
         23    2    1    2    0    0 -0.13834939519E+02 -0.59385217728E+03  0.33200004662E+04  0.33739679060E+04  0.91676174951E+02 0.  0.
         24    2    1    2    0    0  0.19715568649E+02  0.61342488531E+03  0.20511405698E+03  0.65198461298E+03  0.79582445439E+02 0.  0.
        -13    1    4    4    0    0  0.12344859521E+02  0.13463298640E+03  0.79871597418E+02  0.15702836895E+03  0.00000000000E+00 0.  1.
         14    1    4    4    0    0  0.73707091282E+01  0.47879189891E+03  0.12524245957E+03  0.49495624402E+03  0.00000000000E+00 0. -1.
        -13    1    3    3    0    0  0.31026506747E+01 -0.50863745002E+03  0.29766395200E+04  0.30197855080E+04  0.00000000000E+00 0.  1.
         13    1    3    3    0    0 -0.16937590194E+02 -0.85214727258E+02  0.34336094619E+03  0.35418239802E+03  0.00000000000E+00 0. -1.
         -4    1    1    2    0  502 -0.58806291297E+01 -0.19572708034E+02 -0.15188844504E+01  0.20493406470E+02  0.00000000000E+00 0.  1.
<scales pt_clust_5="13000.00000" pt_clust_6="13000.00000" pt_clust_7="13000.00000" pt_clust_8="13000.00000" pt_clust_9="20.43704"></scales>
<clustering>
<clus scale="   20.437">  2  9  1 -1</clus>
<clus scale="   79.582">  5  6 -1 -1</clus>
<clus scale="   91.676">  7  8 -1 -1</clus>
<clus scale="  601.425">  2  5  1 -1</clus>
<clus scale="   20.437">  2  5  1 -1</clus>
</clustering>
</event>
<event>
 9    2  0.1751298E-004  0.1323011E+03  0.7546771E-02  0.1226035E+00
          2   -1    0    0  502    0 -0.00000000000E+00  0.00000000000E+00  0.50850245942E+03  0.50850245942E+03  0.00000000000E+00 0. -1.
         21   -1    0    0  501  502  0.00000000000E+00 -0.00000000000E+00 -0.67717370073E+02  0.67717370073E+02  0.00000000000E+00 0.  1.
         24    2    1    2    0    0  0.58157803651E+02  0.60993389987E+02  0.27058977274E+03  0.29593791423E+03  0.85193310883E+02 0.  0.
         23    2    1    2    0    0 -0.57251445706E+02 -0.10247368335E+03  0.18341218552E+03  0.23673743404E+03  0.92876256731E+02 0.  0.
        -11    1    3    3    0    0  0.69454397388E+02  0.13170387479E+02  0.16078309988E+03  0.17563763159E+03  0.00000000000E+00 0.  1.
         12    1    3    3    0    0 -0.11296593737E+02  0.47823002508E+02  0.10980667286E+03  0.12030028264E+03  0.00000000000E+00 0. -1.
        -11    1    4    4    0    0 -0.38657977921E+01 -0.24249238109E+02 -0.57254193076E+01  0.25214090657E+02  0.00000000000E+00 0.  1.
         11    1    4    4    0    0 -0.53385647914E+02 -0.78224445240E+02  0.18913760482E+03  0.21152334338E+03  0.00000000000E+00 0. -1.
          1    1    1    2  501    0 -0.90635794462E+00  0.41480293361E+02 -0.13216868903E+02  0.43544481231E+02  0.00000000000E+00 0. -1.
<scales pt_clust_5="13000.00000" pt_clust_6="13000.00000" pt_clust_7="13000.00000" pt_clust_8="13000.00000" pt_clust_9="41.49019"></scales>
<clustering>
<clus scale="   41.490">  2  9  1 -1</clus>
<clus scale="   85.193">  5  6 -1 -1</clus>
<clus scale="   92.876">  7  8 -1 -1</clus>
<clus scale="  127.026">  1  5  2 -1</clus>
<clus scale="   41.490">  2  5  1 -1</clus>
</clustering>
</event>
<event>
 9    2  0.1751298E-004  0.9704319E+02  0.7546771E-02  0.1291799E+00
          2   -1    0    0  502    0 -0.00000000000E+00  0.00000000000E+00  0.49103951005E+03  0.49103951005E+03  0.00000000000E+00 0. -1.
         21   -1    0    0  501  502  0.00000000000E+00 -0.00000000000E+00 -0.99104240430E+02  0.99104240430E+02  0.00000000000E+00 0.  1.
         23    2    1    2    0    0 -0.38935066839E+02  0.16212525728E+01  0.41944362844E+03  0.43084327498E+03  0.90412401066E+02 0.  0.
         24    2    1    2    0    0 -0.49172569276E+01 -0.47116368211E+02 -0.13418538757E+02  0.94559801458E+02  0.80730213057E+02 0.  0.
        -11    1    4    4    0    0 -0.19199726961E+02 -0.60774073893E+02  0.93438252076E+01  0.64416027838E+02  0.00000000000E+00 0.  1.
         12    1    4    4    0    0  0.14282470034E+02  0.13657705682E+02 -0.22762363965E+02  0.30143773619E+02  0.00000000000E+00 0. -1.
        -13    1    3    3    0    0  0.97880633750E+01 -0.34047759366E+02  0.11003260188E+03  0.11559511053E+03  0.00000000000E+00 0.  1.
         13    1    3    3    0    0 -0.48723130214E+02  0.35669011939E+02  0.30941102656E+03  0.31524816445E+03  0.00000000000E+00 0. -1.
          1    1    1    2  501    0  0.43852323766E+02  0.45495115638E+02 -0.14089820059E+02  0.64740674046E+02  0.00000000000E+00 0. -1.
<scales pt_clust_5="13000.00000" pt_clust_6="13000.00000" pt_clust_7="13000.00000" pt_clust_8="13000.00000" pt_clust_9="63.18886"></scales>
<clustering>
<clus scale="   63.189">  2  9  1 -1</clus>
<clus scale="   80.730">  5  6 -1 -1</clus>
<clus scale="   88.093">  2  5  1 -1</clus>
<clus scale="   90.412">  7  8 -1 -1</clus>
<clus scale="   63.189">  2  5  1 -1</clus>
</clustering>
</event>
<event>
 9    2  0.1751298E-004  0.9902069E+02  0.7546771E-02  0.1287602E+00
          2   -1    0    0  502    0 -0.00000000000E+00  0.00000000000E+00  0.49541296458E+03  0.49541296458E+03  0.00000000000E+00 0. -1.
         21   -1    0    0  501  502  0.00000000000E+00 -0.00000000000E+00 -0.67550676202E+02  0.67550676202E+02  0.00000000000E+00 0. -1.
         23    2    1    2    0    0 -0.25964346375E+02  0.43875209587E+02  0.34152428777E+03  0.35692195167E+03  0.90306473463E+02 0.  0.
         24    2    1    2    0    0 -0.35008945525E+02  0.45287247254E+01 -0.30827341994E+01  0.87480519264E+02  0.79982513002E+02 0.  0.
        -11    1    4    4    0    0  0.25636831400E+02  0.71819092349E+01  0.97125959579E+00  0.26641514403E+02  0.00000000000E+00 0.  1.
         12    1    4    4    0    0 -0.60645776924E+02 -0.26531845095E+01 -0.40539937951E+01  0.60839004861E+02  0.00000000000E+00 0. -1.
        -13    1    3    3    0    0 -0.59379772115E+02  0.20540845479E+02  0.19886153850E+03  0.20855166066E+03  0.00000000000E+00 0. -1.
         13    1    3    3    0    0  0.33415425740E+02  0.23334364108E+02  0.14266274927E+03  0.14837029101E+03  0.00000000000E+00 0.  1.
          1    1    1    2  501    0  0.60973291900E+02 -0.48403934312E+02  0.89420734810E+02  0.11856116985E+03  0.00000000000E+00 0. -1.
<scales pt_clust_5="13000.00000" pt_clust_6="13000.00000" pt_clust_7="13000.00000" pt_clust_8="13000.00000" pt_clust_9="77.85039"></scales>
<clustering>
<clus scale="   77.850">  2  9  1 -1</clus>
<clus scale="   79.983">  5  6 -1 -1</clus>
<clus scale="   89.705">  2  5  1 -1</clus>
<clus scale="   90.306">  7  8 -1 -1</clus>
<clus scale="   77.850">  2  5  1 -1</clus>
</clustering>
</event>
<event>
 9    2  0.1751298E-004  0.1396202E+03  0.7546771E-02  0.1218143E+00
         21   -1    0    0  501  502  0.00000000000E+00  0.00000000000E+00  0.14777459373E+03  0.14777459373E+03  0.00000000000E+00 0.  1.
         -1   -1    0    0    0  501 -0.00000000000E+00 -0.00000000000E+00 -0.22871630988E+03  0.22871630988E+03  0.00000000000E+00 0.  1.
         23    2    1    2    0    0  0.78662884903E+02  0.67124242814E+02 -0.16178181068E+03  0.21577890754E+03  0.98456433207E+02 0.  0.
         24    2    1    2    0    0 -0.65572519637E+02 -0.48673104942E+02  0.76318331168E+02  0.13764148469E+03  0.80323496922E+02 0.  0.
        -13    1    4    4    0    0 -0.76661720096E+02 -0.24288588036E+02  0.33460799236E+02  0.87100975439E+02  0.00000000000E+00 0.  1.
         14    1    4    4    0    0  0.11089200459E+02 -0.24384516906E+02  0.42857531932E+02  0.50540509246E+02  0.00000000000E+00 0. -1.
        -11    1    3    3    0    0  0.90941026624E+02  0.42895571545E+02 -0.15946397648E+03  0.18851806326E+03  0.00000000000E+00 0.  1.
         11    1    3    3    0    0 -0.12278141721E+02  0.24228671269E+02 -0.23178341997E+01  0.27260844282E+02  0.00000000000E+00 0. -1.
         -2    1    1    2    0  502 -0.13090365265E+02 -0.18451137872E+02  0.45217633591E+01  0.23070511382E+02  0.00000000000E+00 0.  1.
<scales pt_clust_5="13000.00000" pt_clust_6="13000.00000" pt_clust_7="13000.00000" pt_clust_8="13000.00000" pt_clust_9="22.62304"></scales>
<clustering>
<clus scale="   22.623">  1  9  2 -1</clus>
<clus scale="   80.323">  5  6 -1 -1</clus>
<clus scale="   98.456">  7  8 -1 -1</clus>
<clus scale="  127.483">  1  5  2 -1</clus>
<clus scale="   22.623">  1  5  2 -1</clus>
</clustering>
</event>
<event>
 9    2  0.1751298E-004  0.1005658E+03  0.7546771E-02  0.1284511E+00
         21   -1    0    0  501  502  0.00000000000E+00  0.00000000000E+00  0.35450031712E+02  0.35450031712E+02  0.00000000000E+00 0.  1.
         -3   -1    0    0    0  501 -0.00000000000E+00 -0.00000000000E+00 -0.44498572796E+03  0.44498572796E+03  0.00000000000E+00 0.  1.
         24    2    1    2    0    0  0.48640877568E+02  0.34096756184E+02 -0.21572264182E+03  0.23764914692E+03  0.80077057164E+02 0.  0.
         23    2    1    2    0    0 -0.27398679101E+00 -0.30458185215E+02 -0.14561415611E+03  0.17440730944E+03  0.91031044222E+02 0.  0.
        -11    1    3    3    0    0  0.44696474900E+02 -0.13202007063E+02 -0.67604917602E+02  0.82112683204E+02  0.00000000000E+00 0.  1.
         12    1    3    3    0    0  0.39444026687E+01  0.47298763247E+02 -0.14811772422E+03  0.15553646371E+03  0.00000000000E+00 0. -1.
        -11    1    4    4    0    0 -0.17114792343E+01 -0.63192080201E+02 -0.94641427059E+02  0.11381198477E+03  0.00000000000E+00 0. -1.
         11    1    4    4    0    0  0.14374924433E+01  0.32733894986E+02 -0.50972729049E+02  0.60595324672E+02  0.00000000000E+00 0.  1.
         -4    1    1    2    0  502 -0.48366890777E+02 -0.36385709690E+01 -0.48198898321E+02  0.68379303313E+02  0.00000000000E+00 0.  1.
<scales pt_clust_5="13000.00000" pt_clust_6="13000.00000" pt_clust_7="13000.00000" pt_clust_8="13000.00000" pt_clust_9="48.50356"></scales>
<clustering>
<clus scale="   48.504">  1  9  2 -1</clus>
<clus scale="   80.077">  5  6 -1 -1</clus>
<clus scale="   90.770">  2  5  1 -1</clus>
<clus scale="   91.031">  7  8 -1 -1</clus>
<clus scale="   48.504">  1  5  2 -1</clus>
</clustering>
</event>
<event>
 9    2  0.1751298E-004  0.1201968E+03  0.7546771E-02  0.1245963E+00
         21   -1    0    0  501  502  0.00000000000E+00  0.00000000000E+00  0.65654562145E+02  0.65654562145E+02  0.00000000000E+00 0. -1.
          2   -1    0    0  502    0 -0.00000000000E+00 -0.00000000000E+00 -0.45899316701E+03  0.45899316701E+03  0.00000000000E+00 0. -1.
         23    2    1    2    0    0  0.68802819037E+02 -0.38155884481E+02 -0.32550318373E+03  0.34808919850E+03  0.94995094963E+02 0.  0.
         24    2    1    2    0    0 -0.26490533952E+02  0.58614782928E+02 -0.18540250372E+02  0.10844898760E+03  0.85322921072E+02 0.  0.
        -11    1    4    4    0    0 -0.39664175016E+02 -0.61942311393E+01 -0.15871351480E+01  0.40176289986E+02  0.00000000000E+00 0.  1.
         12    1    4    4    0    0  0.13173641064E+02  0.64809014067E+02 -0.16953115224E+02  0.68272697610E+02  0.00000000000E+00 0. -1.
        -11    1    3    3    0    0  0.46964055429E+02  0.22453593758E+02 -0.20430400485E+03  0.21083147955E+03  0.00000000000E+00 0.  1.
         11    1    3    3    0    0  0.21838763608E+02 -0.60609478240E+02 -0.12119917888E+03  0.13725771895E+03  0.00000000000E+00 0. -1.
          1    1    1    2  501    0 -0.42312285086E+02 -0.20458898446E+02 -0.49295170764E+02  0.68109543057E+02  0.00000000000E+00 0. -1.
<scales pt_clust_5="13000.00000" pt_clust_6="13000.00000" pt_clust_7="13000.00000" pt_clust_8="13000.00000" pt_clust_9="46.99889"></scales>
<clustering>
<clus scale="   46.999">  1  9  2 -1</clus>
<clus scale="   85.323">  5  6 -1 -1</clus>
<clus scale="   94.995">  7  8 -1 -1</clus>
<clus scale="  112.709">  1  5  2 -1</clus>
<clus scale="   46.999">  1  5  2 -1</clus>
</clustering>
</event>
<event>
 9    2  0.1751298E-004  0.1067302E+03  0.7546771E-02  0.1271077E+00
         21   -1    0    0  501  502  0.00000000000E+00  0.00000000000E+00  0.58661386214E+03  0.58661386214E+03  0.00000000000E+00 0.  1.
         -3   -1    0    0    0  501 -0.00000000000E+00 -0.00000000000E+00 -0.71055771855E+02  0.71055771855E+02  0.00000000000E+00 0.  1.
         23    2    1    2    0    0 -0.61370979262E+02 -0.69522742553E+01 -0.36170908214E+01  0.11141100500E+03  0.92653102892E+02 0.  0.
         24    2    1    2    0    0  0.64570893190E+01  0.46350246378E+02  0.22124729442E+03  0.24076106570E+03  0.82616500329E+02 0.  0.
        -13    1    4    4    0    0 -0.32232137302E+02  0.46104346852E+02  0.13241936213E+03  0.14387289161E+03  0.00000000000E+00 0.  1.
         14    1    4    4    0    0  0.38689226621E+02  0.24589952526E+00  0.88827932295E+02  0.96888174092E+02  0.00000000000E+00 0. -1.
        -11    1    3    3    0    0 -0.52900298871E+02  0.27660219674E+02 -0.30251683975E+02  0.66923043538E+02  0.00000000000E+00 0.  1.
         11    1    3    3    0    0 -0.84706803910E+01 -0.34612493930E+02  0.26634593153E+02  0.44487961459E+02  0.00000000000E+00 0. -1.
         -4    1    1    2    0  502  0.54913889943E+02 -0.39397972122E+02  0.29792788669E+03  0.30549756330E+03  0.00000000000E+00 0.  1.
<scales pt_clust_5="13000.00000" pt_clust_6="13000.00000" pt_clust_7="13000.00000" pt_clust_8="13000.00000" pt_clust_9="67.58502"></scales>
<clustering>
<clus scale="   67.585">  1  9  2 -1</clus>
<clus scale="   82.617">  5  6 -1 -1</clus>
<clus scale="   92.653">  7  8 -1 -1</clus>
<clus scale="   98.144">  1  5  2 -1</clus>
<clus scale="   67.585">  1  5  2 -1</clus>
</clustering>
</event>
<event>
 9    2  0.1751298E-004  0.1285965E+03  0.7546771E-02  0.1235852E+00
         -1   -1    0    0    0  501 -0.00000000000E+00  0.00000000000E+00  0.33984082560E+03  0.33984082560E+03  0.00000000000E+00 0.  1.
         21   -1    0    0  501  502  0.00000000000E+00 -0.00000000000E+00 -0.97986212426E+02  0.97986212426E+02  0.00000000000E+00 0. -1.
         24    2    1    2    0    0  0.91348678043E+02 -0.83254389574E+01  0.26126790017E+03  0.28624357121E+03  0.72529804133E+02 0.  0.
         23    2    1    2    0    0 -0.63550145466E+02 -0.89159858437E+01 -0.23839793055E+01  0.11470498444E+03  0.95044380713E+02 0.  0.
        -13    1    3    3    0    0  0.81714551561E+02  0.22109598294E+02  0.19939491342E+03  0.21662048327E+03  0.00000000000E+00 0.  1.
         14    1    3    3    0    0  0.96341264820E+01 -0.30435037252E+02  0.61872986745E+02  0.69623087940E+02  0.00000000000E+00 0. -1.
        -13    1    4    4    0    0  0.11451160959E+02 -0.32749677046E+02  0.71790544020E+01  0.35428932471E+02  0.00000000000E+00 0.  1.
         13    1    4    4    0    0 -0.75001306425E+02  0.23833691202E+02 -0.95630337075E+01  0.79276051967E+02  0.00000000000E+00 0. -1.
         -2    1    1    2    0  502 -0.27798532577E+02  0.17241424801E+02 -0.17029307684E+02  0.36878482382E+02  0.00000000000E+00 0.  1.
<scales pt_clust_5="13000.00000" pt_clust_6="13000.00000" pt_clust_7="13000.00000" pt_clust_8="13000.00000" pt_clust_9="32.71124"></scales>
<clustering>
<clus scale="   32.711">  2  9  1 -1</clus>
<clus scale="   72.530">  5  6 -1 -1</clus>
<clus scale="   95.044">  7  8 -1 -1</clus>
<clus scale="  112.979">  1  5  2 -1</clus>
<clus scale="   32.711">  2  5  1 -1</clus>
</clustering>
</event>
<event>
 9    2  0.1751298E-004  0.1998507E+03  0.7546771E-02  0.1150771E+00
          2   -1    0    0  502    0 -0.00000000000E+00  0.00000000000E+00  0.28229408285E+03  0.28229408285E+03  0.00000000000E+00 0. -1.
         21   -1    0    0  501  502  0.00000000000E+00 -0.00000000000E+00 -0.28918315685E+03  0.28918315685E+03  0.00000000000E+00 0.  1.
         23    2    1    2    0    0 -0.70516758381E+02 -0.16208963736E+03  0.20602175086E+02  0.19886296497E+03  0.88748889953E+02 0.  0.
         24    2    1    2    0    0  0.51805101397E+02  0.17781440801E+03 -0.14790084110E+03  0.24974904625E+03  0.78728616636E+02 0.  0.
        -11    1    4    4    0    0  0.47248333740E+02  0.15700017449E+03 -0.15660719926E+03  0.22673172405E+03  0.00000000000E+00 0.  1.
         12    1    4    4    0    0  0.45567676574E+01  0.20814233519E+02  0.87063581653E+01  0.23017322194E+02  0.00000000000E+00 0. -1.
        -11    1    3    3    0    0  0.92079449209E+01 -0.50419054657E+02 -0.21144883876E+02  0.55443425546E+02  0.00000000000E+00 0.  1.
         11    1    3    3    0    0 -0.79724703302E+02 -0.11167058270E+03  0.41747058961E+02  0.14341953943E+03  0.00000000000E+00 0. -1.
          1    1    1    2  501    0  0.18711656984E+02 -0.15724770647E+02  0.12040959202E+03  0.12286522848E+03  0.00000000000E+00 0. -1.
<scales pt_clust_5="13000.00000" pt_clust_6="13000.00000" pt_clust_7="13000.00000" pt_clust_8="13000.00000" pt_clust_9="24.44167"></scales>
<clustering>
<clus scale="   24.442">  2  9  1 -1</clus>
<clus scale="   78.729">  5  6 -1 -1</clus>
<clus scale="   88.749">  7  8 -1 -1</clus>
<clus scale="  195.607">  2  5  1 -1</clus>
<clus scale="   24.442">  2  5  1 -1</clus>
</clustering>
</event>
<event>
 9    2  0.1751298E-004  0.1085453E+03  0.7546771E-02  0.1267197E+00
         21   -1    0    0  501  502  0.00000000000E+00  0.00000000000E+00  0.29871488946E+03  0.29871488946E+03  0.00000000000E+00 0.  1.
          4   -1    0    0  502    0 -0.00000000000E+00 -0.00000000000E+00 -0.57957512130E+02  0.57957512130E+02  0.00000000000E+00 0. -1.
         23    2    1    2    0    0  0.42321206014E+02 -0.55351274666E+02  0.38350151233E+02  0.12047053889E+03  0.90485184175E+02 0.  0.
         24    2    1    2    0    0 -0.27066794039E+02  0.32479940569E+02  0.13022056751E+03  0.15895738921E+03  0.80761980539E+02 0.  0.
        -13    1    4    4    0    0  0.55193948964E+01 -0.20048530512E+02  0.68570966707E+02  0.71654621420E+02  0.00000000000E+00 0.  1.
         14    1    4    4    0    0 -0.32586188935E+02  0.52528471081E+02  0.61649600807E+02  0.87302767786E+02  0.00000000000E+00 0. -1.
        -11    1    3    3    0    0  0.68242716648E+02 -0.54542055714E+02  0.35799122277E+02  0.94411235416E+02  0.00000000000E+00 0. -1.
         11    1    3    3    0    0 -0.25921510633E+02 -0.80921895189E+00  0.25510289563E+01  0.26059303474E+02  0.00000000000E+00 0.  1.
          3    1    1    2  501    0 -0.15254411976E+02  0.22871334097E+02  0.72186658586E+02  0.77244473497E+02  0.00000000000E+00 0. -1.
<scales pt_clust_5="13000.00000" pt_clust_6="13000.00000" pt_clust_7="13000.00000" pt_clust_8="13000.00000" pt_clust_9="27.49173"></scales>
<clustering>
<clus scale="   27.492">  1  9  2 -1</clus>
<clus scale="   80.762">  5  6 -1 -1</clus>
<clus scale="   90.485">  7  8 -1 -1</clus>
<clus scale="  100.583">  1  5  2 -1</clus>
<clus scale="   27.492">  1  5  2 -1</clus>
</clustering>
</event>
<event>
 9    2  0.1751298E-004  0.9147968E+02  0.7546771E-02  0.1303990E+00
         21   -1    0    0  501  502  0.00000000000E+00  0.00000000000E+00  0.27634371878E+02  0.27634371878E+02  0.00000000000E+00 0. -1.
          2   -1    0    0  502    0 -0.00000000000E+00 -0.00000000000E+00 -0.13654631576E+04  0.13654631576E+04  0.00000000000E+00 0. -1.
         24    2    1    2    0    0 -0.23160681582E+02 -0.11079592636E+02 -0.96970688555E+03  0.97334044281E+03  0.80006244639E+02 0.  0.
         23    2    1    2    0    0  0.29099007563E+02 -0.90430377708E+01 -0.38293661481E+03  0.39407324475E+03  0.87890514256E+02 0.  0.
        -13    1    3    3    0    0 -0.17997095876E+02 -0.22817168344E+02 -0.11761239584E+03  0.12114947085E+03  0.00000000000E+00 0.  1.
         14    1    3    3    0    0 -0.51635857055E+01  0.11737575708E+02 -0.85209448971E+03  0.85219097196E+03  0.00000000000E+00 0. -1.
        -11    1    4    4    0    0  0.13172640503E+02  0.39615085794E+02 -0.16406058316E+03  0.16928894952E+03  0.00000000000E+00 0.  1.
         11    1    4    4    0    0  0.15926367060E+02 -0.48658123565E+02 -0.21887603165E+03  0.22478429524E+03  0.00000000000E+00 0. -1.
          1    1    1    2  501    0 -0.59383259814E+01  0.20122630406E+02  0.14814714585E+02  0.25683841966E+02  0.00000000000E+00 0. -1.
<scales pt_clust_5="13000.00000" pt_clust_6="13000.00000" pt_clust_7="13000.00000" pt_clust_8="13000.00000" pt_clust_9="20.98056"></scales>
<clustering>
<clus scale="   20.981">  1  9  2 -1</clus>
<clus scale="   80.006">  5  6 -1 -1</clus>
<clus scale="   83.933">  2  5  1 -1</clus>
<clus scale="   87.891">  7  8 -1 -1</clus>
<clus scale="   20.981">  1  5  2 -1</clus>
</clustering>
</event>
<event>
 9    2  0.1751298E-004  0.1636496E+03  0.7546771E-02  0.1186221E+00
         21   -1    0    0  501  502  0.00000000000E+00  0.00000000000E+00  0.30867504259E+03  0.30867504259E+03  0.00000000000E+00 0.  1.
         -1   -1    0    0    0  501 -0.00000000000E+00 -0.00000000000E+00 -0.29487222323E+03  0.29487222323E+03  0.00000000000E+00 0.  1.
         23    2    1    2    0    0 -0.13434974892E+03  0.97466995500E+01 -0.21114780760E+03  0.26657235506E+03  0.91282915366E+02 0.  0.
         24    2    1    2    0    0  0.14152167963E+03  0.10114390563E+02  0.65072468978E+02  0.17570828406E+03  0.80673962132E+02 0.  0.
        -11    1    4    4    0    0  0.94384013575E+02  0.16597549424E+02  0.92043578108E+00  0.95836672873E+02  0.00000000000E+00 0.  1.
         12    1    4    4    0    0  0.47137666054E+02 -0.64831588606E+01  0.64152033197E+02  0.79871611184E+02  0.00000000000E+00 0. -1.
        -13    1    3    3    0    0 -0.36639949228E+02 -0.38073239614E+02 -0.84016468562E+02  0.99251319607E+02  0.00000000000E+00 0. -1.
         13    1    3    3    0    0 -0.97709799692E+02  0.47819939164E+02 -0.12713133904E+03  0.16732103545E+03  0.00000000000E+00 0.  1.
         -2    1    1    2    0  502 -0.71719307086E+01 -0.19861090113E+02  0.15987815798E+03  0.16126662670E+03  0.00000000000E+00 0.  1.
<scales pt_clust_5="13000.00000" pt_clust_6="13000.00000" pt_clust_7="13000.00000" pt_clust_8="13000.00000" pt_clust_9="21.11633"></scales>
<clustering>
<clus scale="   21.116">  1  9  2 -1</clus>
<clus scale="   80.674">  5  6 -1 -1</clus>
<clus scale="   91.283">  7  8 -1 -1</clus>
<clus scale="  157.978">  1  5  2 -1</clus>
<clus scale="   21.116">  1  5  2 -1</clus>
</clustering>
</event>
<event>
 9    2  0.1751298E-004  0.1091351E+03  0.7546771E-02  0.1265589E+00
         21   -1    0    0  501  502  0.00000000000E+00  0.00000000000E+00  0.40335561169E+03  0.40335561169E+03  0.00000000000E+00 0. -1.
          2   -1    0    0  502    0 -0.00000000000E+00 -0.00000000000E+00 -0.13469451523E+03  0.13469451523E+03  0.00000000000E+00 0. -1.
         24    2    1    2    0    0  0.55791217368E+02 -0.31228791721E+02 -0.95451649779E+02  0.14040577632E+03  0.80714727348E+02 0.  0.
         23    2    1    2    0    0 -0.51327802989E+02 -0.77931101109E+01  0.32931007429E+03  0.34516714731E+03  0.89442487827E+02 0.  0.
        -11    1    3    3    0    0  0.14720621434E+02 -0.21265832839E+02  0.92725365294E+01  0.27475666970E+02  0.00000000000E+00 0.  1.
         12    1    3    3    0    0  0.41070595935E+02 -0.99629588820E+01 -0.10472418631E+03  0.11293010935E+03  0.00000000000E+00 0. -1.
        -13    1    4    4    0    0 -0.20920323488E+02  0.28060710786E+02  0.45065168394E+02  0.57060781865E+02  0.00000000000E+00 0.  1.
         13    1    4    4    0    0 -0.30407479500E+02 -0.35853820897E+02  0.28424490590E+03  0.28810636544E+03  0.00000000000E+00 0. -1.
          1    1    1    2  501    0 -0.44634143799E+01  0.39021901832E+02  0.34802671951E+02  0.52477203293E+02  0.00000000000E+00 0. -1.
<scales pt_clust_5="13000.00000" pt_clust_6="13000.00000" pt_clust_7="13000.00000" pt_clust_8="13000.00000" pt_clust_9="39.27634"></scales>
<clustering>
<clus scale="   39.276">  1  9  2 -1</clus>
<clus scale="   80.715">  5  6 -1 -1</clus>
<clus scale="   89.442">  7  8 -1 -1</clus>
<clus scale="  102.105">  2  5  1 -1</clus>
<clus scale="   39.276">  1  5  2 -1</clus>
</clustering>
</event>
<event>
 9    2  0.1751298E-004  0.1873261E+03  0.7546771E-02  0.1186172E+00
          2   -1    0    0  502    0 -0.00000000000E+00  0.00000000000E+00  0.90780499860E+03  0.90780499860E+03  0.00000000000E+00 0. -1.
         21   -1    0    0  501  502  0.00000000000E+00 -0.00000000000E+00 -0.88408954677E+02  0.88408954677E+02  0.00000000000E+00 0. -1.
         23    2    1    2    0    0 -0.38546392404E+02 -0.39760107836E+02  0.33073902995E+02  0.11050780923E+03  0.89729606587E+02 0.  0.
         24    2    1    2    0    0  0.18620631983E+03 -0.31716100259E+02  0.61517988494E+03  0.64863658827E+03  0.81267633498E+02 0.  0.
        -13    1    4    4    0    0  0.59348436267E+02 -0.44735223830E+02  0.28929455237E+03  0.29868849186E+03  0.00000000000E+00 0.  1.
         14    1    4    4    0    0  0.12685788356E+03  0.13019123571E+02  0.32588533257E+03  0.34994809641E+03  0.00000000000E+00 0. -1.
        -13    1    3    3    0    0  0.95818314095E+01  0.20694127535E+02  0.23328381232E+02  0.32623178547E+02  0.00000000000E+00 0.  1.
         13    1    3    3    0    0 -0.48128223814E+02 -0.60454235370E+02  0.97455217624E+01  0.77884630680E+02  0.00000000000E+00 0. -1.
          1    1    1    2  501    0 -0.14765992743E+03  0.71476208094E+02  0.17114225599E+03  0.23706955578E+03  0.00000000000E+00 0. -1.
<scales pt_clust_5="13000.00000" pt_clust_6="13000.00000" pt_clust_7="13000.00000" pt_clust_8="13000.00000" pt_clust_9="168.77983"></scales>
<clustering>
<clus scale="   81.268">  5  6 -1 -1</clus>
<clus scale="   89.730">  7  8 -1 -1</clus>
<clus scale="  105.442">  1  7  2 -1</clus>
<clus scale="  168.780">  2  9  1 -1</clus>
<clus scale="  168.780">  2  5  1 -1</clus>
</clustering>
</event>
<event>
 9    2  0.1751298E-004  0.1124117E+03  0.7546771E-02  0.1260470E+00
         21   -1    0    0  501  502  0.00000000000E+00  0.00000000000E+00  0.65758340189E+02  0.65758340189E+02  0.00000000000E+00 0. -1.
          2   -1    0    0  502    0 -0.00000000000E+00 -0.00000000000E+00 -0.78602721225E+03  0.78602721225E+03  0.00000000000E+00 0. -1.
         24    2    1    2    0    0  0.26174379213E+02 -0.72407079355E+02 -0.33798459537E+03  0.35573395234E+03  0.79907289226E+02 0.  0.
         23    2    1    2    0    0 -0.89330185835E+02 -0.84771915402E+01 -0.37138417013E+03  0.39285405405E+03  0.91413134091E+02 0.  0.
        -13    1    3    3    0    0 -0.13408425925E+02 -0.22427138386E+02 -0.24457331631E+02  0.35789991513E+02  0.00000000000E+00 0.  1.
         14    1    3    3    0    0  0.39582805138E+02 -0.49979940969E+02 -0.31352726373E+03  0.31994396082E+03  0.00000000000E+00 0. -1.
        -13    1    4    4    0    0 -0.25129320881E+02 -0.16783705961E+02 -0.21637237999E+02  0.37166458292E+02  0.00000000000E+00 0. -1.
         13    1    4    4    0    0 -0.64200864953E+02  0.83065144206E+01 -0.34974693213E+03  0.35568759576E+03  0.00000000000E+00 0.  1.
          1    1    1    2  501    0  0.63155806622E+02  0.80884270895E+02 -0.10900106567E+02  0.10319754605E+03  0.00000000000E+00 0. -1.
<scales pt_clust_5="13000.00000" pt_clust_6="13000.00000" pt_clust_7="13000.00000" pt_clust_8="13000.00000" pt_clust_9="102.62028"></scales>
<clustering>
<clus scale="   79.907">  5  6 -1 -1</clus>
<clus scale="   91.413">  7  8 -1 -1</clus>
<clus scale="  102.620">  1  9  2 -1</clus>
<clus scale="  103.273">  2  5  1 -1</clus>
<clus scale="  102.620">  1  5  2 -1</clus>
</clustering>
</event>
<event>
 9    2  0.1751298E-004  0.1918420E+03  0.7546771E-02  0.1157194E+00
         -3   -1    0    0    0  501 -0.00000000000E+00  0.00000000000E+00  0.78250478164E+02  0.78250478164E+02  0.00000000000E+00 0.  1.
         21   -1    0    0  501  502  0.00000000000E+00 -0.00000000000E+00 -0.95831766782E+03  0.95831766782E+03  0.00000000000E+00 0.  1.
         24    2    1    2    0    0  0.36592024797E+02 -0.21000785408E+03 -0.21985193130E+03  0.31671837663E+03  0.80829347071E+02 0.  0.
         23    2    1    2    0    0 -0.19017088090E+02  0.89744550362E+02 -0.51764612916E+03  0.53250490761E+03  0.84783416048E+02 0.  0.
        -11    1    3    3    0    0  0.39970935608E+02 -0.17701600869E+03 -0.13670586718E+03  0.22720219442E+03  0.00000000000E+00 0.  1.
         12    1    3    3    0    0 -0.33789108110E+01 -0.32991845385E+02 -0.83146064113E+02  0.89516182211E+02  0.00000000000E+00 0. -1.
        -11    1    4    4    0    0 -0.47218417982E+02  0.35980315779E+02 -0.32952844931E+03  0.33483303455E+03  0.00000000000E+00 0.  1.
         11    1    4    4    0    0  0.28201329892E+02  0.53764234583E+02 -0.18811767985E+03  0.19767187306E+03  0.00000000000E+00 0. -1.
         -4    1    1    2    0  502 -0.17574936708E+02  0.12026330371E+03 -0.14256912920E+03  0.18734486174E+03  0.00000000000E+00 0.  1.
<scales pt_clust_5="13000.00000" pt_clust_6="13000.00000" pt_clust_7="13000.00000" pt_clust_8="13000.00000" pt_clust_9="121.54076"></scales>
<clustering>
<clus scale="   80.829">  5  6 -1 -1</clus>
<clus scale="   84.783">  7  8 -1 -1</clus>
<clus scale="  121.541">  2  9  1 -1</clus>
<clus scale="  190.128">  1  5  2 -1</clus>
<clus scale="  121.541">  2  5  1 -1</clus>
</clustering>
</event>
<event>
 9    2  0.1751298E-004  0.9965775E+02  0.7546771E-02  0.1283650E+00
         -1   -1    0    0    0  501 -0.00000000000E+00  0.00000000000E+00  0.75633903751E+03  0.75633903751E+03  0.00000000000E+00 0.  1.
         21   -1    0    0  501  502  0.00000000000E+00 -0.00000000000E+00 -0.38582392193E+02  0.38582392193E+02  0.00000000000E+00 0.  1.
         23    2    1    2    0    0 -0.25384131990E+02 -0.39001228413E+02  0.40076558001E+03  0.41276071110E+03  0.87137274044E+02 0.  0.
         24    2    1    2    0    0  0.57829115563E+02  0.13281668908E+02  0.32474095930E+03  0.34003906673E+03  0.81543037206E+02 0.  0.
        -13    1    4    4    0    0  0.33013259511E+02 -0.33901604426E+02  0.14168254413E+03  0.14937582601E+03  0.00000000000E+00 0.  1.
         14    1    4    4    0    0  0.24815856052E+02  0.47183273334E+02  0.18305841517E+03  0.19066324072E+03  0.00000000000E+00 0. -1.
        -11    1    3    3    0    0  0.13802503538E+02 -0.51400338607E+02  0.28471745986E+03  0.28964898733E+03  0.00000000000E+00 0.  1.
         11    1    3    3    0    0 -0.39186635528E+02  0.12399110194E+02  0.11604812015E+03  0.12311172377E+03  0.00000000000E+00 0. -1.
         -2    1    1    2    0  502 -0.32444983573E+02  0.25719559505E+02 -0.77498939967E+01  0.42121651880E+02  0.00000000000E+00 0.  1.
<scales pt_clust_5="13000.00000" pt_clust_6="13000.00000" pt_clust_7="13000.00000" pt_clust_8="13000.00000" pt_clust_9="41.40257"></scales>
<clustering>
<clus scale="   41.403">  2  9  1 -1</clus>
<clus scale="   81.543">  5  6 -1 -1</clus>
<clus scale="   87.137">  7  8 -1 -1</clus>
<clus scale="   94.805">  2  5  1 -1</clus>
<clus scale="   41.403">  2  5  1 -1</clus>
</clustering>
</event>
<event>
 9    2  0.1751298E-004  0.9457808E+02  0.7546771E-02  0.1300378E+00
          2   -1    0    0  502    0 -0.00000000000E+00  0.00000000000E+00  0.48476395554E+03  0.48476395554E+03  0.00000000000E+00 0. -1.
         21   -1    0    0  501  502  0.00000000000E+00 -0.00000000000E+00 -0.52963822940E+02  0.52963822940E+02  0.00000000000E+00 0.  1.
         23    2    1    2    0    0  0.28056373766E+01  0.12783641529E+02  0.34018044122E+03  0.35293785716E+03  0.93118770049E+02 0.  0.
         24    2    1    2    0    0  0.29087987187E+02 -0.40477955859E+02  0.11871164387E+02  0.94545775297E+02  0.79456926529E+02 0.  0.
        -13    1    4    4    0    0  0.33113270147E+02 -0.42971661291E+02 -0.23311131020E+02  0.59046262908E+02  0.00000000000E+00 0.  1.
         14    1    4    4    0    0 -0.40252829598E+01  0.24937054323E+01  0.35182295408E+02  0.35499512389E+02  0.00000000000E+00 0. -1.
        -13    1    3    3    0    0 -0.35105148643E+02  0.33944418479E+02  0.21386461882E+03  0.21936879949E+03  0.00000000000E+00 0.  1.
         13    1    3    3    0    0  0.37910786019E+02 -0.21160776950E+02  0.12631582240E+03  0.13356905766E+03  0.00000000000E+00 0. -1.
          1    1    1    2  501    0 -0.31893624564E+02  0.27694314330E+02  0.79748526994E+02  0.90244146025E+02  0.00000000000E+00 0. -1.
<scales pt_clust_5="13000.00000" pt_clust_6="13000.00000" pt_clust_7="13000.00000" pt_clust_8="13000.00000" pt_clust_9="42.23956"></scales>
<clustering>
<clus scale="   42.240">  2  9  1 -1</clus>
<clus scale="   79.457">  5  6 -1 -1</clus>
<clus scale="   81.162">  2  5  1 -1</clus>
<clus scale="   93.119">  7  8 -1 -1</clus>
<clus scale="   42.240">  2  5  1 -1</clus>
</clustering>
</event>
<event>
 9    2  0.1751298E-004  0.1101245E+03  0.7546771E-02  0.1265136E+00
         21   -1    0    0  501  502  0.00000000000E+00  0.00000000000E+00  0.12116929984E+03  0.12116929984E+03  0.00000000000E+00 0.  1.
          2   -1    0    0  502    0 -0.00000000000E+00 -0.00000000000E+00 -0.15261990321E+03  0.15261990321E+03  0.00000000000E+00 0. -1.
         24    2    1    2    0    0 -0.48368572407E+02  0.32328204362E+02 -0.27298564548E+02  0.10172877755E+03  0.78860008631E+02 0.  0.
         23    2    1    2    0    0  0.45886565100E+02 -0.55448984038E+02  0.39487195641E+02  0.12261233558E+03  0.91073484222E+02 0.  0.
        -13    1    3    3    0    0 -0.13144574628E+02 -0.18514525963E+02  0.14623931505E+02  0.27007904148E+02  0.00000000000E+00 0.  1.
         14    1    3    3    0    0 -0.35223997779E+02  0.50842730325E+02 -0.41922496053E+02  0.74720873401E+02  0.00000000000E+00 0. -1.
        -13    1    4    4    0    0  0.27504962702E+02 -0.21185175837E+01 -0.24793089483E+02  0.37090542947E+02  0.00000000000E+00 0. -1.
         13    1    4    4    0    0  0.18381602398E+02 -0.53330466454E+02  0.64280285124E+02  0.85521792629E+02  0.00000000000E+00 0.  1.
          1    1    1    2  501    0  0.24820073078E+01  0.23120779676E+02 -0.43639234456E+02  0.49448089923E+02  0.00000000000E+00 0. -1.
<scales pt_clust_5="13000.00000" pt_clust_6="13000.00000" pt_clust_7="13000.00000" pt_clust_8="13000.00000" pt_clust_9="23.25363"></scales>
<clustering>
<clus scale="   23.254">  1  9  2 -1</clus>
<clus scale="   78.860">  5  6 -1 -1</clus>
<clus scale="   91.073">  7  8 -1 -1</clus>
<clus scale="  100.259">  2  5  1 -1</clus>
<clus scale="   23.254">  1  5  2 -1</clus>
</clustering>
</event>
<event>
 9    2  0.1751298E-004  0.1580201E+03  0.7546771E-02  0.1193051E+00
          2   -1    0    0  502    0 -0.00000000000E+00  0.00000000000E+00  0.48170686716E+03  0.48170686716E+03  0.00000000000E+00 0. -1.
         21   -1    0    0  501  502  0.00000000000E+00 -0.00000000000E+00 -0.20280596463E+03  0.20280596463E+03  0.00000000000E+00 0.  1.
         23    2    1    2    0    0 -0.27846628603E+02  0.12155933732E+03  0.37218555925E+03  0.40303997493E+03  0.91471436355E+02 0.  0.
         24    2    1    2    0    0  0.59695773377E+02 -0.14037715188E+03  0.99196465404E+01  0.17183889142E+03  0.78491242121E+02 0.  0.
        -11    1    4    4    0    0  0.58848997987E+02 -0.13244987988E+03 -0.14967607752E+02  0.14570588363E+03  0.00000000000E+00 0.  1.
         12    1    4    4    0    0  0.84677539050E+00 -0.79272720011E+01  0.24887254293E+02  0.26133007790E+02  0.00000000000E+00 0. -1.
        -11    1    3    3    0    0 -0.43682930984E+02  0.25975437270E+02  0.19017162723E+03  0.19684554758E+03  0.00000000000E+00 0. -1.
         11    1    3    3    0    0  0.15836302381E+02  0.95583900048E+02  0.18201393202E+03  0.20619442735E+03  0.00000000000E+00 0.  1.
          1    1    1    2  501    0 -0.31849144774E+02  0.18817814560E+02 -0.10320430325E+03  0.10963396544E+03  0.00000000000E+00 0. -1.
<scales pt_clust_5="13000.00000" pt_clust_6="13000.00000" pt_clust_7="13000.00000" pt_clust_8="13000.00000" pt_clust_9="36.99295"></scales>
<clustering>
<clus scale="   36.993">  2  9  1 -1</clus>
<clus scale="   78.491">  5  6 -1 -1</clus>
<clus scale="   91.471">  7  8 -1 -1</clus>
<clus scale="  150.878">  2  5  1 -1</clus>
<clus scale="   36.993">  2  5  1 -1</clus>
</clustering>
</event>
<event>
 9    2  0.1751298E-004  0.9230282E+02  0.7546771E-02  0.1299006E+00
         21   -1    0    0  501  502  0.00000000000E+00  0.00000000000E+00  0.45815225831E+03  0.45815225831E+03  0.00000000000E+00 0. -1.
          2   -1    0    0  502    0 -0.00000000000E+00 -0.00000000000E+00 -0.56061594527E+02  0.56061594527E+02  0.00000000000E+00 0. -1.
         23    2    1    2    0    0 -0.89418410674E+01 -0.11753607263E+02 -0.10498795877E+01  0.92164616488E+02  0.90967634244E+02 0.  0.
         24    2    1    2    0    0 -0.95738343939E+01  0.29302406708E+02  0.25166236125E+03  0.26843794035E+03  0.88174227562E+02 0.  0.
        -11    1    4    4    0    0  0.34394706391E+02  0.34354105917E+02  0.11730739769E+03  0.12698120323E+03  0.00000000000E+00 0.  1.
         12    1    4    4    0    0 -0.43968540784E+02 -0.50516992093E+01  0.13435496356E+03  0.14145673712E+03  0.00000000000E+00 0. -1.
        -11    1    3    3    0    0  0.17612462641E+02  0.26061526218E+02  0.24035895492E+02  0.39586945591E+02  0.00000000000E+00 0.  1.
         11    1    3    3    0    0 -0.26554303709E+02 -0.37815133481E+02 -0.25085775079E+02  0.52577670897E+02  0.00000000000E+00 0. -1.
          1    1    1    2  501    0  0.18515675461E+02 -0.17548799445E+02  0.15147818212E+03  0.15361129600E+03  0.00000000000E+00 0. -1.
<scales pt_clust_5="13000.00000" pt_clust_6="13000.00000" pt_clust_7="13000.00000" pt_clust_8="13000.00000" pt_clust_9="25.51060"></scales>
<clustering>
<clus scale="   25.511">  1  9  2 -1</clus>
<clus scale="   88.174">  5  6 -1 -1</clus>
<clus scale="   89.551">  1  5  2 -1</clus>
<clus scale="   90.968">  7  8 -1 -1</clus>
<clus scale="   25.511">  1  5  2 -1</clus>
</clustering>
</event>
<event>
 9    2  0.1751298E-004  0.1063783E+03  0.7546771E-02  0.1273126E+00
         21   -1    0    0  501  502  0.00000000000E+00  0.00000000000E+00  0.13800894249E+03  0.13800894249E+03  0.00000000000E+00 0. -1.
          2   -1    0    0  502    0 -0.00000000000E+00 -0.00000000000E+00 -0.20138051187E+03  0.20138051187E+03  0.00000000000E+00 0. -1.
         24    2    1    2    0    0 -0.40068052627E+02 -0.58573945921E+02 -0.11394981239E+03  0.15555252461E+03  0.78585445133E+02 0.  0.
         23    2    1    2    0    0 -0.27908899724E+02  0.22108857040E+02  0.17649116853E+02  0.99962642216E+02  0.91724207654E+02 0.  0.
        -13    1    3    3    0    0 -0.21804441397E+02  0.55890262414E+01  0.11264459949E+01  0.22537518931E+02  0.00000000000E+00 0.  1.
         14    1    3    3    0    0 -0.18263611230E+02 -0.64162972162E+02 -0.11507625839E+03  0.13301500568E+03  0.00000000000E+00 0. -1.
        -11    1    4    4    0    0 -0.32410969720E+02 -0.26250602950E+02 -0.11568911763E+02  0.43282846866E+02  0.00000000000E+00 0. -1.
         11    1    4    4    0    0  0.45020699955E+01  0.48359459991E+02  0.29218028615E+02  0.56679795351E+02  0.00000000000E+00 0.  1.
          1    1    1    2  501    0  0.67976952351E+02  0.36465088880E+02  0.32929126165E+02  0.83874287526E+02  0.00000000000E+00 0. -1.
<scales pt_clust_5="13000.00000" pt_clust_6="13000.00000" pt_clust_7="13000.00000" pt_clust_8="13000.00000" pt_clust_9="77.13993"></scales>
<clustering>
<clus scale="   77.140">  1  9  2 -1</clus>
<clus scale="   78.585">  5  6 -1 -1</clus>
<clus scale="   91.724">  7  8 -1 -1</clus>
<clus scale="   95.282">  2  5  1 -1</clus>
<clus scale="   77.140">  1  5  2 -1</clus>
</clustering>
</event>
<event>
 9    2  0.1751298E-004  0.1070439E+03  0.7546771E-02  0.1269846E+00
         21   -1    0    0  501  502  0.00000000000E+00  0.00000000000E+00  0.26448478159E+03  0.26448478159E+03  0.00000000000E+00 0.  1.
         -1   -1    0    0    0  501 -0.00000000000E+00 -0.00000000000E+00 -0.14537491467E+03  0.14537491467E+03  0.00000000000E+00 0.  1.
         24    2    1    2    0    0 -0.54431411746E+02 -0.19869732617E+02 -0.65370573849E+02  0.11873378484E+03  0.80416508736E+02 0.  0.
         23    2    1    2    0    0  0.74375912419E+02 -0.14815350869E+02  0.21220383095E+03  0.24244917687E+03  0.89441972949E+02 0.  0.
        -11    1    3    3    0    0 -0.71154985184E+02 -0.24505397574E+02 -0.67696649650E+02  0.10122441801E+03  0.00000000000E+00 0.  1.
         12    1    3    3    0    0  0.16723573438E+02  0.46356649575E+01  0.23260758015E+01  0.17509366830E+02  0.00000000000E+00 0. -1.
        -13    1    4    4    0    0  0.34372892594E+02  0.29251304799E+02  0.40206223898E+02  0.60445636880E+02  0.00000000000E+00 0. -1.
         13    1    4    4    0    0  0.40003019825E+02 -0.44066655668E+02  0.17199760705E+03  0.18200353999E+03  0.00000000000E+00 0.  1.
         -2    1    1    2    0  502 -0.19944500674E+02  0.34685083486E+02 -0.27723390184E+02  0.48676734554E+02  0.00000000000E+00 0.  1.
<scales pt_clust_5="13000.00000" pt_clust_6="13000.00000" pt_clust_7="13000.00000" pt_clust_8="13000.00000" pt_clust_9="40.01050"></scales>
<clustering>
<clus scale="   40.010">  1  9  2 -1</clus>
<clus scale="   80.417">  5  6 -1 -1</clus>
<clus scale="   89.442">  7  8 -1 -1</clus>
<clus scale="   99.626">  2  5  1 -1</clus>
<clus scale="   40.010">  1  5  2 -1</clus>
</clustering>
</event>
<event>
 9    2  0.1751298E-004  0.1059161E+03  0.7546771E-02  0.1279052E+00
         21   -1    0    0  501  502  0.00000000000E+00  0.00000000000E+00  0.18220787482E+03  0.18220787482E+03  0.00000000000E+00 0.  1.
         -1   -1    0    0    0  501 -0.00000000000E+00 -0.00000000000E+00 -0.14107385380E+03  0.14107385380E+03  0.00000000000E+00 0.  1.
         23    2    1    2    0    0 -0.41902558114E+02 -0.14200939336E+02 -0.90913711142E+02  0.14228291587E+03  0.10010811267E+03 0.  0.
         24    2    1    2    0    0  0.33281842252E+01  0.83182431072E+00  0.64141434592E+02  0.10176510271E+03  0.78931893144E+02 0.  0.
        -13    1    4    4    0    0  0.32900760948E+02 -0.20933296457E+02  0.18427478423E+02  0.43130440904E+02  0.00000000000E+00 0.  1.
         14    1    4    4    0    0 -0.29572576723E+02  0.21765120767E+02  0.45713956169E+02  0.58634661802E+02  0.00000000000E+00 0. -1.
        -13    1    3    3    0    0 -0.12905094441E+02  0.34776964822E+02 -0.25597041342E+01  0.37182399465E+02  0.00000000000E+00 0. -1.
         13    1    3    3    0    0 -0.28997463673E+02 -0.48977904158E+02 -0.88354007008E+02  0.10510051641E+03  0.00000000000E+00 0.  1.
         -2    1    1    2    0  502  0.38574373888E+02  0.13369115025E+02  0.67906297573E+02  0.79233710045E+02  0.00000000000E+00 0.  1.
<scales pt_clust_5="13000.00000" pt_clust_6="13000.00000" pt_clust_7="13000.00000" pt_clust_8="13000.00000" pt_clust_9="40.82543"></scales>
<clustering>
<clus scale="   40.825">  1  9  2 -1</clus>
<clus scale="   78.932">  5  6 -1 -1</clus>
<clus scale="   86.179">  1  5  2 -1</clus>
<clus scale="  100.108">  7  8 -1 -1</clus>
<clus scale="   40.825">  1  5  2 -1</clus>
</clustering>
</event>
<event>
 9    2  0.1751298E-004  0.1405483E+03  0.7546771E-02  0.1215541E+00
         21   -1    0    0  501  502  0.00000000000E+00  0.00000000000E+00  0.17950557197E+03  0.17950557197E+03  0.00000000000E+00 0. -1.
          4   -1    0    0  502    0 -0.00000000000E+00 -0.00000000000E+00 -0.20198197006E+03  0.20198197006E+03  0.00000000000E+00 0. -1.
         23    2    1    2    0    0 -0.86212091455E+02  0.66184102292E+02 -0.92970043307E+02  0.17076706514E+03  0.93301133307E+02 0.  0.
         24    2    1    2    0    0  0.80622353326E+02 -0.46492530466E+02  0.11094246106E+03  0.16538715718E+03  0.79894698513E+02 0.  0.
        -13    1    4    4    0    0 -0.49921976023E+00 -0.40926057762E+02  0.30849539885E+02  0.51253151468E+02  0.00000000000E+00 0.  1.
         14    1    4    4    0    0  0.81121573087E+02 -0.55664727036E+01  0.80092921171E+02  0.11413400571E+03  0.00000000000E+00 0. -1.
        -13    1    3    3    0    0 -0.36473696411E+02 -0.21194555884E+02 -0.21019953229E+02  0.47131498626E+02  0.00000000000E+00 0.  1.
         13    1    3    3    0    0 -0.49738395044E+02  0.87378658176E+02 -0.71950090078E+02  0.12363556652E+03  0.00000000000E+00 0. -1.
          3    1    1    2  501    0  0.55897381284E+01 -0.19691571827E+02 -0.40448815835E+02  0.45333319708E+02  0.00000000000E+00 0. -1.
<scales pt_clust_5="13000.00000" pt_clust_6="13000.00000" pt_clust_7="13000.00000" pt_clust_8="13000.00000" pt_clust_9="20.46958"></scales>
<clustering>
<clus scale="   20.470">  1  9  2 -1</clus>
<clus scale="   79.895">  5  6 -1 -1</clus>
<clus scale="   93.301">  7  8 -1 -1</clus>
<clus scale="  132.030">  1  5  2 -1</clus>
<clus scale="   20.470">  1  5  2 -1</clus>
</clustering>
</event>
<event>
 9    2  0.1751298E-004  0.3196563E+03  0.7546771E-02  0.1116062E+00
         21   -1    0    0  501  502  0.00000000000E+00  0.00000000000E+00  0.16445836234E+03  0.16445836234E+03  0.00000000000E+00 0. -1.
          2   -1    0    0  502    0 -0.00000000000E+00 -0.00000000000E+00 -0.85635030807E+03  0.85635030807E+03  0.00000000000E+00 0. -1.
         23    2    1    2    0    0  0.41247979509E+02  0.44561984307E+02 -0.12603783102E+03  0.16831137248E+03  0.93573591358E+02 0.  0.
         24    2    1    2    0    0  0.18238396357E+03 -0.25686938147E+03 -0.34074550746E+03  0.47071259170E+03  0.78848296269E+02 0.  0.
        -13    1    4    4    0    0  0.34288767381E+02 -0.67637996776E+02 -0.39923300429E+02  0.85699988877E+02  0.00000000000E+00 0.  1.
         14    1    4    4    0    0  0.14809519618E+03 -0.18923138469E+03 -0.30082220704E+03  0.38501260282E+03  0.00000000000E+00 0. -1.
        -13    1    3    3    0    0 -0.22324190012E+02  0.11052963844E+02 -0.20393877698E+01  0.24993930701E+02  0.00000000000E+00 0.  1.
         13    1    3    3    0    0  0.63572169521E+02  0.33509020463E+02 -0.12399844325E+03  0.14331744178E+03  0.00000000000E+00 0. -1.
          1    1    1    2  501    0 -0.22363194307E+03  0.21230739716E+03 -0.22510860725E+03  0.38178470623E+03  0.00000000000E+00 0. -1.
<scales pt_clust_5="13000.00000" pt_clust_6="13000.00000" pt_clust_7="13000.00000" pt_clust_8="13000.00000" pt_clust_9="309.77914"></scales>
<clustering>
<clus scale="   78.848">  5  6 -1 -1</clus>
<clus scale="   93.574">  7  8 -1 -1</clus>
<clus scale="  111.549">  2  7  1 -1</clus>
<clus scale="  309.779">  1  9  2 -1</clus>
<clus scale="  309.779">  1  5  2 -1</clus>
</clustering>
</event>
<event>
 9    2  0.1751298E-004  0.1128699E+03  0.7546771E-02  0.1258369E+00
         21   -1    0    0  501  502  0.00000000000E+00  0.00000000000E+00  0.55944231870E+03  0.55944231870E+03  0.00000000000E+00 0.  1.
          2   -1    0    0  502    0 -0.00000000000E+00 -0.00000000000E+00 -0.60056619244E+02  0.60056619244E+02  0.00000000000E+00 0. -1.
         23    2    1    2    0    0 -0.16872872002E+02 -0.65312195551E+02  0.36401075522E+02  0.11883368756E+03  0.90807655525E+02 0.  0.
         24    2    1    2    0    0 -0.45769804424E+02  0.73709097268E+02  0.36429986827E+03  0.38347611322E+03  0.82532595840E+02 0.  0.
        -13    1    4    4    0    0 -0.20668974867E+02  0.82796122839E+02  0.20656618234E+03  0.22349942319E+03  0.00000000000E+00 0.  1.
         14    1    4    4    0    0 -0.25100829556E+02 -0.90870255706E+01  0.15773368593E+03  0.15997669003E+03  0.00000000000E+00 0. -1.
        -11    1    3    3    0    0  0.35918434308E+02 -0.35294186146E+02  0.27735104718E+02  0.57489560205E+02  0.00000000000E+00 0.  1.
         11    1    3    3    0    0 -0.52791306310E+02 -0.30018009405E+02  0.86659708038E+01  0.61344127351E+02  0.00000000000E+00 0. -1.
          1    1    1    2  501    0  0.62642676425E+02 -0.83969017174E+01  0.98684755662E+02  0.11718913716E+03  0.00000000000E+00 0. -1.
<scales pt_clust_5="13000.00000" pt_clust_6="13000.00000" pt_clust_7="13000.00000" pt_clust_8="13000.00000" pt_clust_9="63.20295"></scales>
<clustering>
<clus scale="   63.203">  1  9  2 -1</clus>
<clus scale="   82.533">  5  6 -1 -1</clus>
<clus scale="   90.808">  7  8 -1 -1</clus>
<clus scale="  106.326">  1  5  2 -1</clus>
<clus scale="   63.203">  1  5  2 -1</clus>
</clustering>
</event>
<event>
 9    2  0.1751298E-004  0.3182875E+03  0.7546771E-02  0.1090706E+00
         21   -1    0    0  501  502  0.00000000000E+00  0.00000000000E+00  0.14220651125E+03  0.14220651125E+03  0.00000000000E+00 0.  1.
          2   -1    0    0  502    0 -0.00000000000E+00 -0.00000000000E+00 -0.16091890694E+04  0.16091890694E+04  0.00000000000E+00 0. -1.
         23    2    1    2    0    0 -0.18756686901E+03 -0.54278084098E+02 -0.53820808483E+03  0.58041681362E+03  0.95332545302E+02 0.  0.
         24    2    1    2    0    0 -0.17345426662E+03 -0.18955285525E+03 -0.26318944416E+03  0.37549575754E+03  0.75575874943E+02 0.  0.
        -13    1    4    4    0    0 -0.98555027672E+02 -0.82816897303E+02 -0.83349206289E+02  0.15335847596E+03  0.00000000000E+00 0.  1.
         14    1    4    4    0    0 -0.74899238949E+02 -0.10673595795E+03 -0.17984023787E+03  0.22213728159E+03  0.00000000000E+00 0. -1.
        -11    1    3    3    0    0 -0.11968214400E+03  0.22940229760E+01 -0.22349839923E+03  0.25353621554E+03  0.00000000000E+00 0. -1.
         11    1    3    3    0    0 -0.67884725009E+02 -0.56572107074E+02 -0.31470968560E+03  0.32688059808E+03  0.00000000000E+00 0.  1.
          1    1    1    2  501    0  0.36102113563E+03  0.24383093935E+03 -0.66558502920E+03  0.79548300953E+03  0.00000000000E+00 0. -1.
<scales pt_clust_5="13000.00000" pt_clust_6="13000.00000" pt_clust_7="13000.00000" pt_clust_8="13000.00000" pt_clust_9="309.18491"></scales>
<clustering>
<clus scale="   75.576">  5  6 -1 -1</clus>
<clus scale="   95.333">  7  8 -1 -1</clus>
<clus scale="  217.292">  2  7  1 -1</clus>
<clus scale="  309.185">  1  9  2 -1</clus>
<clus scale="  309.185">  1  5  2 -1</clus>
</clustering>
</event>
<event>
 9    2  0.1751298E-004  0.2729538E+03  0.7546771E-02  0.1100303E+00
         21   -1    0    0  501  502  0.00000000000E+00  0.00000000000E+00  0.14873777085E+03  0.14873777085E+03  0.00000000000E+00 0. -1.
          2   -1    0    0  502    0 -0.00000000000E+00 -0.00000000000E+00 -0.78643794120E+03  0.78643794120E+03  0.00000000000E+00 0. -1.
         23    2    1    2    0    0 -0.23135814136E+02 -0.22754852432E+03 -0.13723246966E+03  0.28234230834E+03  0.92578785537E+02 0.  0.
         24    2    1    2    0    0  0.62425845009E+02  0.27875530830E+03 -0.22982159454E+03  0.37459761157E+03  0.76836822211E+02 0.  0.
        -13    1    4    4    0    0  0.40677578382E+02  0.25156992275E+03 -0.17318135250E+03  0.30811340813E+03  0.00000000000E+00 0.  1.
         14    1    4    4    0    0  0.21748266627E+02  0.27185385547E+02 -0.56640242041E+02  0.66484203440E+02  0.00000000000E+00 0. -1.
        -11    1    3    3    0    0 -0.38713213554E+02 -0.20429083109E+03 -0.88153645428E+02  0.22584180697E+03  0.00000000000E+00 0. -1.
         11    1    3    3    0    0  0.15577399419E+02 -0.23257693232E+02 -0.49078824236E+02  0.56500501374E+02  0.00000000000E+00 0.  1.
          1    1    1    2  501    0 -0.39290030873E+02 -0.51206783973E+02 -0.27064610614E+03  0.27823579213E+03  0.00000000000E+00 0. -1.
<scales pt_clust_5="13000.00000" pt_clust_6="13000.00000" pt_clust_7="13000.00000" pt_clust_8="13000.00000" pt_clust_9="64.54336"></scales>
<clustering>
<clus scale="   64.543">  1  9  2 -1</clus>
<clus scale="   76.837">  5  6 -1 -1</clus>
<clus scale="   92.579">  7  8 -1 -1</clus>
<clus scale="  268.024">  1  5  2 -1</clus>
<clus scale="   64.543">  1  5  2 -1</clus>
</clustering>
</event>
<event>
 9    2  0.1751298E-004  0.9514405E+02  0.7546771E-02  0.1295859E+00
         -3   -1    0    0    0  501 -0.00000000000E+00  0.00000000000E+00  0.18561957539E+03  0.18561957539E+03  0.00000000000E+00 0.  1.
         21   -1    0    0  501  502  0.00000000000E+00 -0.00000000000E+00 -0.10184439221E+03  0.10184439221E+03  0.00000000000E+00 0. -1.
         23    2    1    2    0    0  0.23462525970E+02 -0.57233972449E+01  0.10965397570E+03  0.14446154140E+03  0.90894967713E+02 0.  0.
         24    2    1    2    0    0 -0.43228370612E+02 -0.32002167434E+02 -0.18167675348E+02  0.99720002833E+02  0.81982826196E+02 0.  0.
        -11    1    4    4    0    0 -0.29093660298E+02 -0.14022374811E+02  0.31453400165E+02  0.45081974743E+02  0.00000000000E+00 0.  1.
         12    1    4    4    0    0 -0.14134710314E+02 -0.17979792624E+02 -0.49621075513E+02  0.54638028089E+02  0.00000000000E+00 0. -1.
        -13    1    3    3    0    0 -0.46769304189E+01  0.21761966100E+02  0.10198463401E+03  0.10438545120E+03  0.00000000000E+00 0. -1.
         13    1    3    3    0    0  0.28139456389E+02 -0.27485363345E+02  0.76693416883E+01  0.40076090204E+02  0.00000000000E+00 0.  1.
         -4    1    1    2    0  502  0.19765844641E+02  0.37725564679E+02 -0.77111171693E+01  0.43282423370E+02  0.00000000000E+00 0.  1.
<scales pt_clust_5="13000.00000" pt_clust_6="13000.00000" pt_clust_7="13000.00000" pt_clust_8="13000.00000" pt_clust_9="42.58999"></scales>
<clustering>
<clus scale="   42.590">  2  9  1 -1</clus>
<clus scale="   81.983">  5  6 -1 -1</clus>
<clus scale="   86.670">  2  5  1 -1</clus>
<clus scale="   90.895">  7  8 -1 -1</clus>
<clus scale="   42.590">  2  5  1 -1</clus>
</clustering>
</event>
<event>
 9    2  0.1751298E-004  0.1113141E+03  0.7546771E-02  0.1267791E+00
         21   -1    0    0  501  502  0.00000000000E+00  0.00000000000E+00  0.30551233046E+02  0.30551233046E+02  0.00000000000E+00 0.  1.
          2   -1    0    0  502    0 -0.00000000000E+00 -0.00000000000E+00 -0.86778062683E+03  0.86778062683E+03  0.00000000000E+00 0. -1.
         23    2    1    2    0    0 -0.72074964636E+02  0.34574276529E+02 -0.31038694664E+03  0.33301616580E+03  0.90385446367E+02 0.  0.
         24    2    1    2    0    0  0.15127298362E+02 -0.53593802335E+02 -0.90186979585E+02  0.12455183847E+03  0.65409008372E+02 0.  0.
        -13    1    4    4    0    0  0.11052699522E+02 -0.46056312579E+02 -0.16181278289E+02  0.50051771818E+02  0.00000000000E+00 0.  1.
         14    1    4    4    0    0  0.40745988399E+01 -0.75374897569E+01 -0.74005701296E+02  0.74500066656E+02  0.00000000000E+00 0. -1.
        -13    1    3    3    0    0 -0.15085989362E+02 -0.28718329006E+02 -0.55602786715E+02  0.64373902991E+02  0.00000000000E+00 0. -1.
         13    1    3    3    0    0 -0.56988975274E+02  0.63292605535E+02 -0.25478415993E+03  0.26864226281E+03  0.00000000000E+00 0.  1.
          1    1    1    2  501    0  0.56947666274E+02  0.19019525806E+02 -0.43665546756E+03  0.44076385561E+03  0.00000000000E+00 0. -1.
<scales pt_clust_5="13000.00000" pt_clust_6="13000.00000" pt_clust_7="13000.00000" pt_clust_8="13000.00000" pt_clust_9="60.03984"></scales>
<clustering>
<clus scale="   60.040">  1  9  2 -1</clus>
<clus scale="   65.409">  5  6 -1 -1</clus>
<clus scale="   90.385">  7  8 -1 -1</clus>
<clus scale="   92.193">  1  5  2 -1</clus>
<clus scale="   60.040">  1  5  2 -1</clus>
</clustering>
</event>
<event>
 9    2  0.1751298E-004  0.1511161E+03  0.7546771E-02  0.1201764E+00
         21   -1    0    0  501  502  0.00000000000E+00  0.00000000000E+00  0.31260121884E+03  0.31260121884E+03  0.00000000000E+00 0. -1.
          2   -1    0    0  502    0 -0.00000000000E+00 -0.00000000000E+00 -0.45833323804E+03  0.45833323804E+03  0.00000000000E+00 0. -1.
         23    2    1    2    0    0 -0.45840349919E+02 -0.12518288346E+03 -0.40198986527E+03  0.43340578357E+03  0.92046887273E+02 0.  0.
         24    2    1    2    0    0  0.37177198387E+02  0.48550825315E+02  0.37385017907E+02  0.10546653198E+03  0.77370686220E+02 0.  0.
        -13    1    4    4    0    0  0.59035965458E+02  0.41048377942E+02  0.15328365830E+02  0.73519884033E+02  0.00000000000E+00 0.  1.
         14    1    4    4    0    0 -0.21858767072E+02  0.75024473729E+01  0.22056652076E+02  0.31946647951E+02  0.00000000000E+00 0. -1.
        -11    1    3    3    0    0 -0.70022510118E+02 -0.63573276318E+02 -0.26229874170E+03  0.27882851950E+03  0.00000000000E+00 0. -1.
         11    1    3    3    0    0  0.24182160199E+02 -0.61609607143E+02 -0.13969112357E+03  0.15457726407E+03  0.00000000000E+00 0.  1.
          1    1    1    2  501    0  0.86631515325E+01  0.76632058146E+02  0.21887282816E+03  0.23206214133E+03  0.00000000000E+00 0. -1.
<scales pt_clust_5="13000.00000" pt_clust_6="13000.00000" pt_clust_7="13000.00000" pt_clust_8="13000.00000" pt_clust_9="77.12018"></scales>
<clustering>
<clus scale="   77.120">  1  9  2 -1</clus>
<clus scale="   77.371">  5  6 -1 -1</clus>
<clus scale="   92.047">  7  8 -1 -1</clus>
<clus scale="  142.652">  1  5  2 -1</clus>
<clus scale="   77.120">  1  5  2 -1</clus>
</clustering>
</event>
<event>
 9    2  0.1751298E-004  0.1058645E+03  0.7546771E-02  0.1274545E+00
         21   -1    0    0  501  502  0.00000000000E+00  0.00000000000E+00  0.73905895242E+02  0.73905895242E+02  0.00000000000E+00 0.  1.
          2   -1    0    0  502    0 -0.00000000000E+00 -0.00000000000E+00 -0.24922117168E+03  0.24922117168E+03  0.00000000000E+00 0. -1.
         23    2    1    2    0    0 -0.14187752581E+01  0.47252279666E+02 -0.12072339378E+03  0.15885875771E+03  0.91799652706E+02 0.  0.
         24    2    1    2    0    0  0.17804129023E+02 -0.66477203298E+02  0.17840592832E+00  0.10395361765E+03  0.77910957033E+02 0.  0.
        -13    1    4    4    0    0  0.21308417980E+02 -0.58627874861E+02 -0.32377391264E+02  0.70282087708E+02  0.00000000000E+00 0.  1.
         14    1    4    4    0    0 -0.35042889572E+01 -0.78493284377E+01  0.32555797193E+02  0.33671529945E+02  0.00000000000E+00 0. -1.
        -11    1    3    3    0    0 -0.43243277965E+02  0.19536056220E+02 -0.32994125588E+02  0.57794903798E+02  0.00000000000E+00 0.  1.
         11    1    3    3    0    0  0.41824502707E+02  0.27716223446E+02 -0.87729268196E+02  0.10106385391E+03  0.00000000000E+00 0. -1.
          1    1    1    2  501    0 -0.16385353765E+02  0.19224923633E+02 -0.54770288588E+02  0.60314691566E+02  0.00000000000E+00 0. -1.
<scales pt_clust_5="13000.00000" pt_clust_6="13000.00000" pt_clust_7="13000.00000" pt_clust_8="13000.00000" pt_clust_9="25.26021"></scales>
<clustering>
<clus scale="   25.260">  1  9  2 -1</clus>
<clus scale="   77.911">  5  6 -1 -1</clus>
<clus scale="   91.800">  7  8 -1 -1</clus>
<clus scale="   94.076">  1  5  2 -1</clus>
<clus scale="   25.260">  1  5  2 -1</clus>
</clustering>
</event>
<event>
 9    2  0.1751298E-004  0.1009097E+03  0.7546771E-02  0.1283400E+00
          2   -1    0    0  502    0 -0.00000000000E+00  0.00000000000E+00  0.42488018400E+03  0.42488018400E+03  0.00000000000E+00 0. -1.
         21   -1    0    0  501  502  0.00000000000E+00 -0.00000000000E+00 -0.37550780677E+02  0.37550780677E+02  0.00000000000E+00 0.  1.
         23    2    1    2    0    0  0.15245953878E+02  0.42118765748E+02  0.30140755984E+03  0.31807650217E+03  0.91212469339E+02 0.  0.
         24    2    1    2    0    0 -0.33247171956E+02 -0.27227385642E+02  0.60513111801E+02  0.10983778974E+03  0.80967884884E+02 0.  0.
        -11    1    4    4    0    0 -0.49944629751E+02 -0.23141951630E+02  0.93114932485E+01  0.55827590605E+02  0.00000000000E+00 0.  1.
         12    1    4    4    0    0  0.16697457796E+02 -0.40854340118E+01  0.51201618552E+02  0.54010199132E+02  0.00000000000E+00 0. -1.
        -11    1    3    3    0    0  0.42287783368E+02  0.55789547896E+02  0.23227072093E+03  0.24259105110E+03  0.00000000000E+00 0. -1.
         11    1    3    3    0    0 -0.27041829491E+02 -0.13670782148E+02  0.69136838916E+02  0.75485451061E+02  0.00000000000E+00 0.  1.
          1    1    1    2  501    0  0.18001218078E+02 -0.14891380106E+02  0.25408731678E+02  0.34516672772E+02  0.00000000000E+00 0. -1.
<scales pt_clust_5="13000.00000" pt_clust_6="13000.00000" pt_clust_7="13000.00000" pt_clust_8="13000.00000" pt_clust_9="23.36230"></scales>
<clustering>
<clus scale="   23.362">  2  9  1 -1</clus>
<clus scale="   80.968">  5  6 -1 -1</clus>
<clus scale="   91.212">  7  8 -1 -1</clus>
<clus scale="   91.754">  2  5  1 -1</clus>
<clus scale="   23.362">  2  5  1 -1</clus>
</clustering>
</event>
<event>
 9    2  0.1751298E-004  0.9684570E+02  0.7546771E-02  0.1292810E+00
         21   -1    0    0  501  502  0.00000000000E+00  0.00000000000E+00  0.14743974192E+03  0.14743974192E+03  0.00000000000E+00 0.  1.
          2   -1    0    0  502    0 -0.00000000000E+00 -0.00000000000E+00 -0.29264132770E+03  0.29264132770E+03  0.00000000000E+00 0. -1.
         23    2    1    2    0    0 -0.40114503388E+01  0.25150502738E+02 -0.30745531554E+02  0.10031229573E+03  0.92025156570E+02 0.  0.
         24    2    1    2    0    0 -0.51916616316E+02 -0.39439397853E+02  0.83411949665E+02  0.13365262187E+03  0.81576153585E+02 0.  0.
        -13    1    4    4    0    0  0.78105091420E+00 -0.40406354494E+02  0.67364302882E+02  0.78557194622E+02  0.00000000000E+00 0.  1.
         14    1    4    4    0    0 -0.52697667230E+02  0.96695664091E+00  0.16047646783E+02  0.55095427250E+02  0.00000000000E+00 0. -1.
        -13    1    3    3    0    0  0.24241989277E+02 -0.22769499032E+02  0.57895387213E+01  0.33758597259E+02  0.00000000000E+00 0.  1.
         13    1    3    3    0    0 -0.28253439615E+02  0.47920001770E+02 -0.36535070275E+02  0.66553698468E+02  0.00000000000E+00 0. -1.
          1    1    1    2  501    0  0.55928066655E+02  0.14288895115E+02 -0.19786800389E+03  0.20611615203E+03  0.00000000000E+00 0. -1.
<scales pt_clust_5="13000.00000" pt_clust_6="13000.00000" pt_clust_7="13000.00000" pt_clust_8="13000.00000" pt_clust_9="57.72456"></scales>
<clustering>
<clus scale="   57.725">  1  9  2 -1</clus>
<clus scale="   81.576">  5  6 -1 -1</clus>
<clus scale="   86.978">  1  5  2 -1</clus>
<clus scale="   92.025">  7  8 -1 -1</clus>
<clus scale="   57.725">  1  5  2 -1</clus>
</clustering>
</event>
<event>
 9    2  0.1751298E-004  0.9554538E+02  0.7546771E-02  0.1294645E+00
         -3   -1    0    0    0  501 -0.00000000000E+00  0.00000000000E+00  0.56288542155E+02  0.56288542155E+02  0.00000000000E+00 0.  1.
         21   -1    0    0  501  502  0.00000000000E+00 -0.00000000000E+00 -0.23372867673E+03  0.23372867673E+03  0.00000000000E+00 0.  1.
         23    2    1    2    0    0 -0.32218023406E+02  0.33942006830E+01 -0.25308398433E+02  0.10078005650E+03  0.92014037659E+02 0.  0.
         24    2    1    2    0    0  0.92584939338E+01 -0.45261708588E+01 -0.13954227793E+03  0.16302808365E+03  0.83665421756E+02 0.  0.
        -13    1    4    4    0    0 -0.25574304697E+02  0.20264568001E+01 -0.11967929229E+03  0.12239805796E+03  0.00000000000E+00 0.  1.
         14    1    4    4    0    0  0.34832798631E+02 -0.65526276589E+01 -0.19862985634E+02  0.40630025695E+02  0.00000000000E+00 0. -1.
        -13    1    3    3    0    0  0.27249130820E+02  0.37938429553E+01  0.12596489727E+02  0.30258551325E+02  0.00000000000E+00 0. -1.
         13    1    3    3    0    0 -0.59467154226E+02 -0.39964227224E+00 -0.37904888160E+02  0.70521505175E+02  0.00000000000E+00 0.  1.
         -4    1    1    2    0  502  0.22959529472E+02  0.11319701758E+01 -0.12589458219E+02  0.26209078739E+02  0.00000000000E+00 0.  1.
<scales pt_clust_5="13000.00000" pt_clust_6="13000.00000" pt_clust_7="13000.00000" pt_clust_8="13000.00000" pt_clust_9="22.98743"></scales>
<clustering>
<clus scale="   22.987">  2  9  1 -1</clus>
<clus scale="   83.665">  5  6 -1 -1</clus>
<clus scale="   87.534">  2  5  1 -1</clus>
<clus scale="   92.014">  7  8 -1 -1</clus>
<clus scale="   22.987">  2  5  1 -1</clus>
</clustering>
</event>
<event>
 9    2  0.1751298E-004  0.1347976E+03  0.7546771E-02  0.1223797E+00
          2   -1    0    0  502    0 -0.00000000000E+00  0.00000000000E+00  0.43421736642E+03  0.43421736642E+03  0.00000000000E+00 0. -1.
         21   -1    0    0  501  502  0.00000000000E+00 -0.00000000000E+00 -0.62936586053E+02  0.62936586053E+02  0.00000000000E+00 0.  1.
         24    2    1    2    0    0 -0.10203531313E+03 -0.43705758080E+02  0.17384695501E+03  0.22154109422E+03  0.80847351500E+02 0.  0.
         23    2    1    2    0    0  0.52130107533E+02  0.63896135671E+02  0.86100111915E+02  0.15194646572E+03  0.94203157640E+02 0.  0.
        -11    1    3    3    0    0 -0.41656571493E+02  0.22807543803E+02  0.60454111435E+02  0.76877523323E+02  0.00000000000E+00 0.  1.
         12    1    3    3    0    0 -0.60378741639E+02 -0.66513301883E+02  0.11339284358E+03  0.14466357090E+03  0.00000000000E+00 0. -1.
        -11    1    4    4    0    0  0.16639004542E+02 -0.22986033787E+02  0.70491685077E+01  0.29238758490E+02  0.00000000000E+00 0.  1.
         11    1    4    4    0    0  0.35491102991E+02  0.86882169458E+02  0.79050943407E+02  0.12270770723E+03  0.00000000000E+00 0. -1.
          1    1    1    2  501    0  0.49905205599E+02 -0.20190377591E+02  0.11133371344E+03  0.12366639253E+03  0.00000000000E+00 0. -1.
<scales pt_clust_5="13000.00000" pt_clust_6="13000.00000" pt_clust_7="13000.00000" pt_clust_8="13000.00000" pt_clust_9="53.83478"></scales>
<clustering>
<clus scale="   53.835">  2  9  1 -1</clus>
<clus scale="   80.847">  5  6 -1 -1</clus>
<clus scale="   94.203">  7  8 -1 -1</clus>
<clus scale="  125.827">  1  5  2 -1</clus>
<clus scale="   53.835">  2  5  1 -1</clus>
</clustering>
</event>
<event>
 9    2  0.1751298E-004  0.1005115E+03  0.7546771E-02  0.1283658E+00
         21   -1    0    0  501  502  0.00000000000E+00  0.00000000000E+00  0.27788133183E+03  0.27788133183E+03  0.00000000000E+00 0.  1.
         -1   -1    0    0    0  501 -0.00000000000E+00 -0.00000000000E+00 -0.72308815868E+02  0.72308815868E+02  0.00000000000E+00 0.  1.
         23    2    1    2    0    0 -0.40744142720E+02 -0.24356174805E+01 -0.11787948468E+02  0.10016869548E+03  0.90712702674E+02 0.  0.
         24    2    1    2    0    0  0.50853638521E+02  0.23802964964E+02  0.16306935370E+03  0.19080751679E+03  0.81628552959E+02 0.  0.
        -13    1    4    4    0    0  0.72897843614E+02  0.19967472420E+02  0.13687815376E+03  0.15635991984E+03  0.00000000000E+00 0.  1.
         14    1    4    4    0    0 -0.22044205093E+02  0.38354925433E+01  0.26191199941E+02  0.34447596949E+02  0.00000000000E+00 0. -1.
        -13    1    3    3    0    0 -0.55154864120E+02  0.28920194092E+02 -0.18597148515E+02  0.64994542811E+02  0.00000000000E+00 0.  1.
         13    1    3    3    0    0  0.14410721400E+02 -0.31355811572E+02  0.68092000470E+01  0.35174152668E+02  0.00000000000E+00 0. -1.
         -2    1    1    2    0  502 -0.10109495801E+02 -0.21367347483E+02  0.54291110729E+02  0.59213935421E+02  0.00000000000E+00 0.  1.
<scales pt_clust_5="13000.00000" pt_clust_6="13000.00000" pt_clust_7="13000.00000" pt_clust_8="13000.00000" pt_clust_9="23.63822"></scales>
<clustering>
<clus scale="   23.638">  1  9  2 -1</clus>
<clus scale="   81.629">  5  6 -1 -1</clus>
<clus scale="   90.713">  7  8 -1 -1</clus>
<clus scale="   92.396">  1  5  2 -1</clus>
<clus scale="   23.638">  1  5  2 -1</clus>
</clustering>
</event>
