<event>
 9    2  0.1302972E-004  0.1749032E+03  0.7546771E-02  0.1194219E+00
          2   -1    0    0  502    0 -0.00000000000E+00  0.00000000000E+00  0.51965210183E+03  0.51965210183E+03  0.00000000000E+00 0. -1.
         21   -1    0    0  501  502  0.00000000000E+00 -0.00000000000E+00 -0.18151113090E+03  0.18151113090E+03  0.00000000000E+00 0.  1.
         23    2    1    2    0    0  0.54981101271E+02  0.15442207304E+02 -0.10812460748E+02  0.10898903882E+03  0.92197169216E+02 0.  0.
         24    2    1    2    0    0 -0.91760137870E+02 -0.13343189323E+03 -0.38976526594E+02  0.18503304390E+03  0.80585759754E+02 0.  0.
        -11    1    4    4    0    0 -0.56191883692E+02 -0.39781569516E+02 -0.48779370734E+02  0.84377295971E+02  0.00000000000E+00 0.  1.
         12    1    4    4    0    0 -0.35568254178E+02 -0.93650323717E+02  0.98028441408E+01  0.10065574793E+03  0.00000000000E+00 0. -1.
        -11    1    3    3    0    0  0.52507944979E+02  0.42854481437E+02 -0.31322612999E+02  0.74663893216E+02  0.00000000000E+00 0.  1.
         11    1    3    3    0    0  0.24731562924E+01 -0.27412274132E+02  0.20510152251E+02  0.34325145601E+02  0.00000000000E+00 0. -1.
          1    1    1    2  501    0  0.36779036599E+02  0.11798968593E+03  0.38792995827E+03  0.40714115002E+03  0.00000000000E+00 0. -1.
<scales pt_clust_5="13000.00000" pt_clust_6="13000.00000" pt_clust_7="13000.00000" pt_clust_8="13000.00000" pt_clust_9="155.23241"></scales>
<clustering>
<clus scale="   80.586">  5  6 -1 -1</clus>
<clus scale="   92.197">  7  8 -1 -1</clus>
<clus scale="  108.451">  1  7  2 -1</clus>
<clus scale="  155.232">  2  9  1 -1</clus>
<clus scale="  155.232">  2  5  1 -1</clus>
</clustering>
</event>
<event>
 9    2  0.1302972E-004  0.1356430E+03  0.7546771E-02  0.1228995E+00
         21   -1    0    0  501  502  0.00000000000E+00  0.00000000000E+00  0.18034660353E+03  0.18034660353E+03  0.00000000000E+00 0.  1.
         -1   -1    0    0    0  501 -0.00000000000E+00 -0.00000000000E+00 -0.20334032797E+03  0.20334032797E+03  0.00000000000E+00 0.  1.
         24    2    1    2    0    0  0.51523621049E+02 -0.58285332528E+02 -0.50934072611E+02  0.12302480474E+03  0.80554076954E+02 0.  0.
         23    2    1    2    0    0  0.20791637293E+02  0.99129007006E+02  0.71088620120E+02  0.16707005602E+03  0.11224954119E+03 0.  0.
        -11    1    3    3    0    0  0.26302565698E+02 -0.45064877468E+02  0.12357312181E+02  0.53622488825E+02  0.00000000000E+00 0.  1.
         12    1    3    3    0    0  0.25221055352E+02 -0.13220455060E+02 -0.63291384792E+02  0.69402315912E+02  0.00000000000E+00 0. -1.
        -13    1    4    4    0    0  0.31920847569E+02 -0.12071707575E+02 -0.89221783864E+00  0.34138873531E+02  0.00000000000E+00 0. -1.
         13    1    4    4    0    0 -0.11129210276E+02  0.11120071458E+03  0.71980837959E+02  0.13293118249E+03  0.00000000000E+00 0.  1.
         -2    1    1    2    0  502 -0.72315258343E+02 -0.40843674478E+02 -0.43148271941E+02  0.93592070741E+02  0.00000000000E+00 0.  1.
<scales pt_clust_5="13000.00000" pt_clust_6="13000.00000" pt_clust_7="13000.00000" pt_clust_8="13000.00000" pt_clust_9="83.05245"></scales>
<clustering>
<clus scale="   80.554">  5  6 -1 -1</clus>
<clus scale="   83.052">  1  9  2 -1</clus>
<clus scale="  110.851">  2  5  1 -1</clus>
<clus scale="  112.250">  7  8 -1 -1</clus>
<clus scale="   83.052">  1  5  2 -1</clus>
</clustering>
</event>
<event>
 9    2  0.1302972E-004  0.9675162E+02  0.7546771E-02  0.1293319E+00
          2   -1    0    0  502    0 -0.00000000000E+00  0.00000000000E+00  0.61173708282E+03  0.61173708282E+03  0.00000000000E+00 0. -1.
         21   -1    0    0  501  502  0.00000000000E+00 -0.00000000000E+00 -0.29555769310E+02  0.29555769310E+02  0.00000000000E+00 0.  1.
         24    2    1    2    0    0 -0.20487190097E+02 -0.29697683548E+02  0.47237119783E+03  0.48051152343E+03  0.80343626054E+02 0.  0.
         23    2    1    2    0    0  0.84980378207E+01  0.91624349949E+01  0.96693449039E+02  0.13362468772E+03  0.91377060685E+02 0.  0.
        -11    1    3    3    0    0  0.24879915199E+02 -0.22862093293E+02  0.10540069098E+03  0.11068419557E+03  0.00000000000E+00 0.  1.
         12    1    3    3    0    0 -0.45367105296E+02 -0.68355902546E+01  0.36697050685E+03  0.36982732786E+03  0.00000000000E+00 0. -1.
        -11    1    4    4    0    0  0.35321069220E+02  0.15553662539E+02  0.62819588218E+01  0.39101884301E+02  0.00000000000E+00 0.  1.
         11    1    4    4    0    0 -0.26823031399E+02 -0.63912275444E+01  0.90411490217E+02  0.94522803419E+02  0.00000000000E+00 0. -1.
          1    1    1    2  501    0  0.11989152276E+02  0.20535248553E+02  0.13116666646E+02  0.27156640980E+02  0.00000000000E+00 0. -1.
<scales pt_clust_5="13000.00000" pt_clust_6="13000.00000" pt_clust_7="13000.00000" pt_clust_8="13000.00000" pt_clust_9="23.77890"></scales>
<clustering>
<clus scale="   23.779">  2  9  1 -1</clus>
<clus scale="   80.344">  5  6 -1 -1</clus>
<clus scale="   86.407">  1  5  2 -1</clus>
<clus scale="   91.377">  7  8 -1 -1</clus>
<clus scale="   23.779">  2  5  1 -1</clus>
</clustering>
</event>
<event>
 9    2  0.1302972E-004  0.1125525E+03  0.7546771E-02  0.1262074E+00
          2   -1    0    0  502    0 -0.00000000000E+00  0.00000000000E+00  0.14800879910E+04  0.14800879910E+04  0.00000000000E+00 0. -1.
         21   -1    0    0  501  502  0.00000000000E+00 -0.00000000000E+00 -0.23407054720E+02  0.23407054720E+02  0.00000000000E+00 0.  1.
         24    2    1    2    0    0 -0.44280135455E+02  0.33331156640E+02  0.11706286710E+04  0.11749948748E+04  0.84674517025E+02 0.  0.
         23    2    1    2    0    0  0.17171074095E+02 -0.22169837256E+02  0.11365478434E+03  0.15362773838E+03  0.99487308372E+02 0.  0.
        -11    1    3    3    0    0 -0.30406877137E+02  0.26070587065E+02  0.18698955588E+03  0.19123113684E+03  0.00000000000E+00 0.  1.
         12    1    3    3    0    0 -0.13873258318E+02  0.72605695749E+01  0.98363911516E+03  0.98376373791E+03  0.00000000000E+00 0. -1.
        -13    1    4    4    0    0  0.18063385872E+02 -0.56552330242E+02  0.37907088589E+02  0.70437201323E+02  0.00000000000E+00 0.  1.
         13    1    4    4    0    0 -0.89231177653E+00  0.34382492986E+02  0.75747695756E+02  0.83190537061E+02  0.00000000000E+00 0. -1.
          1    1    1    2  501    0  0.27109061359E+02 -0.11161319383E+02  0.17239748085E+03  0.17487243254E+03  0.00000000000E+00 0. -1.
<scales pt_clust_5="13000.00000" pt_clust_6="13000.00000" pt_clust_7="13000.00000" pt_clust_8="13000.00000" pt_clust_9="29.31684"></scales>
<clustering>
<clus scale="   29.317">  2  9  1 -1</clus>
<clus scale="   84.675">  5  6 -1 -1</clus>
<clus scale="   99.487">  7  8 -1 -1</clus>
<clus scale="   99.700">  1  5  2 -1</clus>
<clus scale="   29.317">  2  5  1 -1</clus>
</clustering>
</event>
<event>
 9    2  0.1302972E-004  0.1632724E+03  0.7546771E-02  0.1186706E+00
         21   -1    0    0  501  502  0.00000000000E+00  0.00000000000E+00  0.32249400521E+03  0.32249400521E+03  0.00000000000E+00 0.  1.
         -1   -1    0    0    0  501 -0.00000000000E+00 -0.00000000000E+00 -0.12460001921E+03  0.12460001921E+03  0.00000000000E+00 0.  1.
         24    2    1    2    0    0 -0.12661528488E+03 -0.95207839298E+02  0.12667785530E+02  0.17808160760E+03  0.80353115363E+02 0.  0.
         23    2    1    2    0    0  0.77967679940E+02  0.56878227688E+02  0.13259688608E+03  0.18773761553E+03  0.91374975702E+02 0.  0.
        -13    1    3    3    0    0 -0.10793185823E+03 -0.10356023774E+03  0.28420680817E+02  0.15225552193E+03  0.00000000000E+00 0.  1.
         14    1    3    3    0    0 -0.18683426649E+02  0.83523984435E+01 -0.15752895287E+02  0.25826085670E+02  0.00000000000E+00 0. -1.
        -11    1    4    4    0    0  0.76250639381E+02  0.78420144872E+02  0.97530651950E+02  0.14654728656E+03  0.00000000000E+00 0. -1.
         11    1    4    4    0    0  0.17170405590E+01 -0.21541917184E+02  0.35066234132E+02  0.41190328967E+02  0.00000000000E+00 0.  1.
         -2    1    1    2    0  502  0.48647604937E+02  0.38329611610E+02  0.52629314389E+02  0.81274801294E+02  0.00000000000E+00 0.  1.
<scales pt_clust_5="13000.00000" pt_clust_6="13000.00000" pt_clust_7="13000.00000" pt_clust_8="13000.00000" pt_clust_9="61.93342"></scales>
<clustering>
<clus scale="   61.933">  1  9  2 -1</clus>
<clus scale="   80.353">  5  6 -1 -1</clus>
<clus scale="   91.375">  7  8 -1 -1</clus>
<clus scale="  157.369">  2  5  1 -1</clus>
<clus scale="   61.933">  1  5  2 -1</clus>
</clustering>
</event>
<event>
 9    2  0.1302972E-004  0.9575429E+02  0.7546771E-02  0.1292496E+00
          2   -1    0    0  502    0 -0.00000000000E+00  0.00000000000E+00  0.13353661239E+03  0.13353661239E+03  0.00000000000E+00 0. -1.
         21   -1    0    0  501  502  0.00000000000E+00 -0.00000000000E+00 -0.14392622670E+03  0.14392622670E+03  0.00000000000E+00 0.  1.
         23    2    1    2    0    0  0.27469106101E+02  0.33020403122E+02  0.43372316286E+01  0.10086455560E+03  0.91158917199E+02 0.  0.
         24    2    1    2    0    0 -0.28021093666E+02  0.28084905869E+02 -0.49203058573E+02  0.10643580980E+03  0.85637007229E+02 0.  0.
        -11    1    4    4    0    0  0.23496646967E+01 -0.27694700484E+02 -0.28064763384E+02  0.39498712673E+02  0.00000000000E+00 0.  1.
         12    1    4    4    0    0 -0.30370758363E+02  0.55779606352E+02 -0.21138295189E+02  0.66937097127E+02  0.00000000000E+00 0. -1.
        -13    1    3    3    0    0  0.55397549574E+02  0.35504359171E+02  0.19970114218E+02  0.68762296943E+02  0.00000000000E+00 0.  1.
         13    1    3    3    0    0 -0.27928443473E+02 -0.24839560498E+01 -0.15632882590E+02  0.32102258652E+02  0.00000000000E+00 0. -1.
          1    1    1    2  501    0  0.55198756482E+00 -0.61105308990E+02  0.34476212633E+02  0.70162473692E+02  0.00000000000E+00 0. -1.
<scales pt_clust_5="13000.00000" pt_clust_6="13000.00000" pt_clust_7="13000.00000" pt_clust_8="13000.00000" pt_clust_9="61.10783"></scales>
<clustering>
<clus scale="   61.108">  2  9  1 -1</clus>
<clus scale="   85.637">  5  6 -1 -1</clus>
<clus scale="   90.513">  2  5  1 -1</clus>
<clus scale="   91.159">  7  8 -1 -1</clus>
<clus scale="   61.108">  2  5  1 -1</clus>
</clustering>
</event>
<event>
 9    2  0.1302972E-004  0.1302891E+03  0.7546771E-02  0.1227798E+00
         21   -1    0    0  501  502  0.00000000000E+00  0.00000000000E+00  0.68681674481E+02  0.68681674481E+02  0.00000000000E+00 0.  1.
         -1   -1    0    0    0  501 -0.00000000000E+00 -0.00000000000E+00 -0.53247431423E+03  0.53247431423E+03  0.00000000000E+00 0.  1.
         23    2    1    2    0    0 -0.66199208698E+01 -0.95456685340E+02 -0.40394707465E+03  0.42363231519E+03  0.84470688538E+02 0.  0.
         24    2    1    2    0    0  0.13280796561E+02  0.11732438952E+03 -0.44834176856E+02  0.15017581204E+03  0.81248256442E+02 0.  0.
        -11    1    4    4    0    0  0.65352604957E+01  0.79506836616E+02  0.12918445346E+02  0.80814187669E+02  0.00000000000E+00 0.  1.
         12    1    4    4    0    0  0.67455360649E+01  0.37817552899E+02 -0.57752622202E+02  0.69361624370E+02  0.00000000000E+00 0. -1.
        -13    1    3    3    0    0  0.13053827708E+02 -0.77118393869E+02 -0.37887205255E+03  0.38686132050E+03  0.00000000000E+00 0.  1.
         13    1    3    3    0    0 -0.19673748578E+02 -0.18338291472E+02 -0.25075022098E+02  0.36770994689E+02  0.00000000000E+00 0. -1.
         -2    1    1    2    0  502 -0.66608756908E+01 -0.21867704175E+02 -0.15011388240E+02  0.27347861484E+02  0.00000000000E+00 0.  1.
<scales pt_clust_5="13000.00000" pt_clust_6="13000.00000" pt_clust_7="13000.00000" pt_clust_8="13000.00000" pt_clust_9="22.85965"></scales>
<clustering>
<clus scale="   22.860">  1  9  2 -1</clus>
<clus scale="   81.248">  5  6 -1 -1</clus>
<clus scale="   84.471">  7  8 -1 -1</clus>
<clus scale="  128.223">  1  5  2 -1</clus>
<clus scale="   22.860">  1  5  2 -1</clus>
</clustering>
</event>
<event>
 9    2  0.1302972E-004  0.2179681E+03  0.7546771E-02  0.1161387E+00
         21   -1    0    0  501  502  0.00000000000E+00  0.00000000000E+00  0.81693592901E+02  0.81693592901E+02  0.00000000000E+00 0. -1.
          2   -1    0    0  502    0 -0.00000000000E+00 -0.00000000000E+00 -0.94171918943E+03  0.94171918943E+03  0.00000000000E+00 0. -1.
         24    2    1    2    0    0 -0.44107016359E+02 -0.71844183217E+02 -0.25072684865E+03  0.27691813524E+03  0.81930979721E+02 0.  0.
         23    2    1    2    0    0  0.21607494336E+03 -0.15562260707E+02 -0.38160295046E+03  0.44806839067E+03  0.90630600865E+02 0.  0.
        -13    1    3    3    0    0 -0.14456128329E+02 -0.44824980007E+02 -0.22356563109E+03  0.22847286465E+03  0.00000000000E+00 0.  1.
         14    1    3    3    0    0 -0.29650888030E+02 -0.27019203210E+02 -0.27161217562E+02  0.48445270590E+02  0.00000000000E+00 0. -1.
        -11    1    4    4    0    0  0.15546368234E+03 -0.19596693522E+02 -0.18576640925E+03  0.24302704732E+03  0.00000000000E+00 0. -1.
         11    1    4    4    0    0  0.60611261023E+02  0.40344328148E+01 -0.19583654121E+03  0.20504134335E+03  0.00000000000E+00 0.  1.
          1    1    1    2  501    0 -0.17196792700E+03  0.87406443924E+02 -0.22769579743E+03  0.29842625642E+03  0.00000000000E+00 0. -1.
<scales pt_clust_5="13000.00000" pt_clust_6="13000.00000" pt_clust_7="13000.00000" pt_clust_8="13000.00000" pt_clust_9="198.23261"></scales>
<clustering>
<clus scale="   81.931">  5  6 -1 -1</clus>
<clus scale="   90.631">  7  8 -1 -1</clus>
<clus scale="  117.557">  2  5  1 -1</clus>
<clus scale="  198.233">  1  9  2 -1</clus>
<clus scale="  198.233">  1  5  2 -1</clus>
</clustering>
</event>
<event>
 9    2  0.1302972E-004  0.1103254E+03  0.7546771E-02  0.1262959E+00
         21   -1    0    0  501  502  0.00000000000E+00  0.00000000000E+00  0.79736276182E+02  0.79736276182E+02  0.00000000000E+00 0. -1.
          2   -1    0    0  502    0 -0.00000000000E+00 -0.00000000000E+00 -0.77671995793E+03  0.77671995793E+03  0.00000000000E+00 0. -1.
         23    2    1    2    0    0 -0.56506397592E+02 -0.74047291645E+01 -0.47907200304E+03  0.49079910803E+03  0.90144203157E+02 0.  0.
         24    2    1    2    0    0  0.13097887315E+03  0.46628408433E+02 -0.36475574333E+02  0.16564785979E+03  0.82335121582E+02 0.  0.
        -11    1    4    4    0    0  0.91906727371E+01  0.34048106732E+02 -0.23824105066E+02  0.42559722973E+02  0.00000000000E+00 0.  1.
         12    1    4    4    0    0  0.12178820041E+03  0.12580301701E+02 -0.12651469267E+02  0.12308813682E+03  0.00000000000E+00 0. -1.
        -13    1    3    3    0    0 -0.58921384092E+01 -0.42655564664E+02 -0.15297010085E+03  0.15891528009E+03  0.00000000000E+00 0. -1.
         13    1    3    3    0    0 -0.50614259183E+02  0.35250835500E+02 -0.32610190219E+03  0.33188382794E+03  0.00000000000E+00 0.  1.
          1    1    1    2  501    0 -0.74472475558E+02 -0.39223679268E+02 -0.18143610438E+03  0.20000926629E+03  0.00000000000E+00 0. -1.
<scales pt_clust_5="13000.00000" pt_clust_6="13000.00000" pt_clust_7="13000.00000" pt_clust_8="13000.00000" pt_clust_9="84.17039"></scales>
<clustering>
<clus scale="   82.335">  5  6 -1 -1</clus>
<clus scale="   84.170">  1  9  2 -1</clus>
<clus scale="   90.144">  7  8 -1 -1</clus>
<clus scale="  104.042">  1  5  2 -1</clus>
<clus scale="   84.170">  1  5  2 -1</clus>
</clustering>
</event>
<event>
 9    2  0.1302972E-004  0.9362855E+02  0.7546771E-02  0.1299004E+00
         21   -1    0    0  501  502  0.00000000000E+00  0.00000000000E+00  0.33661745169E+02  0.33661745169E+02  0.00000000000E+00 0. -1.
          2   -1    0    0  502    0 -0.00000000000E+00 -0.00000000000E+00 -0.42131432621E+03  0.42131432621E+03  0.00000000000E+00 0. -1.
         23    2    1    2    0    0  0.82751812848E+01  0.19958132487E+02 -0.21794265127E+03  0.23620083060E+03  0.88459185255E+02 0.  0.
         24    2    1    2    0    0 -0.34795927196E+02 -0.40192931873E+02 -0.87335663086E+02  0.12990276539E+03  0.80131030740E+02 0.  0.
        -11    1    4    4    0    0  0.13543758796E+02 -0.44605796653E+02 -0.52167622405E+02  0.69961213002E+02  0.00000000000E+00 0.  1.
         12    1    4    4    0    0 -0.48339685992E+02  0.44128647800E+01 -0.35168040682E+02  0.59941552389E+02  0.00000000000E+00 0. -1.
        -11    1    3    3    0    0  0.35911451358E+02 -0.17920299767E+02 -0.66569750261E+02  0.77732239979E+02  0.00000000000E+00 0. -1.
         11    1    3    3    0    0 -0.27636270073E+02  0.37878432254E+02 -0.15137290101E+03  0.15846859062E+03  0.00000000000E+00 0.  1.
          1    1    1    2  501    0  0.26520745911E+02  0.20234799386E+02 -0.82374266687E+02  0.88872475391E+02  0.00000000000E+00 0. -1.
<scales pt_clust_5="13000.00000" pt_clust_6="13000.00000" pt_clust_7="13000.00000" pt_clust_8="13000.00000" pt_clust_9="33.35863"></scales>
<clustering>
<clus scale="   33.359">  1  9  2 -1</clus>
<clus scale="   80.131">  5  6 -1 -1</clus>
<clus scale="   85.804">  1  5  2 -1</clus>
<clus scale="   88.459">  7  8 -1 -1</clus>
<clus scale="   33.359">  1  5  2 -1</clus>
</clustering>
</event>
<event>
 9    2  0.1302972E-004  0.1095203E+03  0.7546771E-02  0.1269917E+00
          2   -1    0    0  502    0 -0.00000000000E+00  0.00000000000E+00  0.50513836599E+03  0.50513836599E+03  0.00000000000E+00 0. -1.
         21   -1    0    0  501  502  0.00000000000E+00 -0.00000000000E+00 -0.49936778454E+02  0.49936778454E+02  0.00000000000E+00 0. -1.
         24    2    1    2    0    0 -0.62401266246E+02 -0.85028403246E+01  0.40890546915E+03  0.41986519343E+03  0.71532381722E+02 0.  0.
         23    2    1    2    0    0  0.37062079372E+02  0.75365814053E+01  0.46414132938E+02  0.10985207304E+03  0.92102162994E+02 0.  0.
        -11    1    3    3    0    0 -0.64265356071E+02 -0.27598509065E+02  0.24334110173E+03  0.25319282274E+03  0.00000000000E+00 0.  1.
         12    1    3    3    0    0  0.18640898256E+01  0.19095668740E+02  0.16556436742E+03  0.16667237070E+03  0.00000000000E+00 0. -1.
        -13    1    4    4    0    0  0.53374355008E+01  0.44901563030E+02  0.46500295464E+01  0.45456147605E+02  0.00000000000E+00 0. -1.
         13    1    4    4    0    0  0.31724643871E+02 -0.37364981625E+02  0.41764103392E+02  0.64395925435E+02  0.00000000000E+00 0.  1.
          1    1    1    2  501    0  0.25339186874E+02  0.96625891931E+00 -0.11801455113E+00  0.25357877970E+02  0.00000000000E+00 0. -1.
<scales pt_clust_5="13000.00000" pt_clust_6="13000.00000" pt_clust_7="13000.00000" pt_clust_8="13000.00000" pt_clust_9="25.35760"></scales>
<clustering>
<clus scale="   25.358">  2  9  1 -1</clus>
<clus scale="   71.532">  5  6 -1 -1</clus>
<clus scale="   92.102">  7  8 -1 -1</clus>
<clus scale="   92.891">  1  5  2 -1</clus>
<clus scale="   25.358">  2  5  1 -1</clus>
</clustering>
</event>
<event>
 9    2  0.1302972E-004  0.1492873E+03  0.7546771E-02  0.1204148E+00
         21   -1    0    0  501  502  0.00000000000E+00  0.00000000000E+00  0.16375366023E+03  0.16375366023E+03  0.00000000000E+00 0.  1.
         -3   -1    0    0    0  501 -0.00000000000E+00 -0.00000000000E+00 -0.22272663841E+03  0.22272663841E+03  0.00000000000E+00 0.  1.
         23    2    1    2    0    0  0.14021856403E+02  0.11083715758E+03 -0.11608961187E+03  0.18493868547E+03  0.90796648849E+02 0.  0.
         24    2    1    2    0    0 -0.56707203963E+01 -0.14115062744E+03  0.57204267120E+02  0.17009871879E+03  0.75535351063E+02 0.  0.
        -11    1    4    4    0    0  0.18542144456E+02 -0.13033593808E+03  0.57306298960E+02  0.14358022070E+03  0.00000000000E+00 0.  1.
         12    1    4    4    0    0 -0.24212864853E+02 -0.10814689361E+02 -0.10203184045E+00  0.26518498088E+02  0.00000000000E+00 0. -1.
        -13    1    3    3    0    0 -0.90895614231E+01  0.11257263744E+03 -0.68719667094E+02  0.13220291779E+03  0.00000000000E+00 0.  1.
         13    1    3    3    0    0  0.23111417826E+02 -0.17354798629E+01 -0.47369944781E+02  0.52735767680E+02  0.00000000000E+00 0. -1.
         -4    1    1    2    0  502 -0.83511360064E+01  0.30313469857E+02 -0.87633429990E-01  0.31442894380E+02  0.00000000000E+00 0.  1.
<scales pt_clust_5="13000.00000" pt_clust_6="13000.00000" pt_clust_7="13000.00000" pt_clust_8="13000.00000" pt_clust_9="31.44277"></scales>
<clustering>
<clus scale="   31.443">  1  9  2 -1</clus>
<clus scale="   75.535">  5  6 -1 -1</clus>
<clus scale="   90.797">  7  8 -1 -1</clus>
<clus scale="  140.528">  1  5  2 -1</clus>
<clus scale="   31.443">  1  5  2 -1</clus>
</clustering>
</event>
<event>
 9    2  0.1302972E-004  0.9282157E+02  0.7546771E-02  0.1297894E+00
          2   -1    0    0  502    0 -0.00000000000E+00  0.00000000000E+00  0.37963407827E+03  0.37963407827E+03  0.00000000000E+00 0. -1.
         21   -1    0    0  501  502  0.00000000000E+00 -0.00000000000E+00 -0.14460167050E+03  0.14460167050E+03  0.00000000000E+00 0.  1.
         23    2    1    2    0    0 -0.64908739034E+01  0.16003638869E+00  0.28225907903E+03  0.29715103535E+03  0.92662792197E+02 0.  0.
         24    2    1    2    0    0 -0.82049266397E+02 -0.15654157767E+02  0.16691780137E+02  0.11678968783E+03  0.79900443601E+02 0.  0.
        -13    1    4    4    0    0 -0.93139831845E+02 -0.27503889870E+02  0.58913411628E+01  0.97294399299E+02  0.00000000000E+00 0.  1.
         14    1    4    4    0    0  0.11090565448E+02  0.11849732103E+02  0.10800438975E+02  0.19495288532E+02  0.00000000000E+00 0. -1.
        -11    1    3    3    0    0 -0.44724324423E+02  0.20215934459E+02  0.16734266870E+03  0.17439185178E+03  0.00000000000E+00 0.  1.
         11    1    3    3    0    0  0.38233450520E+02 -0.20055898070E+02  0.11491641033E+03  0.12275918357E+03  0.00000000000E+00 0. -1.
          1    1    1    2  501    0  0.88540140301E+02  0.15494121378E+02 -0.63918451400E+02  0.11029502560E+03  0.00000000000E+00 0. -1.
<scales pt_clust_5="13000.00000" pt_clust_6="13000.00000" pt_clust_7="13000.00000" pt_clust_8="13000.00000" pt_clust_9="89.88562"></scales>
<clustering>
<clus scale="   79.900">  5  6 -1 -1</clus>
<clus scale="   89.886">  2  9  1 -1</clus>
<clus scale="   89.886">  2  5  1 -1</clus>
<clus scale="   92.663">  7  8 -1 -1</clus>
<clus scale="   89.886">  2  5  1 -1</clus>
</clustering>
</event>
<event>
 9    2  0.1302972E-004  0.1273799E+03  0.7546771E-02  0.1234134E+00
          2   -1    0    0  502    0 -0.00000000000E+00  0.00000000000E+00  0.76725957008E+02  0.76725957008E+02  0.00000000000E+00 0. -1.
         21   -1    0    0  501  502  0.00000000000E+00 -0.00000000000E+00 -0.81251925014E+03  0.81251925014E+03  0.00000000000E+00 0.  1.
         24    2    1    2    0    0 -0.70428844503E+02  0.49729127652E+02  0.66821604656E+01  0.11885283181E+03  0.81536102959E+02 0.  0.
         23    2    1    2    0    0  0.71522520086E+02 -0.98098304874E+02 -0.62744779394E+03  0.64560401082E+03  0.91515334096E+02 0.  0.
        -13    1    3    3    0    0  0.13710990526E+02  0.28620073188E+02 -0.11257544888E+01  0.31754797648E+02  0.00000000000E+00 0.  1.
         14    1    3    3    0    0 -0.84139835028E+02  0.21109054464E+02  0.78079149544E+01  0.87098034162E+02  0.00000000000E+00 0. -1.
        -11    1    4    4    0    0 -0.20060097022E+02 -0.32325265582E+02 -0.12505513923E+03  0.13071387889E+03  0.00000000000E+00 0. -1.
         11    1    4    4    0    0  0.91582617109E+02 -0.65773039291E+02 -0.50239265471E+03  0.51489013193E+03  0.00000000000E+00 0.  1.
          1    1    1    2  501    0 -0.10936755838E+01  0.48369177221E+02 -0.11502765966E+03  0.12478836451E+03  0.00000000000E+00 0. -1.
<scales pt_clust_5="13000.00000" pt_clust_6="13000.00000" pt_clust_7="13000.00000" pt_clust_8="13000.00000" pt_clust_9="48.38154"></scales>
<clustering>
<clus scale="   48.382">  2  9  1 -1</clus>
<clus scale="   81.536">  5  6 -1 -1</clus>
<clus scale="   91.515">  7  8 -1 -1</clus>
<clus scale="  120.411">  1  5  2 -1</clus>
<clus scale="   48.382">  2  5  1 -1</clus>
</clustering>
</event>
<event>
 9    2  0.1302972E-004  0.1202736E+03  0.7546771E-02  0.1248713E+00
         -1   -1    0    0    0  501 -0.00000000000E+00  0.00000000000E+00  0.20533268039E+03  0.20533268039E+03  0.00000000000E+00 0.  1.
         21   -1    0    0  501  502  0.00000000000E+00 -0.00000000000E+00 -0.14502191066E+03  0.14502191066E+03  0.00000000000E+00 0.  1.
         24    2    1    2    0    0 -0.93219893553E+02  0.40935731162E+02  0.79583199695E+02  0.15177914535E+03  0.79609928094E+02 0.  0.
         23    2    1    2    0    0  0.75142630825E+00 -0.39821966759E+02 -0.11117115529E+02  0.10574136219E+03  0.97320561764E+02 0.  0.
        -11    1    3    3    0    0 -0.65210285476E+02  0.24741285764E+01  0.81199103812E+02  0.10417195930E+03  0.00000000000E+00 0.  1.
         12    1    3    3    0    0 -0.28009608077E+02  0.38461602586E+02 -0.16159041176E+01  0.47607186056E+02  0.00000000000E+00 0. -1.
        -13    1    4    4    0    0 -0.30173966474E+02 -0.55668593751E+02 -0.25329043717E+02  0.68198394692E+02  0.00000000000E+00 0.  1.
         13    1    4    4    0    0  0.30925392783E+02  0.15846626992E+02  0.14211928188E+02  0.37542967498E+02  0.00000000000E+00 0. -1.
         -2    1    1    2    0  502  0.92468467245E+02 -0.11137644033E+01 -0.81553144355E+01  0.92834083500E+02  0.00000000000E+00 0.  1.
<scales pt_clust_5="13000.00000" pt_clust_6="13000.00000" pt_clust_7="13000.00000" pt_clust_8="13000.00000" pt_clust_9="92.47517"></scales>
<clustering>
<clus scale="   79.610">  5  6 -1 -1</clus>
<clus scale="   92.475">  2  9  1 -1</clus>
<clus scale="   97.321">  7  8 -1 -1</clus>
<clus scale="  106.453">  1  5  2 -1</clus>
<clus scale="   92.475">  2  5  1 -1</clus>
</clustering>
</event>
<event>
 9    2  0.1302972E-004  0.1541162E+03  0.7546771E-02  0.1197200E+00
          2   -1    0    0  502    0 -0.00000000000E+00  0.00000000000E+00  0.55511215575E+03  0.55511215575E+03  0.00000000000E+00 0. -1.
         21   -1    0    0  501  502  0.00000000000E+00 -0.00000000000E+00 -0.16976117455E+03  0.16976117455E+03  0.00000000000E+00 0. -1.
         23    2    1    2    0    0 -0.10743355309E+03  0.78029810273E+02  0.42725883322E+03  0.45707166033E+03  0.93454654732E+02 0.  0.
         24    2    1    2    0    0  0.11190680067E+03  0.29777537927E+02  0.18432578116E+02  0.14417561374E+03  0.83886911144E+02 0.  0.
        -13    1    4    4    0    0  0.10452235319E+03  0.44796721059E+01  0.38049096082E+02  0.11132260997E+03  0.00000000000E+00 0.  1.
         14    1    4    4    0    0  0.73844474793E+01  0.25297865821E+02 -0.19616517966E+02  0.32853003771E+02  0.00000000000E+00 0. -1.
        -11    1    3    3    0    0 -0.37626914475E+01  0.30763471126E+02  0.27639473418E+02  0.41526973083E+02  0.00000000000E+00 0.  1.
         11    1    3    3    0    0 -0.10367086165E+03  0.47266339148E+02  0.39961935980E+03  0.41554468725E+03  0.00000000000E+00 0. -1.
          1    1    1    2  501    0 -0.44732475720E+01 -0.10780734820E+03 -0.60340430135E+02  0.12362605623E+03  0.00000000000E+00 0. -1.
<scales pt_clust_5="13000.00000" pt_clust_6="13000.00000" pt_clust_7="13000.00000" pt_clust_8="13000.00000" pt_clust_9="107.90011"></scales>
<clustering>
<clus scale="   83.887">  5  6 -1 -1</clus>
<clus scale="   93.455">  7  8 -1 -1</clus>
<clus scale="  107.900">  2  9  1 -1</clus>
<clus scale="  148.509">  2  5  1 -1</clus>
<clus scale="  107.900">  2  5  1 -1</clus>
</clustering>
</event>
<event>
 9    2  0.1302972E-004  0.1188305E+03  0.7546771E-02  0.1249319E+00
         -1   -1    0    0    0  501 -0.00000000000E+00  0.00000000000E+00  0.34883578959E+03  0.34883578959E+03  0.00000000000E+00 0.  1.
         21   -1    0    0  501  502  0.00000000000E+00 -0.00000000000E+00 -0.10998132256E+03  0.10998132256E+03  0.00000000000E+00 0.  1.
         23    2    1    2    0    0  0.61577843507E+02 -0.31073832525E+02  0.17750753546E+03  0.21160397896E+03  0.92249145739E+02 0.  0.
         24    2    1    2    0    0 -0.88785943829E+02 -0.20791794154E+01  0.12361381789E+03  0.17160514382E+03  0.79250757761E+02 0.  0.
        -13    1    4    4    0    0 -0.49773644212E+02  0.29251039362E+02  0.10177936383E+03  0.11701315252E+03  0.00000000000E+00 0.  1.
         14    1    4    4    0    0 -0.39012299617E+02 -0.31330218777E+02  0.21834454054E+02  0.54591991298E+02  0.00000000000E+00 0. -1.
        -11    1    3    3    0    0  0.51485551434E+02 -0.58570604434E+02  0.15861729488E+03  0.17675045670E+03  0.00000000000E+00 0. -1.
         11    1    3    3    0    0  0.10092292073E+02  0.27496771909E+02  0.18890240578E+02  0.34853522258E+02  0.00000000000E+00 0.  1.
         -2    1    1    2    0  502  0.27208100322E+02  0.33153011941E+02 -0.62266886320E+02  0.75607989366E+02  0.00000000000E+00 0.  1.
<scales pt_clust_5="13000.00000" pt_clust_6="13000.00000" pt_clust_7="13000.00000" pt_clust_8="13000.00000" pt_clust_9="42.88826"></scales>
<clustering>
<clus scale="   42.888">  2  9  1 -1</clus>
<clus scale="   79.251">  5  6 -1 -1</clus>
<clus scale="   92.249">  7  8 -1 -1</clus>
<clus scale="  109.048">  2  5  1 -1</clus>
<clus scale="   42.888">  2  5  1 -1</clus>
</clustering>
</event>
<event>
 9    2  0.1302972E-004  0.1020303E+03  0.7546771E-02  0.1282169E+00
         21   -1    0    0  501  502  0.00000000000E+00  0.00000000000E+00  0.31716834019E+03  0.31716834019E+03  0.00000000000E+00 0.  1.
         -1   -1    0    0    0  501 -0.00000000000E+00 -0.00000000000E+00 -0.51848340601E+02  0.51848340601E+02  0.00000000000E+00 0.  1.
         24    2    1    2    0    0  0.21292843107E+02 -0.17149365185E+02  0.87239135783E+02  0.12030827277E+03  0.78204397524E+02 0.  0.
         23    2    1    2    0    0 -0.69907192113E+02  0.33075976789E+02  0.14485198003E+03  0.18770700965E+03  0.90943881604E+02 0.  0.
        -11    1    3    3    0    0 -0.22583507446E+02 -0.11500440765E+02  0.34755765259E+01  0.25580355325E+02  0.00000000000E+00 0.  1.
         12    1    3    3    0    0  0.43876350553E+02 -0.56489244204E+01  0.83763559257E+02  0.94727917450E+02  0.00000000000E+00 0. -1.
        -11    1    4    4    0    0 -0.21877353633E+02 -0.23886293005E+02  0.10451995623E+02  0.34035537428E+02  0.00000000000E+00 0. -1.
         11    1    4    4    0    0 -0.48029838479E+02  0.56962269794E+02  0.13439998441E+03  0.15367147222E+03  0.00000000000E+00 0.  1.
         -2    1    1    2    0  502  0.48614349006E+02 -0.15926611604E+02  0.33228883776E+02  0.61001398373E+02  0.00000000000E+00 0.  1.
<scales pt_clust_5="13000.00000" pt_clust_6="13000.00000" pt_clust_7="13000.00000" pt_clust_8="13000.00000" pt_clust_9="51.15676"></scales>
<clustering>
<clus scale="   51.157">  1  9  2 -1</clus>
<clus scale="   78.204">  5  6 -1 -1</clus>
<clus scale="   90.859">  2  5  1 -1</clus>
<clus scale="   90.944">  7  8 -1 -1</clus>
<clus scale="   51.157">  1  5  2 -1</clus>
</clustering>
</event>
<event>
 9    2  0.1302972E-004  0.1786038E+03  0.7546771E-02  0.1191160E+00
         -3   -1    0    0    0  501 -0.00000000000E+00  0.00000000000E+00  0.14017561494E+03  0.14017561494E+03  0.00000000000E+00 0.  1.
         21   -1    0    0  501  502  0.00000000000E+00 -0.00000000000E+00 -0.48146783081E+03  0.48146783081E+03  0.00000000000E+00 0.  1.
         24    2    1    2    0    0  0.62941081301E+02  0.36267158835E+02  0.78369644576E+01  0.10921634690E+03  0.81178235337E+02 0.  0.
         23    2    1    2    0    0  0.12404020837E+03  0.43248756522E+02 -0.21987537133E+03  0.27161320676E+03  0.90399817096E+02 0.  0.
        -11    1    3    3    0    0  0.64186543895E+02  0.54796104833E+02  0.20361870065E+02  0.86816653210E+02  0.00000000000E+00 0.  1.
         12    1    3    3    0    0 -0.12454625933E+01 -0.18528945998E+02 -0.12524905608E+02  0.22399693688E+02  0.00000000000E+00 0. -1.
        -13    1    4    4    0    0  0.57240682906E+02 -0.42266189289E+00 -0.16529535784E+03  0.17492635521E+03  0.00000000000E+00 0.  1.
         13    1    4    4    0    0  0.66799525469E+02  0.43671418415E+02 -0.54580013491E+02  0.96686851546E+02  0.00000000000E+00 0. -1.
         -4    1    1    2    0  502 -0.18698128968E+03 -0.79515915357E+02 -0.12925380900E+03  0.24081389209E+03  0.00000000000E+00 0.  1.
<scales pt_clust_5="13000.00000" pt_clust_6="13000.00000" pt_clust_7="13000.00000" pt_clust_8="13000.00000" pt_clust_9="154.03636"></scales>
<clustering>
<clus scale="   81.178">  5  6 -1 -1</clus>
<clus scale="   90.400">  7  8 -1 -1</clus>
<clus scale="  108.935">  1  5  2 -1</clus>
<clus scale="  154.036">  2  9  1 -1</clus>
<clus scale="  154.036">  2  5  1 -1</clus>
</clustering>
</event>
<event>
 9    2  0.1302972E-004  0.1286624E+03  0.7546771E-02  0.1232141E+00
         -3   -1    0    0    0  501 -0.00000000000E+00  0.00000000000E+00  0.15221425007E+03  0.15221425007E+03  0.00000000000E+00 0.  1.
         21   -1    0    0  501  502  0.00000000000E+00 -0.00000000000E+00 -0.15341124103E+03  0.15341124103E+03  0.00000000000E+00 0. -1.
         24    2    1    2    0    0 -0.71325820310E+02 -0.59874004409E+02  0.69453372410E+02  0.14146118323E+03  0.80716952216E+02 0.  0.
         23    2    1    2    0    0  0.53114120398E+02  0.68410719348E+02 -0.70694121668E+02  0.14405104283E+03  0.90840012076E+02 0.  0.
        -11    1    3    3    0    0 -0.27762556163E+02 -0.65063806779E+02  0.16395087849E+02  0.72614443349E+02  0.00000000000E+00 0.  1.
         12    1    3    3    0    0 -0.43563264146E+02  0.51898023706E+01  0.53058284561E+02  0.68846739882E+02  0.00000000000E+00 0. -1.
        -13    1    4    4    0    0  0.34139017496E+02 -0.12623999721E+02 -0.25532484073E+01  0.36487764552E+02  0.00000000000E+00 0.  1.
         13    1    4    4    0    0  0.18975102902E+02  0.81034719069E+02 -0.68140873261E+02  0.10756327828E+03  0.00000000000E+00 0. -1.
         -4    1    1    2    0  502  0.18211699912E+02 -0.85367149398E+01  0.43758300283E-01  0.20113265037E+02  0.00000000000E+00 0.  1.
<scales pt_clust_5="13000.00000" pt_clust_6="13000.00000" pt_clust_7="13000.00000" pt_clust_8="13000.00000" pt_clust_9="20.11323"></scales>
<clustering>
<clus scale="   20.113">  2  9  1 -1</clus>
<clus scale="   80.717">  5  6 -1 -1</clus>
<clus scale="   90.840">  7  8 -1 -1</clus>
<clus scale="  121.726">  1  5  2 -1</clus>
<clus scale="   20.113">  2  5  1 -1</clus>
</clustering>
</event>
<event>
 9    2  0.1302972E-004  0.1457807E+03  0.7546771E-02  0.1207796E+00
         21   -1    0    0  501  502  0.00000000000E+00  0.00000000000E+00  0.11880215242E+03  0.11880215242E+03  0.00000000000E+00 0.  1.
          2   -1    0    0  502    0 -0.00000000000E+00 -0.00000000000E+00 -0.30671566748E+03  0.30671566748E+03  0.00000000000E+00 0. -1.
         23    2    1    2    0    0  0.10564257878E+03  0.69452032266E+02 -0.20560475836E+03  0.25794474993E+03  0.90984823569E+02 0.  0.
         24    2    1    2    0    0 -0.73447727649E+02 -0.31969723747E+02  0.28151367747E+02  0.11706716838E+03  0.80595226121E+02 0.  0.
        -11    1    4    4    0    0 -0.56633669935E+02  0.19061993286E+02  0.17783391396E+02  0.62345658773E+02  0.00000000000E+00 0.  1.
         12    1    4    4    0    0 -0.16814057714E+02 -0.51031717033E+02  0.10367976351E+02  0.54721509608E+02  0.00000000000E+00 0. -1.
        -13    1    3    3    0    0  0.67844808336E+02  0.52515327229E+01 -0.15084702667E+03  0.16548511132E+03  0.00000000000E+00 0.  1.
         13    1    3    3    0    0  0.37797770446E+02  0.64200499543E+02 -0.54757731692E+02  0.92459638612E+02  0.00000000000E+00 0. -1.
          1    1    1    2  501    0 -0.32194851132E+02 -0.37482308519E+02 -0.10460124450E+02  0.50505901584E+02  0.00000000000E+00 0. -1.
<scales pt_clust_5="13000.00000" pt_clust_6="13000.00000" pt_clust_7="13000.00000" pt_clust_8="13000.00000" pt_clust_9="49.41085"></scales>
<clustering>
<clus scale="   49.411">  1  9  2 -1</clus>
<clus scale="   80.595">  5  6 -1 -1</clus>
<clus scale="   90.985">  7  8 -1 -1</clus>
<clus scale="  139.533">  1  5  2 -1</clus>
<clus scale="   49.411">  1  5  2 -1</clus>
</clustering>
</event>
<event>
 9    2  0.1302972E-004  0.1319742E+03  0.7546771E-02  0.1227495E+00
         21   -1    0    0  501  502  0.00000000000E+00  0.00000000000E+00  0.46989302569E+03  0.46989302569E+03  0.00000000000E+00 0. -1.
         -1   -1    0    0    0  501 -0.00000000000E+00 -0.00000000000E+00 -0.97006107227E+02  0.97006107227E+02  0.00000000000E+00 0.  1.
         24    2    1    2    0    0 -0.10794832520E+03  0.39223856549E+02  0.21366412189E+02  0.14061211036E+03  0.78255288484E+02 0.  0.
         23    2    1    2    0    0  0.73616491297E+02 -0.14664445616E+02  0.60071357524E+02  0.13179687706E+03  0.90152177193E+02 0.  0.
        -11    1    3    3    0    0 -0.95322759760E+02  0.12463148350E+02 -0.10996844079E+02  0.96760989943E+02  0.00000000000E+00 0.  1.
         12    1    3    3    0    0 -0.12625565437E+02  0.26760708198E+02  0.32363256268E+02  0.43851120421E+02  0.00000000000E+00 0. -1.
        -11    1    4    4    0    0  0.50934542720E+02  0.31717151316E+02  0.52276749591E+02  0.79581177910E+02  0.00000000000E+00 0. -1.
         11    1    4    4    0    0  0.22681948577E+02 -0.46381596933E+02  0.77946079336E+01  0.52215699153E+02  0.00000000000E+00 0.  1.
         -2    1    1    2    0  502  0.34331833899E+02 -0.24559410932E+02  0.29144914875E+03  0.29449014549E+03  0.00000000000E+00 0.  1.
<scales pt_clust_5="13000.00000" pt_clust_6="13000.00000" pt_clust_7="13000.00000" pt_clust_8="13000.00000" pt_clust_9="42.21184"></scales>
<clustering>
<clus scale="   42.212">  1  9  2 -1</clus>
<clus scale="   78.255">  5  6 -1 -1</clus>
<clus scale="   90.152">  7  8 -1 -1</clus>
<clus scale="  124.152">  2  5  1 -1</clus>
<clus scale="   42.212">  1  5  2 -1</clus>
</clustering>
</event>
<event>
 9    2  0.1302972E-004  0.9615841E+02  0.7546771E-02  0.1295660E+00
         21   -1    0    0  501  502  0.00000000000E+00  0.00000000000E+00  0.36852690199E+02  0.36852690199E+02  0.00000000000E+00 0.  1.
          2   -1    0    0  502    0 -0.00000000000E+00 -0.00000000000E+00 -0.58533711091E+03  0.58533711091E+03  0.00000000000E+00 0. -1.
         24    2    1    2    0    0  0.19009126248E+02  0.89211897461E+01 -0.42797692740E+03  0.43612725660E+03  0.81251455726E+02 0.  0.
         23    2    1    2    0    0 -0.68146549537E+01 -0.44205356225E+02 -0.96803736987E+02  0.14184099322E+03  0.93527273144E+02 0.  0.
        -13    1    3    3    0    0 -0.31256748301E+02 -0.37918597108E+01 -0.13746296787E+03  0.14102279975E+03  0.00000000000E+00 0.  1.
         14    1    3    3    0    0  0.50265874550E+02  0.12713049457E+02 -0.29051395953E+03  0.29510445685E+03  0.00000000000E+00 0. -1.
        -11    1    4    4    0    0 -0.31096208664E+02 -0.17245141190E+02  0.29632375243E+01  0.35681225659E+02  0.00000000000E+00 0.  1.
         11    1    4    4    0    0  0.24281553710E+02 -0.26960215035E+02 -0.99766974511E+02  0.10615976756E+03  0.00000000000E+00 0. -1.
          1    1    1    2  501    0 -0.12194471295E+02  0.35284166479E+02 -0.23703756323E+02  0.44221551286E+02  0.00000000000E+00 0. -1.
<scales pt_clust_5="13000.00000" pt_clust_6="13000.00000" pt_clust_7="13000.00000" pt_clust_8="13000.00000" pt_clust_9="37.33199"></scales>
<clustering>
<clus scale="   37.332">  1  9  2 -1</clus>
<clus scale="   81.251">  5  6 -1 -1</clus>
<clus scale="   84.267">  2  5  1 -1</clus>
<clus scale="   93.527">  7  8 -1 -1</clus>
<clus scale="   37.332">  1  5  2 -1</clus>
</clustering>
</event>
<event>
 9    2  0.1302972E-004  0.2326731E+03  0.7546771E-02  0.1125305E+00
         21   -1    0    0  501  502  0.00000000000E+00  0.00000000000E+00  0.97744167517E+02  0.97744167517E+02  0.00000000000E+00 0.  1.
          2   -1    0    0  502    0 -0.00000000000E+00 -0.00000000000E+00 -0.15990400398E+04  0.15990400398E+04  0.00000000000E+00 0. -1.
         24    2    1    2    0    0  0.23277014298E+03 -0.10479009154E+03 -0.61954790467E+03  0.67510997531E+03  0.82285902988E+02 0.  0.
         23    2    1    2    0    0 -0.11758122342E+03  0.29062716412E+02 -0.24168069183E+02  0.15308548886E+03  0.90449354589E+02 0.  0.
        -11    1    3    3    0    0  0.14870890056E+03 -0.32289862360E+02 -0.29217455858E+03  0.32942820917E+03  0.00000000000E+00 0.  1.
         12    1    3    3    0    0  0.84061242421E+02 -0.72500229178E+02 -0.32737334609E+03  0.34568176614E+03  0.00000000000E+00 0. -1.
        -11    1    4    4    0    0 -0.90109323408E+02  0.45585949385E+02  0.15409698767E+02  0.10215296257E+03  0.00000000000E+00 0.  1.
         11    1    4    4    0    0 -0.27471900012E+02 -0.16523232972E+02 -0.39577767951E+02  0.50932526288E+02  0.00000000000E+00 0. -1.
          1    1    1    2  501    0 -0.11518891956E+03  0.75727375125E+02 -0.85757989844E+03  0.86858874316E+03  0.00000000000E+00 0. -1.
<scales pt_clust_5="13000.00000" pt_clust_6="13000.00000" pt_clust_7="13000.00000" pt_clust_8="13000.00000" pt_clust_9="137.85188"></scales>
<clustering>
<clus scale="   82.286">  5  6 -1 -1</clus>
<clus scale="   90.449">  7  8 -1 -1</clus>
<clus scale="  137.852">  1  9  2 -1</clus>
<clus scale="  229.623">  2  5  1 -1</clus>
<clus scale="  137.852">  1  5  2 -1</clus>
</clustering>
</event>
<event>
 9    2  0.1302972E-004  0.2286586E+03  0.7546771E-02  0.1128279E+00
          2   -1    0    0  502    0 -0.00000000000E+00  0.00000000000E+00  0.62528811494E+03  0.62528811494E+03  0.00000000000E+00 0. -1.
         21   -1    0    0  501  502  0.00000000000E+00 -0.00000000000E+00 -0.11394436806E+03  0.11394436806E+03  0.00000000000E+00 0.  1.
         24    2    1    2    0    0  0.31478506118E+02 -0.21335688456E+03  0.40641718130E+03  0.46720162347E+03  0.81181125793E+02 0.  0.
         23    2    1    2    0    0 -0.29465990062E+02  0.19128139691E+03  0.60521246093E+02  0.22240012535E+03  0.91335519677E+02 0.  0.
        -11    1    3    3    0    0  0.47799701439E+01 -0.10192554344E+03  0.11325313486E+03  0.15243994580E+03  0.00000000000E+00 0.  1.
         12    1    3    3    0    0  0.26698535974E+02 -0.11143134112E+03  0.29316404644E+03  0.31476167767E+03  0.00000000000E+00 0. -1.
        -13    1    4    4    0    0 -0.40007844148E+02  0.39186028587E+02  0.39424930758E+02  0.68487207529E+02  0.00000000000E+00 0. -1.
         13    1    4    4    0    0  0.10541854087E+02  0.15209536832E+03  0.21096315334E+02  0.15391291782E+03  0.00000000000E+00 0.  1.
          1    1    1    2  501    0 -0.20125160559E+01  0.22075487651E+02  0.44405319492E+02  0.49630734178E+02  0.00000000000E+00 0. -1.
<scales pt_clust_5="13000.00000" pt_clust_6="13000.00000" pt_clust_7="13000.00000" pt_clust_8="13000.00000" pt_clust_9="22.16704"></scales>
<clustering>
<clus scale="   22.167">  2  9  1 -1</clus>
<clus scale="   81.181">  5  6 -1 -1</clus>
<clus scale="   91.336">  7  8 -1 -1</clus>
<clus scale="  224.795">  1  5  2 -1</clus>
<clus scale="   22.167">  2  5  1 -1</clus>
</clustering>
</event>
<event>
 9    2  0.1302972E-004  0.8614739E+02  0.7546771E-02  0.1315447E+00
         21   -1    0    0  501  502  0.00000000000E+00  0.00000000000E+00  0.25699265305E+02  0.25699265305E+02  0.00000000000E+00 0. -1.
          2   -1    0    0  502    0 -0.00000000000E+00 -0.00000000000E+00 -0.55267084393E+03  0.55267084393E+03  0.00000000000E+00 0. -1.
         23    2    1    2    0    0  0.47089742544E+01  0.27916077228E+02 -0.27250435136E+03  0.28464709027E+03  0.77226049217E+02 0.  0.
         24    2    1    2    0    0 -0.25615182104E+02 -0.14161461244E+02 -0.82478395067E+02  0.11992308402E+03  0.81988876626E+02 0.  0.
        -13    1    4    4    0    0  0.28125119752E+02  0.49346274885E+01 -0.17609416215E+02  0.33547942544E+02  0.00000000000E+00 0.  1.
         14    1    4    4    0    0 -0.53740301856E+02 -0.19096088732E+02 -0.64868978852E+02  0.86375141480E+02  0.00000000000E+00 0. -1.
        -11    1    3    3    0    0 -0.25068255069E+02  0.41262987547E+02 -0.18686369727E+03  0.19300024070E+03  0.00000000000E+00 0. -1.
         11    1    3    3    0    0  0.29777229324E+02 -0.13346910319E+02 -0.85640654097E+02  0.91646849566E+02  0.00000000000E+00 0.  1.
          1    1    1    2  501    0  0.20906207849E+02 -0.13754615984E+02 -0.17198883220E+03  0.17379993495E+03  0.00000000000E+00 0. -1.
<scales pt_clust_5="13000.00000" pt_clust_6="13000.00000" pt_clust_7="13000.00000" pt_clust_8="13000.00000" pt_clust_9="25.02518"></scales>
<clustering>
<clus scale="   25.025">  1  9  2 -1</clus>
<clus scale="   77.226">  7  8 -1 -1</clus>
<clus scale="   81.628">  2  7  1 -1</clus>
<clus scale="   81.989">  5  6 -1 -1</clus>
<clus scale="   25.025">  1  5  2 -1</clus>
</clustering>
</event>
<event>
 9    2  0.1302972E-004  0.1415321E+03  0.7546771E-02  0.1213292E+00
         -3   -1    0    0    0  501 -0.00000000000E+00  0.00000000000E+00  0.22751861364E+03  0.22751861364E+03  0.00000000000E+00 0.  1.
         21   -1    0    0  501  502  0.00000000000E+00 -0.00000000000E+00 -0.16362557228E+03  0.16362557228E+03  0.00000000000E+00 0. -1.
         23    2    1    2    0    0 -0.11811849233E+03 -0.21232789263E+02  0.14467920526E+03  0.20798534065E+03  0.89011347136E+02 0.  0.
         24    2    1    2    0    0  0.72468245184E+02  0.22141769786E+02 -0.82883880308E+02  0.13745138719E+03  0.79254285032E+02 0.  0.
        -13    1    4    4    0    0  0.44059692603E+02  0.49294460186E+02 -0.32839694929E+02  0.73821716861E+02  0.00000000000E+00 0.  1.
         14    1    4    4    0    0  0.28408552581E+02 -0.27152690400E+02 -0.50044185379E+02  0.63629670327E+02  0.00000000000E+00 0. -1.
        -11    1    3    3    0    0 -0.10866267781E+03 -0.49608563847E+02  0.11336835950E+03  0.16468446220E+03  0.00000000000E+00 0. -1.
         11    1    3    3    0    0 -0.94558145173E+01  0.28375774585E+02  0.31310845768E+02  0.43300878445E+02  0.00000000000E+00 0.  1.
         -4    1    1    2    0  502  0.45650247147E+02 -0.90898052294E+00  0.20977163999E+01  0.45707458081E+02  0.00000000000E+00 0.  1.
<scales pt_clust_5="13000.00000" pt_clust_6="13000.00000" pt_clust_7="13000.00000" pt_clust_8="13000.00000" pt_clust_9="45.65930"></scales>
<clustering>
<clus scale="   45.659">  2  9  1 -1</clus>
<clus scale="   79.254">  5  6 -1 -1</clus>
<clus scale="   89.011">  7  8 -1 -1</clus>
<clus scale="  135.608">  2  5  1 -1</clus>
<clus scale="   45.659">  2  5  1 -1</clus>
</clustering>
</event>
<event>
 9    2  0.1302972E-004  0.9196103E+02  0.7546771E-02  0.1303954E+00
         21   -1    0    0  501  502  0.00000000000E+00  0.00000000000E+00  0.24553556458E+03  0.24553556458E+03  0.00000000000E+00 0. -1.
         -1   -1    0    0    0  501 -0.00000000000E+00 -0.00000000000E+00 -0.92763893259E+02  0.92763893259E+02  0.00000000000E+00 0.  1.
         24    2    1    2    0    0  0.16918111883E+02 -0.12385567952E+02 -0.44946269603E+02  0.94452544946E+02  0.80383401846E+02 0.  0.
         23    2    1    2    0    0 -0.19881945570E+02 -0.82171532965E+01  0.74064689666E+02  0.11845399850E+03  0.89905273134E+02 0.  0.
        -13    1    3    3    0    0 -0.19246241695E+02 -0.81980871212E+01 -0.53163008734E+02  0.57130831864E+02  0.00000000000E+00 0.  1.
         14    1    3    3    0    0  0.36164353578E+02 -0.41874808306E+01  0.82167391309E+01  0.37321713082E+02  0.00000000000E+00 0. -1.
        -11    1    4    4    0    0  0.33453300950E+02 -0.18185925175E+02  0.27745319444E+02  0.47113203775E+02  0.00000000000E+00 0.  1.
         11    1    4    4    0    0 -0.53335246520E+02  0.99687718782E+01  0.46319370222E+02  0.71340794724E+02  0.00000000000E+00 0. -1.
         -2    1    1    2    0  502  0.29638336870E+01  0.20602721248E+02  0.12365325126E+03  0.12539291439E+03  0.00000000000E+00 0.  1.
<scales pt_clust_5="13000.00000" pt_clust_6="13000.00000" pt_clust_7="13000.00000" pt_clust_8="13000.00000" pt_clust_9="20.81481"></scales>
<clustering>
<clus scale="   20.815">  1  9  2 -1</clus>
<clus scale="   80.383">  5  6 -1 -1</clus>
<clus scale="   82.676">  2  5  1 -1</clus>
<clus scale="   89.905">  7  8 -1 -1</clus>
<clus scale="   20.815">  1  5  2 -1</clus>
</clustering>
</event>
<event>
 9    2  0.1302972E-004  0.1832839E+03  0.7546771E-02  0.1166078E+00
          2   -1    0    0  502    0 -0.00000000000E+00  0.00000000000E+00  0.38759791498E+03  0.38759791498E+03  0.00000000000E+00 0. -1.
         21   -1    0    0  501  502  0.00000000000E+00 -0.00000000000E+00 -0.14778461193E+03  0.14778461193E+03  0.00000000000E+00 0. -1.
         24    2    1    2    0    0 -0.16893737596E+03  0.66033996315E+02  0.77996552036E+02  0.21321830088E+03  0.80487614164E+02 0.  0.
         23    2    1    2    0    0  0.11545025686E+03 -0.65818344865E+02  0.11329889576E+02  0.16245444587E+03  0.92748392198E+02 0.  0.
        -11    1    3    3    0    0 -0.42285136233E+02 -0.65327641402E+01 -0.83919122383E+01  0.43601994732E+02  0.00000000000E+00 0.  1.
         12    1    3    3    0    0 -0.12665223973E+03  0.72566760455E+02  0.86388464275E+02  0.16961630615E+03  0.00000000000E+00 0. -1.
        -13    1    4    4    0    0  0.62854341717E+02  0.49659903820E+01 -0.23987834942E+02  0.67459214036E+02  0.00000000000E+00 0. -1.
         13    1    4    4    0    0  0.52595915144E+02 -0.70784335247E+02  0.35317724518E+02  0.94995231835E+02  0.00000000000E+00 0.  1.
          1    1    1    2  501    0  0.53487119101E+02 -0.21565144937E+00  0.15048686144E+03  0.15970978017E+03  0.00000000000E+00 0. -1.
<scales pt_clust_5="13000.00000" pt_clust_6="13000.00000" pt_clust_7="13000.00000" pt_clust_8="13000.00000" pt_clust_9="53.48758"></scales>
<clustering>
<clus scale="   53.488">  2  9  1 -1</clus>
<clus scale="   80.488">  5  6 -1 -1</clus>
<clus scale="   92.748">  7  8 -1 -1</clus>
<clus scale="  177.395">  1  5  2 -1</clus>
<clus scale="   53.488">  2  5  1 -1</clus>
</clustering>
</event>
<event>
 9    2  0.1302972E-004  0.1506279E+03  0.7546771E-02  0.1202204E+00
         21   -1    0    0  501  502  0.00000000000E+00  0.00000000000E+00  0.49893555601E+03  0.49893555601E+03  0.00000000000E+00 0.  1.
          2   -1    0    0  502    0 -0.00000000000E+00 -0.00000000000E+00 -0.72080805056E+02  0.72080805056E+02  0.00000000000E+00 0. -1.
         23    2    1    2    0    0  0.11027249563E+03 -0.19277318471E+02  0.14576885608E+03  0.20581250431E+03  0.92620673877E+02 0.  0.
         24    2    1    2    0    0 -0.12739687683E+03  0.32155632730E+02  0.29981306785E+03  0.33674682919E+03  0.79035450103E+02 0.  0.
        -11    1    4    4    0    0 -0.10005716381E+03 -0.11469296445E+02  0.21704700529E+03  0.23927470258E+03  0.00000000000E+00 0.  1.
         12    1    4    4    0    0 -0.27339713023E+02  0.43624929175E+02  0.82766062558E+02  0.97472126606E+02  0.00000000000E+00 0. -1.
        -11    1    3    3    0    0  0.60341437826E+02  0.71137009845E+01  0.13537855667E+03  0.14838816485E+03  0.00000000000E+00 0.  1.
         11    1    3    3    0    0  0.49931057806E+02 -0.26391019455E+02  0.10390299409E+02  0.57424339468E+02  0.00000000000E+00 0. -1.
          1    1    1    2  501    0  0.17124381200E+02 -0.12878314259E+02 -0.18727172978E+02  0.28457027558E+02  0.00000000000E+00 0. -1.
<scales pt_clust_5="13000.00000" pt_clust_6="13000.00000" pt_clust_7="13000.00000" pt_clust_8="13000.00000" pt_clust_9="21.42652"></scales>
<clustering>
<clus scale="   21.427">  1  9  2 -1</clus>
<clus scale="   79.035">  5  6 -1 -1</clus>
<clus scale="   92.621">  7  8 -1 -1</clus>
<clus scale="  142.677">  1  5  2 -1</clus>
<clus scale="   21.427">  1  5  2 -1</clus>
</clustering>
</event>
<event>
 9    2  0.1302972E-004  0.1489883E+03  0.7546771E-02  0.1223552E+00
         21   -1    0    0  501  502  0.00000000000E+00  0.00000000000E+00  0.15044951162E+03  0.15044951162E+03  0.00000000000E+00 0. -1.
         -3   -1    0    0    0  501 -0.00000000000E+00 -0.00000000000E+00 -0.28516265443E+03  0.28516265443E+03  0.00000000000E+00 0.  1.
         23    2    1    2    0    0 -0.18097443855E+02  0.17711722424E+02 -0.11395505203E+03  0.14751046156E+03  0.90179597473E+02 0.  0.
         24    2    1    2    0    0 -0.19213119360E+02 -0.12884373087E+03  0.35992539405E+02  0.15785948608E+03  0.81573914415E+02 0.  0.
        -11    1    4    4    0    0  0.22449618833E+02 -0.10390198006E+02 -0.60043133355E+01  0.25455714074E+02  0.00000000000E+00 0.  1.
         12    1    4    4    0    0 -0.41662738193E+02 -0.11845353287E+03  0.41996852741E+02  0.13240377201E+03  0.00000000000E+00 0. -1.
        -13    1    3    3    0    0  0.31041807417E+02  0.22541207996E+02 -0.25058243101E+02  0.45821560569E+02  0.00000000000E+00 0.  1.
         13    1    3    3    0    0 -0.49139251273E+02 -0.48294855720E+01 -0.88896808927E+02  0.10168890099E+03  0.00000000000E+00 0. -1.
         -4    1    1    2    0  502  0.37310563215E+02  0.11113200845E+03 -0.56750630190E+02  0.13024221841E+03  0.00000000000E+00 0.  1.
<scales pt_clust_5="13000.00000" pt_clust_6="13000.00000" pt_clust_7="13000.00000" pt_clust_8="13000.00000" pt_clust_9="124.67250"></scales>
<clustering>
<clus scale="   81.574">  5  6 -1 -1</clus>
<clus scale="   90.180">  7  8 -1 -1</clus>
<clus scale="   93.667">  2  7  1 -1</clus>
<clus scale="  124.672">  1  9  2 -1</clus>
<clus scale="  124.672">  1  5  2 -1</clus>
</clustering>
</event>
<event>
 9    2  0.1302972E-004  0.1941986E+03  0.7546771E-02  0.1173546E+00
          2   -1    0    0  502    0 -0.00000000000E+00  0.00000000000E+00  0.34727621699E+03  0.34727621699E+03  0.00000000000E+00 0. -1.
         21   -1    0    0  501  502  0.00000000000E+00 -0.00000000000E+00 -0.19008575963E+03  0.19008575963E+03  0.00000000000E+00 0. -1.
         24    2    1    2    0    0 -0.60624166694E+01 -0.96216101275E+02  0.86667156956E+02  0.15268921238E+03  0.80675327352E+02 0.  0.
         23    2    1    2    0    0  0.86660454931E+02  0.19981546986E+03  0.10726145720E+01  0.23617269451E+03  0.91324337863E+02 0.  0.
        -11    1    3    3    0    0 -0.42597749975E+02 -0.47279279897E+02  0.53818162302E+02  0.83344425153E+02  0.00000000000E+00 0.  1.
         12    1    3    3    0    0  0.36535333306E+02 -0.48936821378E+02  0.32848994654E+02  0.69344787231E+02  0.00000000000E+00 0. -1.
        -13    1    4    4    0    0  0.10137758927E+03  0.13068241055E+03  0.37974164839E+01  0.16543798960E+03  0.00000000000E+00 0. -1.
         13    1    4    4    0    0 -0.14717134335E+02  0.69133059314E+02 -0.27248019119E+01  0.70734704909E+02  0.00000000000E+00 0.  1.
          1    1    1    2  501    0 -0.80598038261E+02 -0.10359936859E+03  0.69450685832E+02  0.14850006972E+03  0.00000000000E+00 0. -1.
<scales pt_clust_5="13000.00000" pt_clust_6="13000.00000" pt_clust_7="13000.00000" pt_clust_8="13000.00000" pt_clust_9="171.38550"></scales>
<clustering>
<clus scale="   80.675">  5  6 -1 -1</clus>
<clus scale="   91.324">  7  8 -1 -1</clus>
<clus scale="  125.709">  1  5  2 -1</clus>
<clus scale="  171.386">  2  9  1 -1</clus>
<clus scale="  171.386">  2  5  1 -1</clus>
</clustering>
</event>
<event>
 9    2  0.1302972E-004  0.2736447E+03  0.7546771E-02  0.1099448E+00
         21   -1    0    0  501  502  0.00000000000E+00  0.00000000000E+00  0.11390453087E+03  0.11390453087E+03  0.00000000000E+00 0.  1.
         -1   -1    0    0    0  501 -0.00000000000E+00 -0.00000000000E+00 -0.14497668003E+04  0.14497668003E+04  0.00000000000E+00 0.  1.
         23    2    1    2    0    0 -0.22256074660E+03  0.42184035665E+02 -0.60918002225E+03  0.65589723139E+03  0.88250211545E+02 0.  0.
         24    2    1    2    0    0  0.27639394852E+03 -0.18724233122E+03 -0.64926766492E+03  0.73476271206E+03  0.82912224336E+02 0.  0.
        -11    1    4    4    0    0  0.20247649778E+03 -0.16617150795E+03 -0.55025593150E+03  0.60941881523E+03  0.00000000000E+00 0.  1.
         12    1    4    4    0    0  0.73917450743E+02 -0.21070823269E+02 -0.99011733424E+02  0.12534389683E+03  0.00000000000E+00 0. -1.
        -11    1    3    3    0    0 -0.75591309292E+02 -0.18077569572E+02 -0.13446276024E+03  0.15530962125E+03  0.00000000000E+00 0. -1.
         11    1    3    3    0    0 -0.14696943731E+03  0.60261605238E+02 -0.47471726201E+03  0.50058761013E+03  0.00000000000E+00 0.  1.
         -2    1    1    2    0  502 -0.53833201917E+02  0.14505829556E+03 -0.77414582266E+02  0.17301138773E+03  0.00000000000E+00 0.  1.
<scales pt_clust_5="13000.00000" pt_clust_6="13000.00000" pt_clust_7="13000.00000" pt_clust_8="13000.00000" pt_clust_9="154.72531"></scales>
<clustering>
<clus scale="   82.912">  5  6 -1 -1</clus>
<clus scale="   88.250">  7  8 -1 -1</clus>
<clus scale="  154.725">  1  9  2 -1</clus>
<clus scale="  271.970">  1  5  2 -1</clus>
<clus scale="  154.725">  1  5  2 -1</clus>
</clustering>
</event>
<event>
 9    2  0.1342231E-004  0.1713091E+03  0.7546771E-02  0.1176495E+00
         -1   -1    0    0    0  501 -0.00000000000E+00  0.00000000000E+00  0.53934028568E+03  0.53934028568E+03  0.00000000000E+00 0.  1.
         21   -1    0    0  501  502  0.00000000000E+00 -0.00000000000E+00 -0.34978074584E+03  0.34978074584E+03  0.00000000000E+00 0.  1.
         24    2    1    2    0    0 -0.40022610243E+02  0.14119165713E+03  0.49198322427E+03  0.52175917125E+03  0.92995948577E+02 0.  0.
         23    2    1    2    0    0 -0.33534641331E-01 -0.11144829249E+03 -0.15802572533E+03  0.21458773590E+03  0.93032486309E+02 0.  0.
        -11    1    3    3    0    0 -0.48503103416E+02  0.15225191792E+03  0.45094511629E+03  0.47841895390E+03  0.00000000000E+00 0.  1.
         12    1    3    3    0    0  0.84804931733E+01 -0.11060260790E+02  0.41038107982E+02  0.43340217350E+02  0.00000000000E+00 0. -1.
        -11    1    4    4    0    0  0.41597706958E+02 -0.85166834660E+02 -0.90756305639E+02  0.13122677304E+03  0.00000000000E+00 0. -1.
         11    1    4    4    0    0 -0.41631241599E+02 -0.26281457829E+02 -0.67269419690E+02  0.83360962855E+02  0.00000000000E+00 0.  1.
         -2    1    1    2    0  502  0.40056144884E+02 -0.29743364641E+02 -0.14439795910E+03  0.15277412437E+03  0.00000000000E+00 0.  1.
<scales pt_clust_5="13000.00000" pt_clust_6="13000.00000" pt_clust_7="13000.00000" pt_clust_8="13000.00000" pt_clust_9="49.89151"></scales>
<clustering>
<clus scale="   49.892">  2  9  1 -1</clus>
<clus scale="   92.996">  5  6 -1 -1</clus>
<clus scale="   93.032">  7  8 -1 -1</clus>
<clus scale="  171.289">  1  5  2 -1</clus>
<clus scale="   49.892">  2  5  1 -1</clus>
</clustering>
</event>
<event>
 9    2  0.1302972E-004  0.2834299E+03  0.7546771E-02  0.1125248E+00
         -3   -1    0    0    0  501 -0.00000000000E+00  0.00000000000E+00  0.97082396700E+03  0.97082396700E+03  0.00000000000E+00 0.  1.
         21   -1    0    0  501  502  0.00000000000E+00 -0.00000000000E+00 -0.19581384851E+03  0.19581384851E+03  0.00000000000E+00 0.  1.
         24    2    1    2    0    0 -0.78334579607E+01 -0.98423794904E+02 -0.68538539155E+02  0.14450002344E+03  0.80212960030E+02 0.  0.
         23    2    1    2    0    0 -0.18683466662E+03 -0.15076133623E+03  0.31957059034E+03  0.41013948870E+03  0.91939462873E+02 0.  0.
        -13    1    3    3    0    0 -0.38399546237E+02 -0.49674782228E+02 -0.59034804355E+02  0.86181304619E+02  0.00000000000E+00 0.  1.
         14    1    3    3    0    0  0.30566088276E+02 -0.48749012676E+02 -0.95037347998E+01  0.58318718818E+02  0.00000000000E+00 0. -1.
        -13    1    4    4    0    0 -0.91117111902E+02 -0.17190966289E+02  0.11817697222E+03  0.15021203070E+03  0.00000000000E+00 0. -1.
         13    1    4    4    0    0 -0.95717554717E+02 -0.13357036994E+03  0.20139361811E+03  0.25992745800E+03  0.00000000000E+00 0.  1.
         -4    1    1    2    0  502  0.19466812458E+03  0.24918513113E+03  0.52397806731E+03  0.61199830337E+03  0.00000000000E+00 0.  1.
<scales pt_clust_5="13000.00000" pt_clust_6="13000.00000" pt_clust_7="13000.00000" pt_clust_8="13000.00000" pt_clust_9="268.10394"></scales>
<clustering>
<clus scale="   80.213">  5  6 -1 -1</clus>
<clus scale="   91.939">  7  8 -1 -1</clus>
<clus scale="  127.211">  1  5  2 -1</clus>
<clus scale="  268.104">  2  9  1 -1</clus>
<clus scale="  268.104">  2  5  1 -1</clus>
</clustering>
</event>
<event>
 9    2  0.1302972E-004  0.9395911E+02  0.7546771E-02  0.1298356E+00
         21   -1    0    0  501  502  0.00000000000E+00  0.00000000000E+00  0.30731285035E+02  0.30731285035E+02  0.00000000000E+00 0.  1.
          2   -1    0    0  502    0 -0.00000000000E+00 -0.00000000000E+00 -0.11235809291E+04  0.11235809291E+04  0.00000000000E+00 0. -1.
         24    2    1    2    0    0 -0.12781024105E+02  0.13465204866E+02 -0.75617918479E+03  0.76086138553E+03  0.82209623351E+02 0.  0.
         23    2    1    2    0    0  0.56621716999E+02 -0.65163596771E+02 -0.15286538539E+03  0.19754514908E+03  0.90575640745E+02 0.  0.
        -11    1    3    3    0    0 -0.37447106349E+01  0.41469845281E+02 -0.22192533212E+03  0.22579775013E+03  0.00000000000E+00 0.  1.
         12    1    3    3    0    0 -0.90363134704E+01 -0.28004640415E+02 -0.53425385266E+03  0.53506363540E+03  0.00000000000E+00 0. -1.
        -13    1    4    4    0    0 -0.74266075728E+01 -0.53317712310E+02 -0.10034808280E+03  0.11387568075E+03  0.00000000000E+00 0. -1.
         13    1    4    4    0    0  0.64048324571E+02 -0.11845884461E+02 -0.52517302590E+02  0.83669468329E+02  0.00000000000E+00 0.  1.
          1    1    1    2  501    0 -0.43840692893E+02  0.51698391905E+02 -0.18380507385E+03  0.19590567948E+03  0.00000000000E+00 0. -1.
<scales pt_clust_5="13000.00000" pt_clust_6="13000.00000" pt_clust_7="13000.00000" pt_clust_8="13000.00000" pt_clust_9="67.78444"></scales>
<clustering>
<clus scale="   67.784">  1  9  2 -1</clus>
<clus scale="   82.210">  5  6 -1 -1</clus>
<clus scale="   85.923">  2  5  1 -1</clus>
<clus scale="   90.576">  7  8 -1 -1</clus>
<clus scale="   67.784">  1  5  2 -1</clus>
</clustering>
</event>
<event>
 9    2  0.1302972E-004  0.2232799E+03  0.7546771E-02  0.1131461E+00
         21   -1    0    0  501  502  0.00000000000E+00  0.00000000000E+00  0.50619431127E+02  0.50619431127E+02  0.00000000000E+00 0. -1.
          2   -1    0    0  502    0 -0.00000000000E+00 -0.00000000000E+00 -0.75522662964E+03  0.75522662964E+03  0.00000000000E+00 0. -1.
         24    2    1    2    0    0  0.40940158722E+02 -0.92298990486E+02 -0.13056098970E+03  0.18303891594E+03  0.79131994023E+02 0.  0.
         23    2    1    2    0    0  0.43534187057E+02 -0.22679574277E+02 -0.15074734956E+03  0.17611048075E+03  0.76684740970E+02 0.  0.
        -11    1    3    3    0    0  0.28654771216E+02  0.52368908800E+01 -0.21457903715E+02  0.36179587772E+02  0.00000000000E+00 0.  1.
         12    1    3    3    0    0  0.12285387506E+02 -0.97535881366E+02 -0.10910308598E+03  0.14685932817E+03  0.00000000000E+00 0. -1.
        -11    1    4    4    0    0  0.56934865401E+02 -0.39421402154E+02 -0.12140766811E+03  0.13976926601E+03  0.00000000000E+00 0. -1.
         11    1    4    4    0    0 -0.13400678344E+02  0.16741827877E+02 -0.29339681448E+02  0.36341214733E+02  0.00000000000E+00 0.  1.
          1    1    1    2  501    0 -0.84474345779E+02  0.11497856476E+03 -0.42329885925E+03  0.44669666407E+03  0.00000000000E+00 0. -1.
<scales pt_clust_5="13000.00000" pt_clust_6="13000.00000" pt_clust_7="13000.00000" pt_clust_8="13000.00000" pt_clust_9="142.67447"></scales>
<clustering>
<clus scale="   76.685">  7  8 -1 -1</clus>
<clus scale="   79.132">  5  6 -1 -1</clus>
<clus scale="   88.179">  5  7 -1 -1</clus>
<clus scale="  142.674">  1  9  2 -1</clus>
<clus scale="  142.674">  1  5  2 -1</clus>
</clustering>
</event>
<event>
 9    2  0.1302972E-004  0.1339556E+03  0.7546771E-02  0.1223736E+00
          2   -1    0    0  502    0 -0.00000000000E+00  0.00000000000E+00  0.59876683541E+03  0.59876683541E+03  0.00000000000E+00 0. -1.
         21   -1    0    0  501  502  0.00000000000E+00 -0.00000000000E+00 -0.98606777228E+02  0.98606777228E+02  0.00000000000E+00 0. -1.
         23    2    1    2    0    0 -0.10192672135E+03 -0.42882598049E+02  0.41781287899E+03  0.44153195274E+03  0.90304427919E+02 0.  0.
         24    2    1    2    0    0  0.45570296903E+02  0.75215618461E+02  0.12869215852E+03  0.17603359079E+03  0.81805331141E+02 0.  0.
        -13    1    4    4    0    0  0.26843046051E+02  0.90426286662E+01  0.95611670299E+02  0.99719154388E+02  0.00000000000E+00 0.  1.
         14    1    4    4    0    0  0.18727250852E+02  0.66172989795E+02  0.33080488217E+02  0.76314436403E+02  0.00000000000E+00 0. -1.
        -11    1    3    3    0    0 -0.82198572077E+02 -0.53434582531E+01  0.36300434748E+03  0.37223287615E+03  0.00000000000E+00 0. -1.
         11    1    3    3    0    0 -0.19728149270E+02 -0.37539139796E+02  0.54808531515E+02  0.69299076596E+02  0.00000000000E+00 0.  1.
          1    1    1    2  501    0  0.56356424444E+02 -0.32333020412E+02 -0.46344979326E+02  0.79808069102E+02  0.00000000000E+00 0. -1.
<scales pt_clust_5="13000.00000" pt_clust_6="13000.00000" pt_clust_7="13000.00000" pt_clust_8="13000.00000" pt_clust_9="64.97285"></scales>
<clustering>
<clus scale="   64.973">  2  9  1 -1</clus>
<clus scale="   81.805">  5  6 -1 -1</clus>
<clus scale="   90.304">  7  8 -1 -1</clus>
<clus scale="  128.380">  2  5  1 -1</clus>
<clus scale="   64.973">  2  5  1 -1</clus>
</clustering>
</event>
<event>
 9    2  0.1302972E-004  0.9782334E+02  0.7546771E-02  0.1291189E+00
         -3   -1    0    0    0  501 -0.00000000000E+00  0.00000000000E+00  0.18636793494E+03  0.18636793494E+03  0.00000000000E+00 0.  1.
         21   -1    0    0  501  502  0.00000000000E+00 -0.00000000000E+00 -0.72772163534E+02  0.72772163534E+02  0.00000000000E+00 0. -1.
         24    2    1    2    0    0 -0.22218969403E+02 -0.10563972751E+02  0.74209219193E+02  0.11216942264E+03  0.80434389662E+02 0.  0.
         23    2    1    2    0    0  0.54627716742E+02  0.43519237983E+01  0.20883631742E+02  0.10913848687E+03  0.92043232035E+02 0.  0.
        -11    1    3    3    0    0 -0.13144710556E+01 -0.43215760663E+02  0.51481401916E+02  0.67228450429E+02  0.00000000000E+00 0.  1.
         12    1    3    3    0    0 -0.20904498347E+02  0.32651787912E+02  0.22727817277E+02  0.44940972210E+02  0.00000000000E+00 0. -1.
        -13    1    4    4    0    0  0.42316981683E+02  0.44153081467E+02  0.27320981106E+02  0.66982516751E+02  0.00000000000E+00 0. -1.
         13    1    4    4    0    0  0.12310735059E+02 -0.39801157669E+02 -0.64373493640E+01  0.42155970115E+02  0.00000000000E+00 0.  1.
         -4    1    1    2    0  502 -0.32408747339E+02  0.62120489524E+01  0.18502920473E+02  0.37832188971E+02  0.00000000000E+00 0.  1.
<scales pt_clust_5="13000.00000" pt_clust_6="13000.00000" pt_clust_7="13000.00000" pt_clust_8="13000.00000" pt_clust_9="32.99875"></scales>
<clustering>
<clus scale="   32.999">  2  9  1 -1</clus>
<clus scale="   80.434">  5  6 -1 -1</clus>
<clus scale="   86.989">  1  5  2 -1</clus>
<clus scale="   92.043">  7  8 -1 -1</clus>
<clus scale="   32.999">  2  5  1 -1</clus>
</clustering>
</event>
<event>
 9    2  0.1302972E-004  0.1291118E+03  0.7546771E-02  0.1241402E+00
         21   -1    0    0  501  502  0.00000000000E+00  0.00000000000E+00  0.42560085783E+02  0.42560085783E+02  0.00000000000E+00 0. -1.
          2   -1    0    0  502    0 -0.00000000000E+00 -0.00000000000E+00 -0.69623386338E+03  0.69623386338E+03  0.00000000000E+00 0. -1.
         24    2    1    2    0    0  0.24131068907E+02  0.37348875934E+01 -0.10928363927E+03  0.14793370120E+03  0.96670617386E+02 0.  0.
         23    2    1    2    0    0  0.81166041762E+02 -0.12685797929E+02 -0.35221991738E+03  0.37154997887E+03  0.85097948252E+02 0.  0.
        -11    1    3    3    0    0  0.44081008805E+02 -0.80123503916E+01 -0.11556427178E+03  0.12394528635E+03  0.00000000000E+00 0.  1.
         12    1    3    3    0    0 -0.19949939898E+02  0.11747237985E+02  0.62806325096E+01  0.23988414848E+02  0.00000000000E+00 0. -1.
        -11    1    4    4    0    0  0.87123357000E+02  0.13756220007E+02 -0.30023825931E+03  0.31292606999E+03  0.00000000000E+00 0. -1.
         11    1    4    4    0    0 -0.59573152375E+01 -0.26442017936E+02 -0.51981658066E+02  0.58623908883E+02  0.00000000000E+00 0.  1.
          1    1    1    2  501    0 -0.10529711067E+03  0.89509103352E+01 -0.19217022095E+03  0.21931026909E+03  0.00000000000E+00 0. -1.
<scales pt_clust_5="13000.00000" pt_clust_6="13000.00000" pt_clust_7="13000.00000" pt_clust_8="13000.00000" pt_clust_9="97.09895"></scales>
<clustering>
<clus scale="   85.098">  7  8 -1 -1</clus>
<clus scale="   96.671">  5  6 -1 -1</clus>
<clus scale="   99.707">  2  5  1 -1</clus>
<clus scale="   97.099">  1  9  2 -1</clus>
<clus scale="   97.099">  1  5  2 -1</clus>
</clustering>
</event>
<event>
 9    2  0.1302972E-004  0.1394170E+03  0.7546771E-02  0.1217801E+00
         21   -1    0    0  501  502  0.00000000000E+00  0.00000000000E+00  0.40691366607E+02  0.40691366607E+02  0.00000000000E+00 0. -1.
          2   -1    0    0  502    0 -0.00000000000E+00 -0.00000000000E+00 -0.61729638396E+03  0.61729638396E+03  0.00000000000E+00 0. -1.
         24    2    1    2    0    0 -0.28760759205E+02  0.92346219146E+02 -0.26705164183E+03  0.29333774939E+03  0.73317462829E+02 0.  0.
         23    2    1    2    0    0  0.36629146847E+02 -0.11896266792E+03 -0.20406191300E+03  0.25556840083E+03  0.90444084407E+02 0.  0.
        -11    1    3    3    0    0 -0.25494180276E+02  0.87063006642E+02 -0.14442252276E+03  0.17055141581E+03  0.00000000000E+00 0.  1.
         12    1    3    3    0    0 -0.32665789287E+01  0.52832125045E+01 -0.12262911907E+03  0.12278633359E+03  0.00000000000E+00 0. -1.
        -11    1    4    4    0    0  0.41223371917E+02 -0.36609215438E+02 -0.29564594878E+02  0.62559302406E+02  0.00000000000E+00 0. -1.
         11    1    4    4    0    0 -0.45942250697E+01 -0.82353452482E+02 -0.17449731813E+03  0.19300909842E+03  0.00000000000E+00 0.  1.
          1    1    1    2  501    0 -0.78683876417E+01  0.26616448774E+02 -0.10549146252E+03  0.10908160035E+03  0.00000000000E+00 0. -1.
<scales pt_clust_5="13000.00000" pt_clust_6="13000.00000" pt_clust_7="13000.00000" pt_clust_8="13000.00000" pt_clust_9="27.75514"></scales>
<clustering>
<clus scale="   27.755">  1  9  2 -1</clus>
<clus scale="   73.317">  5  6 -1 -1</clus>
<clus scale="   90.444">  7  8 -1 -1</clus>
<clus scale="  128.967">  2  5  1 -1</clus>
<clus scale="   27.755">  1  5  2 -1</clus>
</clustering>
</event>
<event>
 9    2  0.1302972E-004  0.1428994E+03  0.7546771E-02  0.1211845E+00
          2   -1    0    0  502    0 -0.00000000000E+00  0.00000000000E+00  0.99934170655E+03  0.99934170655E+03  0.00000000000E+00 0. -1.
         21   -1    0    0  501  502  0.00000000000E+00 -0.00000000000E+00 -0.50942758552E+02  0.50942758552E+02  0.00000000000E+00 0. -1.
         23    2    1    2    0    0  0.11204020670E+02  0.10025276583E+03  0.21284059732E+03  0.25251058448E+03  0.91018285374E+02 0.  0.
         24    2    1    2    0    0  0.11467815312E+03 -0.27806259195E+02  0.22054623207E+03  0.26267360935E+03  0.80202978225E+02 0.  0.
        -11    1    4    4    0    0  0.48604184672E+02 -0.39788677150E+02  0.53051246350E+02  0.82218856331E+02  0.00000000000E+00 0.  1.
         12    1    4    4    0    0  0.66073968446E+02  0.11982417955E+02  0.16749498572E+03  0.18045475302E+03  0.00000000000E+00 0. -1.
        -11    1    3    3    0    0  0.36424385422E+02  0.89981704571E+01  0.89320581278E+02  0.96880695522E+02  0.00000000000E+00 0.  1.
         11    1    3    3    0    0 -0.25220364753E+02  0.91254595371E+02  0.12352001604E+03  0.15562988896E+03  0.00000000000E+00 0. -1.
          1    1    1    2  501    0 -0.12588217379E+03 -0.72446506634E+02  0.51501211860E+03  0.53510027127E+03  0.00000000000E+00 0. -1.
<scales pt_clust_5="13000.00000" pt_clust_6="13000.00000" pt_clust_7="13000.00000" pt_clust_8="13000.00000" pt_clust_9="118.26976"></scales>
<clustering>
<clus scale="   80.203">  5  6 -1 -1</clus>
<clus scale="   91.018">  7  8 -1 -1</clus>
<clus scale="  135.869">  1  7  2 -1</clus>
<clus scale="  118.270">  2  9  1 -1</clus>
<clus scale="  118.270">  2  5  1 -1</clus>
</clustering>
</event>
<event>
 9    2  0.1302972E-004  0.1468605E+03  0.7546771E-02  0.1206933E+00
         21   -1    0    0  501  502  0.00000000000E+00  0.00000000000E+00  0.71757806270E+02  0.71757806270E+02  0.00000000000E+00 0.  1.
          2   -1    0    0  502    0 -0.00000000000E+00 -0.00000000000E+00 -0.12093156356E+04  0.12093156356E+04  0.00000000000E+00 0. -1.
         24    2    1    2    0    0  0.10102401728E+03  0.64218549679E+02 -0.10722577508E+04  0.10815367749E+04  0.75201311737E+02 0.  0.
         23    2    1    2    0    0 -0.81436625612E+02 -0.52402052062E+02 -0.94914952503E+02  0.16211559950E+03  0.88852238814E+02 0.  0.
        -13    1    3    3    0    0  0.88936735256E+01  0.27928056882E+02 -0.98801767007E+02  0.10305757106E+03  0.00000000000E+00 0.  1.
         14    1    3    3    0    0  0.92130343757E+02  0.36290492797E+02 -0.97345598375E+03  0.97847920387E+03  0.00000000000E+00 0. -1.
        -13    1    4    4    0    0 -0.38229131977E+02  0.22010292775E+02 -0.43097002278E+02  0.61670666650E+02  0.00000000000E+00 0. -1.
         13    1    4    4    0    0 -0.43207493635E+02 -0.74412344837E+02 -0.51817950226E+02  0.10044493285E+03  0.00000000000E+00 0.  1.
          1    1    1    2  501    0 -0.19587391670E+02 -0.11816497617E+02  0.29614873941E+02  0.37421067421E+02  0.00000000000E+00 0. -1.
<scales pt_clust_5="13000.00000" pt_clust_6="13000.00000" pt_clust_7="13000.00000" pt_clust_8="13000.00000" pt_clust_9="22.87565"></scales>
<clustering>
<clus scale="   22.876">  1  9  2 -1</clus>
<clus scale="   75.201">  5  6 -1 -1</clus>
<clus scale="   88.852">  7  8 -1 -1</clus>
<clus scale="  139.027">  2  5  1 -1</clus>
<clus scale="   22.876">  1  5  2 -1</clus>
</clustering>
</event>
<event>
 9    2  0.1302972E-004  0.1618553E+03  0.7546771E-02  0.1187836E+00
          2   -1    0    0  502    0 -0.00000000000E+00  0.00000000000E+00  0.22794615441E+03  0.22794615441E+03  0.00000000000E+00 0. -1.
         21   -1    0    0  501  502  0.00000000000E+00 -0.00000000000E+00 -0.36077424414E+03  0.36077424414E+03  0.00000000000E+00 0.  1.
         23    2    1    2    0    0 -0.97981533850E+01 -0.13564837170E+03  0.16512731778E+03  0.23246994651E+03  0.90987693671E+02 0.  0.
         24    2    1    2    0    0  0.37612944301E+02  0.11787740451E+03 -0.17960499751E+03  0.23338349383E+03  0.83066744196E+02 0.  0.
        -13    1    4    4    0    0  0.33778399631E+02  0.10789985820E+03 -0.18827846432E+03  0.21961816821E+03  0.00000000000E+00 0.  1.
         14    1    4    4    0    0  0.38345446700E+01  0.99775463127E+01  0.86734668067E+01  0.13765325630E+02  0.00000000000E+00 0. -1.
        -13    1    3    3    0    0 -0.38345652606E+02 -0.19502842882E+02  0.55548358151E+02  0.70259305772E+02  0.00000000000E+00 0.  1.
         13    1    3    3    0    0  0.28547499221E+02 -0.11614552882E+03  0.10957895963E+03  0.16221064074E+03  0.00000000000E+00 0. -1.
          1    1    1    2  501    0 -0.27814790916E+02  0.17770967189E+02 -0.11835041000E+03  0.12286695820E+03  0.00000000000E+00 0. -1.
<scales pt_clust_5="13000.00000" pt_clust_6="13000.00000" pt_clust_7="13000.00000" pt_clust_8="13000.00000" pt_clust_9="33.00712"></scales>
<clustering>
<clus scale="   33.007">  2  9  1 -1</clus>
<clus scale="   83.067">  5  6 -1 -1</clus>
<clus scale="   90.988">  7  8 -1 -1</clus>
<clus scale="  157.539">  2  5  1 -1</clus>
<clus scale="   33.007">  2  5  1 -1</clus>
</clustering>
</event>
<event>
 9    2  0.1302972E-004  0.3396767E+03  0.7546771E-02  0.1067746E+00
          2   -1    0    0  502    0 -0.00000000000E+00  0.00000000000E+00  0.13580311885E+04  0.13580311885E+04  0.00000000000E+00 0. -1.
         21   -1    0    0  501  502  0.00000000000E+00 -0.00000000000E+00 -0.18786402337E+03  0.18786402337E+03  0.00000000000E+00 0.  1.
         23    2    1    2    0    0 -0.31390116347E+03  0.18400899335E+03  0.10944888590E+04  0.11583577512E+04  0.10720805644E+03 0.  0.
         24    2    1    2    0    0  0.18264983211E+03 -0.91503958236E+02  0.41309322563E+02  0.22332625351E+03  0.80213588837E+02 0.  0.
        -13    1    4    4    0    0  0.12237189852E+03 -0.68979953028E+02 -0.10280627611E+02  0.14085029915E+03  0.00000000000E+00 0.  1.
         14    1    4    4    0    0  0.60277933586E+02 -0.22524005208E+02  0.51589950174E+02  0.82475954357E+02  0.00000000000E+00 0. -1.
        -11    1    3    3    0    0 -0.22386938098E+03  0.17214687111E+03  0.90856074993E+03  0.95143821727E+03  0.00000000000E+00 0.  1.
         11    1    3    3    0    0 -0.90031782491E+02  0.11862122246E+02  0.18592810903E+03  0.20691953395E+03  0.00000000000E+00 0. -1.
          1    1    1    2  501    0  0.13125133137E+03 -0.92505035118E+02  0.34368983586E+02  0.16421120711E+03  0.00000000000E+00 0. -1.
<scales pt_clust_5="13000.00000" pt_clust_6="13000.00000" pt_clust_7="13000.00000" pt_clust_8="13000.00000" pt_clust_9="160.57426"></scales>
<clustering>
<clus scale="   80.214">  5  6 -1 -1</clus>
<clus scale="  107.208">  7  8 -1 -1</clus>
<clus scale="  160.574">  2  9  1 -1</clus>
<clus scale="  332.146">  2  5  1 -1</clus>
<clus scale="  160.574">  2  5  1 -1</clus>
</clustering>
</event>
<event>
 9    2  0.1302972E-004  0.1098914E+03  0.7546771E-02  0.1267530E+00
         21   -1    0    0  501  502  0.00000000000E+00  0.00000000000E+00  0.35573774152E+02  0.35573774152E+02  0.00000000000E+00 0. -1.
          2   -1    0    0  502    0 -0.00000000000E+00 -0.00000000000E+00 -0.58194485043E+03  0.58194485043E+03  0.00000000000E+00 0. -1.
         23    2    1    2    0    0 -0.73808590320E+02  0.21628507136E+01 -0.32281268916E+03  0.34480961137E+03  0.96089801145E+02 0.  0.
         24    2    1    2    0    0  0.17947894982E+02  0.22707326163E+02 -0.81060309241E+02  0.11764565461E+03  0.80199605475E+02 0.  0.
        -13    1    4    4    0    0 -0.31600972407E+02  0.23952267326E+01 -0.31386340232E+02  0.44603373430E+02  0.00000000000E+00 0.  1.
         14    1    4    4    0    0  0.49548867388E+02  0.20312099430E+02 -0.49673969009E+02  0.73042281179E+02  0.00000000000E+00 0. -1.
        -13    1    3    3    0    0  0.21851421102E+02 -0.10130877793E+02 -0.79871856782E+02  0.83424413662E+02  0.00000000000E+00 0.  1.
         13    1    3    3    0    0 -0.95660011422E+02  0.12293728506E+02 -0.24294083238E+03  0.26138519771E+03  0.00000000000E+00 0. -1.
          1    1    1    2  501    0  0.55860695338E+02 -0.24870176876E+02 -0.14249807787E+03  0.15506335860E+03  0.00000000000E+00 0. -1.
<scales pt_clust_5="13000.00000" pt_clust_6="13000.00000" pt_clust_7="13000.00000" pt_clust_8="13000.00000" pt_clust_9="61.14693"></scales>
<clustering>
<clus scale="   61.147">  1  9  2 -1</clus>
<clus scale="   80.200">  5  6 -1 -1</clus>
<clus scale="   96.090">  7  8 -1 -1</clus>
<clus scale="   96.306">  1  5  2 -1</clus>
<clus scale="   61.147">  1  5  2 -1</clus>
</clustering>
</event>
<event>
 9    2  0.1302972E-004  0.1143527E+03  0.7546771E-02  0.1265901E+00
          2   -1    0    0  502    0 -0.00000000000E+00  0.00000000000E+00  0.52948262534E+02  0.52948262534E+02  0.00000000000E+00 0. -1.
         21   -1    0    0  501  502  0.00000000000E+00 -0.00000000000E+00 -0.29288546195E+03  0.29288546195E+03  0.00000000000E+00 0.  1.
         23    2    1    2    0    0  0.13531546127E+02 -0.22341657948E+02 -0.95525846661E+02  0.14481274358E+03  0.10565647591E+03 0.  0.
         24    2    1    2    0    0 -0.13340138850E+02  0.56826113873E+02 -0.70180983944E+02  0.11917135054E+03  0.76611185601E+02 0.  0.
        -11    1    4    4    0    0  0.17877928566E+02  0.27518455717E+02 -0.68919430045E+02  0.76333305788E+02  0.00000000000E+00 0.  1.
         12    1    4    4    0    0 -0.31218067416E+02  0.29307658156E+02 -0.12615538996E+01  0.42838044750E+02  0.00000000000E+00 0. -1.
        -11    1    3    3    0    0  0.34984401687E+02 -0.57157243884E+02 -0.49963282446E+02  0.83589404129E+02  0.00000000000E+00 0. -1.
         11    1    3    3    0    0 -0.21452855559E+02  0.34815585936E+02 -0.45562564215E+02  0.61223339451E+02  0.00000000000E+00 0.  1.
          1    1    1    2  501    0 -0.19140727746E+00 -0.34484455926E+02 -0.74230368813E+02  0.81849630368E+02  0.00000000000E+00 0. -1.
<scales pt_clust_5="13000.00000" pt_clust_6="13000.00000" pt_clust_7="13000.00000" pt_clust_8="13000.00000" pt_clust_9="34.48499"></scales>
<clustering>
<clus scale="   34.485">  2  9  1 -1</clus>
<clus scale="   76.611">  5  6 -1 -1</clus>
<clus scale="   88.219">  2  5  1 -1</clus>
<clus scale="  105.656">  7  8 -1 -1</clus>
<clus scale="   34.485">  2  5  1 -1</clus>
</clustering>
</event>
<event>
 9    2  0.1302972E-004  0.9250426E+02  0.7546771E-02  0.1305502E+00
         -3   -1    0    0    0  501 -0.00000000000E+00  0.00000000000E+00  0.12892521926E+03  0.12892521926E+03  0.00000000000E+00 0.  1.
         21   -1    0    0  501  502  0.00000000000E+00 -0.00000000000E+00 -0.43576856880E+03  0.43576856880E+03  0.00000000000E+00 0. -1.
         24    2    1    2    0    0 -0.81102869715E+01  0.24897581328E+01  0.90352256859E+02  0.12001199524E+03  0.78532623994E+02 0.  0.
         23    2    1    2    0    0 -0.11235508210E+02 -0.30431004483E+02 -0.39886848613E+03  0.41065575037E+03  0.92140074898E+02 0.  0.
        -11    1    3    3    0    0  0.66703122378E+00 -0.37458172353E+02  0.50750213050E+02  0.63080454432E+02  0.00000000000E+00 0.  1.
         12    1    3    3    0    0 -0.87773181953E+01  0.39947930486E+02  0.39602043809E+02  0.56931540807E+02  0.00000000000E+00 0. -1.
        -11    1    4    4    0    0  0.21136215549E+02 -0.53590544457E+02 -0.25074882737E+03  0.25728128671E+03  0.00000000000E+00 0.  1.
         11    1    4    4    0    0 -0.32371723759E+02  0.23159539974E+02 -0.14811965876E+03  0.15337446366E+03  0.00000000000E+00 0. -1.
         -4    1    1    2    0  502  0.19345795182E+02  0.27941246351E+02  0.16728797330E+01  0.34026042459E+02  0.00000000000E+00 0.  1.
<scales pt_clust_5="13000.00000" pt_clust_6="13000.00000" pt_clust_7="13000.00000" pt_clust_8="13000.00000" pt_clust_9="33.98491"></scales>
<clustering>
<clus scale="   33.985">  2  9  1 -1</clus>
<clus scale="   78.533">  5  6 -1 -1</clus>
<clus scale="   78.960">  1  5  2 -1</clus>
<clus scale="   92.140">  7  8 -1 -1</clus>
<clus scale="   33.985">  2  5  1 -1</clus>
</clustering>
</event>
<event>
 9    2  0.1302972E-004  0.2037551E+03  0.7546771E-02  0.1147726E+00
         21   -1    0    0  501  502  0.00000000000E+00  0.00000000000E+00  0.25853900148E+03  0.25853900148E+03  0.00000000000E+00 0.  1.
         -1   -1    0    0    0  501 -0.00000000000E+00 -0.00000000000E+00 -0.39609177093E+03  0.39609177093E+03  0.00000000000E+00 0.  1.
         23    2    1    2    0    0  0.16003971053E+03  0.77420003663E+02 -0.28331376977E+03  0.34716811461E+03  0.93018502171E+02 0.  0.
         24    2    1    2    0    0 -0.16329777983E+03 -0.11644508754E+03  0.79165331259E+02  0.23020623203E+03  0.80635825053E+02 0.  0.
        -13    1    4    4    0    0 -0.31397246155E+02 -0.48492723713E+02 -0.76889709366E+01  0.58279083669E+02  0.00000000000E+00 0.  1.
         14    1    4    4    0    0 -0.13190053367E+03 -0.67952363828E+02  0.86854302196E+02  0.17192714836E+03  0.00000000000E+00 0. -1.
        -13    1    3    3    0    0  0.37257054710E+02 -0.53283160598E+01 -0.14613089206E+02  0.40373524169E+02  0.00000000000E+00 0. -1.
         13    1    3    3    0    0  0.12278265581E+03  0.82748319723E+02 -0.26870068057E+03  0.30679459044E+03  0.00000000000E+00 0.  1.
         -2    1    1    2    0  502  0.32580693002E+01  0.39025083878E+02  0.66595669063E+02  0.77256425785E+02  0.00000000000E+00 0.  1.
<scales pt_clust_5="13000.00000" pt_clust_6="13000.00000" pt_clust_7="13000.00000" pt_clust_8="13000.00000" pt_clust_9="39.16085"></scales>
<clustering>
<clus scale="   39.161">  1  9  2 -1</clus>
<clus scale="   80.636">  5  6 -1 -1</clus>
<clus scale="   93.019">  7  8 -1 -1</clus>
<clus scale="  198.408">  1  5  2 -1</clus>
<clus scale="   39.161">  1  5  2 -1</clus>
</clustering>
</event>
<event>
 9    2  0.1302972E-004  0.2884058E+03  0.7546771E-02  0.1127724E+00
         21   -1    0    0  501  502  0.00000000000E+00  0.00000000000E+00  0.18583470403E+03  0.18583470403E+03  0.00000000000E+00 0.  1.
          2   -1    0    0  502    0 -0.00000000000E+00 -0.00000000000E+00 -0.81483919610E+03  0.81483919610E+03  0.00000000000E+00 0. -1.
         23    2    1    2    0    0 -0.72137547230E+01 -0.66895325062E+02 -0.91360190032E+02  0.14575890805E+03  0.91498372564E+02 0.  0.
         24    2    1    2    0    0  0.27470332516E+03  0.65236197389E+02 -0.48384613058E+02  0.29730539186E+03  0.79572274994E+02 0.  0.
        -11    1    4    4    0    0  0.85888733320E+02 -0.37389666467E+01  0.13395100701E+02  0.87007373858E+02  0.00000000000E+00 0.  1.
         12    1    4    4    0    0  0.18881459184E+03  0.68975164035E+02 -0.61779713759E+02  0.21029801800E+03  0.00000000000E+00 0. -1.
        -13    1    3    3    0    0  0.32744938369E+02 -0.25838663597E+02 -0.75592299812E+02  0.86336917458E+02  0.00000000000E+00 0. -1.
         13    1    3    3    0    0 -0.39958693092E+02 -0.41056661465E+02 -0.15767890220E+02  0.59421990595E+02  0.00000000000E+00 0.  1.
          1    1    1    2  501    0 -0.26748957043E+03  0.16591276733E+01 -0.48925968898E+03  0.55760960022E+03  0.00000000000E+00 0. -1.
<scales pt_clust_5="13000.00000" pt_clust_6="13000.00000" pt_clust_7="13000.00000" pt_clust_8="13000.00000" pt_clust_9="277.21153"></scales>
<clustering>
<clus scale="   79.572">  5  6 -1 -1</clus>
<clus scale="   91.498">  7  8 -1 -1</clus>
<clus scale="  113.574">  2  7  1 -1</clus>
<clus scale="  277.212">  1  9  2 -1</clus>
<clus scale="  277.212">  1  5  2 -1</clus>
</clustering>
</event>
<event>
 9    2  0.1302972E-004  0.1388453E+03  0.7546771E-02  0.1217388E+00
         21   -1    0    0  501  502  0.00000000000E+00  0.00000000000E+00  0.34828906819E+03  0.34828906819E+03  0.00000000000E+00 0. -1.
          2   -1    0    0  502    0 -0.00000000000E+00 -0.00000000000E+00 -0.92016396158E+03  0.92016396158E+03  0.00000000000E+00 0. -1.
         23    2    1    2    0    0 -0.10681574890E+02 -0.91991484452E+02 -0.47213910271E+03  0.48767311277E+03  0.79581425956E+02 0.  0.
         24    2    1    2    0    0  0.38869532918E+02  0.12275009556E+03 -0.42477495236E+03  0.45307408891E+03  0.90906233799E+02 0.  0.
        -13    1    4    4    0    0  0.60513006989E+02  0.78040369350E+02 -0.20223807439E+03  0.22506079622E+03  0.00000000000E+00 0.  1.
         14    1    4    4    0    0 -0.21643474070E+02  0.44709726210E+02 -0.22253687797E+03  0.22801329269E+03  0.00000000000E+00 0. -1.
        -11    1    3    3    0    0 -0.23004342496E+02 -0.16063503568E+02 -0.40722223082E+02  0.49452354578E+02  0.00000000000E+00 0.  1.
         11    1    3    3    0    0  0.12322767606E+02 -0.75927980884E+02 -0.43141687963E+03  0.43822075819E+03  0.00000000000E+00 0. -1.
          1    1    1    2  501    0 -0.28187958029E+02 -0.30758611108E+02  0.32503916168E+03  0.32770582808E+03  0.00000000000E+00 0. -1.
<scales pt_clust_5="13000.00000" pt_clust_6="13000.00000" pt_clust_7="13000.00000" pt_clust_8="13000.00000" pt_clust_9="41.72114"></scales>
<clustering>
<clus scale="   41.721">  1  9  2 -1</clus>
<clus scale="   79.581">  7  8 -1 -1</clus>
<clus scale="   90.906">  5  6 -1 -1</clus>
<clus scale="  131.709">  2  7  1 -1</clus>
<clus scale="   41.721">  1  5  2 -1</clus>
</clustering>
</event>
<event>
 9    2  0.1302972E-004  0.9957480E+02  0.7546771E-02  0.1289667E+00
         -1   -1    0    0    0  501 -0.00000000000E+00  0.00000000000E+00  0.12530259271E+03  0.12530259271E+03  0.00000000000E+00 0.  1.
         21   -1    0    0  501  502  0.00000000000E+00 -0.00000000000E+00 -0.37066124797E+03  0.37066124797E+03  0.00000000000E+00 0.  1.
         24    2    1    2    0    0 -0.24112546202E+02 -0.17871780220E+02  0.90151293449E+02  0.12483647490E+03  0.80969588992E+02 0.  0.
         23    2    1    2    0    0 -0.24145196678E+02 -0.73296690596E+01 -0.17116475362E+03  0.19799947681E+03  0.96279309120E+02 0.  0.
        -13    1    3    3    0    0 -0.13043921845E+02  0.20929772867E+02  0.79310196478E+02  0.83056044661E+02  0.00000000000E+00 0.  1.
         14    1    3    3    0    0 -0.11068624357E+02 -0.38801553087E+02  0.10841096971E+02  0.41780430235E+02  0.00000000000E+00 0. -1.
        -11    1    4    4    0    0 -0.60258721846E+02 -0.21664012060E+01 -0.83045319852E+02  0.10262715041E+03  0.00000000000E+00 0.  1.
         11    1    4    4    0    0  0.36113525168E+02 -0.51632678536E+01 -0.88119433766E+02  0.95372326397E+02  0.00000000000E+00 0. -1.
         -2    1    1    2    0  502  0.48257742879E+02  0.25201449280E+02 -0.16434519508E+03  0.17312788897E+03  0.00000000000E+00 0.  1.
<scales pt_clust_5="13000.00000" pt_clust_6="13000.00000" pt_clust_7="13000.00000" pt_clust_8="13000.00000" pt_clust_9="54.44192"></scales>
<clustering>
<clus scale="   54.442">  2  9  1 -1</clus>
<clus scale="   80.970">  5  6 -1 -1</clus>
<clus scale="   84.862">  1  5  2 -1</clus>
<clus scale="   96.279">  7  8 -1 -1</clus>
<clus scale="   54.442">  2  5  1 -1</clus>
</clustering>
</event>
<event>
 9    2  0.1302972E-004  0.1123147E+03  0.7546771E-02  0.1261161E+00
          4   -1    0    0  502    0 -0.00000000000E+00  0.00000000000E+00  0.31245771829E+03  0.31245771829E+03  0.00000000000E+00 0. -1.
         21   -1    0    0  501  502  0.00000000000E+00 -0.00000000000E+00 -0.11067843045E+03  0.11067843045E+03  0.00000000000E+00 0.  1.
         24    2    1    2    0    0  0.63695259750E+02 -0.11460765098E+02  0.21045633989E+03  0.23428283468E+03  0.80050861192E+02 0.  0.
         23    2    1    2    0    0 -0.53828148731E+02  0.32232536836E+02  0.52411046734E+02  0.12358017875E+03  0.92675437591E+02 0.  0.
        -11    1    3    3    0    0  0.55610485477E+02 -0.16864158760E+02  0.60055173692E+02  0.83567636276E+02  0.00000000000E+00 0.  1.
         12    1    3    3    0    0  0.80847742736E+01  0.54033936621E+01  0.15040116620E+03  0.15071519841E+03  0.00000000000E+00 0. -1.
        -11    1    4    4    0    0 -0.59705642400E+02 -0.94769780207E+01  0.54519153804E+02  0.81405865749E+02  0.00000000000E+00 0. -1.
         11    1    4    4    0    0  0.58774936691E+01  0.41709514857E+02 -0.21081070703E+01  0.42174312998E+02  0.00000000000E+00 0.  1.
          3    1    1    2  501    0 -0.98671110196E+01 -0.20771771739E+02 -0.61088098779E+02  0.65273135312E+02  0.00000000000E+00 0. -1.
<scales pt_clust_5="13000.00000" pt_clust_6="13000.00000" pt_clust_7="13000.00000" pt_clust_8="13000.00000" pt_clust_9="22.99623"></scales>
<clustering>
<clus scale="   22.996">  2  9  1 -1</clus>
<clus scale="   80.051">  5  6 -1 -1</clus>
<clus scale="   92.675">  7  8 -1 -1</clus>
<clus scale="  102.147">  1  5  2 -1</clus>
<clus scale="   22.996">  2  5  1 -1</clus>
</clustering>
</event>
<event>
 9    2  0.1302972E-004  0.1188921E+03  0.7546771E-02  0.1258446E+00
          2   -1    0    0  502    0 -0.00000000000E+00  0.00000000000E+00  0.64701387090E+03  0.64701387090E+03  0.00000000000E+00 0. -1.
         21   -1    0    0  501  502  0.00000000000E+00 -0.00000000000E+00 -0.72606284680E+02  0.72606284680E+02  0.00000000000E+00 0. -1.
         24    2    1    2    0    0  0.26150110453E+02  0.34949520943E+02 -0.18632292870E+02  0.92726819520E+02  0.79660551278E+02 0.  0.
         23    2    1    2    0    0  0.64048827252E+02 -0.20491324636E+02  0.35362433524E+03  0.37064211081E+03  0.88336046866E+02 0.  0.
        -13    1    3    3    0    0 -0.16958577989E+02 -0.16495897394E+02 -0.63187330874E+01  0.24487433228E+02  0.00000000000E+00 0.  1.
         14    1    3    3    0    0  0.43108688442E+02  0.51445418337E+02 -0.12313559782E+02  0.68239386292E+02  0.00000000000E+00 0. -1.
        -11    1    4    4    0    0  0.60364576427E+02 -0.50017297531E+02  0.28991208734E+03  0.30032420902E+03  0.00000000000E+00 0.  1.
         11    1    4    4    0    0  0.36842508249E+01  0.29525972895E+02  0.63712247896E+02  0.70317901785E+02  0.00000000000E+00 0. -1.
          1    1    1    2  501    0 -0.90198937705E+02 -0.14458196307E+02  0.23941554385E+03  0.25625122525E+03  0.00000000000E+00 0. -1.
<scales pt_clust_5="13000.00000" pt_clust_6="13000.00000" pt_clust_7="13000.00000" pt_clust_8="13000.00000" pt_clust_9="79.57444"></scales>
<clustering>
<clus scale="   79.661">  5  6 -1 -1</clus>
<clus scale="   88.336">  7  8 -1 -1</clus>
<clus scale="   90.836">  1  5  2 -1</clus>
<clus scale="   79.574">  2  9  1 -1</clus>
<clus scale="   79.574">  2  5  1 -1</clus>
</clustering>
</event>
<event>
 9    2  0.1302972E-004  0.1206760E+03  0.7546771E-02  0.1247853E+00
         -1   -1    0    0    0  501 -0.00000000000E+00  0.00000000000E+00  0.16974107935E+03  0.16974107935E+03  0.00000000000E+00 0.  1.
         21   -1    0    0  501  502  0.00000000000E+00 -0.00000000000E+00 -0.19123930614E+03  0.19123930614E+03  0.00000000000E+00 0. -1.
         24    2    1    2    0    0 -0.63347960974E+02 -0.14738621045E+02  0.75255619739E+00  0.10722652005E+03  0.85245346799E+02 0.  0.
         23    2    1    2    0    0 -0.52015784855E+02  0.31570057163E+02 -0.64663406779E+02  0.12969371169E+03  0.94534608959E+02 0.  0.
        -13    1    3    3    0    0 -0.32788539884E+02 -0.49555456598E+02  0.92238104127E+01  0.60132439705E+02  0.00000000000E+00 0.  1.
         14    1    3    3    0    0 -0.30559421090E+02  0.34816835554E+02 -0.84712542153E+01  0.47094080342E+02  0.00000000000E+00 0. -1.
        -13    1    4    4    0    0  0.16020184016E+02 -0.19687196959E+02 -0.25361647233E+02  0.35880986196E+02  0.00000000000E+00 0.  1.
         13    1    4    4    0    0 -0.68035968872E+02  0.51257254122E+02 -0.39301759545E+02  0.93812725489E+02  0.00000000000E+00 0. -1.
         -2    1    1    2    0  502  0.11536374583E+03 -0.16831436119E+02  0.42412623790E+02  0.12406015376E+03  0.00000000000E+00 0.  1.
<scales pt_clust_5="13000.00000" pt_clust_6="13000.00000" pt_clust_7="13000.00000" pt_clust_8="13000.00000" pt_clust_9="75.00610"></scales>
<clustering>
<clus scale="   85.245">  5  6 -1 -1</clus>
<clus scale="   94.535">  7  8 -1 -1</clus>
<clus scale="  107.224">  1  5  2 -1</clus>
<clus scale="   75.006">  2  9  1 -1</clus>
<clus scale="   75.006">  2  5  1 -1</clus>
</clustering>
</event>
<event>
 9    2  0.1302972E-004  0.2091438E+03  0.7546771E-02  0.1157933E+00
         21   -1    0    0  501  502  0.00000000000E+00  0.00000000000E+00  0.12699482714E+03  0.12699482714E+03  0.00000000000E+00 0. -1.
          2   -1    0    0  502    0 -0.00000000000E+00 -0.00000000000E+00 -0.77606730108E+03  0.77606730108E+03  0.00000000000E+00 0. -1.
         23    2    1    2    0    0 -0.10760587978E+03 -0.17399973255E+01 -0.25136675085E+02  0.14639846484E+03  0.96013567363E+02 0.  0.
         24    2    1    2    0    0 -0.46594991214E+02 -0.15414193136E+03 -0.42157353088E+03  0.45828877871E+03  0.79834419532E+02 0.  0.
        -11    1    4    4    0    0  0.98920773329E+01 -0.65917696111E+02 -0.10082544070E+03  0.12086672555E+03  0.00000000000E+00 0.  1.
         12    1    4    4    0    0 -0.56487068547E+02 -0.88224235244E+02 -0.32074809019E+03  0.33742205316E+03  0.00000000000E+00 0. -1.
        -11    1    3    3    0    0 -0.76825288556E+02 -0.43121164832E+02  0.19974200963E+01  0.88122355309E+02  0.00000000000E+00 0. -1.
         11    1    3    3    0    0 -0.30780591228E+02  0.41381167506E+02 -0.27134095182E+02  0.58276109529E+02  0.00000000000E+00 0.  1.
          1    1    1    2  501    0  0.15420087100E+03  0.15588192868E+03 -0.20236226797E+03  0.29837488468E+03  0.00000000000E+00 0. -1.
<scales pt_clust_5="13000.00000" pt_clust_6="13000.00000" pt_clust_7="13000.00000" pt_clust_8="13000.00000" pt_clust_9="193.30695"></scales>
<clustering>
<clus scale="   79.834">  5  6 -1 -1</clus>
<clus scale="   96.014">  7  8 -1 -1</clus>
<clus scale="  144.224">  2  7  1 -1</clus>
<clus scale="  193.307">  1  9  2 -1</clus>
<clus scale="  193.307">  1  5  2 -1</clus>
</clustering>
</event>
<event>
 9    2  0.1302972E-004  0.1175935E+03  0.7546771E-02  0.1254125E+00
          2   -1    0    0  502    0 -0.00000000000E+00  0.00000000000E+00  0.41277576309E+03  0.41277576309E+03  0.00000000000E+00 0. -1.
         21   -1    0    0  501  502  0.00000000000E+00 -0.00000000000E+00 -0.65324991520E+02  0.65324991520E+02  0.00000000000E+00 0.  1.
         23    2    1    2    0    0  0.49343311655E+02 -0.39022539970E+01  0.52391613799E+02  0.11489243373E+03  0.89472901709E+02 0.  0.
         24    2    1    2    0    0  0.43797320751E+02 -0.50633482229E+02  0.15898600616E+03  0.18952692718E+03  0.78498096419E+02 0.  0.
        -11    1    4    4    0    0  0.50671081542E+02 -0.63514524073E+02  0.10044696970E+03  0.12919460900E+03  0.00000000000E+00 0.  1.
         12    1    4    4    0    0 -0.68737607914E+01  0.12881041844E+02  0.58539036464E+02  0.60332318176E+02  0.00000000000E+00 0. -1.
        -11    1    3    3    0    0  0.43868074880E+02  0.27801623964E+02 -0.16911482962E+01  0.51963432058E+02  0.00000000000E+00 0.  1.
         11    1    3    3    0    0  0.54752367759E+01 -0.31703877961E+02  0.54082762095E+02  0.62929001671E+02  0.00000000000E+00 0. -1.
          1    1    1    2  501    0 -0.93140632406E+02  0.54535736226E+02  0.13607315161E+03  0.17368139370E+03  0.00000000000E+00 0. -1.
<scales pt_clust_5="13000.00000" pt_clust_6="13000.00000" pt_clust_7="13000.00000" pt_clust_8="13000.00000" pt_clust_9="87.55728"></scales>
<clustering>
<clus scale="   78.498">  5  6 -1 -1</clus>
<clus scale="   89.473">  7  8 -1 -1</clus>
<clus scale="  102.252">  1  7  2 -1</clus>
<clus scale="   87.557">  2  9  1 -1</clus>
<clus scale="   87.557">  2  5  1 -1</clus>
</clustering>
</event>
<event>
 9    2  0.1302972E-004  0.9486661E+02  0.7546771E-02  0.1299356E+00
         21   -1    0    0  501  502  0.00000000000E+00  0.00000000000E+00  0.25518961532E+03  0.25518961532E+03  0.00000000000E+00 0.  1.
         -1   -1    0    0    0  501 -0.00000000000E+00 -0.00000000000E+00 -0.28159769198E+03  0.28159769198E+03  0.00000000000E+00 0.  1.
         23    2    1    2    0    0 -0.74390641814E+01 -0.17786759547E+02 -0.17923966933E+03  0.20268734654E+03  0.92647681541E+02 0.  0.
         24    2    1    2    0    0 -0.49378441813E+02  0.60052195704E+02  0.21361142258E+03  0.24077909598E+03  0.79374028987E+02 0.  0.
        -13    1    4    4    0    0 -0.28292740379E+02  0.82823939710E+01  0.16211992957E+03  0.16477848395E+03  0.00000000000E+00 0.  1.
         14    1    4    4    0    0 -0.21085701434E+02  0.51769801733E+02  0.51491493011E+02  0.76000612030E+02  0.00000000000E+00 0. -1.
        -13    1    3    3    0    0  0.27693478193E+02 -0.17286317881E+02 -0.15862662497E+03  0.16195107802E+03  0.00000000000E+00 0. -1.
         13    1    3    3    0    0 -0.35132542375E+02 -0.50044166616E+00 -0.20613044357E+02  0.40736268524E+02  0.00000000000E+00 0.  1.
         -2    1    1    2    0  502  0.56817505995E+02 -0.42265436157E+02 -0.60779829909E+02  0.93320864788E+02  0.00000000000E+00 0.  1.
<scales pt_clust_5="13000.00000" pt_clust_6="13000.00000" pt_clust_7="13000.00000" pt_clust_8="13000.00000" pt_clust_9="70.81385"></scales>
<clustering>
<clus scale="   70.814">  1  9  2 -1</clus>
<clus scale="   79.374">  5  6 -1 -1</clus>
<clus scale="   81.953">  1  5  2 -1</clus>
<clus scale="   92.648">  7  8 -1 -1</clus>
<clus scale="   70.814">  1  5  2 -1</clus>
</clustering>
</event>
<event>
 9    2  0.1302972E-004  0.1383972E+03  0.7546771E-02  0.1232107E+00
         21   -1    0    0  501  502  0.00000000000E+00  0.00000000000E+00  0.17494820520E+04  0.17494820520E+04  0.00000000000E+00 0.  1.
         -1   -1    0    0    0  501 -0.00000000000E+00 -0.00000000000E+00 -0.53367880939E+02  0.53367880939E+02  0.00000000000E+00 0.  1.
         23    2    1    2    0    0  0.25824255533E+01  0.38864409657E+02  0.11172516287E+02  0.98509288512E+02  0.89789440043E+02 0.  0.
         24    2    1    2    0    0  0.10027853900E+03  0.26518473014E+02  0.72073881264E+03  0.73246492184E+03  0.79255352417E+02 0.  0.
        -11    1    4    4    0    0  0.89569871766E+02  0.51511095211E+02  0.57613424411E+03  0.58532625269E+03  0.00000000000E+00 0.  1.
         12    1    4    4    0    0  0.10708667233E+02 -0.24992622197E+02  0.14460456853E+03  0.14713866915E+03  0.00000000000E+00 0. -1.
        -13    1    3    3    0    0 -0.19978530775E+02  0.54756486362E+02 -0.15307029067E+02  0.60263750542E+02  0.00000000000E+00 0.  1.
         13    1    3    3    0    0  0.22560956328E+02 -0.15892076705E+02  0.26479545354E+02  0.38245537970E+02  0.00000000000E+00 0. -1.
         -2    1    1    2    0  502 -0.10286096455E+03 -0.65382882671E+02  0.96420284210E+03  0.97187572255E+03  0.00000000000E+00 0.  1.
<scales pt_clust_5="13000.00000" pt_clust_6="13000.00000" pt_clust_7="13000.00000" pt_clust_8="13000.00000" pt_clust_9="113.45650"></scales>
<clustering>
<clus scale="   79.255">  5  6 -1 -1</clus>
<clus scale="   89.789">  7  8 -1 -1</clus>
<clus scale="   97.874">  2  7  1 -1</clus>
<clus scale="  113.456">  1  9  2 -1</clus>
<clus scale="  113.456">  1  5  2 -1</clus>
</clustering>
</event>
<event>
 9    2  0.1302972E-004  0.1527684E+03  0.7546771E-02  0.1199117E+00
          2   -1    0    0  502    0 -0.00000000000E+00  0.00000000000E+00  0.12007213455E+04  0.12007213455E+04  0.00000000000E+00 0. -1.
         21   -1    0    0  501  502  0.00000000000E+00 -0.00000000000E+00 -0.32987180058E+02  0.32987180058E+02  0.00000000000E+00 0.  1.
         24    2    1    2    0    0 -0.57694122081E+02 -0.13185847290E+03  0.81770728797E+03  0.83415009781E+03  0.80286414006E+02 0.  0.
         23    2    1    2    0    0  0.54954912638E+02  0.64347027073E+02  0.23888888147E+03  0.26949324125E+03  0.91641295666E+02 0.  0.
        -11    1    3    3    0    0 -0.36589597875E+02 -0.61915226807E+01  0.16520131972E+03  0.16931807246E+03  0.00000000000E+00 0.  1.
         12    1    3    3    0    0 -0.21104524206E+02 -0.12566695022E+03  0.65250596825E+03  0.66483202534E+03  0.00000000000E+00 0. -1.
        -13    1    4    4    0    0  0.48398672082E+02  0.87787192485E+02  0.19728419019E+03  0.22129183067E+03  0.00000000000E+00 0.  1.
         13    1    4    4    0    0  0.65562405568E+01 -0.23440165412E+02  0.41604691288E+02  0.48201410580E+02  0.00000000000E+00 0. -1.
          1    1    1    2  501    0  0.27392094425E+01  0.67511445830E+02  0.11113799603E+03  0.13006518654E+03  0.00000000000E+00 0. -1.
<scales pt_clust_5="13000.00000" pt_clust_6="13000.00000" pt_clust_7="13000.00000" pt_clust_8="13000.00000" pt_clust_9="67.56699"></scales>
<clustering>
<clus scale="   67.567">  2  9  1 -1</clus>
<clus scale="   80.286">  5  6 -1 -1</clus>
<clus scale="   91.641">  7  8 -1 -1</clus>
<clus scale="  146.239">  1  5  2 -1</clus>
<clus scale="   67.567">  2  5  1 -1</clus>
</clustering>
</event>
<event>
 9    2  0.1302972E-004  0.2377485E+03  0.7546771E-02  0.1144278E+00
         21   -1    0    0  501  502  0.00000000000E+00  0.00000000000E+00  0.12096283442E+04  0.12096283442E+04  0.00000000000E+00 0.  1.
         -3   -1    0    0    0  501 -0.00000000000E+00 -0.00000000000E+00 -0.83724717317E+02  0.83724717317E+02  0.00000000000E+00 0.  1.
         23    2    1    2    0    0  0.31762753321E+02 -0.95260317279E+02  0.12862796412E+03  0.18690256269E+03  0.91126364139E+02 0.  0.
         24    2    1    2    0    0  0.20072944329E+03  0.13150590334E+02  0.32493479432E+03  0.39032420261E+03  0.79404755243E+02 0.  0.
        -13    1    4    4    0    0  0.18992626683E+03  0.33810875189E+02  0.29212333578E+03  0.35007314296E+03  0.00000000000E+00 0.  1.
         14    1    4    4    0    0  0.10803176467E+02 -0.20660284855E+02  0.32811458531E+02  0.40251059651E+02  0.00000000000E+00 0. -1.
        -11    1    3    3    0    0  0.63461972096E+02 -0.64533429568E+02  0.96490997593E+02  0.13229700696E+03  0.00000000000E+00 0.  1.
         11    1    3    3    0    0 -0.31699218775E+02 -0.30726887711E+02  0.32136966523E+02  0.54605555731E+02  0.00000000000E+00 0. -1.
         -4    1    1    2    0  502 -0.23249219661E+03  0.82109726945E+02  0.67234086849E+03  0.71612629625E+03  0.00000000000E+00 0.  1.
<scales pt_clust_5="13000.00000" pt_clust_6="13000.00000" pt_clust_7="13000.00000" pt_clust_8="13000.00000" pt_clust_9="224.09648"></scales>
<clustering>
<clus scale="   79.405">  5  6 -1 -1</clus>
<clus scale="   91.126">  7  8 -1 -1</clus>
<clus scale="  135.600">  2  7  1 -1</clus>
<clus scale="  224.096">  1  9  2 -1</clus>
<clus scale="  224.096">  1  5  2 -1</clus>
</clustering>
</event>
<event>
 9    2  0.1302972E-004  0.1079699E+03  0.7546771E-02  0.1268818E+00
         21   -1    0    0  501  502  0.00000000000E+00  0.00000000000E+00  0.92675027664E+02  0.92675027664E+02  0.00000000000E+00 0. -1.
         -3   -1    0    0    0  501 -0.00000000000E+00 -0.00000000000E+00 -0.19683132590E+03  0.19683132590E+03  0.00000000000E+00 0.  1.
         23    2    1    2    0    0 -0.40814810734E+02 -0.30556852218E+02 -0.10003118565E+03  0.14424386555E+03  0.90556527397E+02 0.  0.
         24    2    1    2    0    0  0.50347125216E+02  0.61681117655E+02 -0.30076556222E+01  0.11269204699E+03  0.79693526521E+02 0.  0.
        -13    1    4    4    0    0  0.36361183087E+02  0.72476155930E+01 -0.32426966904E+02  0.49256184889E+02  0.00000000000E+00 0.  1.
         14    1    4    4    0    0  0.13985942129E+02  0.54433502062E+02  0.29419311281E+02  0.63435862099E+02  0.00000000000E+00 0. -1.
        -13    1    3    3    0    0  0.22308920125E+02 -0.32904147505E+02 -0.29121419365E+02  0.49279081830E+02  0.00000000000E+00 0.  1.
         13    1    3    3    0    0 -0.63123730859E+02  0.23472952872E+01 -0.70909766286E+02  0.94964783723E+02  0.00000000000E+00 0. -1.
         -4    1    1    2    0  502 -0.95323144817E+01 -0.31124265437E+02 -0.11174569624E+01  0.32570441023E+02  0.00000000000E+00 0.  1.
<scales pt_clust_5="13000.00000" pt_clust_6="13000.00000" pt_clust_7="13000.00000" pt_clust_8="13000.00000" pt_clust_9="32.55127"></scales>
<clustering>
<clus scale="   32.551">  1  9  2 -1</clus>
<clus scale="   79.694">  5  6 -1 -1</clus>
<clus scale="   90.557">  7  8 -1 -1</clus>
<clus scale="   99.036">  1  5  2 -1</clus>
<clus scale="   32.551">  1  5  2 -1</clus>
</clustering>
</event>
<event>
 9    2  0.1302972E-004  0.1198459E+03  0.7546771E-02  0.1255503E+00
         21   -1    0    0  501  502  0.00000000000E+00  0.00000000000E+00  0.69266014858E+03  0.69266014858E+03  0.00000000000E+00 0. -1.
          2   -1    0    0  502    0 -0.00000000000E+00 -0.00000000000E+00 -0.57005898471E+02  0.57005898471E+02  0.00000000000E+00 0. -1.
         23    2    1    2    0    0  0.21229602826E+01  0.24557282849E+02  0.14139923552E+03  0.16978904784E+03  0.90702865774E+02 0.  0.
         24    2    1    2    0    0 -0.52626074845E+02  0.74554727083E+02  0.44146156490E+03  0.45674737880E+03  0.73497916052E+02 0.  0.
        -13    1    4    4    0    0 -0.68292052953E+02  0.68832280180E+02  0.40795081703E+03  0.41931558093E+03  0.00000000000E+00 0.  1.
         14    1    4    4    0    0  0.15665978108E+02  0.57224469037E+01  0.33510747874E+02  0.37431797869E+02  0.00000000000E+00 0. -1.
        -13    1    3    3    0    0  0.32479536359E+02  0.37238575196E+02  0.12192749645E+03  0.13155966766E+03  0.00000000000E+00 0.  1.
         13    1    3    3    0    0 -0.30356576076E+02 -0.12681292347E+02  0.19471739077E+02  0.38229380185E+02  0.00000000000E+00 0. -1.
          1    1    1    2  501    0  0.50503114563E+02 -0.99112009932E+02  0.52793449679E+02  0.12312962041E+03  0.00000000000E+00 0. -1.
<scales pt_clust_5="13000.00000" pt_clust_6="13000.00000" pt_clust_7="13000.00000" pt_clust_8="13000.00000" pt_clust_9="94.66313"></scales>
<clustering>
<clus scale="   73.498">  5  6 -1 -1</clus>
<clus scale="   90.703">  7  8 -1 -1</clus>
<clus scale="   93.992">  2  7  1 -1</clus>
<clus scale="   94.663">  1  9  2 -1</clus>
<clus scale="   94.663">  1  5  2 -1</clus>
</clustering>
</event>
<event>
 9    2  0.1302972E-004  0.1451534E+03  0.7546771E-02  0.1209529E+00
         21   -1    0    0  501  502  0.00000000000E+00  0.00000000000E+00  0.29027446794E+03  0.29027446794E+03  0.00000000000E+00 0.  1.
         -1   -1    0    0    0  501 -0.00000000000E+00 -0.00000000000E+00 -0.45440081342E+03  0.45440081342E+03  0.00000000000E+00 0.  1.
         23    2    1    2    0    0  0.10968610296E+02 -0.10820072931E+03 -0.38708782956E+03  0.41250405385E+03  0.92167773197E+02 0.  0.
         24    2    1    2    0    0  0.10763301117E+02  0.15339973238E+03  0.99250543543E+02  0.19868106809E+03  0.77305691102E+02 0.  0.
        -11    1    4    4    0    0 -0.19499326808E+02  0.13316850884E+03  0.68441164793E+02  0.15099095513E+03  0.00000000000E+00 0.  1.
         12    1    4    4    0    0  0.30262627925E+02  0.20231223542E+02  0.30809378750E+02  0.47690112958E+02  0.00000000000E+00 0. -1.
        -13    1    3    3    0    0  0.46276230470E+02 -0.70853933571E+02 -0.29662666546E+03  0.30846255538E+03  0.00000000000E+00 0.  1.
         13    1    3    3    0    0 -0.35307620174E+02 -0.37346795736E+02 -0.90461164100E+02  0.10404149847E+03  0.00000000000E+00 0. -1.
         -2    1    1    2    0  502 -0.21731911413E+02 -0.45199003078E+02  0.12371094053E+03  0.13349015941E+03  0.00000000000E+00 0.  1.
<scales pt_clust_5="13000.00000" pt_clust_6="13000.00000" pt_clust_7="13000.00000" pt_clust_8="13000.00000" pt_clust_9="50.15203"></scales>
<clustering>
<clus scale="   50.152">  1  9  2 -1</clus>
<clus scale="   77.306">  5  6 -1 -1</clus>
<clus scale="   92.168">  7  8 -1 -1</clus>
<clus scale="  136.201">  1  5  2 -1</clus>
<clus scale="   50.152">  1  5  2 -1</clus>
</clustering>
</event>
<event>
 9    2  0.1302972E-004  0.1067945E+03  0.7546771E-02  0.1271533E+00
         21   -1    0    0  501  502  0.00000000000E+00  0.00000000000E+00  0.98888763055E+02  0.98888763055E+02  0.00000000000E+00 0. -1.
          2   -1    0    0  502    0 -0.00000000000E+00 -0.00000000000E+00 -0.34875443310E+03  0.34875443310E+03  0.00000000000E+00 0. -1.
         24    2    1    2    0    0 -0.46536561723E+02  0.31762285599E+02 -0.28293343877E+03  0.29920584478E+03  0.79361907830E+02 0.  0.
         23    2    1    2    0    0  0.28953166573E+02 -0.50901736017E+02  0.23566897881E+01  0.10820471889E+03  0.90958422474E+02 0.  0.
        -11    1    3    3    0    0 -0.14454100916E+02  0.15550681958E+02 -0.92270178723E+01  0.23149138245E+02  0.00000000000E+00 0.  1.
         12    1    3    3    0    0 -0.32082460807E+02  0.16211603641E+02 -0.27370642090E+03  0.27605670654E+03  0.00000000000E+00 0. -1.
        -11    1    4    4    0    0 -0.98885912210E+01 -0.41684331403E+02  0.36030765241E+02  0.55978422314E+02  0.00000000000E+00 0. -1.
         11    1    4    4    0    0  0.38841757794E+02 -0.92174046138E+01 -0.33674075453E+02  0.52226296575E+02  0.00000000000E+00 0.  1.
          1    1    1    2  501    0  0.17583395151E+02  0.19139450418E+02  0.30711078935E+02  0.40232632485E+02  0.00000000000E+00 0. -1.
<scales pt_clust_5="13000.00000" pt_clust_6="13000.00000" pt_clust_7="13000.00000" pt_clust_8="13000.00000" pt_clust_9="25.99027"></scales>
<clustering>
<clus scale="   25.990">  1  9  2 -1</clus>
<clus scale="   79.362">  5  6 -1 -1</clus>
<clus scale="   90.958">  7  8 -1 -1</clus>
<clus scale="   97.108">  2  5  1 -1</clus>
<clus scale="   25.990">  1  5  2 -1</clus>
</clustering>
</event>
<event>
 9    2  0.1302972E-004  0.1367479E+03  0.7546771E-02  0.1242822E+00
         21   -1    0    0  501  502  0.00000000000E+00  0.00000000000E+00  0.61279253968E+03  0.61279253968E+03  0.00000000000E+00 0. -1.
          2   -1    0    0  502    0 -0.00000000000E+00 -0.00000000000E+00 -0.95279165478E+02  0.95279165478E+02  0.00000000000E+00 0. -1.
         24    2    1    2    0    0  0.14369055122E+02 -0.63767674044E+01 -0.38920990530E+02  0.90354041139E+02  0.80011726257E+02 0.  0.
         23    2    1    2    0    0  0.68808818290E+02  0.11739153549E+02  0.13262459792E+03  0.18578939190E+03  0.10979960368E+03 0.  0.
        -13    1    3    3    0    0 -0.20226297350E+02  0.26762279394E+02 -0.13958522555E+02  0.36334048147E+02  0.00000000000E+00 0.  1.
         14    1    3    3    0    0  0.34595352472E+02 -0.33139046798E+02 -0.24962467975E+02  0.54019992991E+02  0.00000000000E+00 0. -1.
        -11    1    4    4    0    0  0.60137841810E+02  0.57639774117E+02  0.81509410199E+02  0.11654478765E+03  0.00000000000E+00 0. -1.
         11    1    4    4    0    0  0.86709764800E+01 -0.45900620568E+02  0.51115187718E+02  0.69244604246E+02  0.00000000000E+00 0.  1.
          1    1    1    2  501    0 -0.83177873412E+02 -0.53623861442E+01  0.42380976681E+03  0.43192827212E+03  0.00000000000E+00 0. -1.
<scales pt_clust_5="13000.00000" pt_clust_6="13000.00000" pt_clust_7="13000.00000" pt_clust_8="13000.00000" pt_clust_9="81.51102"></scales>
<clustering>
<clus scale="   80.012">  5  6 -1 -1</clus>
<clus scale="   81.541">  2  5  1 -1</clus>
<clus scale="   81.511">  1  9  2 -1</clus>
<clus scale="  109.800">  7  8 -1 -1</clus>
<clus scale="   81.511">  1  5  2 -1</clus>
</clustering>
</event>
<event>
 9    2  0.1302972E-004  0.1022880E+03  0.7546771E-02  0.1281744E+00
         21   -1    0    0  501  502  0.00000000000E+00  0.00000000000E+00  0.18201168219E+03  0.18201168219E+03  0.00000000000E+00 0. -1.
          2   -1    0    0  502    0 -0.00000000000E+00 -0.00000000000E+00 -0.21644031177E+03  0.21644031177E+03  0.00000000000E+00 0. -1.
         24    2    1    2    0    0 -0.12163834240E+01 -0.49896987414E+02 -0.13854007002E+03  0.16724213714E+03  0.79280467274E+02 0.  0.
         23    2    1    2    0    0  0.38143630480E+02  0.22895552507E+02 -0.15210775180E+02  0.10341905042E+03  0.92114002399E+02 0.  0.
        -11    1    3    3    0    0 -0.33355960405E+02 -0.19022733473E+02 -0.26477155758E+02  0.46642515588E+02  0.00000000000E+00 0.  1.
         12    1    3    3    0    0  0.32139576981E+02 -0.30874253941E+02 -0.11206291426E+03  0.12059962155E+03  0.00000000000E+00 0. -1.
        -11    1    4    4    0    0  0.67366486053E+02  0.15393359179E+02  0.11208539063E+01  0.69111903920E+02  0.00000000000E+00 0. -1.
         11    1    4    4    0    0 -0.29222855573E+02  0.75021933277E+01 -0.16331629086E+02  0.34307146503E+02  0.00000000000E+00 0.  1.
          1    1    1    2  501    0 -0.36927247056E+02  0.27001434908E+02  0.11932221562E+03  0.12779080641E+03  0.00000000000E+00 0. -1.
<scales pt_clust_5="13000.00000" pt_clust_6="13000.00000" pt_clust_7="13000.00000" pt_clust_8="13000.00000" pt_clust_9="45.74603"></scales>
<clustering>
<clus scale="   45.746">  1  9  2 -1</clus>
<clus scale="   79.280">  5  6 -1 -1</clus>
<clus scale="   90.902">  2  5  1 -1</clus>
<clus scale="   92.114">  7  8 -1 -1</clus>
<clus scale="   45.746">  1  5  2 -1</clus>
</clustering>
</event>
<event>
 9    2  0.1302972E-004  0.9178188E+02  0.7546771E-02  0.1301277E+00
         21   -1    0    0  501  502  0.00000000000E+00  0.00000000000E+00  0.41471684404E+03  0.41471684404E+03  0.00000000000E+00 0.  1.
          2   -1    0    0  502    0 -0.00000000000E+00 -0.00000000000E+00 -0.52547335722E+02  0.52547335722E+02  0.00000000000E+00 0. -1.
         24    2    1    2    0    0  0.16626805108E+02 -0.18048653454E+02  0.12860179145E+02  0.88313421318E+02  0.83855063280E+02 0.  0.
         23    2    1    2    0    0 -0.44001944546E+02 -0.18056654107E+02  0.21748063701E+03  0.23955278295E+03  0.88461824903E+02 0.  0.
        -11    1    3    3    0    0  0.30177622573E+02  0.26896266918E+02  0.64122705738E+01  0.40929393987E+02  0.00000000000E+00 0.  1.
         12    1    3    3    0    0 -0.13550817465E+02 -0.44944920372E+02  0.64479085710E+01  0.47384027331E+02  0.00000000000E+00 0. -1.
        -11    1    4    4    0    0 -0.15275049267E+02 -0.51164799068E+02  0.14865536590E+03  0.15795436557E+03  0.00000000000E+00 0.  1.
         11    1    4    4    0    0 -0.28726895279E+02  0.33108144961E+02  0.68825271113E+02  0.81598417380E+02  0.00000000000E+00 0. -1.
          1    1    1    2  501    0  0.27375139438E+02  0.36105307561E+02  0.13182869216E+03  0.13939797549E+03  0.00000000000E+00 0. -1.
<scales pt_clust_5="13000.00000" pt_clust_6="13000.00000" pt_clust_7="13000.00000" pt_clust_8="13000.00000" pt_clust_9="45.30995"></scales>
<clustering>
<clus scale="   45.310">  1  9  2 -1</clus>
<clus scale="   83.855">  5  6 -1 -1</clus>
<clus scale="   87.350">  2  5  1 -1</clus>
<clus scale="   88.462">  7  8 -1 -1</clus>
<clus scale="   45.310">  1  5  2 -1</clus>
</clustering>
</event>
<event>
 9    2  0.1302972E-004  0.2215957E+03  0.7546771E-02  0.1132699E+00
         21   -1    0    0  501  502  0.00000000000E+00  0.00000000000E+00  0.74111459043E+03  0.74111459043E+03  0.00000000000E+00 0. -1.
          4   -1    0    0  502    0 -0.00000000000E+00 -0.00000000000E+00 -0.62096375309E+02  0.62096375309E+02  0.00000000000E+00 0. -1.
         24    2    1    2    0    0 -0.79874665189E+02 -0.54220501749E+02  0.38851486539E+03  0.40836966602E+03  0.80635963117E+02 0.  0.
         23    2    1    2    0    0 -0.27210880241E+02 -0.33707886642E+01  0.24868318168E+03  0.26626059655E+03  0.91102064772E+02 0.  0.
        -13    1    3    3    0    0 -0.73305313682E+02 -0.70986277256E+02  0.27276462896E+03  0.29122716800E+03  0.00000000000E+00 0.  1.
         14    1    3    3    0    0 -0.65693515064E+01  0.16765775507E+02  0.11575023643E+03  0.11714249802E+03  0.00000000000E+00 0. -1.
        -11    1    4    4    0    0 -0.15935189810E+02 -0.45743492638E+02  0.16247732471E+03  0.16954432588E+03  0.00000000000E+00 0. -1.
         11    1    4    4    0    0 -0.11275690431E+02  0.42372703974E+02  0.86205856970E+02  0.96716270672E+02  0.00000000000E+00 0.  1.
          3    1    1    2  501    0  0.10708554543E+03  0.57591290413E+02  0.41820168051E+02  0.12858070317E+03  0.00000000000E+00 0. -1.
<scales pt_clust_5="13000.00000" pt_clust_6="13000.00000" pt_clust_7="13000.00000" pt_clust_8="13000.00000" pt_clust_9="121.58983"></scales>
<clustering>
<clus scale="   80.636">  5  6 -1 -1</clus>
<clus scale="   91.102">  7  8 -1 -1</clus>
<clus scale="   93.006">  5  7 -1 -1</clus>
<clus scale="  121.590">  1  9  2 -1</clus>
<clus scale="  121.590">  1  5  2 -1</clus>
</clustering>
</event>
<event>
 9    2  0.1302972E-004  0.1649370E+03  0.7546771E-02  0.1208776E+00
         21   -1    0    0  501  502  0.00000000000E+00  0.00000000000E+00  0.55206649646E+02  0.55206649646E+02  0.00000000000E+00 0. -1.
          2   -1    0    0  502    0 -0.00000000000E+00 -0.00000000000E+00 -0.80957889056E+03  0.80957889056E+03  0.00000000000E+00 0. -1.
         23    2    1    2    0    0 -0.33153273546E+02 -0.66127486317E+01 -0.19741734749E+03  0.21880109854E+03  0.88076351194E+02 0.  0.
         24    2    1    2    0    0 -0.33328488964E+02  0.13692367932E+03 -0.39844533423E+03  0.43028547607E+03  0.80796190596E+02 0.  0.
        -13    1    4    4    0    0  0.25187561390E+02  0.53584323339E+02 -0.12019784065E+03  0.13398960353E+03  0.00000000000E+00 0.  1.
         14    1    4    4    0    0 -0.58516050354E+02  0.83339355985E+02 -0.27824749357E+03  0.29629587254E+03  0.00000000000E+00 0. -1.
        -13    1    3    3    0    0 -0.61004929469E+02  0.94399911770E+01 -0.11922162367E+03  0.13425539246E+03  0.00000000000E+00 0.  1.
         13    1    3    3    0    0  0.27851655923E+02 -0.16052739809E+02 -0.78195723815E+02  0.84545706076E+02  0.00000000000E+00 0. -1.
          1    1    1    2  501    0  0.66481762510E+02 -0.13031093069E+03 -0.15850955920E+03  0.21569896560E+03  0.00000000000E+00 0. -1.
<scales pt_clust_5="13000.00000" pt_clust_6="13000.00000" pt_clust_7="13000.00000" pt_clust_8="13000.00000" pt_clust_9="143.79218"></scales>
<clustering>
<clus scale="   80.796">  5  6 -1 -1</clus>
<clus scale="   88.076">  7  8 -1 -1</clus>
<clus scale="   94.341">  2  7  1 -1</clus>
<clus scale="  143.792">  1  9  2 -1</clus>
<clus scale="  143.792">  1  5  2 -1</clus>
</clustering>
</event>
<event>
 9    2  0.1302972E-004  0.9684089E+02  0.7546771E-02  0.1291510E+00
          4   -1    0    0  502    0 -0.00000000000E+00  0.00000000000E+00  0.22442590482E+03  0.22442590482E+03  0.00000000000E+00 0. -1.
         21   -1    0    0  501  502  0.00000000000E+00 -0.00000000000E+00 -0.63870560954E+02  0.63870560954E+02  0.00000000000E+00 0. -1.
         24    2    1    2    0    0 -0.16760001737E+02  0.28598819041E+02  0.60421273810E+02  0.10650191319E+03  0.81198134684E+02 0.  0.
         23    2    1    2    0    0 -0.19385606538E+02 -0.48585657451E+02  0.45460384065E+02  0.11327309137E+03  0.89597873067E+02 0.  0.
        -11    1    3    3    0    0 -0.48509678021E+02  0.17091205250E+02  0.23755002721E+02  0.56653316874E+02  0.00000000000E+00 0.  1.
         12    1    3    3    0    0  0.31749676284E+02  0.11507613791E+02  0.36666271089E+02  0.49848596318E+02  0.00000000000E+00 0. -1.
        -13    1    4    4    0    0 -0.49091646741E+01  0.26507340018E+02  0.15800221710E+02  0.31247175532E+02  0.00000000000E+00 0.  1.
         13    1    4    4    0    0 -0.14476441863E+02 -0.75092997469E+02  0.29660162355E+02  0.82025915836E+02  0.00000000000E+00 0. -1.
          3    1    1    2  501    0  0.36145608274E+02  0.19986838409E+02  0.54673685996E+02  0.68521461219E+02  0.00000000000E+00 0. -1.
<scales pt_clust_5="13000.00000" pt_clust_6="13000.00000" pt_clust_7="13000.00000" pt_clust_8="13000.00000" pt_clust_9="41.30352"></scales>
<clustering>
<clus scale="   41.304">  2  9  1 -1</clus>
<clus scale="   81.198">  5  6 -1 -1</clus>
<clus scale="   89.126">  1  5  2 -1</clus>
<clus scale="   89.598">  7  8 -1 -1</clus>
<clus scale="   41.304">  2  5  1 -1</clus>
</clustering>
</event>
<event>
 9    2  0.1302972E-004  0.1227624E+03  0.7546771E-02  0.1241967E+00
         21   -1    0    0  501  502  0.00000000000E+00  0.00000000000E+00  0.77925909167E+02  0.77925909167E+02  0.00000000000E+00 0. -1.
         -3   -1    0    0    0  501 -0.00000000000E+00 -0.00000000000E+00 -0.42641378896E+03  0.42641378896E+03  0.00000000000E+00 0.  1.
         23    2    1    2    0    0 -0.33962203318E+02 -0.10253172827E+03 -0.23363405073E+03  0.26697111936E+03  0.70869756267E+02 0.  0.
         24    2    1    2    0    0  0.59979683307E+02  0.46895613960E+02 -0.13192461605E+03  0.17362143570E+03  0.83327892073E+02 0.  0.
        -11    1    4    4    0    0  0.55212080100E+02  0.24990778911E+01 -0.11165326996E+03  0.12458359391E+03  0.00000000000E+00 0.  1.
         12    1    4    4    0    0  0.47676032070E+01  0.44396536069E+02 -0.20271346091E+02  0.49037841792E+02  0.00000000000E+00 0. -1.
        -13    1    3    3    0    0 -0.54645814956E+02 -0.72367044196E+02 -0.18587866316E+03  0.20681883762E+03  0.00000000000E+00 0. -1.
         13    1    3    3    0    0  0.20683611638E+02 -0.30164684074E+02 -0.47755387573E+02  0.60152281735E+02  0.00000000000E+00 0.  1.
         -4    1    1    2    0  502 -0.26017479989E+02  0.55636114309E+02  0.17070786991E+02  0.63747143065E+02  0.00000000000E+00 0.  1.
<scales pt_clust_5="13000.00000" pt_clust_6="13000.00000" pt_clust_7="13000.00000" pt_clust_8="13000.00000" pt_clust_9="61.41894"></scales>
<clustering>
<clus scale="   61.419">  1  9  2 -1</clus>
<clus scale="   70.870">  7  8 -1 -1</clus>
<clus scale="   83.328">  5  6 -1 -1</clus>
<clus scale="  114.672">  2  7  1 -1</clus>
<clus scale="   61.419">  1  5  2 -1</clus>
</clustering>
</event>
<event>
 9    2  0.1302972E-004  0.1597471E+03  0.7546771E-02  0.1212788E+00
          2   -1    0    0  502    0 -0.00000000000E+00  0.00000000000E+00  0.13879871748E+04  0.13879871748E+04  0.00000000000E+00 0. -1.
         21   -1    0    0  501  502  0.00000000000E+00 -0.00000000000E+00 -0.28844397585E+02  0.28844397585E+02  0.00000000000E+00 0.  1.
         23    2    1    2    0    0 -0.25248020549E+02 -0.22150347425E+01  0.37356187673E+03  0.38553225100E+03  0.91892719504E+02 0.  0.
         24    2    1    2    0    0 -0.60447795902E+02  0.11913753455E+03  0.59609499910E+03  0.61571068908E+03  0.76959187439E+02 0.  0.
        -13    1    4    4    0    0 -0.69903850600E+02  0.11601706765E+03  0.46738605288E+03  0.48661712952E+03  0.00000000000E+00 0.  1.
         14    1    4    4    0    0  0.94560546984E+01  0.31204669049E+01  0.12870894621E+03  0.12909355956E+03  0.00000000000E+00 0. -1.
        -11    1    3    3    0    0  0.20920558896E+02  0.28584117375E+02  0.92649151472E+02  0.99189650766E+02  0.00000000000E+00 0.  1.
         11    1    3    3    0    0 -0.46168579446E+02 -0.30799152118E+02  0.28091272526E+03  0.28634260024E+03  0.00000000000E+00 0. -1.
          1    1    1    2  501    0  0.85695816451E+02 -0.11692249981E+03  0.38948590142E+03  0.41558863233E+03  0.00000000000E+00 0. -1.
<scales pt_clust_5="13000.00000" pt_clust_6="13000.00000" pt_clust_7="13000.00000" pt_clust_8="13000.00000" pt_clust_9="139.98727"></scales>
<clustering>
<clus scale="   76.959">  5  6 -1 -1</clus>
<clus scale="   91.893">  7  8 -1 -1</clus>
<clus scale="   95.324">  1  7  2 -1</clus>
<clus scale="  139.987">  2  9  1 -1</clus>
<clus scale="  139.987">  2  5  1 -1</clus>
</clustering>
</event>
<event>
 9    2  0.1302972E-004  0.9216721E+02  0.7546771E-02  0.1305175E+00
          2   -1    0    0  502    0 -0.00000000000E+00  0.00000000000E+00  0.52683195006E+03  0.52683195006E+03  0.00000000000E+00 0. -1.
         21   -1    0    0  501  502  0.00000000000E+00 -0.00000000000E+00 -0.33480577922E+02  0.33480577922E+02  0.00000000000E+00 0.  1.
         24    2    1    2    0    0 -0.56235152389E+01  0.65656234335E+00  0.33719262116E+03  0.34654523895E+03  0.79766433293E+02 0.  0.
         23    2    1    2    0    0 -0.94905515107E+01 -0.38705246388E+02  0.13407799924E+03  0.16725173283E+03  0.91695504734E+02 0.  0.
        -11    1    3    3    0    0 -0.23330843680E+02  0.31825674743E+02  0.11755765723E+03  0.12400405079E+03  0.00000000000E+00 0.  1.
         12    1    3    3    0    0  0.17707328441E+02 -0.31169112400E+02  0.21963496393E+03  0.22254118816E+03  0.00000000000E+00 0. -1.
        -13    1    4    4    0    0  0.39930748474E+02 -0.16165355802E+02  0.78466035055E+02  0.89513697607E+02  0.00000000000E+00 0. -1.
         13    1    4    4    0    0 -0.49421299985E+02 -0.22539890586E+02  0.55611964185E+02  0.77738035223E+02  0.00000000000E+00 0.  1.
          1    1    1    2  501    0  0.15114066750E+02  0.38048684045E+02  0.22080751742E+02  0.46515556202E+02  0.00000000000E+00 0. -1.
<scales pt_clust_5="13000.00000" pt_clust_6="13000.00000" pt_clust_7="13000.00000" pt_clust_8="13000.00000" pt_clust_9="40.94066"></scales>
<clustering>
<clus scale="   40.941">  2  9  1 -1</clus>
<clus scale="   79.766">  5  6 -1 -1</clus>
<clus scale="   80.308">  1  5  2 -1</clus>
<clus scale="   91.696">  7  8 -1 -1</clus>
<clus scale="   40.941">  2  5  1 -1</clus>
</clustering>
</event>
<event>
 9    2  0.1302972E-004  0.9939221E+02  0.7546771E-02  0.1288190E+00
          2   -1    0    0  502    0 -0.00000000000E+00  0.00000000000E+00  0.64318032990E+03  0.64318032990E+03  0.00000000000E+00 0. -1.
         21   -1    0    0  501  502  0.00000000000E+00 -0.00000000000E+00 -0.75621171664E+02  0.75621171664E+02  0.00000000000E+00 0. -1.
         23    2    1    2    0    0 -0.40019163843E+02 -0.94858376906E+01  0.51001086781E+03  0.51975317227E+03  0.91327762529E+02 0.  0.
         24    2    1    2    0    0 -0.17532521193E+01  0.64033777154E+02 -0.11123220771E+02  0.10190828150E+03  0.78474029389E+02 0.  0.
        -11    1    4    4    0    0 -0.29376328064E+02  0.59873326599E+01  0.13746186306E+02  0.32981425695E+02  0.00000000000E+00 0.  1.
         12    1    4    4    0    0  0.27623075944E+02  0.58046444494E+02 -0.24869407077E+02  0.68926855806E+02  0.00000000000E+00 0. -1.
        -13    1    3    3    0    0 -0.69347128961E+02 -0.11990499388E+02  0.33905355461E+03  0.34628039110E+03  0.00000000000E+00 0. -1.
         13    1    3    3    0    0  0.29327965117E+02  0.25046616975E+01  0.17095731321E+03  0.17347278117E+03  0.00000000000E+00 0.  1.
          1    1    1    2  501    0  0.41772415963E+02 -0.54547939463E+02  0.68671511194E+02  0.97140047790E+02  0.00000000000E+00 0. -1.
<scales pt_clust_5="13000.00000" pt_clust_6="13000.00000" pt_clust_7="13000.00000" pt_clust_8="13000.00000" pt_clust_9="68.70526"></scales>
<clustering>
<clus scale="   68.705">  2  9  1 -1</clus>
<clus scale="   78.474">  5  6 -1 -1</clus>
<clus scale="   87.728">  2  5  1 -1</clus>
<clus scale="   91.328">  7  8 -1 -1</clus>
<clus scale="   68.705">  2  5  1 -1</clus>
</clustering>
</event>
<event>
 9    2  0.1302972E-004  0.2695887E+03  0.7546771E-02  0.1101519E+00
         21   -1    0    0  501  502  0.00000000000E+00  0.00000000000E+00  0.77473774379E+03  0.77473774379E+03  0.00000000000E+00 0. -1.
          2   -1    0    0  502    0 -0.00000000000E+00 -0.00000000000E+00 -0.12869590637E+03  0.12869590637E+03  0.00000000000E+00 0. -1.
         24    2    1    2    0    0 -0.25875204228E+03 -0.12608613024E+03  0.21517406176E+03  0.37070762165E+03  0.90961158051E+02 0.  0.
         23    2    1    2    0    0  0.20281627774E+03  0.72332050826E+02  0.29660058317E+03  0.37765833429E+03  0.91035945796E+02 0.  0.
        -11    1    3    3    0    0 -0.74266434398E+01 -0.20878255208E+02 -0.20503806194E+01  0.22254452004E+02  0.00000000000E+00 0.  1.
         12    1    3    3    0    0 -0.25132539884E+03 -0.10520787503E+03  0.21722444237E+03  0.34845316965E+03  0.00000000000E+00 0. -1.
        -13    1    4    4    0    0  0.15514165028E+03  0.47612528534E+02  0.14793993297E+03  0.21959532848E+03  0.00000000000E+00 0. -1.
         13    1    4    4    0    0  0.47674627461E+02  0.24719522293E+02  0.14866065020E+03  0.15806300581E+03  0.00000000000E+00 0.  1.
          1    1    1    2  501    0  0.55935764545E+02  0.53754079412E+02  0.13426719249E+03  0.15506769421E+03  0.00000000000E+00 0. -1.
<scales pt_clust_5="13000.00000" pt_clust_6="13000.00000" pt_clust_7="13000.00000" pt_clust_8="13000.00000" pt_clust_9="77.57777"></scales>
<clustering>
<clus scale="   77.578">  1  9  2 -1</clus>
<clus scale="   90.961">  5  6 -1 -1</clus>
<clus scale="   91.036">  7  8 -1 -1</clus>
<clus scale="  269.563">  2  5  1 -1</clus>
<clus scale="   77.578">  1  5  2 -1</clus>
</clustering>
</event>
<event>
 9    2  0.1302972E-004  0.1207854E+03  0.7546771E-02  0.1245689E+00
         21   -1    0    0  501  502  0.00000000000E+00  0.00000000000E+00  0.77116140221E+02  0.77116140221E+02  0.00000000000E+00 0. -1.
          2   -1    0    0  502    0 -0.00000000000E+00 -0.00000000000E+00 -0.25336262100E+03  0.25336262100E+03  0.00000000000E+00 0. -1.
         23    2    1    2    0    0  0.60066956586E+02  0.60295215342E+02 -0.15881270377E+03  0.20284119871E+03  0.93163967014E+02 0.  0.
         24    2    1    2    0    0 -0.46161714386E+02 -0.39138727617E+02 -0.13784483506E+02  0.10205885893E+03  0.81013917490E+02 0.  0.
        -13    1    4    4    0    0  0.10384294362E+02 -0.35962393617E+02 -0.24062476372E+02  0.44498652712E+02  0.00000000000E+00 0.  1.
         14    1    4    4    0    0 -0.56546008748E+02 -0.31763339998E+01  0.10277992865E+02  0.57560206223E+02  0.00000000000E+00 0. -1.
        -11    1    3    3    0    0  0.80941183520E+01  0.61996645300E+02 -0.42977783707E+02  0.75869550366E+02  0.00000000000E+00 0.  1.
         11    1    3    3    0    0  0.51972838234E+02 -0.17014299581E+01 -0.11583492006E+03  0.12697164835E+03  0.00000000000E+00 0. -1.
          1    1    1    2  501    0 -0.13905242200E+02 -0.21156487724E+02 -0.36492935030E+01  0.25578703574E+02  0.00000000000E+00 0. -1.
<scales pt_clust_5="13000.00000" pt_clust_6="13000.00000" pt_clust_7="13000.00000" pt_clust_8="13000.00000" pt_clust_9="25.31704"></scales>
<clustering>
<clus scale="   25.317">  1  9  2 -1</clus>
<clus scale="   81.014">  5  6 -1 -1</clus>
<clus scale="   93.164">  7  8 -1 -1</clus>
<clus scale="  111.682">  1  5  2 -1</clus>
<clus scale="   25.317">  1  5  2 -1</clus>
</clustering>
</event>
<event>
 9    2  0.1302972E-004  0.1225620E+03  0.7546771E-02  0.1251140E+00
         21   -1    0    0  501  502  0.00000000000E+00  0.00000000000E+00  0.13686868960E+03  0.13686868960E+03  0.00000000000E+00 0. -1.
          2   -1    0    0  502    0 -0.00000000000E+00 -0.00000000000E+00 -0.46313302141E+03  0.46313302141E+03  0.00000000000E+00 0. -1.
         24    2    1    2    0    0  0.35231255052E+02 -0.35289734957E+02 -0.32840405125E+03  0.34210265028E+03  0.81843727498E+02 0.  0.
         23    2    1    2    0    0  0.62409632246E+02 -0.43533381976E+02  0.50465350636E+02  0.12342901475E+03  0.83053311334E+02 0.  0.
        -13    1    3    3    0    0 -0.22949041166E+02 -0.10135311712E+01 -0.42270112931E+02  0.48108712133E+02  0.00000000000E+00 0.  1.
         14    1    3    3    0    0  0.58180296218E+02 -0.34276203786E+02 -0.28613393832E+03  0.29399393815E+03  0.00000000000E+00 0. -1.
        -11    1    4    4    0    0  0.29564950854E+02  0.19670831651E+02 -0.10451889858E+01  0.35526333288E+02  0.00000000000E+00 0.  1.
         11    1    4    4    0    0  0.32844681391E+02 -0.63204213627E+02  0.51510539622E+02  0.87902681461E+02  0.00000000000E+00 0. -1.
          1    1    1    2  501    0 -0.97640887297E+02  0.78823116933E+02 -0.48325631200E+02  0.13447004598E+03  0.00000000000E+00 0. -1.
<scales pt_clust_5="13000.00000" pt_clust_6="13000.00000" pt_clust_7="13000.00000" pt_clust_8="13000.00000" pt_clust_9="90.13096"></scales>
<clustering>
<clus scale="   81.844">  5  6 -1 -1</clus>
<clus scale="   83.053">  7  8 -1 -1</clus>
<clus scale="   95.838">  2  5  1 -1</clus>
<clus scale="   90.131">  1  9  2 -1</clus>
<clus scale="   90.131">  1  5  2 -1</clus>
</clustering>
</event>
<event>
 9    2  0.1302972E-004  0.9682313E+02  0.7546771E-02  0.1293333E+00
          2   -1    0    0  502    0 -0.00000000000E+00  0.00000000000E+00  0.30723654994E+03  0.30723654994E+03  0.00000000000E+00 0. -1.
         21   -1    0    0  501  502  0.00000000000E+00 -0.00000000000E+00 -0.10684805076E+03  0.10684805076E+03  0.00000000000E+00 0.  1.
         24    2    1    2    0    0  0.30932600846E+02  0.15325176511E+02  0.26115828371E+03  0.27531158624E+03  0.80007084327E+02 0.  0.
         23    2    1    2    0    0 -0.11461086967E+02 -0.24911016526E+01 -0.23921856486E+02  0.95165410398E+02  0.91359936605E+02 0.  0.
        -13    1    3    3    0    0 -0.84232285562E+01  0.27998547782E+02  0.35946515295E+02  0.46335962481E+02  0.00000000000E+00 0.  1.
         14    1    3    3    0    0  0.39355829402E+02 -0.12673371271E+02  0.22521176841E+03  0.22897562376E+03  0.00000000000E+00 0. -1.
        -13    1    4    4    0    0 -0.19501723831E+02  0.41942187355E+02 -0.62461409061E+01  0.46674174752E+02  0.00000000000E+00 0. -1.
         13    1    4    4    0    0  0.80406368634E+01 -0.44433289008E+02 -0.17675715579E+02  0.48491235646E+02  0.00000000000E+00 0.  1.
          1    1    1    2  501    0 -0.19471513879E+02 -0.12834074859E+02 -0.36847928047E+02  0.43607604057E+02  0.00000000000E+00 0. -1.
<scales pt_clust_5="13000.00000" pt_clust_6="13000.00000" pt_clust_7="13000.00000" pt_clust_8="13000.00000" pt_clust_9="23.32066"></scales>
<clustering>
<clus scale="   23.321">  2  9  1 -1</clus>
<clus scale="   80.007">  5  6 -1 -1</clus>
<clus scale="   86.193">  1  5  2 -1</clus>
<clus scale="   91.360">  7  8 -1 -1</clus>
<clus scale="   23.321">  2  5  1 -1</clus>
</clustering>
</event>
<event>
 9    2  0.1302972E-004  0.1184458E+03  0.7546771E-02  0.1249005E+00
          4   -1    0    0  502    0 -0.00000000000E+00  0.00000000000E+00  0.30719051894E+03  0.30719051894E+03  0.00000000000E+00 0. -1.
         21   -1    0    0  501  502  0.00000000000E+00 -0.00000000000E+00 -0.66844969830E+02  0.66844969830E+02  0.00000000000E+00 0. -1.
         23    2    1    2    0    0  0.44379689881E+02  0.76944046606E+02  0.18697996326E+03  0.22547824950E+03  0.89381156597E+02 0.  0.
         24    2    1    2    0    0 -0.15867281694E+02 -0.60186418799E+02  0.56483807171E+02  0.11533828663E+03  0.78983063076E+02 0.  0.
        -13    1    4    4    0    0 -0.87309473029E+01 -0.77466372686E+02  0.57101456248E+02  0.96632523736E+02  0.00000000000E+00 0.  1.
         14    1    4    4    0    0 -0.71363343914E+01  0.17279953887E+02 -0.61764907660E+00  0.18705762889E+02  0.00000000000E+00 0. -1.
        -11    1    3    3    0    0 -0.19269368627E+02  0.26815925127E+02  0.10560921490E+03  0.11065129317E+03  0.00000000000E+00 0.  1.
         11    1    3    3    0    0  0.63649058508E+02  0.50128121479E+02  0.81370748363E+02  0.11482695633E+03  0.00000000000E+00 0. -1.
          3    1    1    2  501    0 -0.28512408187E+02 -0.16757627806E+02 -0.31182213273E+01  0.33218952641E+02  0.00000000000E+00 0. -1.
<scales pt_clust_5="13000.00000" pt_clust_6="13000.00000" pt_clust_7="13000.00000" pt_clust_8="13000.00000" pt_clust_9="33.07228"></scales>
<clustering>
<clus scale="   33.072">  2  9  1 -1</clus>
<clus scale="   78.983">  5  6 -1 -1</clus>
<clus scale="   89.381">  7  8 -1 -1</clus>
<clus scale="  110.809">  2  5  1 -1</clus>
<clus scale="   33.072">  2  5  1 -1</clus>
</clustering>
</event>
<event>
 9    2  0.1302972E-004  0.2568730E+03  0.7546771E-02  0.1109037E+00
         21   -1    0    0  501  502  0.00000000000E+00  0.00000000000E+00  0.16472969447E+03  0.16472969447E+03  0.00000000000E+00 0. -1.
          2   -1    0    0  502    0 -0.00000000000E+00 -0.00000000000E+00 -0.33712584421E+03  0.33712584421E+03  0.00000000000E+00 0. -1.
         24    2    1    2    0    0 -0.56975766354E+02 -0.28672160861E+02 -0.82093472220E+02  0.13367060988E+03  0.84024776129E+02 0.  0.
         23    2    1    2    0    0 -0.10929816493E+03 -0.51278678560E+02 -0.10347301947E+03  0.18321840519E+03  0.91031458918E+02 0.  0.
        -11    1    3    3    0    0 -0.53179482926E+02  0.19549605231E+02 -0.38030672920E+02  0.68239113064E+02  0.00000000000E+00 0.  1.
         12    1    3    3    0    0 -0.37962834276E+01 -0.48221766092E+02 -0.44062799300E+02  0.65431496812E+02  0.00000000000E+00 0. -1.
        -13    1    4    4    0    0  0.24500206463E+01 -0.26424311821E+02  0.32164460515E+01  0.26731860796E+02  0.00000000000E+00 0.  1.
         13    1    4    4    0    0 -0.11174818557E+03 -0.24854366738E+02 -0.10668946552E+03  0.15648654440E+03  0.00000000000E+00 0. -1.
          1    1    1    2  501    0  0.16627393128E+03  0.79950839421E+02  0.13170341947E+02  0.18496652360E+03  0.00000000000E+00 0. -1.
<scales pt_clust_5="13000.00000" pt_clust_6="13000.00000" pt_clust_7="13000.00000" pt_clust_8="13000.00000" pt_clust_9="184.49704"></scales>
<clustering>
<clus scale="   84.025">  5  6 -1 -1</clus>
<clus scale="   91.031">  7  8 -1 -1</clus>
<clus scale="   92.146">  5  7 -1 -1</clus>
<clus scale="  184.497">  1  9  2 -1</clus>
<clus scale="  184.497">  1  5  2 -1</clus>
</clustering>
</event>
<event>
 9    2  0.1302972E-004  0.1146203E+03  0.7546771E-02  0.1254781E+00
         21   -1    0    0  501  502  0.00000000000E+00  0.00000000000E+00  0.63240579890E+03  0.63240579890E+03  0.00000000000E+00 0.  1.
         -1   -1    0    0    0  501 -0.00000000000E+00 -0.00000000000E+00 -0.15386652405E+03  0.15386652405E+03  0.00000000000E+00 0.  1.
         23    2    1    2    0    0 -0.31284884269E+02 -0.44270764581E+02 -0.65068989327E+02  0.12465077479E+03  0.91461454738E+02 0.  0.
         24    2    1    2    0    0  0.18788789524E+02  0.14738057977E+03  0.83877055010E+02  0.19030363948E+03  0.84297455101E+02 0.  0.
        -11    1    4    4    0    0 -0.21143121649E+02  0.30806104320E+02  0.50166280508E+02  0.62551605547E+02  0.00000000000E+00 0.  1.
         12    1    4    4    0    0  0.39931911173E+02  0.11657447545E+03  0.33710774502E+02  0.12775203393E+03  0.00000000000E+00 0. -1.
        -13    1    3    3    0    0  0.20865087373E+02 -0.30783135674E+02 -0.59942901396E+02  0.70541510763E+02  0.00000000000E+00 0.  1.
         13    1    3    3    0    0 -0.52149971642E+02 -0.13487628907E+02 -0.51260879312E+01  0.54109264025E+02  0.00000000000E+00 0. -1.
         -2    1    1    2    0  502  0.12496094745E+02 -0.10310981519E+03  0.45973120917E+03  0.47131790869E+03  0.00000000000E+00 0.  1.
<scales pt_clust_5="13000.00000" pt_clust_6="13000.00000" pt_clust_7="13000.00000" pt_clust_8="13000.00000" pt_clust_9="103.86427"></scales>
<clustering>
<clus scale="   84.297">  5  6 -1 -1</clus>
<clus scale="   91.461">  7  8 -1 -1</clus>
<clus scale="  103.864">  1  9  2 -1</clus>
<clus scale="  108.989">  1  5  2 -1</clus>
<clus scale="  103.864">  1  5  2 -1</clus>
</clustering>
</event>
<event>
 9    2  0.1302972E-004  0.1381812E+03  0.7546771E-02  0.1219279E+00
          2   -1    0    0  502    0 -0.00000000000E+00  0.00000000000E+00  0.13672285268E+03  0.13672285268E+03  0.00000000000E+00 0. -1.
         21   -1    0    0  501  502  0.00000000000E+00 -0.00000000000E+00 -0.26009295199E+03  0.26009295199E+03  0.00000000000E+00 0.  1.
         23    2    1    2    0    0 -0.62814191659E+02  0.60852348352E+02 -0.70329827559E+02  0.14711474738E+03  0.95120099231E+02 0.  0.
         24    2    1    2    0    0  0.93877761064E+02 -0.71393356151E+02 -0.11257619896E+03  0.18172617355E+03  0.80255568389E+02 0.  0.
        -13    1    4    4    0    0  0.94955059478E+02 -0.41288741995E+02 -0.11064979617E+03  0.15154075666E+03  0.00000000000E+00 0.  1.
         14    1    4    4    0    0 -0.10772984134E+01 -0.30104614156E+02 -0.19264027861E+01  0.30185416893E+02  0.00000000000E+00 0. -1.
        -13    1    3    3    0    0 -0.19131520280E+01  0.28015322433E+02  0.19161829852E+02  0.33995502129E+02  0.00000000000E+00 0. -1.
         13    1    3    3    0    0 -0.60901039631E+02  0.32837025919E+02 -0.89491657412E+02  0.11311924525E+03  0.00000000000E+00 0.  1.
          1    1    1    2  501    0 -0.31063569405E+02  0.10541007799E+02  0.59535927217E+02  0.67974883738E+02  0.00000000000E+00 0. -1.
<scales pt_clust_5="13000.00000" pt_clust_6="13000.00000" pt_clust_7="13000.00000" pt_clust_8="13000.00000" pt_clust_9="32.80334"></scales>
<clustering>
<clus scale="   32.803">  2  9  1 -1</clus>
<clus scale="   80.256">  5  6 -1 -1</clus>
<clus scale="   95.120">  7  8 -1 -1</clus>
<clus scale="  128.402">  2  5  1 -1</clus>
<clus scale="   32.803">  2  5  1 -1</clus>
</clustering>
</event>
<event>
 9    2  0.1302972E-004  0.2473054E+03  0.7546771E-02  0.1116905E+00
         21   -1    0    0  501  502  0.00000000000E+00  0.00000000000E+00  0.61202204177E+03  0.61202204177E+03  0.00000000000E+00 0.  1.
         -1   -1    0    0    0  501 -0.00000000000E+00 -0.00000000000E+00 -0.16345468721E+03  0.16345468721E+03  0.00000000000E+00 0.  1.
         23    2    1    2    0    0  0.18001636333E+03 -0.13184156075E+03  0.39276331176E+02  0.25255204366E+03  0.11158770702E+03 0.  0.
         24    2    1    2    0    0 -0.15129620050E+03  0.15302812748E+03  0.42527859404E+03  0.48381815418E+03  0.83126263484E+02 0.  0.
        -13    1    4    4    0    0 -0.12716672117E+03  0.15708105519E+03  0.40248943102E+03  0.45038158817E+03  0.00000000000E+00 0.  1.
         14    1    4    4    0    0 -0.24129479329E+02 -0.40529277178E+01  0.22789163018E+02  0.33436566014E+02  0.00000000000E+00 0. -1.
        -11    1    3    3    0    0  0.65262941511E+02 -0.98449387734E+02 -0.18920712838E+02  0.11962243458E+03  0.00000000000E+00 0.  1.
         11    1    3    3    0    0  0.11475342182E+03 -0.33392173013E+02  0.58197044014E+02  0.13292960908E+03  0.00000000000E+00 0. -1.
         -2    1    1    2    0  502 -0.28720162826E+02 -0.21186566729E+02 -0.15987570657E+02  0.39106531143E+02  0.00000000000E+00 0.  1.
<scales pt_clust_5="13000.00000" pt_clust_6="13000.00000" pt_clust_7="13000.00000" pt_clust_8="13000.00000" pt_clust_9="35.68921"></scales>
<clustering>
<clus scale="   35.689">  1  9  2 -1</clus>
<clus scale="   83.126">  5  6 -1 -1</clus>
<clus scale="  111.588">  7  8 -1 -1</clus>
<clus scale="  235.835">  1  5  2 -1</clus>
<clus scale="   35.689">  1  5  2 -1</clus>
</clustering>
</event>
<event>
 9    2  0.1302972E-004  0.3795528E+03  0.7546771E-02  0.1051447E+00
         21   -1    0    0  501  502  0.00000000000E+00  0.00000000000E+00  0.13732068989E+03  0.13732068989E+03  0.00000000000E+00 0. -1.
          2   -1    0    0  502    0 -0.00000000000E+00 -0.00000000000E+00 -0.15969269924E+04  0.15969269924E+04  0.00000000000E+00 0. -1.
         23    2    1    2    0    0 -0.87330940479E+02 -0.38786787970E+03 -0.91318865995E+03  0.10007161615E+04  0.97216881344E+02 0.  0.
         24    2    1    2    0    0  0.90040247275E+02  0.29291388434E+03 -0.20128967798E+03  0.37556935305E+03  0.81418761467E+02 0.  0.
        -13    1    4    4    0    0  0.44701704744E+02  0.42497218056E+02 -0.50877879829E+02  0.79955078671E+02  0.00000000000E+00 0.  1.
         14    1    4    4    0    0  0.45338542531E+02  0.25041666629E+03 -0.15041179815E+03  0.29561427438E+03  0.00000000000E+00 0. -1.
        -11    1    3    3    0    0 -0.14989658431E+02 -0.27376120498E+03 -0.60782206086E+03  0.66679647936E+03  0.00000000000E+00 0.  1.
         11    1    3    3    0    0 -0.72341282048E+02 -0.11410667472E+03 -0.30536659909E+03  0.33391968217E+03  0.00000000000E+00 0. -1.
          1    1    1    2  501    0 -0.27093067957E+01  0.94953995356E+02 -0.34512796458E+03  0.35796216771E+03  0.00000000000E+00 0. -1.
<scales pt_clust_5="13000.00000" pt_clust_6="13000.00000" pt_clust_7="13000.00000" pt_clust_8="13000.00000" pt_clust_9="94.99269"></scales>
<clustering>
<clus scale="   81.419">  5  6 -1 -1</clus>
<clus scale="   94.993">  1  9  2 -1</clus>
<clus scale="   97.217">  7  8 -1 -1</clus>
<clus scale="  375.817">  1  5  2 -1</clus>
<clus scale="   94.993">  1  5  2 -1</clus>
</clustering>
</event>
<event>
 9    2  0.1302972E-004  0.9989224E+02  0.7546771E-02  0.1285978E+00
          2   -1    0    0  502    0 -0.00000000000E+00  0.00000000000E+00  0.32137973184E+03  0.32137973184E+03  0.00000000000E+00 0. -1.
         21   -1    0    0  501  502  0.00000000000E+00 -0.00000000000E+00 -0.11973515365E+03  0.11973515365E+03  0.00000000000E+00 0. -1.
         24    2    1    2    0    0  0.34188397910E+02 -0.33069364473E+02  0.24240023744E+03  0.25972311264E+03  0.80223380055E+02 0.  0.
         23    2    1    2    0    0 -0.21403491095E+02 -0.40382667136E+02 -0.28585731490E+02  0.10584865979E+03  0.91092949770E+02 0.  0.
        -11    1    3    3    0    0  0.27273357182E+02  0.49086040511E+01  0.20448283322E+02  0.34439260975E+02  0.00000000000E+00 0.  1.
         12    1    3    3    0    0  0.69150407277E+01 -0.37977968524E+02  0.22195195412E+03  0.22528385166E+03  0.00000000000E+00 0. -1.
        -11    1    4    4    0    0 -0.43590894944E+02 -0.56887101106E+02 -0.96058284801E+01  0.72308922929E+02  0.00000000000E+00 0. -1.
         11    1    4    4    0    0  0.22187403849E+02  0.16504433970E+02 -0.18979903010E+02  0.33539736858E+02  0.00000000000E+00 0.  1.
          1    1    1    2  501    0 -0.12784906815E+02  0.73452031609E+02 -0.12169927756E+02  0.75543113064E+02  0.00000000000E+00 0. -1.
<scales pt_clust_5="13000.00000" pt_clust_6="13000.00000" pt_clust_7="13000.00000" pt_clust_8="13000.00000" pt_clust_9="74.55639"></scales>
<clustering>
<clus scale="   74.556">  2  9  1 -1</clus>
<clus scale="   80.223">  5  6 -1 -1</clus>
<clus scale="   90.091">  1  5  2 -1</clus>
<clus scale="   91.093">  7  8 -1 -1</clus>
<clus scale="   74.556">  2  5  1 -1</clus>
</clustering>
</event>
<event>
 9    2  0.1302972E-004  0.9620442E+02  0.7546771E-02  0.1295921E+00
          2   -1    0    0  502    0 -0.00000000000E+00  0.00000000000E+00  0.48021842353E+03  0.48021842353E+03  0.00000000000E+00 0. -1.
         21   -1    0    0  501  502  0.00000000000E+00 -0.00000000000E+00 -0.45025177676E+02  0.45025177676E+02  0.00000000000E+00 0.  1.
         23    2    1    2    0    0  0.11892784172E+02  0.23581272642E+02  0.33684711398E+03  0.35053530079E+03  0.93335438955E+02 0.  0.
         24    2    1    2    0    0 -0.41729113552E+02  0.18805704047E+02  0.64608478807E+02  0.11286097567E+03  0.80426182764E+02 0.  0.
        -11    1    4    4    0    0 -0.42319505855E+02  0.44208535666E+02  0.25669078735E+02  0.66364424240E+02  0.00000000000E+00 0.  1.
         12    1    4    4    0    0  0.59039230363E+00 -0.25402831620E+02  0.38939400072E+02  0.46496551435E+02  0.00000000000E+00 0. -1.
        -11    1    3    3    0    0  0.45265597681E+02 -0.48116250490E+01  0.23941474070E+03  0.24370380410E+03  0.00000000000E+00 0.  1.
         11    1    3    3    0    0 -0.33372813509E+02  0.28392897691E+02  0.97432373286E+02  0.10683149669E+03  0.00000000000E+00 0. -1.
          1    1    1    2  501    0  0.29836329379E+02 -0.42386976688E+02  0.33737653063E+02  0.61847324742E+02  0.00000000000E+00 0. -1.
<scales pt_clust_5="13000.00000" pt_clust_6="13000.00000" pt_clust_7="13000.00000" pt_clust_8="13000.00000" pt_clust_9="51.83495"></scales>
<clustering>
<clus scale="   51.835">  2  9  1 -1</clus>
<clus scale="   80.426">  5  6 -1 -1</clus>
<clus scale="   83.739">  2  5  1 -1</clus>
<clus scale="   93.335">  7  8 -1 -1</clus>
<clus scale="   51.835">  2  5  1 -1</clus>
</clustering>
</event>
<event>
 9    2  0.1302972E-004  0.9655992E+02  0.7546771E-02  0.1293008E+00
          2   -1    0    0  502    0 -0.00000000000E+00  0.00000000000E+00  0.22930308906E+03  0.22930308906E+03  0.00000000000E+00 0. -1.
         21   -1    0    0  501  502  0.00000000000E+00 -0.00000000000E+00 -0.12801714259E+03  0.12801714259E+03  0.00000000000E+00 0.  1.
         23    2    1    2    0    0 -0.54415627114E+01  0.38314341369E+01  0.13335114451E+02  0.91756998579E+02  0.90538560948E+02 0.  0.
         24    2    1    2    0    0  0.65991090871E+02 -0.55557811049E+02 -0.31248615185E+02  0.12220922496E+03  0.80728707852E+02 0.  0.
        -13    1    4    4    0    0  0.50388095291E+02 -0.48540500732E+02 -0.57712632207E+02  0.90696682821E+02  0.00000000000E+00 0.  1.
         14    1    4    4    0    0  0.15602995580E+02 -0.70173103168E+01  0.26464017022E+02  0.31512542140E+02  0.00000000000E+00 0. -1.
        -11    1    3    3    0    0 -0.33623464169E+02 -0.85261837799E+01  0.38633278612E+02  0.51920741221E+02  0.00000000000E+00 0. -1.
         11    1    3    3    0    0  0.28181901458E+02  0.12357617917E+02 -0.25298164161E+02  0.39836257358E+02  0.00000000000E+00 0.  1.
          1    1    1    2  501    0 -0.60549528160E+02  0.51726376912E+02  0.11919944721E+03  0.14335400812E+03  0.00000000000E+00 0. -1.
<scales pt_clust_5="13000.00000" pt_clust_6="13000.00000" pt_clust_7="13000.00000" pt_clust_8="13000.00000" pt_clust_9="79.63586"></scales>
<clustering>
<clus scale="   79.636">  2  9  1 -1</clus>
<clus scale="   80.729">  5  6 -1 -1</clus>
<clus scale="   87.428">  2  5  1 -1</clus>
<clus scale="   90.539">  7  8 -1 -1</clus>
<clus scale="   79.636">  2  5  1 -1</clus>
</clustering>
</event>
<event>
 9    2  0.1302972E-004  0.3381589E+03  0.7546771E-02  0.1067784E+00
          4   -1    0    0  502    0 -0.00000000000E+00  0.00000000000E+00  0.14497517306E+03  0.14497517306E+03  0.00000000000E+00 0. -1.
         21   -1    0    0  501  502  0.00000000000E+00 -0.00000000000E+00 -0.19093916531E+04  0.19093916531E+04  0.00000000000E+00 0.  1.
         24    2    1    2    0    0  0.27572590789E+03 -0.17164352157E+03 -0.12325118216E+03  0.35623988319E+03  0.78928611373E+02 0.  0.
         23    2    1    2    0    0 -0.32818249019E+03  0.13338598783E+03 -0.12324828997E+04  0.12843194582E+04  0.70475555319E+02 0.  0.
        -11    1    3    3    0    0  0.10676239842E+03 -0.98222937155E+02 -0.84817271274E+02  0.16804738797E+03  0.00000000000E+00 0.  1.
         12    1    3    3    0    0  0.16896350948E+03 -0.73420584420E+02 -0.38433910885E+02  0.18819249522E+03  0.00000000000E+00 0. -1.
        -13    1    4    4    0    0 -0.21257717961E+03  0.91775375127E+02 -0.68000545426E+03  0.71834476026E+03  0.00000000000E+00 0. -1.
         13    1    4    4    0    0 -0.11560531058E+03  0.41610612705E+02 -0.55247744548E+03  0.56597469793E+03  0.00000000000E+00 0.  1.
          3    1    1    2  501    0  0.52456582300E+02  0.38257533743E+02 -0.40868239811E+03  0.41380748475E+03  0.00000000000E+00 0. -1.
<scales pt_clust_5="13000.00000" pt_clust_6="13000.00000" pt_clust_7="13000.00000" pt_clust_8="13000.00000" pt_clust_9="64.92559"></scales>
<clustering>
<clus scale="   64.926">  2  9  1 -1</clus>
<clus scale="   70.476">  7  8 -1 -1</clus>
<clus scale="   78.929">  5  6 -1 -1</clus>
<clus scale="  336.286">  2  7  1 -1</clus>
<clus scale="   64.926">  2  5  1 -1</clus>
</clustering>
</event>
<event>
 9    2  0.1302972E-004  0.9525476E+02  0.7546771E-02  0.1296994E+00
         21   -1    0    0  501  502  0.00000000000E+00  0.00000000000E+00  0.36108180279E+02  0.36108180279E+02  0.00000000000E+00 0. -1.
         -1   -1    0    0    0  501 -0.00000000000E+00 -0.00000000000E+00 -0.60365417201E+03  0.60365417201E+03  0.00000000000E+00 0.  1.
         24    2    1    2    0    0 -0.25909415844E+02 -0.10140028398E+02 -0.49013267214E+03  0.49750211629E+03  0.80648629307E+02 0.  0.
         23    2    1    2    0    0  0.11644172950E+02 -0.98442227494E+01 -0.50653706849E+02  0.10594296293E+03  0.91791164567E+02 0.  0.
        -13    1    3    3    0    0 -0.91433421525E+01  0.34160106300E+02 -0.15147711704E+03  0.15555009018E+03  0.00000000000E+00 0.  1.
         14    1    3    3    0    0 -0.16766073692E+02 -0.44300134698E+02 -0.33865555510E+03  0.34195202611E+03  0.00000000000E+00 0. -1.
        -11    1    4    4    0    0  0.11529950719E+02 -0.44387387932E+02 -0.54452134761E+02  0.71191396608E+02  0.00000000000E+00 0. -1.
         11    1    4    4    0    0  0.11422223108E+00  0.34543165183E+02  0.37984279118E+01  0.34751566327E+02  0.00000000000E+00 0.  1.
         -2    1    1    2    0  502  0.14265242894E+02  0.19984251148E+02 -0.26759612747E+02  0.36317273068E+02  0.00000000000E+00 0.  1.
<scales pt_clust_5="13000.00000" pt_clust_6="13000.00000" pt_clust_7="13000.00000" pt_clust_8="13000.00000" pt_clust_9="24.55336"></scales>
<clustering>
<clus scale="   24.553">  1  9  2 -1</clus>
<clus scale="   80.649">  5  6 -1 -1</clus>
<clus scale="   84.570">  2  5  1 -1</clus>
<clus scale="   91.791">  7  8 -1 -1</clus>
<clus scale="   24.553">  1  5  2 -1</clus>
</clustering>
</event>
<event>
 9    2  0.1302972E-004  0.1064204E+03  0.7546771E-02  0.1272131E+00
         -3   -1    0    0    0  501 -0.00000000000E+00  0.00000000000E+00  0.15162627870E+03  0.15162627870E+03  0.00000000000E+00 0.  1.
         21   -1    0    0  501  502  0.00000000000E+00 -0.00000000000E+00 -0.23408317854E+03  0.23408317854E+03  0.00000000000E+00 0.  1.
         23    2    1    2    0    0 -0.26986928129E+02 -0.37020816250E+02  0.74333122620E+02  0.12659133904E+03  0.91657617659E+02 0.  0.
         24    2    1    2    0    0  0.34854917713E+01  0.10538100250E+03 -0.87152174960E+02  0.15874450424E+03  0.80541987093E+02 0.  0.
        -13    1    4    4    0    0  0.28453447488E+02  0.10375251256E+03 -0.72790859263E+02  0.12989492572E+03  0.00000000000E+00 0.  1.
         14    1    4    4    0    0 -0.24967955717E+02  0.16284899455E+01 -0.14361315697E+02  0.28849578519E+02  0.00000000000E+00 0. -1.
        -13    1    3    3    0    0  0.13599587769E+02  0.24886649991E+02  0.22904222177E+02  0.36454046810E+02  0.00000000000E+00 0. -1.
         13    1    3    3    0    0 -0.40586515897E+02 -0.61907466242E+02  0.51428900443E+02  0.90137292226E+02  0.00000000000E+00 0.  1.
         -4    1    1    2    0  502  0.23501436357E+02 -0.68360186251E+02 -0.69637847501E+02  0.10037361396E+03  0.00000000000E+00 0.  1.
<scales pt_clust_5="13000.00000" pt_clust_6="13000.00000" pt_clust_7="13000.00000" pt_clust_8="13000.00000" pt_clust_9="72.28715"></scales>
<clustering>
<clus scale="   72.287">  2  9  1 -1</clus>
<clus scale="   80.542">  5  6 -1 -1</clus>
<clus scale="   91.658">  7  8 -1 -1</clus>
<clus scale="   97.011">  2  5  1 -1</clus>
<clus scale="   72.287">  2  5  1 -1</clus>
</clustering>
</event>
<event>
 9    2  0.1302972E-004  0.1885071E+03  0.7546771E-02  0.1176714E+00
         21   -1    0    0  501  502  0.00000000000E+00  0.00000000000E+00  0.63429671457E+02  0.63429671457E+02  0.00000000000E+00 0.  1.
         -1   -1    0    0    0  501 -0.00000000000E+00 -0.00000000000E+00 -0.15889924967E+04  0.15889924967E+04  0.00000000000E+00 0.  1.
         24    2    1    2    0    0  0.68054326569E+02 -0.73173698010E+02 -0.62639030058E+03  0.63931864419E+03  0.79860745722E+02 0.  0.
         23    2    1    2    0    0  0.12914287913E+03 -0.66004490802E+02 -0.15752399802E+03  0.23316772966E+03  0.92297909853E+02 0.  0.
        -11    1    3    3    0    0  0.55039881947E+02 -0.83537670456E+02 -0.59881000199E+03  0.60710900955E+03  0.00000000000E+00 0.  1.
         12    1    3    3    0    0  0.13014444622E+02  0.10363972446E+02 -0.27580298586E+02  0.32209634642E+02  0.00000000000E+00 0. -1.
        -11    1    4    4    0    0  0.92757366879E+02 -0.20560313058E+02 -0.14542212996E+03  0.17370737308E+03  0.00000000000E+00 0. -1.
         11    1    4    4    0    0  0.36385512253E+02 -0.45444177744E+02 -0.12101868067E+02  0.59460356570E+02  0.00000000000E+00 0.  1.
         -2    1    1    2    0  502 -0.19719720570E+03  0.13917818881E+03 -0.74164852667E+03  0.77993579434E+03  0.00000000000E+00 0.  1.
<scales pt_clust_5="13000.00000" pt_clust_6="13000.00000" pt_clust_7="13000.00000" pt_clust_8="13000.00000" pt_clust_9="164.36559"></scales>
<clustering>
<clus scale="   79.861">  5  6 -1 -1</clus>
<clus scale="   92.298">  7  8 -1 -1</clus>
<clus scale="  127.920">  2  5  1 -1</clus>
<clus scale="  164.366">  1  9  2 -1</clus>
<clus scale="  164.366">  1  5  2 -1</clus>
</clustering>
</event>
<event>
 9    2  0.1302972E-004  0.1588706E+03  0.7546771E-02  0.1205844E+00
         21   -1    0    0  501  502  0.00000000000E+00  0.00000000000E+00  0.59850865913E+03  0.59850865913E+03  0.00000000000E+00 0.  1.
         -1   -1    0    0    0  501 -0.00000000000E+00 -0.00000000000E+00 -0.26754646694E+03  0.26754646694E+03  0.00000000000E+00 0.  1.
         24    2    1    2    0    0 -0.67927569622E+02  0.42594405222E+02  0.11609492797E+02  0.11301894354E+03  0.78803954241E+02 0.  0.
         23    2    1    2    0    0  0.28744408824E+02 -0.16365566151E+03 -0.16493196483E+03  0.25231392033E+03  0.94076271098E+02 0.  0.
        -11    1    3    3    0    0 -0.79606530704E+02  0.18624819148E+02  0.21573261459E+02  0.84554652320E+02  0.00000000000E+00 0.  1.
         12    1    3    3    0    0  0.11678961082E+02  0.23969586074E+02 -0.99637686620E+01  0.28464291216E+02  0.00000000000E+00 0. -1.
        -11    1    4    4    0    0  0.22995333816E+01 -0.15329873633E+03 -0.10450448516E+03  0.18554508302E+03  0.00000000000E+00 0. -1.
         11    1    4    4    0    0  0.26444875443E+02 -0.10356925187E+02 -0.60427479668E+02  0.66768837309E+02  0.00000000000E+00 0.  1.
         -2    1    1    2    0  502  0.39183160798E+02  0.12106125629E+03  0.48428466422E+03  0.50072226221E+03  0.00000000000E+00 0.  1.
<scales pt_clust_5="13000.00000" pt_clust_6="13000.00000" pt_clust_7="13000.00000" pt_clust_8="13000.00000" pt_clust_9="128.02152"></scales>
<clustering>
<clus scale="   78.804">  5  6 -1 -1</clus>
<clus scale="   94.076">  7  8 -1 -1</clus>
<clus scale="  112.421">  2  5  1 -1</clus>
<clus scale="  128.022">  1  9  2 -1</clus>
<clus scale="  128.022">  1  5  2 -1</clus>
</clustering>
</event>
<event>
 9    2  0.1302972E-004  0.1454413E+03  0.7546771E-02  0.1229917E+00
          2   -1    0    0  502    0 -0.00000000000E+00  0.00000000000E+00  0.26003875224E+03  0.26003875224E+03  0.00000000000E+00 0. -1.
         21   -1    0    0  501  502  0.00000000000E+00 -0.00000000000E+00 -0.47385524365E+03  0.47385524365E+03  0.00000000000E+00 0. -1.
         24    2    1    2    0    0  0.16825919142E+02 -0.98486428555E+00  0.88697276436E+02  0.12510284210E+03  0.86599265248E+02 0.  0.
         23    2    1    2    0    0 -0.75263192806E+02 -0.95981177450E+02  0.10568645442E+03  0.18518195929E+03  0.90806369733E+02 0.  0.
        -13    1    3    3    0    0 -0.18535641388E+02 -0.19102536371E+02 -0.13787905037E+01  0.26652916552E+02  0.00000000000E+00 0.  1.
         14    1    3    3    0    0  0.35361560530E+02  0.18117672085E+02  0.90076066939E+02  0.98449925547E+02  0.00000000000E+00 0. -1.
        -11    1    4    4    0    0 -0.68231358701E+02 -0.13902440027E+02  0.46075407921E+02  0.83496942243E+02  0.00000000000E+00 0.  1.
         11    1    4    4    0    0 -0.70318341045E+01 -0.82078737424E+02  0.59611046494E+02  0.10168501705E+03  0.00000000000E+00 0. -1.
          1    1    1    2  501    0  0.58437273664E+02  0.96966041736E+02 -0.40820022227E+03  0.42360919450E+03  0.00000000000E+00 0. -1.
<scales pt_clust_5="13000.00000" pt_clust_6="13000.00000" pt_clust_7="13000.00000" pt_clust_8="13000.00000" pt_clust_9="113.61063"></scales>
<clustering>
<clus scale="   86.599">  5  6 -1 -1</clus>
<clus scale="   88.224">  1  5  2 -1</clus>
<clus scale="   90.806">  7  8 -1 -1</clus>
<clus scale="  113.611">  2  9  1 -1</clus>
<clus scale="  113.611">  2  5  1 -1</clus>
</clustering>
</event>
<event>
 9    2  0.1302972E-004  0.1073887E+03  0.7546771E-02  0.1269685E+00
          2   -1    0    0  502    0 -0.00000000000E+00  0.00000000000E+00  0.19906989166E+04  0.19906989166E+04  0.00000000000E+00 0. -1.
         21   -1    0    0  501  502  0.00000000000E+00 -0.00000000000E+00 -0.44513567554E+02  0.44513567554E+02  0.00000000000E+00 0. -1.
         24    2    1    2    0    0 -0.53648710435E+02  0.42129916620E+02  0.16512251532E+04  0.16546073744E+04  0.80795684780E+02 0.  0.
         23    2    1    2    0    0 -0.47095350082E+02 -0.30056689298E+02  0.24558676126E+03  0.26776511428E+03  0.90906119422E+02 0.  0.
        -11    1    3    3    0    0  0.64367830390E+01  0.21879540273E+02  0.12486044737E+03  0.12692626905E+03  0.00000000000E+00 0.  1.
         12    1    3    3    0    0 -0.60085493474E+02  0.20250376347E+02  0.15263647059E+04  0.15276811053E+04  0.00000000000E+00 0. -1.
        -11    1    4    4    0    0 -0.73913279188E+02 -0.13359903997E+02  0.17275914782E+03  0.18838095188E+03  0.00000000000E+00 0. -1.
         11    1    4    4    0    0  0.26817929105E+02 -0.16696785302E+02  0.72827613437E+02  0.79384162399E+02  0.00000000000E+00 0.  1.
          1    1    1    2  501    0  0.10074406052E+03 -0.12073227321E+02  0.49373434584E+02  0.11283999553E+03  0.00000000000E+00 0. -1.
<scales pt_clust_5="13000.00000" pt_clust_6="13000.00000" pt_clust_7="13000.00000" pt_clust_8="13000.00000" pt_clust_9="101.46491"></scales>
<clustering>
<clus scale="   80.796">  5  6 -1 -1</clus>
<clus scale="   90.906">  7  8 -1 -1</clus>
<clus scale="  101.465">  2  9  1 -1</clus>
<clus scale="   98.977">  1  5  2 -1</clus>
<clus scale="  101.465">  2  5  1 -1</clus>
</clustering>
</event>
<event>
 9    2  0.1302972E-004  0.1003382E+03  0.7546771E-02  0.1286143E+00
         21   -1    0    0  501  502  0.00000000000E+00  0.00000000000E+00  0.43758732094E+03  0.43758732094E+03  0.00000000000E+00 0.  1.
         -3   -1    0    0    0  501 -0.00000000000E+00 -0.00000000000E+00 -0.41177203995E+02  0.41177203995E+02  0.00000000000E+00 0.  1.
         24    2    1    2    0    0  0.30176363333E+02 -0.63458973966E+01  0.98563147130E+02  0.13090127559E+03  0.80433616483E+02 0.  0.
         23    2    1    2    0    0 -0.38792581168E+02 -0.56786333011E+02  0.18467569332E+03  0.21798771066E+03  0.93187865757E+02 0.  0.
        -13    1    3    3    0    0  0.41141188285E+02 -0.24151759637E+02  0.23886960425E+02  0.53352523327E+02  0.00000000000E+00 0.  1.
         14    1    3    3    0    0 -0.10964824951E+02  0.17805862241E+02  0.74676186705E+02  0.77548752260E+02  0.00000000000E+00 0. -1.
        -11    1    4    4    0    0 -0.82512058079E+01 -0.75567065998E+02  0.96806384395E+02  0.12308509219E+03  0.00000000000E+00 0. -1.
         11    1    4    4    0    0 -0.30541375360E+02  0.18780732987E+02  0.87869308924E+02  0.94902618464E+02  0.00000000000E+00 0.  1.
         -4    1    1    2    0  502  0.86162178347E+01  0.63132230408E+02  0.11317127650E+03  0.12987553869E+03  0.00000000000E+00 0.  1.
<scales pt_clust_5="13000.00000" pt_clust_6="13000.00000" pt_clust_7="13000.00000" pt_clust_8="13000.00000" pt_clust_9="63.71748"></scales>
<clustering>
<clus scale="   63.717">  1  9  2 -1</clus>
<clus scale="   80.434">  5  6 -1 -1</clus>
<clus scale="   88.619">  2  5  1 -1</clus>
<clus scale="   93.188">  7  8 -1 -1</clus>
<clus scale="   63.717">  1  5  2 -1</clus>
</clustering>
</event>
<event>
 9    2  0.1302972E-004  0.2422380E+03  0.7546771E-02  0.1118975E+00
         21   -1    0    0  501  502  0.00000000000E+00  0.00000000000E+00  0.22964265846E+03  0.22964265846E+03  0.00000000000E+00 0. -1.
          2   -1    0    0  502    0 -0.00000000000E+00 -0.00000000000E+00 -0.56908177198E+03  0.56908177198E+03  0.00000000000E+00 0. -1.
         24    2    1    2    0    0  0.17016433750E+03 -0.15371170706E+03 -0.44861909093E+03  0.51022806954E+03  0.80563040874E+02 0.  0.
         23    2    1    2    0    0 -0.12645550264E+03  0.14991388398E+03  0.11342073283E+03  0.24441836512E+03  0.91711001609E+02 0.  0.
        -11    1    3    3    0    0 -0.34562647340E+01 -0.27843481410E+02 -0.41694034333E+02  0.50255325309E+02  0.00000000000E+00 0.  1.
         12    1    3    3    0    0  0.17362060223E+03 -0.12586822565E+03 -0.40692505660E+03  0.45997274423E+03  0.00000000000E+00 0. -1.
        -13    1    4    4    0    0 -0.13308557246E+03  0.10363444170E+03  0.78412179486E+02  0.18601165822E+03  0.00000000000E+00 0. -1.
         13    1    4    4    0    0  0.66300698197E+01  0.46279442283E+02  0.35008553346E+02  0.58406706903E+02  0.00000000000E+00 0.  1.
          1    1    1    2  501    0 -0.43708834857E+02  0.37978230772E+01 -0.42407554224E+01  0.44077995771E+02  0.00000000000E+00 0. -1.
<scales pt_clust_5="13000.00000" pt_clust_6="13000.00000" pt_clust_7="13000.00000" pt_clust_8="13000.00000" pt_clust_9="43.87352"></scales>
<clustering>
<clus scale="   43.874">  1  9  2 -1</clus>
<clus scale="   80.563">  5  6 -1 -1</clus>
<clus scale="   91.711">  7  8 -1 -1</clus>
<clus scale="  238.241">  2  5  1 -1</clus>
<clus scale="   43.874">  1  5  2 -1</clus>
</clustering>
</event>
<event>
 9    2  0.1302972E-004  0.1324220E+03  0.7546771E-02  0.1229467E+00
          2   -1    0    0  502    0 -0.00000000000E+00  0.00000000000E+00  0.74545500390E+03  0.74545500390E+03  0.00000000000E+00 0. -1.
         21   -1    0    0  501  502  0.00000000000E+00 -0.00000000000E+00 -0.39458459706E+02  0.39458459706E+02  0.00000000000E+00 0.  1.
         24    2    1    2    0    0  0.10591737931E+03 -0.18562215901E+02  0.34226948474E+03  0.36754588224E+03  0.79865688927E+02 0.  0.
         23    2    1    2    0    0 -0.48283783540E+02  0.51109491399E+01  0.10832514847E+03  0.15519835343E+03  0.99973724366E+02 0.  0.
        -11    1    3    3    0    0  0.11307564587E+02 -0.34655349924E+02  0.71196882916E+02  0.79986564073E+02  0.00000000000E+00 0.  1.
         12    1    3    3    0    0  0.94609814726E+02  0.16093134023E+02  0.27107260183E+03  0.28755931817E+03  0.00000000000E+00 0. -1.
        -11    1    4    4    0    0 -0.45953355247E+02 -0.42380260703E+02  0.50692343274E+02  0.80482985918E+02  0.00000000000E+00 0.  1.
         11    1    4    4    0    0 -0.23304282930E+01  0.47491209843E+02  0.57632805193E+02  0.74715367514E+02  0.00000000000E+00 0. -1.
          1    1    1    2  501    0 -0.57633595774E+02  0.13451266761E+02  0.25540191099E+03  0.26216922793E+03  0.00000000000E+00 0. -1.
<scales pt_clust_5="13000.00000" pt_clust_6="13000.00000" pt_clust_7="13000.00000" pt_clust_8="13000.00000" pt_clust_9="59.18253"></scales>
<clustering>
<clus scale="   59.183">  2  9  1 -1</clus>
<clus scale="   79.866">  5  6 -1 -1</clus>
<clus scale="   99.974">  7  8 -1 -1</clus>
<clus scale="  117.980">  1  5  2 -1</clus>
<clus scale="   59.183">  2  5  1 -1</clus>
</clustering>
</event>
<event>
 9    2  0.1302972E-004  0.1001513E+03  0.7546771E-02  0.1286039E+00
          2   -1    0    0  502    0 -0.00000000000E+00  0.00000000000E+00  0.21690641415E+03  0.21690641415E+03  0.00000000000E+00 0. -1.
         21   -1    0    0  501  502  0.00000000000E+00 -0.00000000000E+00 -0.14066128378E+03  0.14066128378E+03  0.00000000000E+00 0.  1.
         23    2    1    2    0    0 -0.24656013412E+02  0.36035062336E+02  0.15995155746E+03  0.19016261077E+03  0.93117522993E+02 0.  0.
         24    2    1    2    0    0 -0.12802218844E+02  0.16158714715E+00 -0.80618089627E+02  0.11522410953E+03  0.81322789704E+02 0.  0.
        -13    1    4    4    0    0 -0.46000393373E+02 -0.10943700265E+02 -0.47951640713E+02  0.67343601129E+02  0.00000000000E+00 0.  1.
         14    1    4    4    0    0  0.33198174529E+02  0.11105287412E+02 -0.32666448913E+02  0.47880508405E+02  0.00000000000E+00 0. -1.
        -13    1    3    3    0    0 -0.57413624439E+02  0.36430530679E+02  0.88904299598E+02  0.11192623608E+03  0.00000000000E+00 0. -1.
         13    1    3    3    0    0  0.32757611027E+02 -0.39546834246E+00  0.71047257861E+02  0.78236374692E+02  0.00000000000E+00 0.  1.
          1    1    1    2  501    0  0.37458232256E+02 -0.36196649483E+02 -0.30883374678E+01  0.52180977625E+02  0.00000000000E+00 0. -1.
<scales pt_clust_5="13000.00000" pt_clust_6="13000.00000" pt_clust_7="13000.00000" pt_clust_8="13000.00000" pt_clust_9="52.08951"></scales>
<clustering>
<clus scale="   52.090">  2  9  1 -1</clus>
<clus scale="   81.323">  5  6 -1 -1</clus>
<clus scale="   89.291">  2  5  1 -1</clus>
<clus scale="   93.118">  7  8 -1 -1</clus>
<clus scale="   52.090">  2  5  1 -1</clus>
</clustering>
</event>
<event>
 9    2  0.1302972E-004  0.1301777E+03  0.7546771E-02  0.1230344E+00
         -1   -1    0    0    0  501 -0.00000000000E+00  0.00000000000E+00  0.18316371751E+03  0.18316371751E+03  0.00000000000E+00 0.  1.
         21   -1    0    0  501  502  0.00000000000E+00 -0.00000000000E+00 -0.11676118147E+03  0.11676118147E+03  0.00000000000E+00 0. -1.
         24    2    1    2    0    0 -0.55361804664E+01 -0.84232067225E+02  0.61438423673E+02  0.13141834986E+03  0.79814862858E+02 0.  0.
         23    2    1    2    0    0 -0.71564697873E+01  0.10719121795E+03  0.10288059053E+02  0.14173771685E+03  0.91883425891E+02 0.  0.
        -11    1    3    3    0    0  0.30484380851E+02 -0.27063031634E+02  0.47195853825E+02  0.62363080227E+02  0.00000000000E+00 0.  1.
         12    1    3    3    0    0 -0.36020561318E+02 -0.57169035592E+02  0.14242569848E+02  0.69055269632E+02  0.00000000000E+00 0. -1.
        -11    1    4    4    0    0  0.35766086855E+02  0.75813421305E+02 -0.10840768330E+02  0.84524612255E+02  0.00000000000E+00 0.  1.
         11    1    4    4    0    0 -0.42922556642E+02  0.31377796649E+02  0.21128827384E+02  0.57213104599E+02  0.00000000000E+00 0. -1.
         -2    1    1    2    0  502  0.12692650254E+02 -0.22959150729E+02 -0.53239466830E+01  0.26768832267E+02  0.00000000000E+00 0.  1.
<scales pt_clust_5="13000.00000" pt_clust_6="13000.00000" pt_clust_7="13000.00000" pt_clust_8="13000.00000" pt_clust_9="26.23406"></scales>
<clustering>
<clus scale="   26.234">  2  9  1 -1</clus>
<clus scale="   79.815">  5  6 -1 -1</clus>
<clus scale="   91.883">  7  8 -1 -1</clus>
<clus scale="  121.959">  1  5  2 -1</clus>
<clus scale="   26.234">  2  5  1 -1</clus>
</clustering>
</event>
<event>
 9    2  0.1302972E-004  0.1432210E+03  0.7546771E-02  0.1237007E+00
         -1   -1    0    0    0  501 -0.00000000000E+00  0.00000000000E+00  0.65578513093E+02  0.65578513093E+02  0.00000000000E+00 0.  1.
         21   -1    0    0  501  502  0.00000000000E+00 -0.00000000000E+00 -0.54020140884E+03  0.54020140884E+03  0.00000000000E+00 0.  1.
         24    2    1    2    0    0 -0.12368532111E+01 -0.10305289313E+01 -0.12698763258E+02  0.80879132365E+02  0.79859775031E+02 0.  0.
         23    2    1    2    0    0  0.74934701036E+02 -0.73816710804E+02 -0.28913500160E+03  0.32268910389E+03  0.97288706479E+02 0.  0.
        -13    1    3    3    0    0 -0.20668698178E+02 -0.21916689846E+02  0.21003222827E+02  0.36724266464E+02  0.00000000000E+00 0.  1.
         14    1    3    3    0    0  0.19431844967E+02  0.20886160915E+02 -0.33701986085E+02  0.44154865900E+02  0.00000000000E+00 0. -1.
        -11    1    4    4    0    0  0.88007811413E+02 -0.28470971017E+02 -0.15509020585E+03  0.18057946453E+03  0.00000000000E+00 0. -1.
         11    1    4    4    0    0 -0.13073110377E+02 -0.45345739787E+02 -0.13404479575E+03  0.14210963936E+03  0.00000000000E+00 0.  1.
         -2    1    1    2    0  502 -0.73697847824E+02  0.74847239735E+02 -0.17278913090E+03  0.20221168568E+03  0.00000000000E+00 0.  1.
<scales pt_clust_5="13000.00000" pt_clust_6="13000.00000" pt_clust_7="13000.00000" pt_clust_8="13000.00000" pt_clust_9="105.10547"></scales>
<clustering>
<clus scale="   79.860">  5  6 -1 -1</clus>
<clus scale="   79.876">  1  5  2 -1</clus>
<clus scale="   97.289">  7  8 -1 -1</clus>
<clus scale="  105.105">  2  9  1 -1</clus>
<clus scale="  105.105">  2  5  1 -1</clus>
</clustering>
</event>
<event>
 9    2  0.1302972E-004  0.1607778E+03  0.7546771E-02  0.1189332E+00
         21   -1    0    0  501  502  0.00000000000E+00  0.00000000000E+00  0.63206551435E+03  0.63206551435E+03  0.00000000000E+00 0.  1.
          2   -1    0    0  502    0 -0.00000000000E+00 -0.00000000000E+00 -0.18273138714E+03  0.18273138714E+03  0.00000000000E+00 0. -1.
         24    2    1    2    0    0  0.68655400147E+02 -0.99785609995E+02 -0.12009100921E+03  0.19870044689E+03  0.10192784295E+03 0.  0.
         23    2    1    2    0    0 -0.70259041793E+02  0.14539443608E+03  0.41337271312E+03  0.45350772343E+03  0.93361556648E+02 0.  0.
        -11    1    3    3    0    0  0.21679035913E+02 -0.10304789257E+03 -0.56292430546E+02  0.11940555472E+03  0.00000000000E+00 0.  1.
         12    1    3    3    0    0  0.46976364234E+02  0.32622825733E+01 -0.63798578668E+02  0.79294892171E+02  0.00000000000E+00 0. -1.
        -11    1    4    4    0    0  0.60591133128E+01  0.29117376010E+02  0.17513031148E+03  0.17763772246E+03  0.00000000000E+00 0. -1.
         11    1    4    4    0    0 -0.76318155106E+02  0.11627706007E+03  0.23824240164E+03  0.27587000097E+03  0.00000000000E+00 0.  1.
          1    1    1    2  501    0  0.16036416462E+01 -0.45608826089E+02  0.15605242331E+03  0.16258873117E+03  0.00000000000E+00 0. -1.
<scales pt_clust_5="13000.00000" pt_clust_6="13000.00000" pt_clust_7="13000.00000" pt_clust_8="13000.00000" pt_clust_9="45.63701"></scales>
<clustering>
<clus scale="   45.637">  1  9  2 -1</clus>
<clus scale="   93.362">  7  8 -1 -1</clus>
<clus scale="  101.928">  5  6 -1 -1</clus>
<clus scale="  155.488">  1  7  2 -1</clus>
<clus scale="   45.637">  1  5  2 -1</clus>
</clustering>
</event>
<event>
 9    2  0.1302972E-004  0.1501133E+03  0.7546771E-02  0.1203655E+00
         21   -1    0    0  501  502  0.00000000000E+00  0.00000000000E+00  0.56792812545E+03  0.56792812545E+03  0.00000000000E+00 0. -1.
         -3   -1    0    0    0  501 -0.00000000000E+00 -0.00000000000E+00 -0.65513262209E+02  0.65513262209E+02  0.00000000000E+00 0.  1.
         23    2    1    2    0    0 -0.14699685677E+03 -0.18561863407E+02  0.21454371613E+03  0.27639313819E+03  0.91714459236E+02 0.  0.
         24    2    1    2    0    0  0.84076173349E+02  0.15585709373E+02  0.26841234300E+03  0.29112014506E+03  0.73444099319E+02 0.  0.
        -13    1    4    4    0    0  0.44511753068E+02 -0.28845328932E+02  0.13486840997E+03  0.14492355630E+03  0.00000000000E+00 0.  1.
         14    1    4    4    0    0  0.39564420281E+02  0.44431038306E+02  0.13354393303E+03  0.14619658876E+03  0.00000000000E+00 0. -1.
        -11    1    3    3    0    0 -0.39048838777E+02  0.30518007422E+02  0.99584029587E+02  0.11123461483E+03  0.00000000000E+00 0.  1.
         11    1    3    3    0    0 -0.10794801799E+03 -0.49079870828E+02  0.11495968655E+03  0.16515852336E+03  0.00000000000E+00 0. -1.
         -4    1    1    2    0  502  0.62920683416E+02  0.29761540331E+01  0.19458804116E+02  0.65928104416E+02  0.00000000000E+00 0.  1.
<scales pt_clust_5="13000.00000" pt_clust_6="13000.00000" pt_clust_7="13000.00000" pt_clust_8="13000.00000" pt_clust_9="62.99106"></scales>
<clustering>
<clus scale="   62.991">  1  9  2 -1</clus>
<clus scale="   73.444">  5  6 -1 -1</clus>
<clus scale="   91.714">  7  8 -1 -1</clus>
<clus scale="  139.701">  1  5  2 -1</clus>
<clus scale="   62.991">  1  5  2 -1</clus>
</clustering>
</event>
<event>
 9    2  0.1302972E-004  0.3461470E+03  0.7546771E-02  0.1080886E+00
         21   -1    0    0  501  502  0.00000000000E+00  0.00000000000E+00  0.20759767609E+03  0.20759767609E+03  0.00000000000E+00 0.  1.
          2   -1    0    0  502    0 -0.00000000000E+00 -0.00000000000E+00 -0.11631904911E+04  0.11631904911E+04  0.00000000000E+00 0. -1.
         24    2    1    2    0    0 -0.12470909794E+03  0.16140645431E+03 -0.35387365060E+03  0.41639945383E+03  0.80978651256E+02 0.  0.
         23    2    1    2    0    0 -0.10653603089E+03 -0.38278808878E+03 -0.42689321430E+03  0.58963091632E+03  0.86891623686E+02 0.  0.
        -11    1    3    3    0    0 -0.10471794807E+03  0.15191566421E+03 -0.25304488739E+03  0.31317077245E+03  0.00000000000E+00 0.  1.
         12    1    3    3    0    0 -0.19991149873E+02  0.94907900991E+01 -0.10082876321E+03  0.10322868138E+03  0.00000000000E+00 0. -1.
        -11    1    4    4    0    0 -0.37677972924E+02 -0.24168879573E+03 -0.21333047901E+03  0.32456585911E+03  0.00000000000E+00 0.  1.
         11    1    4    4    0    0 -0.68858057964E+02 -0.14109929306E+03 -0.21356273529E+03  0.26506505721E+03  0.00000000000E+00 0. -1.
          1    1    1    2  501    0  0.23124512883E+03  0.22138163447E+03 -0.17482595013E+03  0.36475779708E+03  0.00000000000E+00 0. -1.
<scales pt_clust_5="13000.00000" pt_clust_6="13000.00000" pt_clust_7="13000.00000" pt_clust_8="13000.00000" pt_clust_9="335.06355"></scales>
<clustering>
<clus scale="   80.979">  5  6 -1 -1</clus>
<clus scale="   86.892">  7  8 -1 -1</clus>
<clus scale="  219.458">  2  5  1 -1</clus>
<clus scale="  335.064">  1  9  2 -1</clus>
<clus scale="  335.064">  1  5  2 -1</clus>
</clustering>
</event>
<event>
 9    2  0.1302972E-004  0.9480319E+02  0.7546771E-02  0.1297028E+00
         21   -1    0    0  501  502  0.00000000000E+00  0.00000000000E+00  0.47774676754E+02  0.47774676754E+02  0.00000000000E+00 0.  1.
         -3   -1    0    0    0  501 -0.00000000000E+00 -0.00000000000E+00 -0.54657654545E+03  0.54657654545E+03  0.00000000000E+00 0.  1.
         23    2    1    2    0    0 -0.23145984367E+02 -0.18625685760E+02 -0.32858560557E+03  0.34254485202E+03  0.92118525256E+02 0.  0.
         24    2    1    2    0    0 -0.24802167080E+02  0.31794174564E+01 -0.13879970179E+02  0.87554585037E+02  0.82752012674E+02 0.  0.
        -13    1    4    4    0    0 -0.55210343727E+02 -0.34734750943E+01 -0.90165777518E+01  0.56049493825E+02  0.00000000000E+00 0.  1.
         14    1    4    4    0    0  0.30408176648E+02  0.66528925507E+01 -0.48633924276E+01  0.31505091211E+02  0.00000000000E+00 0. -1.
        -13    1    3    3    0    0 -0.57036985674E+02 -0.21254423603E+02 -0.24169284242E+03  0.24923964037E+03  0.00000000000E+00 0.  1.
         13    1    3    3    0    0  0.33891001307E+02  0.26287378433E+01 -0.86892763153E+02  0.93305211647E+02  0.00000000000E+00 0. -1.
         -4    1    1    2    0  502  0.47948151447E+02  0.15446268304E+02 -0.15633629295E+03  0.16425178515E+03  0.00000000000E+00 0.  1.
<scales pt_clust_5="13000.00000" pt_clust_6="13000.00000" pt_clust_7="13000.00000" pt_clust_8="13000.00000" pt_clust_9="50.37475"></scales>
<clustering>
<clus scale="   50.375">  1  9  2 -1</clus>
<clus scale="   82.752">  5  6 -1 -1</clus>
<clus scale="   85.730">  1  5  2 -1</clus>
<clus scale="   92.119">  7  8 -1 -1</clus>
<clus scale="   50.375">  1  5  2 -1</clus>
</clustering>
</event>
<event>
 9    2  0.1302972E-004  0.2127028E+03  0.7546771E-02  0.1151510E+00
         21   -1    0    0  501  502  0.00000000000E+00  0.00000000000E+00  0.14196447752E+04  0.14196447752E+04  0.00000000000E+00 0.  1.
         -3   -1    0    0    0  501 -0.00000000000E+00 -0.00000000000E+00 -0.41295035581E+03  0.41295035581E+03  0.00000000000E+00 0.  1.
         24    2    1    2    0    0 -0.13215995603E+03  0.37058009438E+02  0.12878635265E+03  0.20495555899E+03  0.81125251862E+02 0.  0.
         23    2    1    2    0    0  0.24508548639E+03  0.11781323115E+03 -0.31131687741E+03  0.42306776247E+03  0.90118146967E+02 0.  0.
        -13    1    3    3    0    0 -0.97153063502E+02 -0.46457987495E+01  0.11120352080E+03  0.14773802568E+03  0.00000000000E+00 0.  1.
         14    1    3    3    0    0 -0.35006892524E+02  0.41703808187E+02  0.17582831850E+02  0.57217533304E+02  0.00000000000E+00 0. -1.
        -13    1    4    4    0    0  0.22615584033E+03  0.10094957633E+03 -0.31119198538E+03  0.39771564320E+03  0.00000000000E+00 0.  1.
         13    1    4    4    0    0  0.18929646057E+02  0.16863654817E+02 -0.12489202257E+00  0.25352119273E+02  0.00000000000E+00 0. -1.
         -4    1    1    2    0  502 -0.11292553036E+03 -0.15487124059E+03  0.11892249442E+04  0.12045718096E+04  0.00000000000E+00 0.  1.
<scales pt_clust_5="13000.00000" pt_clust_6="13000.00000" pt_clust_7="13000.00000" pt_clust_8="13000.00000" pt_clust_9="192.66863"></scales>
<clustering>
<clus scale="   81.125">  5  6 -1 -1</clus>
<clus scale="   90.118">  7  8 -1 -1</clus>
<clus scale="  159.439">  2  5  1 -1</clus>
<clus scale="  192.669">  1  9  2 -1</clus>
<clus scale="  192.669">  1  5  2 -1</clus>
</clustering>
</event>
<event>
 9    2  0.1302972E-004  0.1033174E+03  0.7546771E-02  0.1282043E+00
         21   -1    0    0  501  502  0.00000000000E+00  0.00000000000E+00  0.43512173107E+02  0.43512173107E+02  0.00000000000E+00 0. -1.
          2   -1    0    0  502    0 -0.00000000000E+00 -0.00000000000E+00 -0.73080821369E+03  0.73080821369E+03  0.00000000000E+00 0. -1.
         24    2    1    2    0    0 -0.46444908184E+02 -0.32623149783E+01 -0.51892458719E+03  0.52701736012E+03  0.79352369108E+02 0.  0.
         23    2    1    2    0    0 -0.22752688124E+02 -0.25158909769E+02 -0.70383957711E+02  0.12402438838E+03  0.96319737602E+02 0.  0.
        -11    1    3    3    0    0 -0.21236483359E+02  0.21745773889E+02 -0.65548206664E+02  0.72252572994E+02  0.00000000000E+00 0.  1.
         12    1    3    3    0    0 -0.25208424825E+02 -0.25008088867E+02 -0.45337638052E+03  0.45476478712E+03  0.00000000000E+00 0. -1.
        -13    1    4    4    0    0  0.10151790048E+02 -0.28514348588E+02 -0.83214229194E+02  0.88547924069E+02  0.00000000000E+00 0.  1.
         13    1    4    4    0    0 -0.32904478172E+02  0.33554388197E+01  0.12830271483E+02  0.35476464308E+02  0.00000000000E+00 0. -1.
          1    1    1    2  501    0  0.69197596308E+02  0.28421224747E+02 -0.97987495681E+02  0.12327863830E+03  0.00000000000E+00 0. -1.
<scales pt_clust_5="13000.00000" pt_clust_6="13000.00000" pt_clust_7="13000.00000" pt_clust_8="13000.00000" pt_clust_9="74.80691"></scales>
<clustering>
<clus scale="   74.807">  1  9  2 -1</clus>
<clus scale="   79.352">  5  6 -1 -1</clus>
<clus scale="   87.714">  2  5  1 -1</clus>
<clus scale="   96.320">  7  8 -1 -1</clus>
<clus scale="   74.807">  1  5  2 -1</clus>
</clustering>
</event>
<event>
 9    2  0.1302972E-004  0.9482267E+02  0.7546771E-02  0.1295558E+00
         21   -1    0    0  501  502  0.00000000000E+00  0.00000000000E+00  0.12059764083E+03  0.12059764083E+03  0.00000000000E+00 0. -1.
         -3   -1    0    0    0  501 -0.00000000000E+00 -0.00000000000E+00 -0.28146138988E+03  0.28146138988E+03  0.00000000000E+00 0.  1.
         23    2    1    2    0    0  0.25525613258E+02 -0.12719142275E+01 -0.18779166157E+03  0.21015820135E+03  0.90816225105E+02 0.  0.
         24    2    1    2    0    0 -0.29773938289E+02 -0.19001470648E+02 -0.55794906400E+02  0.10662408476E+03  0.83714279438E+02 0.  0.
        -11    1    4    4    0    0 -0.27554315434E+00  0.29809427060E+02 -0.34866747083E+02  0.45873390085E+02  0.00000000000E+00 0.  1.
         12    1    4    4    0    0 -0.29498395135E+02 -0.48810897708E+02 -0.20928159317E+02  0.60750694671E+02  0.00000000000E+00 0. -1.
        -13    1    3    3    0    0  0.36801275035E+01 -0.27329322342E+02 -0.10296844267E+02  0.29435696016E+02  0.00000000000E+00 0. -1.
         13    1    3    3    0    0  0.21845485754E+02  0.26057408114E+02 -0.17749481730E+03  0.18072250533E+03  0.00000000000E+00 0.  1.
         -4    1    1    2    0  502  0.42483250314E+01  0.20273384876E+02  0.82722818924E+02  0.85276744607E+02  0.00000000000E+00 0.  1.
<scales pt_clust_5="13000.00000" pt_clust_6="13000.00000" pt_clust_7="13000.00000" pt_clust_8="13000.00000" pt_clust_9="20.71372"></scales>
<clustering>
<clus scale="   20.714">  1  9  2 -1</clus>
<clus scale="   83.714">  5  6 -1 -1</clus>
<clus scale="   88.044">  1  5  2 -1</clus>
<clus scale="   90.816">  7  8 -1 -1</clus>
<clus scale="   20.714">  1  5  2 -1</clus>
</clustering>
</event>
<event>
 9    2  0.1302972E-004  0.1060411E+03  0.7546771E-02  0.1273918E+00
         21   -1    0    0  501  502  0.00000000000E+00  0.00000000000E+00  0.41956262831E+03  0.41956262831E+03  0.00000000000E+00 0.  1.
         -3   -1    0    0    0  501 -0.00000000000E+00 -0.00000000000E+00 -0.86717163523E+02  0.86717163523E+02  0.00000000000E+00 0.  1.
         24    2    1    2    0    0 -0.46623855062E+02 -0.45129019718E+02  0.11923352486E+02  0.10312435227E+03  0.79259405842E+02 0.  0.
         23    2    1    2    0    0  0.53462150450E+02 -0.26366768227E+02  0.46417378969E+02  0.11941038040E+03  0.92470848812E+02 0.  0.
        -11    1    3    3    0    0 -0.15196188501E+02 -0.43662227197E+02 -0.26638229164E+02  0.53356438053E+02  0.00000000000E+00 0.  1.
         12    1    3    3    0    0 -0.31427666561E+02 -0.14667925206E+01  0.38561581650E+02  0.49767914213E+02  0.00000000000E+00 0. -1.
        -11    1    4    4    0    0  0.35330274201E+02 -0.43694052877E+01  0.72501922157E+02  0.80770345388E+02  0.00000000000E+00 0.  1.
         11    1    4    4    0    0  0.18131876250E+02 -0.21997362940E+02 -0.26084543188E+02  0.38640035015E+02  0.00000000000E+00 0. -1.
         -4    1    1    2    0  502 -0.68382953885E+01  0.71495787945E+02  0.27450473333E+03  0.28374505916E+03  0.00000000000E+00 0.  1.
<scales pt_clust_5="13000.00000" pt_clust_6="13000.00000" pt_clust_7="13000.00000" pt_clust_8="13000.00000" pt_clust_9="71.82207"></scales>
<clustering>
<clus scale="   71.822">  1  9  2 -1</clus>
<clus scale="   79.259">  5  6 -1 -1</clus>
<clus scale="   92.471">  7  8 -1 -1</clus>
<clus scale="   94.741">  2  5  1 -1</clus>
<clus scale="   71.822">  1  5  2 -1</clus>
</clustering>
</event>
<event>
 9    2  0.1302972E-004  0.1526902E+03  0.7546771E-02  0.1198848E+00
         21   -1    0    0  501  502  0.00000000000E+00  0.00000000000E+00  0.19670389604E+02  0.19670389604E+02  0.00000000000E+00 0. -1.
          2   -1    0    0  502    0 -0.00000000000E+00 -0.00000000000E+00 -0.19299562301E+04  0.19299562301E+04  0.00000000000E+00 0. -1.
         24    2    1    2    0    0  0.26240353944E+02 -0.11350461991E+03 -0.10308872878E+04  0.10405764370E+04  0.80615545363E+02 0.  0.
         23    2    1    2    0    0  0.22357253785E+02  0.14472678986E+03 -0.62852235798E+03  0.65161006066E+03  0.90053462796E+02 0.  0.
        -13    1    3    3    0    0 -0.16772421720E+02 -0.16822885140E+02 -0.70882777137E+02  0.74757552725E+02  0.00000000000E+00 0.  1.
         14    1    3    3    0    0  0.43012775664E+02 -0.96681734768E+02 -0.96000451070E+03  0.96581888430E+03  0.00000000000E+00 0. -1.
        -11    1    4    4    0    0 -0.17869250004E+02  0.39023025503E+02 -0.72921953634E+02  0.84615116480E+02  0.00000000000E+00 0.  1.
         11    1    4    4    0    0  0.40226503790E+02  0.10570376435E+03 -0.55560040435E+03  0.56699494418E+03  0.00000000000E+00 0. -1.
          1    1    1    2  501    0 -0.48597607729E+02 -0.31222169949E+02 -0.25087619470E+03  0.25744012205E+03  0.00000000000E+00 0. -1.
<scales pt_clust_5="13000.00000" pt_clust_6="13000.00000" pt_clust_7="13000.00000" pt_clust_8="13000.00000" pt_clust_9="57.76289"></scales>
<clustering>
<clus scale="   57.763">  1  9  2 -1</clus>
<clus scale="   80.616">  5  6 -1 -1</clus>
<clus scale="   90.053">  7  8 -1 -1</clus>
<clus scale="  147.321">  2  5  1 -1</clus>
<clus scale="   57.763">  1  5  2 -1</clus>
</clustering>
</event>
<event>
 9    2  0.1302972E-004  0.2072552E+03  0.7546771E-02  0.1145076E+00
         21   -1    0    0  501  502  0.00000000000E+00  0.00000000000E+00  0.11586244311E+03  0.11586244311E+03  0.00000000000E+00 0.  1.
          2   -1    0    0  502    0 -0.00000000000E+00 -0.00000000000E+00 -0.48469287134E+03  0.48469287134E+03  0.00000000000E+00 0. -1.
         23    2    1    2    0    0 -0.17201081434E+03 -0.22313416992E+02 -0.20162928440E+03  0.28322396308E+03  0.97343906385E+02 0.  0.
         24    2    1    2    0    0  0.20048630510E+03 -0.13186429470E+02 -0.10799438834E+03  0.24265516662E+03  0.82765340076E+02 0.  0.
        -11    1    4    4    0    0  0.14539210313E+03 -0.35455770733E+02 -0.45497231618E+02  0.15641602672E+03  0.00000000000E+00 0.  1.
         12    1    4    4    0    0  0.55094201967E+02  0.22269341264E+02 -0.62497156724E+02  0.86239139892E+02  0.00000000000E+00 0. -1.
        -13    1    3    3    0    0 -0.10506037848E+02 -0.34304502176E+02 -0.25891504776E+02  0.44244160297E+02  0.00000000000E+00 0.  1.
         13    1    3    3    0    0 -0.16150477649E+03  0.11991085185E+02 -0.17573777962E+03  0.23897980278E+03  0.00000000000E+00 0. -1.
          1    1    1    2  501    0 -0.28475490763E+02  0.35499846461E+02 -0.59206755495E+02  0.74676184753E+02  0.00000000000E+00 0. -1.
<scales pt_clust_5="13000.00000" pt_clust_6="13000.00000" pt_clust_7="13000.00000" pt_clust_8="13000.00000" pt_clust_9="45.50928"></scales>
<clustering>
<clus scale="   45.509">  1  9  2 -1</clus>
<clus scale="   82.765">  5  6 -1 -1</clus>
<clus scale="   97.344">  7  8 -1 -1</clus>
<clus scale="  200.821">  1  5  2 -1</clus>
<clus scale="   45.509">  1  5  2 -1</clus>
</clustering>
</event>
<event>
 9    2  0.1302972E-004  0.4105256E+03  0.7546771E-02  0.1040354E+00
          2   -1    0    0  502    0 -0.00000000000E+00  0.00000000000E+00  0.22836802038E+04  0.22836802038E+04  0.00000000000E+00 0. -1.
         21   -1    0    0  501  502  0.00000000000E+00 -0.00000000000E+00 -0.14286657106E+03  0.14286657106E+03  0.00000000000E+00 0. -1.
         24    2    1    2    0    0  0.39606926787E+03  0.19989610891E+03  0.10402345647E+04  0.11338181282E+04  0.81401959271E+02 0.  0.
         23    2    1    2    0    0 -0.21454948493E+03 -0.26973805722E+03  0.29081569594E+03  0.45993572633E+03  0.90426778922E+02 0.  0.
        -13    1    3    3    0    0  0.35043302716E+02  0.27629399397E+02  0.17481230875E+03  0.18041829194E+03  0.00000000000E+00 0.  1.
         14    1    3    3    0    0  0.36102596516E+03  0.17226670952E+03  0.86542225595E+03  0.95339983628E+03  0.00000000000E+00 0. -1.
        -13    1    4    4    0    0 -0.34395085787E+02 -0.12005912786E+02  0.58722341832E+02  0.69104828329E+02  0.00000000000E+00 0.  1.
         13    1    4    4    0    0 -0.18015439914E+03 -0.25773214444E+03  0.23209335411E+03  0.39083089800E+03  0.00000000000E+00 0. -1.
          1    1    1    2  501    0 -0.18151978294E+03  0.69841948312E+02  0.80976337214E+03  0.83279292036E+03  0.00000000000E+00 0. -1.
<scales pt_clust_5="13000.00000" pt_clust_6="13000.00000" pt_clust_7="13000.00000" pt_clust_8="13000.00000" pt_clust_9="194.49259"></scales>
<clustering>
<clus scale="   81.402">  5  6 -1 -1</clus>
<clus scale="   90.427">  7  8 -1 -1</clus>
<clus scale="  194.493">  2  9  1 -1</clus>
<clus scale="  408.632">  1  5  2 -1</clus>
<clus scale="  194.493">  2  5  1 -1</clus>
</clustering>
</event>
<event>
 9    2  0.1302972E-004  0.1494872E+03  0.7546771E-02  0.1202905E+00
         21   -1    0    0  501  502  0.00000000000E+00  0.00000000000E+00  0.76908671776E+02  0.76908671776E+02  0.00000000000E+00 0.  1.
          2   -1    0    0  502    0 -0.00000000000E+00 -0.00000000000E+00 -0.60952784770E+03  0.60952784770E+03  0.00000000000E+00 0. -1.
         23    2    1    2    0    0  0.88218689017E+02 -0.92322770282E+02 -0.33678455807E+03  0.37139301319E+03  0.90569866337E+02 0.  0.
         24    2    1    2    0    0  0.25118202272E+01  0.12623872932E+03 -0.11707226897E+03  0.19020030388E+03  0.80794265960E+02 0.  0.
        -13    1    4    4    0    0  0.29706156715E+02  0.10413378164E+03 -0.61592818042E+02  0.12457919352E+03  0.00000000000E+00 0.  1.
         14    1    4    4    0    0 -0.27194336487E+02  0.22104947688E+02 -0.55479450925E+02  0.65621110355E+02  0.00000000000E+00 0. -1.
        -13    1    3    3    0    0  0.98628943872E+02 -0.52042839803E+02 -0.27654603634E+03  0.29818423158E+03  0.00000000000E+00 0.  1.
         13    1    3    3    0    0 -0.10410254855E+02 -0.40279930479E+02 -0.60238521726E+02  0.73208781613E+02  0.00000000000E+00 0. -1.
          1    1    1    2  501    0 -0.90730509244E+02 -0.33915959041E+02 -0.78762348893E+02  0.12484320241E+03  0.00000000000E+00 0. -1.
<scales pt_clust_5="13000.00000" pt_clust_6="13000.00000" pt_clust_7="13000.00000" pt_clust_8="13000.00000" pt_clust_9="96.86236"></scales>
<clustering>
<clus scale="   80.794">  5  6 -1 -1</clus>
<clus scale="   90.570">  7  8 -1 -1</clus>
<clus scale="   96.862">  1  9  2 -1</clus>
<clus scale="  143.775">  1  5  2 -1</clus>
<clus scale="   96.862">  1  5  2 -1</clus>
</clustering>
</event>
<event>
 9    2  0.1302972E-004  0.1516162E+03  0.7546771E-02  0.1218081E+00
         21   -1    0    0  501  502  0.00000000000E+00  0.00000000000E+00  0.27713938222E+03  0.27713938222E+03  0.00000000000E+00 0. -1.
          4   -1    0    0  502    0 -0.00000000000E+00 -0.00000000000E+00 -0.38428836863E+03  0.38428836863E+03  0.00000000000E+00 0. -1.
         23    2    1    2    0    0  0.42500606904E+01 -0.18216239691E+02 -0.19767070646E+03  0.22138379366E+03  0.97914153718E+02 0.  0.
         24    2    1    2    0    0 -0.10455897432E+03  0.92032589721E+02 -0.11525211612E+03  0.19951619718E+03  0.84386527282E+02 0.  0.
        -11    1    4    4    0    0 -0.33616987970E+02 -0.73094664872E-01  0.29187445951E+01  0.33743537056E+02  0.00000000000E+00 0.  1.
         12    1    4    4    0    0 -0.70941986346E+02  0.92105684386E+02 -0.11817086072E+03  0.16577266013E+03  0.00000000000E+00 0. -1.
        -11    1    3    3    0    0  0.35999852025E+01  0.29818263675E+02 -0.15254697861E+03  0.15547562325E+03  0.00000000000E+00 0.  1.
         11    1    3    3    0    0  0.65007548792E+00 -0.48034503365E+02 -0.45123727852E+02  0.65908170411E+02  0.00000000000E+00 0. -1.
          3    1    1    2  501    0  0.10030891363E+03 -0.73816350030E+02  0.20577383617E+03  0.24052776001E+03  0.00000000000E+00 0. -1.
<scales pt_clust_5="13000.00000" pt_clust_6="13000.00000" pt_clust_7="13000.00000" pt_clust_8="13000.00000" pt_clust_9="125.96181"></scales>
<clustering>
<clus scale="   84.387">  5  6 -1 -1</clus>
<clus scale="   97.914">  7  8 -1 -1</clus>
<clus scale="   99.685">  2  7  1 -1</clus>
<clus scale="  125.962">  1  9  2 -1</clus>
<clus scale="  125.962">  1  5  2 -1</clus>
</clustering>
</event>
<event>
 9    2  0.1302972E-004  0.1651603E+03  0.7546771E-02  0.1197762E+00
         21   -1    0    0  501  502  0.00000000000E+00  0.00000000000E+00  0.45555743811E+03  0.45555743811E+03  0.00000000000E+00 0. -1.
          4   -1    0    0  502    0 -0.00000000000E+00 -0.00000000000E+00 -0.15426072533E+03  0.15426072533E+03  0.00000000000E+00 0. -1.
         23    2    1    2    0    0  0.27049631620E+02 -0.71218571472E+02  0.19282189751E+03  0.22668922434E+03  0.91673075563E+02 0.  0.
         24    2    1    2    0    0  0.10223325538E+03  0.13769965792E+03 -0.22438392235E+02  0.18749645809E+03  0.72378215315E+02 0.  0.
        -11    1    4    4    0    0  0.72502718557E+02  0.42762632822E+02  0.49261088651E+01  0.84318168342E+02  0.00000000000E+00 0.  1.
         12    1    4    4    0    0  0.29730536822E+02  0.94937025097E+02 -0.27364501100E+02  0.10317828974E+03  0.00000000000E+00 0. -1.
        -11    1    3    3    0    0 -0.75479781132E+01 -0.66231371567E+02  0.61159718823E+02  0.90465892798E+02  0.00000000000E+00 0. -1.
         11    1    3    3    0    0  0.34597609733E+02 -0.49871999045E+01  0.13166217868E+03  0.13622333155E+03  0.00000000000E+00 0.  1.
          3    1    1    2  501    0 -0.12928288700E+03 -0.66481086447E+02  0.13091320751E+03  0.19563248101E+03  0.00000000000E+00 0. -1.
<scales pt_clust_5="13000.00000" pt_clust_6="13000.00000" pt_clust_7="13000.00000" pt_clust_8="13000.00000" pt_clust_9="148.45649"></scales>
<clustering>
<clus scale="   72.378">  5  6 -1 -1</clus>
<clus scale="   91.673">  7  8 -1 -1</clus>
<clus scale="  119.196">  2  7  1 -1</clus>
<clus scale="  148.456">  1  9  2 -1</clus>
<clus scale="  148.456">  1  5  2 -1</clus>
</clustering>
</event>
<event>
 9    2  0.1302972E-004  0.1276212E+03  0.7546771E-02  0.1234253E+00
         21   -1    0    0  501  502  0.00000000000E+00  0.00000000000E+00  0.12531161371E+03  0.12531161371E+03  0.00000000000E+00 0.  1.
          4   -1    0    0  502    0 -0.00000000000E+00 -0.00000000000E+00 -0.25440351112E+03  0.25440351112E+03  0.00000000000E+00 0. -1.
         23    2    1    2    0    0 -0.61393083194E+02 -0.77085284158E+02 -0.13555306655E+03  0.19099152073E+03  0.91607180080E+02 0.  0.
         24    2    1    2    0    0  0.45439411512E+02  0.61998268399E+02 -0.54821397936E+02  0.12362605643E+03  0.79809089423E+02 0.  0.
        -11    1    4    4    0    0  0.44762651773E+02  0.57758518448E+02 -0.45964722653E+01  0.73217955477E+02  0.00000000000E+00 0.  1.
         12    1    4    4    0    0  0.67675973908E+00  0.42397499516E+01 -0.50224925671E+02  0.50408100956E+02  0.00000000000E+00 0. -1.
        -11    1    3    3    0    0  0.22001387048E+02 -0.16396423951E+02 -0.11734120412E+02  0.29842810395E+02  0.00000000000E+00 0. -1.
         11    1    3    3    0    0 -0.83394470242E+02 -0.60688860208E+02 -0.12381894614E+03  0.16114871034E+03  0.00000000000E+00 0.  1.
          3    1    1    2  501    0  0.15953671682E+02  0.15087015759E+02  0.61282567073E+02  0.65097547663E+02  0.00000000000E+00 0. -1.
<scales pt_clust_5="13000.00000" pt_clust_6="13000.00000" pt_clust_7="13000.00000" pt_clust_8="13000.00000" pt_clust_9="21.95763"></scales>
<clustering>
<clus scale="   21.958">  1  9  2 -1</clus>
<clus scale="   79.809">  5  6 -1 -1</clus>
<clus scale="   91.607">  7  8 -1 -1</clus>
<clus scale="  119.435">  1  5  2 -1</clus>
<clus scale="   21.958">  1  5  2 -1</clus>
</clustering>
</event>
<event>
 9    2  0.1302972E-004  0.9288582E+02  0.7546771E-02  0.1299356E+00
         -1   -1    0    0    0  501 -0.00000000000E+00  0.00000000000E+00  0.19710764056E+03  0.19710764056E+03  0.00000000000E+00 0.  1.
         21   -1    0    0  501  502  0.00000000000E+00 -0.00000000000E+00 -0.13606440407E+03  0.13606440407E+03  0.00000000000E+00 0.  1.
         23    2    1    2    0    0  0.54653094428E+01  0.31525152773E+02  0.15539261605E+03  0.18147921168E+03  0.88114325087E+02 0.  0.
         24    2    1    2    0    0  0.11767191312E+02 -0.17445676656E+02 -0.41748282696E+02  0.94578332861E+02  0.82215105141E+02 0.  0.
        -13    1    4    4    0    0 -0.19002918604E+02  0.17979237293E+02 -0.39784387988E+02  0.47614718488E+02  0.00000000000E+00 0.  1.
         14    1    4    4    0    0  0.30770109915E+02 -0.35424913949E+02 -0.19638947074E+01  0.46963614373E+02  0.00000000000E+00 0. -1.
        -13    1    3    3    0    0  0.29916120950E+02  0.39361479730E+01  0.13699544061E+03  0.14027907293E+03  0.00000000000E+00 0.  1.
         13    1    3    3    0    0 -0.24450811507E+02  0.27589004800E+02  0.18397175438E+02  0.41200138754E+02  0.00000000000E+00 0. -1.
         -2    1    1    2    0  502 -0.17232500754E+02 -0.14079476117E+02 -0.52601096855E+02  0.57114500088E+02  0.00000000000E+00 0.  1.
<scales pt_clust_5="13000.00000" pt_clust_6="13000.00000" pt_clust_7="13000.00000" pt_clust_8="13000.00000" pt_clust_9="22.25288"></scales>
<clustering>
<clus scale="   22.253">  2  9  1 -1</clus>
<clus scale="   82.215">  5  6 -1 -1</clus>
<clus scale="   87.310">  2  5  1 -1</clus>
<clus scale="   88.114">  7  8 -1 -1</clus>
<clus scale="   22.253">  2  5  1 -1</clus>
</clustering>
</event>
<event>
 9    2  0.1302972E-004  0.9355811E+02  0.7546771E-02  0.1302691E+00
         21   -1    0    0  501  502  0.00000000000E+00  0.00000000000E+00  0.77348957632E+02  0.77348957632E+02  0.00000000000E+00 0.  1.
          2   -1    0    0  502    0 -0.00000000000E+00 -0.00000000000E+00 -0.14700038798E+03  0.14700038798E+03  0.00000000000E+00 0. -1.
         23    2    1    2    0    0  0.24985396571E+01 -0.37672432548E+01 -0.74974753518E+02  0.11982450635E+03  0.93360933125E+02 0.  0.
         24    2    1    2    0    0  0.18482870642E+02  0.27925316842E+01 -0.19441398015E+01  0.82299051122E+02  0.80124524308E+02 0.  0.
        -11    1    4    4    0    0 -0.23078118141E+02  0.25077281255E+02 -0.72500755361E+01  0.34842978738E+02  0.00000000000E+00 0.  1.
         12    1    4    4    0    0  0.41560988784E+02 -0.22284749570E+02  0.53059357346E+01  0.47456072384E+02  0.00000000000E+00 0. -1.
        -11    1    3    3    0    0 -0.27706380895E+02  0.11142994566E+02  0.74534116412E+01  0.30779265997E+02  0.00000000000E+00 0.  1.
         11    1    3    3    0    0  0.30204920552E+02 -0.14910237821E+02 -0.82428165160E+02  0.89045240350E+02  0.00000000000E+00 0. -1.
          1    1    1    2  501    0 -0.20981410299E+02  0.97471157058E+00  0.72674629675E+01  0.22225788147E+02  0.00000000000E+00 0. -1.
<scales pt_clust_5="13000.00000" pt_clust_6="13000.00000" pt_clust_7="13000.00000" pt_clust_8="13000.00000" pt_clust_9="21.00404"></scales>
<clustering>
<clus scale="   21.004">  1  9  2 -1</clus>
<clus scale="   80.125">  5  6 -1 -1</clus>
<clus scale="   80.354">  1  5  2 -1</clus>
<clus scale="   93.361">  7  8 -1 -1</clus>
<clus scale="   21.004">  1  5  2 -1</clus>
</clustering>
</event>
<event>
 9    2  0.1302972E-004  0.1110619E+03  0.7546771E-02  0.1259906E+00
         21   -1    0    0  501  502  0.00000000000E+00  0.00000000000E+00  0.12995259987E+03  0.12995259987E+03  0.00000000000E+00 0. -1.
          2   -1    0    0  502    0 -0.00000000000E+00 -0.00000000000E+00 -0.41780356721E+03  0.41780356721E+03  0.00000000000E+00 0. -1.
         24    2    1    2    0    0 -0.18457167582E+02  0.65974043689E+02 -0.29050487588E+03  0.30947428088E+03  0.81780230725E+02 0.  0.
         23    2    1    2    0    0 -0.19013316481E+02 -0.85114874323E+02 -0.79703082347E+02  0.14579900929E+03  0.85432556673E+02 0.  0.
        -13    1    3    3    0    0 -0.50225011649E+02  0.38837220818E+02 -0.14983985731E+03  0.16273556573E+03  0.00000000000E+00 0.  1.
         14    1    3    3    0    0  0.31767844066E+02  0.27136822871E+02 -0.14066501857E+03  0.14673871514E+03  0.00000000000E+00 0. -1.
        -13    1    4    4    0    0  0.25092906367E+02 -0.78149640792E+01 -0.41111148862E+02  0.48793997318E+02  0.00000000000E+00 0. -1.
         13    1    4    4    0    0 -0.44106222848E+02 -0.77299910244E+02 -0.38591933485E+02  0.97005011972E+02  0.00000000000E+00 0.  1.
          1    1    1    2  501    0  0.37470484064E+02  0.19140830634E+02  0.82356990893E+02  0.92482876914E+02  0.00000000000E+00 0. -1.
<scales pt_clust_5="13000.00000" pt_clust_6="13000.00000" pt_clust_7="13000.00000" pt_clust_8="13000.00000" pt_clust_9="42.07622"></scales>
<clustering>
<clus scale="   42.076">  1  9  2 -1</clus>
<clus scale="   81.780">  5  6 -1 -1</clus>
<clus scale="   85.433">  7  8 -1 -1</clus>
<clus scale="  108.278">  2  5  1 -1</clus>
<clus scale="   42.076">  1  5  2 -1</clus>
</clustering>
</event>
<event>
 9    2  0.2143948E-004  0.9450605E+02  0.7546771E-02  0.1299416E+00
          2   -1    0    0  502    0 -0.00000000000E+00  0.00000000000E+00  0.13487150966E+04  0.13487150966E+04  0.00000000000E+00 0. -1.
         21   -1    0    0  501  502  0.00000000000E+00 -0.00000000000E+00 -0.27433217556E+02  0.27433217556E+02  0.00000000000E+00 0. -1.
         24    2    1    2    0    0 -0.22790240942E+02 -0.15288850032E+01  0.12086168769E+04  0.12114761170E+04  0.79986838373E+02 0.  0.
         23    2    1    2    0    0 -0.13178346507E+01  0.10820726544E+02  0.76255980880E+02  0.12002743872E+03  0.92047740959E+02 0.  0.
        -13    1    3    3    0    0  0.13838910565E+02  0.19370825721E+02  0.13868547298E+03  0.14071391100E+03  0.00000000000E+00 0.  1.
         14    1    3    3    0    0 -0.36629151507E+02 -0.20899710724E+02  0.10699314039E+04  0.10707622060E+04  0.00000000000E+00 0. -1.
        -11    1    4    4    0    0 -0.43706170122E+02  0.21138214473E+02  0.33830215952E+02  0.59173785828E+02  0.00000000000E+00 0. -1.
         11    1    4    4    0    0  0.42388335471E+02 -0.10317487929E+02  0.42425764928E+02  0.60853652897E+02  0.00000000000E+00 0.  1.
          1    1    1    2  501    0  0.24108075592E+02 -0.92918415412E+01  0.36409021271E+02  0.44644758460E+02  0.00000000000E+00 0. -1.
<scales pt_clust_5="13000.00000" pt_clust_6="13000.00000" pt_clust_7="13000.00000" pt_clust_8="13000.00000" pt_clust_9="25.83675"></scales>
<clustering>
<clus scale="   25.837">  2  9  1 -1</clus>
<clus scale="   79.987">  5  6 -1 -1</clus>
<clus scale="   82.804">  1  5  2 -1</clus>
<clus scale="   92.048">  7  8 -1 -1</clus>
<clus scale="   25.837">  2  5  1 -1</clus>
</clustering>
</event>
<event>
 9    2  0.1302972E-004  0.1787899E+03  0.7546771E-02  0.1213692E+00
         21   -1    0    0  501  502  0.00000000000E+00  0.00000000000E+00  0.78346812076E+03  0.78346812076E+03  0.00000000000E+00 0. -1.
          2   -1    0    0  502    0 -0.00000000000E+00 -0.00000000000E+00 -0.87329209459E+02  0.87329209459E+02  0.00000000000E+00 0. -1.
         24    2    1    2    0    0  0.87563354167E+01 -0.45330288568E+01 -0.73967285310E+01  0.67109875570E+02  0.65968189648E+02 0.  0.
         23    2    1    2    0    0 -0.11538316140E+03 -0.10152395271E+03  0.58574249418E+03  0.61265712061E+03  0.92919809767E+02 0.  0.
        -13    1    3    3    0    0  0.33682733152E+01 -0.34491574489E+02 -0.11231139971E+02  0.36430104047E+02  0.00000000000E+00 0.  1.
         14    1    3    3    0    0  0.53880621014E+01  0.29958545632E+02  0.38344114404E+01  0.30679771523E+02  0.00000000000E+00 0. -1.
        -13    1    4    4    0    0 -0.10788681498E+03 -0.55446086549E+02  0.30812263788E+03  0.33113953756E+03  0.00000000000E+00 0. -1.
         13    1    4    4    0    0 -0.74963464186E+01 -0.46077866159E+02  0.27761985629E+03  0.28151758305E+03  0.00000000000E+00 0.  1.
          1    1    1    2  501    0  0.10662682598E+03  0.10605698157E+03  0.11779314566E+03  0.19103033404E+03  0.00000000000E+00 0. -1.
<scales pt_clust_5="13000.00000" pt_clust_6="13000.00000" pt_clust_7="13000.00000" pt_clust_8="13000.00000" pt_clust_9="152.74735"></scales>
<clustering>
<clus scale="   65.968">  5  6 -1 -1</clus>
<clus scale="   66.701">  2  5  1 -1</clus>
<clus scale="   92.920">  7  8 -1 -1</clus>
<clus scale="  152.747">  1  9  2 -1</clus>
<clus scale="  152.747">  1  5  2 -1</clus>
</clustering>
</event>
<event>
 9    2  0.1302972E-004  0.2030304E+03  0.7546771E-02  0.1148932E+00
         -1   -1    0    0    0  501 -0.00000000000E+00  0.00000000000E+00  0.31105880204E+03  0.31105880204E+03  0.00000000000E+00 0.  1.
         21   -1    0    0  501  502  0.00000000000E+00 -0.00000000000E+00 -0.25544062279E+03  0.25544062279E+03  0.00000000000E+00 0.  1.
         23    2    1    2    0    0 -0.14585898573E+03 -0.21433979772E+02  0.16171636257E+02  0.17764053426E+03  0.97777187449E+02 0.  0.
         24    2    1    2    0    0  0.23796410864E+03 -0.12387696096E+02 -0.49968458753E+02  0.25610987188E+03  0.79467273675E+02 0.  0.
        -13    1    4    4    0    0  0.17311970828E+03  0.85951551304E+01 -0.67046153415E+02  0.18584804754E+03  0.00000000000E+00 0.  1.
         14    1    4    4    0    0  0.64844400366E+02 -0.20982851227E+02  0.17077694662E+02  0.70261824338E+02  0.00000000000E+00 0. -1.
        -11    1    3    3    0    0 -0.30008979029E+02  0.33517698219E+02 -0.11568151851E+02  0.46452094178E+02  0.00000000000E+00 0.  1.
         11    1    3    3    0    0 -0.11585000670E+03 -0.54951677991E+02  0.27739788107E+02  0.13118844008E+03  0.00000000000E+00 0. -1.
         -2    1    1    2    0  502 -0.92105122912E+02  0.33821675868E+02  0.89415001753E+02  0.13274901869E+03  0.00000000000E+00 0.  1.
<scales pt_clust_5="13000.00000" pt_clust_6="13000.00000" pt_clust_7="13000.00000" pt_clust_8="13000.00000" pt_clust_9="98.11865"></scales>
<clustering>
<clus scale="   79.467">  5  6 -1 -1</clus>
<clus scale="   97.777">  7  8 -1 -1</clus>
<clus scale="   98.119">  2  9  1 -1</clus>
<clus scale="  194.874">  2  5  1 -1</clus>
<clus scale="   98.119">  2  5  1 -1</clus>
</clustering>
</event>
<event>
 9    2  0.1302972E-004  0.1153719E+03  0.7546771E-02  0.1255549E+00
         21   -1    0    0  501  502  0.00000000000E+00  0.00000000000E+00  0.10419489948E+03  0.10419489948E+03  0.00000000000E+00 0. -1.
          2   -1    0    0  502    0 -0.00000000000E+00 -0.00000000000E+00 -0.29669623163E+03  0.29669623163E+03  0.00000000000E+00 0. -1.
         23    2    1    2    0    0  0.51729048928E+01  0.60752762126E+02 -0.11885371892E+03  0.16204824105E+03  0.91737499833E+02 0.  0.
         24    2    1    2    0    0 -0.18327010663E+02 -0.76501324173E+02 -0.13455029833E+03  0.17457637657E+03  0.78643477526E+02 0.  0.
        -11    1    4    4    0    0 -0.30067971959E+01 -0.77251035999E+02 -0.58377608449E+02  0.96874705473E+02  0.00000000000E+00 0.  1.
         12    1    4    4    0    0 -0.15320213467E+02  0.74971182583E+00 -0.76172689877E+02  0.77701671099E+02  0.00000000000E+00 0. -1.
        -11    1    3    3    0    0 -0.71747779564E+01  0.80589014635E+02 -0.66545257153E+02  0.10475847445E+03  0.00000000000E+00 0.  1.
         11    1    3    3    0    0  0.12347682849E+02 -0.19836252509E+02 -0.52308461765E+02  0.57289766604E+02  0.00000000000E+00 0. -1.
          1    1    1    2  501    0  0.13154105770E+02  0.15748562047E+02  0.60902685087E+02  0.64266513488E+02  0.00000000000E+00 0. -1.
<scales pt_clust_5="13000.00000" pt_clust_6="13000.00000" pt_clust_7="13000.00000" pt_clust_8="13000.00000" pt_clust_9="20.51945"></scales>
<clustering>
<clus scale="   20.519">  1  9  2 -1</clus>
<clus scale="   78.643">  5  6 -1 -1</clus>
<clus scale="   91.737">  7  8 -1 -1</clus>
<clus scale="  105.260">  1  5  2 -1</clus>
<clus scale="   20.519">  1  5  2 -1</clus>
</clustering>
</event>
<event>
 9    2  0.1302972E-004  0.1242507E+03  0.7546771E-02  0.1239335E+00
         21   -1    0    0  501  502  0.00000000000E+00  0.00000000000E+00  0.64039844691E+03  0.64039844691E+03  0.00000000000E+00 0. -1.
          2   -1    0    0  502    0 -0.00000000000E+00 -0.00000000000E+00 -0.29532185858E+02  0.29532185858E+02  0.00000000000E+00 0. -1.
         24    2    1    2    0    0  0.56974992787E+02 -0.72558883210E+02  0.21805374619E+03  0.24961702034E+03  0.79058707810E+02 0.  0.
         23    2    1    2    0    0 -0.65052164185E+02  0.45591389138E+02  0.29286420573E+03  0.31647647585E+03  0.89875235407E+02 0.  0.
        -13    1    3    3    0    0 -0.18497172518E+01 -0.35617776006E+02  0.22689043155E+02  0.42271031461E+02  0.00000000000E+00 0.  1.
         14    1    3    3    0    0  0.58824710039E+02 -0.36941107205E+02  0.19536470303E+03  0.20734598888E+03  0.00000000000E+00 0. -1.
        -11    1    4    4    0    0 -0.57511983246E+02 -0.16911567875E+01  0.81540354905E+02  0.99796381227E+02  0.00000000000E+00 0. -1.
         11    1    4    4    0    0 -0.75401809399E+01  0.47282545925E+02  0.21132385082E+03  0.21668009462E+03  0.00000000000E+00 0.  1.
          1    1    1    2  501    0  0.80771713985E+01  0.26967494073E+02  0.99948309135E+02  0.10383713658E+03  0.00000000000E+00 0. -1.
<scales pt_clust_5="13000.00000" pt_clust_6="13000.00000" pt_clust_7="13000.00000" pt_clust_8="13000.00000" pt_clust_9="28.15114"></scales>
<clustering>
<clus scale="   28.151">  1  9  2 -1</clus>
<clus scale="   79.059">  5  6 -1 -1</clus>
<clus scale="   89.875">  7  8 -1 -1</clus>
<clus scale="  116.666">  2  5  1 -1</clus>
<clus scale="   28.151">  1  5  2 -1</clus>
</clustering>
</event>
<event>
 9    2  0.1302972E-004  0.5660267E+03  0.7546771E-02  0.1017227E+00
          2   -1    0    0  502    0 -0.00000000000E+00  0.00000000000E+00  0.14626266590E+04  0.14626266590E+04  0.00000000000E+00 0. -1.
         21   -1    0    0  501  502  0.00000000000E+00 -0.00000000000E+00 -0.50025444168E+03  0.50025444168E+03  0.00000000000E+00 0. -1.
         23    2    1    2    0    0  0.14320827676E+03 -0.25614604138E+03 -0.13527055165E+03  0.33840356980E+03  0.10049601416E+03 0.  0.
         24    2    1    2    0    0 -0.15301849676E+03 -0.45382669768E+03  0.40441462379E+03  0.63214553406E+03  0.81752409234E+02 0.  0.
        -13    1    4    4    0    0 -0.11057991190E+02 -0.48482470159E+02  0.78813990994E+02  0.93190526655E+02  0.00000000000E+00 0.  1.
         14    1    4    4    0    0 -0.14196050557E+03 -0.40534422753E+03  0.32560063279E+03  0.53895500740E+03  0.00000000000E+00 0. -1.
        -11    1    3    3    0    0  0.96875118625E+02 -0.20989255861E+03 -0.14400509847E+03  0.27235481115E+03  0.00000000000E+00 0. -1.
         11    1    3    3    0    0  0.46333158136E+02 -0.46253482768E+02  0.87345468280E+01  0.66048758651E+02  0.00000000000E+00 0.  1.
          1    1    1    2  501    0  0.98102200033E+01  0.70997273907E+03  0.69322814515E+03  0.99233199679E+03  0.00000000000E+00 0. -1.
<scales pt_clust_5="13000.00000" pt_clust_6="13000.00000" pt_clust_7="13000.00000" pt_clust_8="13000.00000" pt_clust_9="560.09203"></scales>
<clustering>
<clus scale="   81.752">  5  6 -1 -1</clus>
<clus scale="  100.496">  7  8 -1 -1</clus>
<clus scale="  310.192">  1  7  2 -1</clus>
<clus scale="  560.092">  2  9  1 -1</clus>
<clus scale="  560.092">  2  5  1 -1</clus>
</clustering>
</event>
<event>
 9    2  0.1302972E-004  0.9178249E+02  0.7546771E-02  0.1303207E+00
          2   -1    0    0  502    0 -0.00000000000E+00  0.00000000000E+00  0.30980252792E+03  0.30980252792E+03  0.00000000000E+00 0. -1.
         21   -1    0    0  501  502  0.00000000000E+00 -0.00000000000E+00 -0.45687033753E+02  0.45687033753E+02  0.00000000000E+00 0.  1.
         24    2    1    2    0    0 -0.19236408491E+02 -0.12287641539E+02  0.21067845596E+03  0.22696743624E+03  0.81288251064E+02 0.  0.
         23    2    1    2    0    0  0.26901067810E+02 -0.78120996667E+01  0.52305766919E+02  0.10698085403E+03  0.89018613368E+02 0.  0.
        -11    1    3    3    0    0 -0.13084714492E+02 -0.47165807423E+02  0.11769238598E+03  0.12746497895E+03  0.00000000000E+00 0.  1.
         12    1    3    3    0    0 -0.61516939987E+01  0.34878165885E+02  0.92986069979E+02  0.99502457280E+02  0.00000000000E+00 0. -1.
        -13    1    4    4    0    0 -0.32697459664E+02  0.26500185713E+01  0.17738853122E+02  0.37293610404E+02  0.00000000000E+00 0. -1.
         13    1    4    4    0    0  0.59598527474E+02 -0.10462118238E+02  0.34566913797E+02  0.69687243629E+02  0.00000000000E+00 0.  1.
          1    1    1    2  501    0 -0.76646593196E+01  0.20099741205E+02  0.11312712912E+01  0.21541271405E+02  0.00000000000E+00 0. -1.
<scales pt_clust_5="13000.00000" pt_clust_6="13000.00000" pt_clust_7="13000.00000" pt_clust_8="13000.00000" pt_clust_9="21.51155"></scales>
<clustering>
<clus scale="   21.512">  2  9  1 -1</clus>
<clus scale="   81.288">  5  6 -1 -1</clus>
<clus scale="   84.306">  1  5  2 -1</clus>
<clus scale="   89.019">  7  8 -1 -1</clus>
<clus scale="   21.512">  2  5  1 -1</clus>
</clustering>
</event>
<event>
 9    2  0.1302972E-004  0.9268698E+02  0.7546771E-02  0.1303266E+00
         -3   -1    0    0    0  501 -0.00000000000E+00  0.00000000000E+00  0.16562289561E+03  0.16562289561E+03  0.00000000000E+00 0.  1.
         21   -1    0    0  501  502  0.00000000000E+00 -0.00000000000E+00 -0.96960630443E+02  0.96960630443E+02  0.00000000000E+00 0.  1.
         24    2    1    2    0    0 -0.13169692447E+02  0.11578345871E+02  0.52316670187E+02  0.97675991967E+02  0.80598179478E+02 0.  0.
         23    2    1    2    0    0  0.15637997029E+02  0.33302637196E+02 -0.27081667469E+02  0.10240695575E+03  0.91652361002E+02 0.  0.
        -11    1    3    3    0    0 -0.42994575097E+02  0.19557448776E+02  0.46455896276E+02  0.66250868592E+02  0.00000000000E+00 0.  1.
         12    1    3    3    0    0  0.29824882651E+02 -0.79791029050E+01  0.58607739108E+01  0.31425123375E+02  0.00000000000E+00 0. -1.
        -13    1    4    4    0    0 -0.14669623454E+02 -0.24647306673E+02  0.57161194951E+01  0.29246565620E+02  0.00000000000E+00 0. -1.
         13    1    4    4    0    0  0.30307620483E+02  0.57949943869E+02 -0.32797786965E+02  0.73160390127E+02  0.00000000000E+00 0.  1.
         -4    1    1    2    0  502 -0.24683045822E+01 -0.44880983067E+02  0.43427262446E+02  0.62500578334E+02  0.00000000000E+00 0.  1.
<scales pt_clust_5="13000.00000" pt_clust_6="13000.00000" pt_clust_7="13000.00000" pt_clust_8="13000.00000" pt_clust_9="44.94883"></scales>
<clustering>
<clus scale="   44.949">  2  9  1 -1</clus>
<clus scale="   80.598">  5  6 -1 -1</clus>
<clus scale="   81.773">  1  5  2 -1</clus>
<clus scale="   91.652">  7  8 -1 -1</clus>
<clus scale="   44.949">  2  5  1 -1</clus>
</clustering>
</event>
<event>
 9    2  0.1302972E-004  0.9882346E+02  0.7546771E-02  0.1284783E+00
         21   -1    0    0  501  502  0.00000000000E+00  0.00000000000E+00  0.12622828636E+03  0.12622828636E+03  0.00000000000E+00 0.  1.
          2   -1    0    0  502    0 -0.00000000000E+00 -0.00000000000E+00 -0.25159743273E+03  0.25159743273E+03  0.00000000000E+00 0. -1.
         23    2    1    2    0    0 -0.22261583082E+02  0.65244756401E+01 -0.19909507770E+03  0.22036939453E+03  0.91573321550E+02 0.  0.
         24    2    1    2    0    0  0.48193562813E+02  0.41920813306E+01  0.41446258064E+02  0.11468613083E+03  0.95367307057E+02 0.  0.
        -13    1    4    4    0    0 -0.52210626357E+01  0.25124786297E+02  0.50462092126E+02  0.56612164092E+02  0.00000000000E+00 0.  1.
         14    1    4    4    0    0  0.53414625449E+02 -0.20932704966E+02 -0.90158340618E+01  0.58073966740E+02  0.00000000000E+00 0. -1.
        -13    1    3    3    0    0  0.14494786532E+02 -0.33605798973E+02 -0.11042161058E+03  0.11632876103E+03  0.00000000000E+00 0. -1.
         13    1    3    3    0    0 -0.36756369614E+02  0.40130274613E+02 -0.88673467119E+02  0.10404063350E+03  0.00000000000E+00 0.  1.
          1    1    1    2  501    0 -0.25931979731E+02 -0.10716556971E+02  0.32279673261E+02  0.42770193732E+02  0.00000000000E+00 0. -1.
<scales pt_clust_5="13000.00000" pt_clust_6="13000.00000" pt_clust_7="13000.00000" pt_clust_8="13000.00000" pt_clust_9="28.05908"></scales>
<clustering>
<clus scale="   28.059">  1  9  2 -1</clus>
<clus scale="   91.573">  7  8 -1 -1</clus>
<clus scale="   95.167">  2  7  1 -1</clus>
<clus scale="   95.367">  5  6 -1 -1</clus>
<clus scale="   28.059">  1  5  2 -1</clus>
</clustering>
</event>
<event>
 9    2  0.1302972E-004  0.1784376E+03  0.7546771E-02  0.1199405E+00
          4   -1    0    0  502    0 -0.00000000000E+00  0.00000000000E+00  0.13210408253E+03  0.13210408253E+03  0.00000000000E+00 0. -1.
         21   -1    0    0  501  502  0.00000000000E+00 -0.00000000000E+00 -0.45686580132E+03  0.45686580132E+03  0.00000000000E+00 0. -1.
         24    2    1    2    0    0 -0.41870707811E+02  0.35546871524E+01  0.18377094161E+02  0.93030160252E+02  0.80938872943E+02 0.  0.
         23    2    1    2    0    0  0.10366276387E+03  0.12555600188E+03 -0.28800586869E+03  0.34255305613E+03  0.88797171353E+02 0.  0.
        -13    1    3    3    0    0  0.16426473432E+02 -0.22065193452E+02  0.61888889118E+01  0.28195817730E+02  0.00000000000E+00 0.  1.
         14    1    3    3    0    0 -0.58297181243E+02  0.25619880605E+02  0.12188205249E+02  0.64834342522E+02  0.00000000000E+00 0. -1.
        -11    1    4    4    0    0  0.74965274704E+02  0.68537237853E+02 -0.24598282833E+03  0.26612909878E+03  0.00000000000E+00 0. -1.
         11    1    4    4    0    0  0.28697489171E+02  0.57018764022E+02 -0.42023040359E+02  0.76423957345E+02  0.00000000000E+00 0.  1.
          3    1    1    2  501    0 -0.61792056064E+02 -0.12911068903E+03 -0.55132944269E+02  0.15338666747E+03  0.00000000000E+00 0. -1.
<scales pt_clust_5="13000.00000" pt_clust_6="13000.00000" pt_clust_7="13000.00000" pt_clust_8="13000.00000" pt_clust_9="154.77424"></scales>
<clustering>
<clus scale="   80.939">  5  6 -1 -1</clus>
<clus scale="   88.797">  7  8 -1 -1</clus>
<clus scale="   91.197">  1  5  2 -1</clus>
<clus scale="  154.774">  2  9  1 -1</clus>
<clus scale="  154.774">  2  5  1 -1</clus>
</clustering>
</event>
<event>
 9    2  0.1302972E-004  0.1501140E+03  0.7546771E-02  0.1214265E+00
          4   -1    0    0  502    0 -0.00000000000E+00  0.00000000000E+00  0.82211833938E+02  0.82211833938E+02  0.00000000000E+00 0. -1.
         21   -1    0    0  501  502  0.00000000000E+00 -0.00000000000E+00 -0.63860738445E+03  0.63860738445E+03  0.00000000000E+00 0. -1.
         24    2    1    2    0    0  0.42174261934E+02 -0.75580166093E+02 -0.11270597160E+03  0.15842181665E+03  0.70027181014E+02 0.  0.
         23    2    1    2    0    0 -0.15347088452E+03  0.52915365178E+02 -0.12620605468E+03  0.22520840495E+03  0.91855915166E+02 0.  0.
        -11    1    3    3    0    0  0.24562557660E+02 -0.64492346739E+01 -0.43007603790E+00  0.25398756506E+02  0.00000000000E+00 0.  1.
         12    1    3    3    0    0  0.17611704275E+02 -0.69130931419E+02 -0.11227589557E+03  0.13302306015E+03  0.00000000000E+00 0. -1.
        -11    1    4    4    0    0 -0.86782718162E+01  0.38497049878E+02 -0.39447166997E+02  0.55797976980E+02  0.00000000000E+00 0. -1.
         11    1    4    4    0    0 -0.14479261271E+03  0.14418315300E+02 -0.86758887687E+02  0.16941042797E+03  0.00000000000E+00 0.  1.
          3    1    1    2  501    0  0.11129662259E+03  0.22664800915E+02 -0.31748352423E+03  0.33718899679E+03  0.00000000000E+00 0. -1.
<scales pt_clust_5="13000.00000" pt_clust_6="13000.00000" pt_clust_7="13000.00000" pt_clust_8="13000.00000" pt_clust_9="118.72949"></scales>
<clustering>
<clus scale="   70.027">  5  6 -1 -1</clus>
<clus scale="   91.856">  7  8 -1 -1</clus>
<clus scale="  111.332">  1  5  2 -1</clus>
<clus scale="  118.729">  2  9  1 -1</clus>
<clus scale="  118.729">  2  5  1 -1</clus>
</clustering>
</event>
<event>
 9    2  0.1302972E-004  0.1186906E+03  0.7546771E-02  0.1249044E+00
          2   -1    0    0  502    0 -0.00000000000E+00  0.00000000000E+00  0.71044539224E+02  0.71044539224E+02  0.00000000000E+00 0. -1.
         21   -1    0    0  501  502  0.00000000000E+00 -0.00000000000E+00 -0.28999401648E+03  0.28999401648E+03  0.00000000000E+00 0.  1.
         23    2    1    2    0    0  0.51206910170E+02 -0.41609483793E+02 -0.12032650750E+03  0.16502789531E+03  0.91663738922E+02 0.  0.
         24    2    1    2    0    0 -0.77044210343E+02  0.37389410806E+02 -0.11570113695E+03  0.16475303906E+03  0.80143823220E+02 0.  0.
        -11    1    4    4    0    0 -0.58761495571E+02 -0.15544645879E+02 -0.52574631941E+02  0.80365672404E+02  0.00000000000E+00 0.  1.
         12    1    4    4    0    0 -0.18282714772E+02  0.52934056685E+02 -0.63126505008E+02  0.84387366656E+02  0.00000000000E+00 0. -1.
        -13    1    3    3    0    0  0.10676835816E+02  0.19594544851E+02 -0.76151967359E+02  0.79354036719E+02  0.00000000000E+00 0.  1.
         13    1    3    3    0    0  0.40530074354E+02 -0.61204028645E+02 -0.44174540141E+02  0.85673858593E+02  0.00000000000E+00 0. -1.
          1    1    1    2  501    0  0.25837300172E+02  0.42200729874E+01  0.17078167198E+02  0.31257621327E+02  0.00000000000E+00 0. -1.
<scales pt_clust_5="13000.00000" pt_clust_6="13000.00000" pt_clust_7="13000.00000" pt_clust_8="13000.00000" pt_clust_9="26.17968"></scales>
<clustering>
<clus scale="   26.180">  2  9  1 -1</clus>
<clus scale="   80.144">  5  6 -1 -1</clus>
<clus scale="   91.664">  7  8 -1 -1</clus>
<clus scale="  110.037">  2  5  1 -1</clus>
<clus scale="   26.180">  2  5  1 -1</clus>
</clustering>
</event>
<event>
 9    2  0.1302972E-004  0.2016807E+03  0.7546771E-02  0.1149335E+00
         21   -1    0    0  501  502  0.00000000000E+00  0.00000000000E+00  0.17528106636E+03  0.17528106636E+03  0.00000000000E+00 0. -1.
          4   -1    0    0  502    0 -0.00000000000E+00 -0.00000000000E+00 -0.59370836082E+03  0.59370836082E+03  0.00000000000E+00 0. -1.
         24    2    1    2    0    0  0.17390064256E+03  0.38275842388E+02 -0.47886110239E+03  0.51723329249E+03  0.80720814424E+02 0.  0.
         23    2    1    2    0    0 -0.17961360733E+03 -0.68951736943E+02  0.51026728772E+02  0.21916562056E+03  0.91730323358E+02 0.  0.
        -11    1    3    3    0    0  0.24414700283E+02  0.38355309090E+02 -0.95945675986E+02  0.10617334913E+03  0.00000000000E+00 0.  1.
         12    1    3    3    0    0  0.14948594228E+03 -0.79466701586E-01 -0.38291542641E+03  0.41105994336E+03  0.00000000000E+00 0. -1.
        -11    1    4    4    0    0 -0.84889118442E+02 -0.29647287209E+02  0.71140738344E+02  0.11465656859E+03  0.00000000000E+00 0.  1.
         11    1    4    4    0    0 -0.94724488884E+02 -0.39304449735E+02 -0.20114009572E+02  0.10450905197E+03  0.00000000000E+00 0. -1.
          3    1    1    2  501    0  0.57129647653E+01  0.30675894555E+02  0.94070791555E+01  0.32590514132E+02  0.00000000000E+00 0. -1.
<scales pt_clust_5="13000.00000" pt_clust_6="13000.00000" pt_clust_7="13000.00000" pt_clust_8="13000.00000" pt_clust_9="31.20334"></scales>
<clustering>
<clus scale="   31.203">  1  9  2 -1</clus>
<clus scale="   80.721">  5  6 -1 -1</clus>
<clus scale="   91.730">  7  8 -1 -1</clus>
<clus scale="  196.918">  2  5  1 -1</clus>
<clus scale="   31.203">  1  5  2 -1</clus>
</clustering>
</event>
<event>
 9    2  0.1302972E-004  0.1817677E+03  0.7546771E-02  0.1195919E+00
          2   -1    0    0  502    0 -0.00000000000E+00  0.00000000000E+00  0.93313623388E+03  0.93313623388E+03  0.00000000000E+00 0. -1.
         21   -1    0    0  501  502  0.00000000000E+00 -0.00000000000E+00 -0.63083589646E+02  0.63083589646E+02  0.00000000000E+00 0. -1.
         23    2    1    2    0    0 -0.16226226460E+02  0.12655776416E+01  0.15883846339E+03  0.18410661203E+03  0.91655305533E+02 0.  0.
         24    2    1    2    0    0  0.91148344894E+02 -0.13894140231E+03  0.17751539274E+03  0.25587373703E+03  0.79667562952E+02 0.  0.
        -13    1    4    4    0    0  0.28588444250E+02  0.20311689101E+01  0.17252723100E+02  0.33452671734E+02  0.00000000000E+00 0.  1.
         14    1    4    4    0    0  0.62559900643E+02 -0.14097257122E+03  0.16026266964E+03  0.22242106529E+03  0.00000000000E+00 0. -1.
        -13    1    3    3    0    0  0.27998476686E+02  0.29080189673E+02  0.60109957047E+02  0.72407037395E+02  0.00000000000E+00 0.  1.
         13    1    3    3    0    0 -0.44224703146E+02 -0.27814612031E+02  0.98728506339E+02  0.11169957464E+03  0.00000000000E+00 0. -1.
          1    1    1    2  501    0 -0.74922118434E+02  0.13767582467E+03  0.53369878810E+03  0.55623947446E+03  0.00000000000E+00 0. -1.
<scales pt_clust_5="13000.00000" pt_clust_6="13000.00000" pt_clust_7="13000.00000" pt_clust_8="13000.00000" pt_clust_9="163.37869"></scales>
<clustering>
<clus scale="   79.668">  5  6 -1 -1</clus>
<clus scale="   91.655">  7  8 -1 -1</clus>
<clus scale="   93.089">  1  7  2 -1</clus>
<clus scale="  163.379">  2  9  1 -1</clus>
<clus scale="  163.379">  2  5  1 -1</clus>
</clustering>
</event>
<event>
 9    2  0.1302972E-004  0.1198145E+03  0.7546771E-02  0.1245110E+00
          2   -1    0    0  502    0 -0.00000000000E+00  0.00000000000E+00  0.29509547966E+03  0.29509547966E+03  0.00000000000E+00 0. -1.
         21   -1    0    0  501  502  0.00000000000E+00 -0.00000000000E+00 -0.95936002290E+02  0.95936002290E+02  0.00000000000E+00 0.  1.
         23    2    1    2    0    0 -0.62316127735E+02 -0.41158549337E+02  0.19584092982E+03  0.22888150133E+03  0.91955129814E+02 0.  0.
         24    2    1    2    0    0  0.88753096803E+02  0.15496155565E+02  0.66939478560E+01  0.12515180344E+03  0.86607863016E+02 0.  0.
        -13    1    4    4    0    0  0.24877534763E+02 -0.26996000890E+02 -0.22510818920E+02  0.43062893172E+02  0.00000000000E+00 0.  1.
         14    1    4    4    0    0  0.63875562040E+02  0.42492156455E+02  0.29204766776E+02  0.82088910265E+02  0.00000000000E+00 0. -1.
        -13    1    3    3    0    0 -0.10996295284E+02  0.26604665264E+02  0.81290208959E+02  0.86237026830E+02  0.00000000000E+00 0.  1.
         13    1    3    3    0    0 -0.51319832451E+02 -0.67763214601E+02  0.11455072086E+03  0.14264447450E+03  0.00000000000E+00 0. -1.
          1    1    1    2  501    0 -0.26436969068E+02  0.25662393772E+02 -0.33754003071E+01  0.36998177183E+02  0.00000000000E+00 0. -1.
<scales pt_clust_5="13000.00000" pt_clust_6="13000.00000" pt_clust_7="13000.00000" pt_clust_8="13000.00000" pt_clust_9="36.84388"></scales>
<clustering>
<clus scale="   36.844">  2  9  1 -1</clus>
<clus scale="   86.608">  5  6 -1 -1</clus>
<clus scale="   91.955">  7  8 -1 -1</clus>
<clus scale="  115.761">  2  5  1 -1</clus>
<clus scale="   36.844">  2  5  1 -1</clus>
</clustering>
</event>
<event>
 9    2  0.1302972E-004  0.1208427E+03  0.7546771E-02  0.1245001E+00
         -1   -1    0    0    0  501 -0.00000000000E+00  0.00000000000E+00  0.26866273782E+03  0.26866273782E+03  0.00000000000E+00 0.  1.
         21   -1    0    0  501  502  0.00000000000E+00 -0.00000000000E+00 -0.14511452763E+03  0.14511452763E+03  0.00000000000E+00 0.  1.
         24    2    1    2    0    0 -0.94885348613E+01  0.82905110613E+02  0.19702202734E+03  0.22835839478E+03  0.79790898932E+02 0.  0.
         23    2    1    2    0    0 -0.49150212722E+01 -0.55104507983E+02 -0.98965802438E+02  0.14504341711E+03  0.90458269718E+02 0.  0.
        -13    1    3    3    0    0 -0.29618585435E+02  0.45316752920E+01  0.28202564396E+02  0.41148284565E+02  0.00000000000E+00 0.  1.
         14    1    3    3    0    0  0.20130050574E+02  0.78373435321E+02  0.16881946294E+03  0.18721011022E+03  0.00000000000E+00 0. -1.
        -11    1    4    4    0    0 -0.12994751911E+01 -0.34597169031E+02 -0.11414147505E+03  0.11927669121E+03  0.00000000000E+00 0.  1.
         11    1    4    4    0    0 -0.36155460812E+01 -0.20507338953E+02  0.15175672608E+02  0.25766725898E+02  0.00000000000E+00 0. -1.
         -2    1    1    2    0  502  0.14403556134E+02 -0.27800602630E+02  0.25491985295E+02  0.40375453559E+02  0.00000000000E+00 0.  1.
<scales pt_clust_5="13000.00000" pt_clust_6="13000.00000" pt_clust_7="13000.00000" pt_clust_8="13000.00000" pt_clust_9="31.31033"></scales>
<clustering>
<clus scale="   31.310">  2  9  1 -1</clus>
<clus scale="   79.791">  5  6 -1 -1</clus>
<clus scale="   90.458">  7  8 -1 -1</clus>
<clus scale="  113.079">  1  5  2 -1</clus>
<clus scale="   31.310">  2  5  1 -1</clus>
</clustering>
</event>
<event>
 9    2  0.1302972E-004  0.9777537E+02  0.7546771E-02  0.1287663E+00
         21   -1    0    0  501  502  0.00000000000E+00  0.00000000000E+00  0.25928180634E+03  0.25928180634E+03  0.00000000000E+00 0. -1.
          4   -1    0    0  502    0 -0.00000000000E+00 -0.00000000000E+00 -0.23271087761E+03  0.23271087761E+03  0.00000000000E+00 0. -1.
         24    2    1    2    0    0 -0.23066444003E+01  0.26466867289E+02 -0.19737440814E+03  0.22002535706E+03  0.93534405898E+02 0.  0.
         23    2    1    2    0    0  0.37036389063E+02 -0.48986344928E+02  0.12719762266E+03  0.16673709244E+03  0.88603987959E+02 0.  0.
        -13    1    3    3    0    0 -0.25996376181E+02 -0.21515546297E+02 -0.12821220224E+03  0.13257865254E+03  0.00000000000E+00 0.  1.
         14    1    3    3    0    0  0.23689731781E+02  0.47982413585E+02 -0.69162205903E+02  0.87446704516E+02  0.00000000000E+00 0. -1.
        -13    1    4    4    0    0  0.35085088832E+01 -0.63221235965E+02  0.10891182662E+03  0.12598023770E+03  0.00000000000E+00 0.  1.
         13    1    4    4    0    0  0.33527880180E+02  0.14234891037E+02  0.18285796034E+02  0.40756854746E+02  0.00000000000E+00 0. -1.
          3    1    1    2  501    0 -0.34729744663E+02  0.22519477639E+02  0.96747714213E+02  0.10523023445E+03  0.00000000000E+00 0. -1.
<scales pt_clust_5="13000.00000" pt_clust_6="13000.00000" pt_clust_7="13000.00000" pt_clust_8="13000.00000" pt_clust_9="41.39181"></scales>
<clustering>
<clus scale="   41.392">  1  9  2 -1</clus>
<clus scale="   88.604">  7  8 -1 -1</clus>
<clus scale="   93.070">  1  7  2 -1</clus>
<clus scale="   93.534">  5  6 -1 -1</clus>
<clus scale="   41.392">  1  5  2 -1</clus>
</clustering>
</event>
<event>
 9    2  0.1302972E-004  0.9437512E+02  0.7546771E-02  0.1308987E+00
         21   -1    0    0  501  502  0.00000000000E+00  0.00000000000E+00  0.42816018595E+02  0.42816018595E+02  0.00000000000E+00 0. -1.
          2   -1    0    0  502    0 -0.00000000000E+00 -0.00000000000E+00 -0.40772101745E+03  0.40772101745E+03  0.00000000000E+00 0. -1.
         23    2    1    2    0    0  0.89360406191E+01 -0.31268188309E+02 -0.31789030311E+03  0.33238003515E+03  0.91458682094E+02 0.  0.
         24    2    1    2    0    0  0.14639781197E+02 -0.22321208284E+01 -0.28538640299E+02  0.73218657457E+02  0.65781549486E+02 0.  0.
        -13    1    4    4    0    0  0.28874769533E+02  0.19254562735E+02 -0.32007549652E+02  0.47212008392E+02  0.00000000000E+00 0.  1.
         14    1    4    4    0    0 -0.14234988336E+02 -0.21486683564E+02  0.34689093526E+01  0.26006649065E+02  0.00000000000E+00 0. -1.
        -13    1    3    3    0    0 -0.21088013374E+02  0.22902055735E+02 -0.65801426078E+02  0.72794478766E+02  0.00000000000E+00 0.  1.
         13    1    3    3    0    0  0.30024053993E+02 -0.54170244044E+02 -0.25208887703E+03  0.25958555638E+03  0.00000000000E+00 0. -1.
          1    1    1    2  501    0 -0.23575821816E+02  0.33500309138E+02 -0.18476055448E+02  0.44938343445E+02  0.00000000000E+00 0. -1.
<scales pt_clust_5="13000.00000" pt_clust_6="13000.00000" pt_clust_7="13000.00000" pt_clust_8="13000.00000" pt_clust_9="40.96450"></scales>
<clustering>
<clus scale="   40.964">  1  9  2 -1</clus>
<clus scale="   65.782">  5  6 -1 -1</clus>
<clus scale="   69.780">  1  5  2 -1</clus>
<clus scale="   91.459">  7  8 -1 -1</clus>
<clus scale="   40.964">  1  5  2 -1</clus>
</clustering>
</event>
<event>
 9    2  0.1302972E-004  0.9152267E+03  0.7546771E-02  0.9406745E-01
         21   -1    0    0  501  502  0.00000000000E+00  0.00000000000E+00  0.12361250592E+04  0.12361250592E+04  0.00000000000E+00 0. -1.
          2   -1    0    0  502    0 -0.00000000000E+00 -0.00000000000E+00 -0.85782106325E+03  0.85782106325E+03  0.00000000000E+00 0. -1.
         24    2    1    2    0    0  0.52932287185E+03 -0.35482345748E+02  0.52096843461E+03  0.74802813991E+03  0.81830854249E+02 0.  0.
         23    2    1    2    0    0  0.28892361987E+03 -0.20856684102E+03  0.20881850607E+03  0.42253962718E+03  0.89205284396E+02 0.  0.
        -11    1    3    3    0    0  0.15850912391E+03 -0.33217799819E+02  0.11783999735E+03  0.20028686818E+03  0.00000000000E+00 0.  1.
         12    1    3    3    0    0  0.37081374794E+03 -0.22645459295E+01  0.40312843727E+03  0.54774127173E+03  0.00000000000E+00 0. -1.
        -11    1    4    4    0    0  0.20969839074E+03 -0.14077657093E+03  0.99484193853E+02  0.27145637371E+03  0.00000000000E+00 0. -1.
         11    1    4    4    0    0  0.79225229139E+02 -0.67790270095E+02  0.10933431222E+03  0.15108325348E+03  0.00000000000E+00 0.  1.
          1    1    1    2  501    0 -0.81824649173E+03  0.24404918677E+03 -0.35148294471E+03  0.92337835539E+03  0.00000000000E+00 0. -1.
<scales pt_clust_5="13000.00000" pt_clust_6="13000.00000" pt_clust_7="13000.00000" pt_clust_8="13000.00000" pt_clust_9="853.86653"></scales>
<clustering>
<clus scale="   81.831">  5  6 -1 -1</clus>
<clus scale="   89.205">  7  8 -1 -1</clus>
<clus scale="  243.387">  5  7 -1 -1</clus>
<clus scale="  853.867">  1  9  2 -1</clus>
<clus scale="  853.867">  1  5  2 -1</clus>
</clustering>
</event>
<event>
 9    2  0.1302972E-004  0.9337322E+02  0.7546771E-02  0.1295587E+00
         21   -1    0    0  501  502  0.00000000000E+00  0.00000000000E+00  0.86233388882E+02  0.86233388882E+02  0.00000000000E+00 0.  1.
          2   -1    0    0  502    0 -0.00000000000E+00 -0.00000000000E+00 -0.44883041419E+03  0.44883041419E+03  0.00000000000E+00 0. -1.
         24    2    1    2    0    0  0.18926158925E+02  0.33908319991E+02 -0.35944819499E+03  0.37113415411E+03  0.83842601418E+02 0.  0.
         23    2    1    2    0    0 -0.32935843017E+02 -0.16213977107E+02  0.50586321600E+02  0.10564733972E+03  0.85174653788E+02 0.  0.
        -13    1    3    3    0    0 -0.30420546148E+02  0.19073683900E+02 -0.91823034176E+02  0.98593532499E+02  0.00000000000E+00 0.  1.
         14    1    3    3    0    0  0.49346705073E+02  0.14834636091E+02 -0.26762516081E+03  0.27254062161E+03  0.00000000000E+00 0. -1.
        -11    1    4    4    0    0 -0.32163189591E+01  0.34099141632E+02  0.20588489130E+02  0.39962257848E+02  0.00000000000E+00 0.  1.
         11    1    4    4    0    0 -0.29719524058E+02 -0.50313118739E+02  0.29997832470E+02  0.65685081871E+02  0.00000000000E+00 0. -1.
          1    1    1    2  501    0  0.14009684092E+02 -0.17694342884E+02 -0.53735151917E+02  0.58282309237E+02  0.00000000000E+00 0. -1.
<scales pt_clust_5="13000.00000" pt_clust_6="13000.00000" pt_clust_7="13000.00000" pt_clust_8="13000.00000" pt_clust_9="22.56904"></scales>
<clustering>
<clus scale="   22.569">  1  9  2 -1</clus>
<clus scale="   83.843">  5  6 -1 -1</clus>
<clus scale="   85.175">  7  8 -1 -1</clus>
<clus scale="   92.160">  2  5  1 -1</clus>
<clus scale="   22.569">  1  5  2 -1</clus>
</clustering>
</event>
<event>
 9    2  0.1302972E-004  0.2506691E+03  0.7546771E-02  0.1158334E+00
          2   -1    0    0  502    0 -0.00000000000E+00  0.00000000000E+00  0.10066700774E+03  0.10066700774E+03  0.00000000000E+00 0. -1.
         21   -1    0    0  501  502  0.00000000000E+00 -0.00000000000E+00 -0.11057950337E+04  0.11057950337E+04  0.00000000000E+00 0. -1.
         24    2    1    2    0    0  0.10050177965E+02 -0.97341224507E+01 -0.60533525934E+02  0.10271718159E+03  0.81797019602E+02 0.  0.
         23    2    1    2    0    0  0.22586516170E+03 -0.12330791276E+02 -0.17742313024E+03  0.30081595981E+03  0.88567233474E+02 0.  0.
        -11    1    3    3    0    0 -0.25384029732E+02 -0.18929505622E+02 -0.57926812304E+02  0.66016594370E+02  0.00000000000E+00 0.  1.
         12    1    3    3    0    0  0.35434207696E+02  0.91953831716E+01 -0.26067136304E+01  0.36700587225E+02  0.00000000000E+00 0. -1.
        -11    1    4    4    0    0  0.79784606723E+02  0.11318991328E+02 -0.16612857113E+02  0.82278126231E+02  0.00000000000E+00 0. -1.
         11    1    4    4    0    0  0.14608055498E+03 -0.23649782605E+02 -0.16081027313E+03  0.21853783358E+03  0.00000000000E+00 0.  1.
          1    1    1    2  501    0 -0.23591533967E+03  0.22064913727E+02 -0.76717136978E+03  0.80292890004E+03  0.00000000000E+00 0. -1.
<scales pt_clust_5="13000.00000" pt_clust_6="13000.00000" pt_clust_7="13000.00000" pt_clust_8="13000.00000" pt_clust_9="234.50130"></scales>
<clustering>
<clus scale="   81.797">  5  6 -1 -1</clus>
<clus scale="   82.985">  1  5  2 -1</clus>
<clus scale="   88.567">  7  8 -1 -1</clus>
<clus scale="  234.501">  2  9  1 -1</clus>
<clus scale="  234.501">  2  5  1 -1</clus>
</clustering>
</event>
<event>
 9    2  0.1302972E-004  0.1086619E+03  0.7546771E-02  0.1267336E+00
          2   -1    0    0  502    0 -0.00000000000E+00  0.00000000000E+00  0.90603266073E+03  0.90603266073E+03  0.00000000000E+00 0. -1.
         21   -1    0    0  501  502  0.00000000000E+00 -0.00000000000E+00 -0.24455266671E+02  0.24455266671E+02  0.00000000000E+00 0. -1.
         24    2    1    2    0    0 -0.38688591320E+02 -0.43999331774E+02  0.58603170670E+03  0.59453523767E+03  0.81278775115E+02 0.  0.
         23    2    1    2    0    0  0.22808902538E+01  0.69041333224E+02  0.19861760895E+03  0.22942722368E+03  0.91738695348E+02 0.  0.
        -13    1    3    3    0    0  0.20570415543E+02 -0.32408607379E+02  0.18082969065E+03  0.18485896475E+03  0.00000000000E+00 0.  1.
         14    1    3    3    0    0 -0.59259006863E+02 -0.11590724395E+02  0.40520201605E+03  0.40967627292E+03  0.00000000000E+00 0. -1.
        -11    1    4    4    0    0  0.33852242672E+02  0.30406339293E+02  0.15997023613E+03  0.16631595308E+03  0.00000000000E+00 0.  1.
         11    1    4    4    0    0 -0.31571352418E+02  0.38634993931E+02  0.38647372822E+02  0.63111270591E+02  0.00000000000E+00 0. -1.
          1    1    1    2  501    0  0.36407701067E+02 -0.25042001450E+02  0.96928078410E+02  0.10652546605E+03  0.00000000000E+00 0. -1.
<scales pt_clust_5="13000.00000" pt_clust_6="13000.00000" pt_clust_7="13000.00000" pt_clust_8="13000.00000" pt_clust_9="44.18849"></scales>
<clustering>
<clus scale="   44.188">  2  9  1 -1</clus>
<clus scale="   81.279">  5  6 -1 -1</clus>
<clus scale="   91.739">  7  8 -1 -1</clus>
<clus scale="   99.988">  1  5  2 -1</clus>
<clus scale="   44.188">  2  5  1 -1</clus>
</clustering>
</event>
<event>
 9    2  0.1302972E-004  0.1237171E+03  0.7546771E-02  0.1237810E+00
         -3   -1    0    0    0  501 -0.00000000000E+00  0.00000000000E+00  0.43956454805E+03  0.43956454805E+03  0.00000000000E+00 0.  1.
         21   -1    0    0  501  502  0.00000000000E+00 -0.00000000000E+00 -0.70919558932E+02  0.70919558932E+02  0.00000000000E+00 0.  1.
         24    2    1    2    0    0 -0.10467364373E+03  0.20748657059E+02  0.30740587488E+03  0.33543901581E+03  0.81448652261E+02 0.  0.
         23    2    1    2    0    0  0.48474504262E+02  0.97550152465E+01  0.22046566017E+02  0.10004593693E+03  0.84132042279E+02 0.  0.
        -13    1    3    3    0    0 -0.10438278621E+03 -0.77518954308E+01  0.25761981673E+03  0.27807162371E+03  0.00000000000E+00 0.  1.
         14    1    3    3    0    0 -0.29085751701E+00  0.28500552490E+02  0.49786058155E+02  0.57367392105E+02  0.00000000000E+00 0. -1.
        -11    1    4    4    0    0  0.15162743593E+02  0.14463795144E+02 -0.30887822852E+02  0.37325162609E+02  0.00000000000E+00 0.  1.
         11    1    4    4    0    0  0.33311760669E+02 -0.47087798970E+01  0.52934388869E+02  0.62720774325E+02  0.00000000000E+00 0. -1.
         -4    1    1    2    0  502  0.56199139464E+02 -0.30503672306E+02  0.39192548222E+02  0.74999154241E+02  0.00000000000E+00 0.  1.
<scales pt_clust_5="13000.00000" pt_clust_6="13000.00000" pt_clust_7="13000.00000" pt_clust_8="13000.00000" pt_clust_9="63.94386"></scales>
<clustering>
<clus scale="   63.944">  2  9  1 -1</clus>
<clus scale="   81.449">  5  6 -1 -1</clus>
<clus scale="   84.132">  7  8 -1 -1</clus>
<clus scale="  121.908">  1  5  2 -1</clus>
<clus scale="   63.944">  2  5  1 -1</clus>
</clustering>
</event>
<event>
 9    2  0.1302972E-004  0.2285793E+03  0.7546771E-02  0.1149238E+00
         -1   -1    0    0    0  501 -0.00000000000E+00  0.00000000000E+00  0.25460939161E+03  0.25460939161E+03  0.00000000000E+00 0.  1.
         21   -1    0    0  501  502  0.00000000000E+00 -0.00000000000E+00 -0.39550414356E+03  0.39550414356E+03  0.00000000000E+00 0.  1.
         24    2    1    2    0    0  0.82649356039E+02  0.72160222424E+02  0.41409987266E+02  0.14175560554E+03  0.79635738845E+02 0.  0.
         23    2    1    2    0    0 -0.22789952142E+03 -0.92531013684E+02 -0.23492938050E+03  0.35253131911E+03  0.92662488469E+02 0.  0.
        -11    1    3    3    0    0 -0.16377446140E+01  0.47764909397E+02  0.13112830860E+02  0.49559208128E+02  0.00000000000E+00 0.  1.
         12    1    3    3    0    0  0.84287100653E+02  0.24395313027E+02  0.28297156407E+02  0.92196397408E+02  0.00000000000E+00 0. -1.
        -11    1    4    4    0    0 -0.17881162144E+03 -0.36700338921E+02 -0.13069999982E+03  0.22450612640E+03  0.00000000000E+00 0.  1.
         11    1    4    4    0    0 -0.49087899982E+02 -0.55830674763E+02 -0.10422938069E+03  0.12802519271E+03  0.00000000000E+00 0. -1.
         -2    1    1    2    0  502  0.14525016538E+03  0.20370791260E+02  0.52624641288E+02  0.15582661054E+03  0.00000000000E+00 0.  1.
<scales pt_clust_5="13000.00000" pt_clust_6="13000.00000" pt_clust_7="13000.00000" pt_clust_8="13000.00000" pt_clust_9="208.95500"></scales>
<clustering>
<clus scale="   79.636">  5  6 -1 -1</clus>
<clus scale="   92.662">  7  8 -1 -1</clus>
<clus scale="  135.572">  1  5  2 -1</clus>
<clus scale="  208.955">  2  9  1 -1</clus>
<clus scale="  208.955">  2  5  1 -1</clus>
</clustering>
</event>
<event>
 9    2  0.1302972E-004  0.1333796E+03  0.7546771E-02  0.1233016E+00
          2   -1    0    0  502    0 -0.00000000000E+00  0.00000000000E+00  0.44503800825E+03  0.44503800825E+03  0.00000000000E+00 0. -1.
         21   -1    0    0  501  502  0.00000000000E+00 -0.00000000000E+00 -0.12674354181E+03  0.12674354181E+03  0.00000000000E+00 0.  1.
         24    2    1    2    0    0  0.72323343673E+02  0.67302294047E+01  0.29546431740E+03  0.31434958497E+03  0.78997067587E+02 0.  0.
         23    2    1    2    0    0 -0.42683745089E+01  0.92285304770E+02 -0.18188454349E+02  0.13047496189E+03  0.90322197229E+02 0.  0.
        -13    1    3    3    0    0  0.77102734925E+02 -0.18269172323E+02  0.24986245093E+03  0.26212561640E+03  0.00000000000E+00 0.  1.
         14    1    3    3    0    0 -0.47793912518E+01  0.24999401727E+02  0.45601866470E+02  0.52223968568E+02  0.00000000000E+00 0. -1.
        -11    1    4    4    0    0  0.11707520031E+02  0.71312005417E+02  0.27829112562E+02  0.77439832437E+02  0.00000000000E+00 0. -1.
         11    1    4    4    0    0 -0.15975894540E+02  0.20973299352E+02 -0.46017566911E+02  0.53035129457E+02  0.00000000000E+00 0.  1.
          1    1    1    2  501    0 -0.68054969164E+02 -0.99015534174E+02  0.41018603393E+02  0.12695700319E+03  0.00000000000E+00 0. -1.
<scales pt_clust_5="13000.00000" pt_clust_6="13000.00000" pt_clust_7="13000.00000" pt_clust_8="13000.00000" pt_clust_9="98.14286"></scales>
<clustering>
<clus scale="   78.997">  5  6 -1 -1</clus>
<clus scale="   90.322">  7  8 -1 -1</clus>
<clus scale="  107.315">  1  5  2 -1</clus>
<clus scale="   98.143">  2  9  1 -1</clus>
<clus scale="   98.143">  2  5  1 -1</clus>
</clustering>
</event>
<event>
 9    2  0.1302972E-004  0.1187651E+03  0.7546771E-02  0.1249621E+00
         -1   -1    0    0    0  501 -0.00000000000E+00  0.00000000000E+00  0.70996321301E+03  0.70996321301E+03  0.00000000000E+00 0.  1.
         21   -1    0    0  501  502  0.00000000000E+00 -0.00000000000E+00 -0.60044665816E+02  0.60044665816E+02  0.00000000000E+00 0. -1.
         24    2    1    2    0    0 -0.18449470133E+02 -0.85137725351E+02  0.45946128677E+03  0.47427610572E+03  0.79021105943E+02 0.  0.
         23    2    1    2    0    0  0.75173826460E+02 -0.28234005008E+01  0.80220946770E+02  0.14372237502E+03  0.92529157592E+02 0.  0.
        -11    1    3    3    0    0 -0.44695282543E+02 -0.32612824597E+02  0.16536587301E+03  0.17437642205E+03  0.00000000000E+00 0.  1.
         12    1    3    3    0    0  0.26245812410E+02 -0.52524900755E+02  0.29409541376E+03  0.29989968367E+03  0.00000000000E+00 0. -1.
        -11    1    4    4    0    0  0.54593453958E+02  0.12511366227E+02  0.97738320993E+02  0.11264882996E+03  0.00000000000E+00 0.  1.
         11    1    4    4    0    0  0.20580372502E+02 -0.15334766727E+02 -0.17517374224E+02  0.31073545060E+02  0.00000000000E+00 0. -1.
         -2    1    1    2    0  502 -0.56724356327E+02  0.87961125852E+02  0.11023631366E+03  0.15200939810E+03  0.00000000000E+00 0.  1.
<scales pt_clust_5="13000.00000" pt_clust_6="13000.00000" pt_clust_7="13000.00000" pt_clust_8="13000.00000" pt_clust_9="104.66524"></scales>
<clustering>
<clus scale="   79.021">  5  6 -1 -1</clus>
<clus scale="   92.529">  7  8 -1 -1</clus>
<clus scale="  104.665">  2  9  1 -1</clus>
<clus scale="  108.572">  1  5  2 -1</clus>
<clus scale="  104.665">  2  5  1 -1</clus>
</clustering>
</event>
<event>
 9    2  0.1302972E-004  0.1509860E+03  0.7546771E-02  0.1200272E+00
          2   -1    0    0  502    0 -0.00000000000E+00  0.00000000000E+00  0.52027703723E+03  0.52027703723E+03  0.00000000000E+00 0. -1.
         21   -1    0    0  501  502  0.00000000000E+00 -0.00000000000E+00 -0.55469309418E+02  0.55469309418E+02  0.00000000000E+00 0.  1.
         24    2    1    2    0    0  0.40519087513E+02  0.96761414710E+02  0.18141673944E+03  0.22619449529E+03  0.85131360378E+02 0.  0.
         23    2    1    2    0    0 -0.68762470519E+02 -0.12098995958E+03  0.24579383563E+03  0.29665329784E+03  0.90673710716E+02 0.  0.
        -13    1    3    3    0    0  0.30488969061E+02  0.52652686574E+02  0.29368716769E+02  0.67560374203E+02  0.00000000000E+00 0.  1.
         14    1    3    3    0    0  0.10030118452E+02  0.44108728136E+02  0.15204802267E+03  0.15863412109E+03  0.00000000000E+00 0. -1.
        -13    1    4    4    0    0 -0.92838487771E+01 -0.25097145718E+02  0.62924836813E+00  0.26766630808E+02  0.00000000000E+00 0.  1.
         13    1    4    4    0    0 -0.59478621742E+02 -0.95892813864E+02  0.24516458726E+03  0.26988666703E+03  0.00000000000E+00 0. -1.
          1    1    1    2  501    0  0.28243383006E+02  0.24228544872E+02  0.37597152744E+02  0.52898553522E+02  0.00000000000E+00 0. -1.
<scales pt_clust_5="13000.00000" pt_clust_6="13000.00000" pt_clust_7="13000.00000" pt_clust_8="13000.00000" pt_clust_9="37.21171"></scales>
<clustering>
<clus scale="   37.212">  2  9  1 -1</clus>
<clus scale="   85.131">  5  6 -1 -1</clus>
<clus scale="   90.674">  7  8 -1 -1</clus>
<clus scale="  147.724">  1  5  2 -1</clus>
<clus scale="   37.212">  2  5  1 -1</clus>
</clustering>
</event>
<event>
 9    2  0.1302972E-004  0.1226513E+03  0.7546771E-02  0.1259221E+00
         21   -1    0    0  501  502  0.00000000000E+00  0.00000000000E+00  0.12000427881E+03  0.12000427881E+03  0.00000000000E+00 0. -1.
         -1   -1    0    0    0  501 -0.00000000000E+00 -0.00000000000E+00 -0.12542888081E+03  0.12542888081E+03  0.00000000000E+00 0.  1.
         24    2    1    2    0    0  0.19036874866E+02 -0.13445294555E+02 -0.13090289167E+02  0.81324538775E+02  0.76805900724E+02 0.  0.
         23    2    1    2    0    0 -0.17013157824E+01  0.44700924825E+02  0.11281977053E+02  0.12818490188E+03  0.11959522945E+03 0.  0.
        -13    1    3    3    0    0  0.34345911552E+02 -0.20740779690E+01 -0.37141500272E+02  0.50630371144E+02  0.00000000000E+00 0.  1.
         14    1    3    3    0    0 -0.15309036686E+02 -0.11371216586E+02  0.24051211105E+02  0.30694167630E+02  0.00000000000E+00 0. -1.
        -11    1    4    4    0    0  0.55026946915E+02  0.31801028286E+02  0.25196333322E+02  0.68367576378E+02  0.00000000000E+00 0. -1.
         11    1    4    4    0    0 -0.56728262698E+02  0.12899896539E+02 -0.13914356269E+02  0.59817325499E+02  0.00000000000E+00 0.  1.
         -2    1    1    2    0  502 -0.17335559083E+02 -0.31255630270E+02 -0.36162898859E+01  0.35923718973E+02  0.00000000000E+00 0.  1.
<scales pt_clust_5="13000.00000" pt_clust_6="13000.00000" pt_clust_7="13000.00000" pt_clust_8="13000.00000" pt_clust_9="35.74126"></scales>
<clustering>
<clus scale="   35.741">  1  9  2 -1</clus>
<clus scale="   76.806">  5  6 -1 -1</clus>
<clus scale="   81.483">  2  5  1 -1</clus>
<clus scale="  119.595">  7  8 -1 -1</clus>
<clus scale="   35.741">  1  5  2 -1</clus>
</clustering>
</event>
<event>
 9    2  0.1302972E-004  0.1597015E+03  0.7546771E-02  0.1213753E+00
         21   -1    0    0  501  502  0.00000000000E+00  0.00000000000E+00  0.13097061392E+03  0.13097061392E+03  0.00000000000E+00 0.  1.
          2   -1    0    0  502    0 -0.00000000000E+00 -0.00000000000E+00 -0.43205458772E+03  0.43205458772E+03  0.00000000000E+00 0. -1.
         24    2    1    2    0    0 -0.47889133574E+02  0.16583509086E+02  0.19416984066E+02  0.95465829606E+02  0.78538674958E+02 0.  0.
         23    2    1    2    0    0  0.14200285215E+03  0.28593927255E+02 -0.49502357743E+02  0.17714822546E+03  0.89154852195E+02 0.  0.
        -11    1    3    3    0    0 -0.57682461209E+02 -0.14845514710E+02  0.58096060246E+01  0.59844859096E+02  0.00000000000E+00 0.  1.
         12    1    3    3    0    0  0.97933276348E+01  0.31429023796E+02  0.13607378041E+02  0.35620970510E+02  0.00000000000E+00 0. -1.
        -11    1    4    4    0    0  0.20346106484E+02  0.62340347452E+00 -0.48187571472E+02  0.52310560361E+02  0.00000000000E+00 0. -1.
         11    1    4    4    0    0  0.12165674566E+03  0.27970523780E+02 -0.13147862706E+01  0.12483766510E+03  0.00000000000E+00 0.  1.
          1    1    1    2  501    0 -0.94113718572E+02 -0.45177436341E+02 -0.27099860013E+03  0.29041114656E+03  0.00000000000E+00 0. -1.
<scales pt_clust_5="13000.00000" pt_clust_6="13000.00000" pt_clust_7="13000.00000" pt_clust_8="13000.00000" pt_clust_9="132.49900"></scales>
<clustering>
<clus scale="   78.539">  5  6 -1 -1</clus>
<clus scale="   89.155">  7  8 -1 -1</clus>
<clus scale="   93.470">  2  5  1 -1</clus>
<clus scale="  132.499">  1  9  2 -1</clus>
<clus scale="  132.499">  1  5  2 -1</clus>
</clustering>
</event>
<event>
 9    2  0.1302972E-004  0.1563773E+03  0.7546771E-02  0.1203803E+00
         -3   -1    0    0    0  501 -0.00000000000E+00  0.00000000000E+00  0.44290842380E+03  0.44290842380E+03  0.00000000000E+00 0.  1.
         21   -1    0    0  501  502  0.00000000000E+00 -0.00000000000E+00 -0.10247148405E+03  0.10247148405E+03  0.00000000000E+00 0.  1.
         24    2    1    2    0    0  0.11721977343E+02  0.95008417695E+02  0.12984284823E+03  0.17897729472E+03  0.77522271651E+02 0.  0.
         23    2    1    2    0    0  0.10911950337E+03 -0.19674155224E+01  0.13625433997E+03  0.19673915152E+03  0.90719963862E+02 0.  0.
        -11    1    3    3    0    0 -0.25032335963E+02  0.45343576601E+02  0.25542621035E+02  0.57750179844E+02  0.00000000000E+00 0.  1.
         12    1    3    3    0    0  0.36754313306E+02  0.49664841094E+02  0.10430022719E+03  0.12122711487E+03  0.00000000000E+00 0. -1.
        -13    1    4    4    0    0  0.83347093891E+01 -0.34857436318E+02  0.31898956069E+02  0.47979700348E+02  0.00000000000E+00 0. -1.
         13    1    4    4    0    0  0.10078479398E+03  0.32890020795E+02  0.10435538390E+03  0.14875945118E+03  0.00000000000E+00 0.  1.
         -4    1    1    2    0  502 -0.12084148071E+03 -0.93041002173E+02  0.74339751553E+02  0.16966346162E+03  0.00000000000E+00 0.  1.
<scales pt_clust_5="13000.00000" pt_clust_6="13000.00000" pt_clust_7="13000.00000" pt_clust_8="13000.00000" pt_clust_9="127.37244"></scales>
<clustering>
<clus scale="   77.522">  5  6 -1 -1</clus>
<clus scale="   90.720">  7  8 -1 -1</clus>
<clus scale="  123.182">  1  5  2 -1</clus>
<clus scale="  127.372">  2  9  1 -1</clus>
<clus scale="  127.372">  2  5  1 -1</clus>
</clustering>
</event>
<event>
 9    2  0.1302972E-004  0.8717256E+02  0.7546771E-02  0.1310799E+00
          2   -1    0    0  502    0 -0.00000000000E+00  0.00000000000E+00  0.39646964202E+03  0.39646964202E+03  0.00000000000E+00 0. -1.
         21   -1    0    0  501  502  0.00000000000E+00 -0.00000000000E+00 -0.45471757415E+02  0.45471757415E+02  0.00000000000E+00 0.  1.
         23    2    1    2    0    0  0.15034579733E+02  0.45848460781E+02  0.25867674947E+03  0.27532533718E+03  0.81007781300E+02 0.  0.
         24    2    1    2    0    0  0.13041194420E+02 -0.37305265621E+01  0.82024537914E+02  0.11496154269E+03  0.79398626546E+02 0.  0.
        -13    1    4    4    0    0 -0.20159894783E+02 -0.55149842111E+01 -0.52654006062E+01  0.21553673749E+02  0.00000000000E+00 0.  1.
         14    1    4    4    0    0  0.33201089203E+02  0.17844576490E+01  0.87289938520E+02  0.93407868941E+02  0.00000000000E+00 0. -1.
        -13    1    3    3    0    0  0.12146949132E+02  0.68024420866E+02  0.22057635357E+03  0.23114670225E+03  0.00000000000E+00 0. -1.
         13    1    3    3    0    0  0.28876306009E+01 -0.22175960085E+02  0.38100395908E+02  0.44178634932E+02  0.00000000000E+00 0.  1.
          1    1    1    2  501    0 -0.28075774152E+02 -0.42117934219E+02  0.10296597216E+02  0.51654519564E+02  0.00000000000E+00 0. -1.
<scales pt_clust_5="13000.00000" pt_clust_6="13000.00000" pt_clust_7="13000.00000" pt_clust_8="13000.00000" pt_clust_9="50.61788"></scales>
<clustering>
<clus scale="   50.618">  2  9  1 -1</clus>
<clus scale="   79.399">  5  6 -1 -1</clus>
<clus scale="   81.008">  7  8 -1 -1</clus>
<clus scale="   85.679">  2  5  1 -1</clus>
<clus scale="   50.618">  2  5  1 -1</clus>
</clustering>
</event>
<event>
 9    2  0.1302972E-004  0.1380962E+03  0.7546771E-02  0.1219462E+00
         21   -1    0    0  501  502  0.00000000000E+00  0.00000000000E+00  0.10376470449E+03  0.10376470449E+03  0.00000000000E+00 0. -1.
          2   -1    0    0  502    0 -0.00000000000E+00 -0.00000000000E+00 -0.95561542976E+03  0.95561542976E+03  0.00000000000E+00 0. -1.
         24    2    1    2    0    0  0.87785910571E+02  0.42254291862E+02 -0.81949241183E+03  0.82917427771E+03  0.80438662882E+02 0.  0.
         23    2    1    2    0    0 -0.96813680615E+02 -0.92164790816E+02 -0.56909060597E+02  0.17385607638E+03  0.95498987927E+02 0.  0.
        -11    1    3    3    0    0  0.37817172415E+02  0.22788785738E+02 -0.12415941269E+03  0.13177642826E+03  0.00000000000E+00 0.  1.
         12    1    3    3    0    0  0.49968738156E+02  0.19465506125E+02 -0.69533299914E+03  0.69739784945E+03  0.00000000000E+00 0. -1.
        -11    1    4    4    0    0 -0.50068207797E+01 -0.46832084402E+02  0.14203862980E+02  0.49194126757E+02  0.00000000000E+00 0.  1.
         11    1    4    4    0    0 -0.91806859836E+02 -0.45332706413E+02 -0.71112923577E+02  0.12466194962E+03  0.00000000000E+00 0. -1.
          1    1    1    2  501    0  0.90277700444E+01  0.49910498954E+02  0.24550747163E+02  0.56349780159E+02  0.00000000000E+00 0. -1.
<scales pt_clust_5="13000.00000" pt_clust_6="13000.00000" pt_clust_7="13000.00000" pt_clust_8="13000.00000" pt_clust_9="50.72040"></scales>
<clustering>
<clus scale="   50.720">  1  9  2 -1</clus>
<clus scale="   80.439">  5  6 -1 -1</clus>
<clus scale="   95.499">  7  8 -1 -1</clus>
<clus scale="  128.144">  2  5  1 -1</clus>
<clus scale="   50.720">  1  5  2 -1</clus>
</clustering>
</event>
<event>
 9    2  0.1302972E-004  0.2128883E+03  0.7546771E-02  0.1140855E+00
         -1   -1    0    0    0  501 -0.00000000000E+00  0.00000000000E+00  0.39057106600E+03  0.39057106600E+03  0.00000000000E+00 0.  1.
         21   -1    0    0  501  502  0.00000000000E+00 -0.00000000000E+00 -0.22844871786E+03  0.22844871786E+03  0.00000000000E+00 0.  1.
         24    2    1    2    0    0  0.10391045634E+03  0.19549691568E+03  0.18749986963E+03  0.29887806273E+03  0.71801589772E+02 0.  0.
         23    2    1    2    0    0 -0.11519689737E+03 -0.11380939094E+03  0.65574003442E+02  0.19737195556E+03  0.91830475802E+02 0.  0.
        -13    1    3    3    0    0  0.83663036416E+02  0.14593202145E+03  0.98261304548E+02  0.19481001647E+03  0.00000000000E+00 0.  1.
         14    1    3    3    0    0  0.20247419919E+02  0.49564894228E+02  0.89238565087E+02  0.10406804626E+03  0.00000000000E+00 0. -1.
        -11    1    4    4    0    0 -0.78512881080E+02 -0.18302538623E+02  0.10846097743E+02  0.81344288378E+02  0.00000000000E+00 0. -1.
         11    1    4    4    0    0 -0.36684016291E+02 -0.95506852314E+02  0.54727905699E+02  0.11602766718E+03  0.00000000000E+00 0.  1.
         -2    1    1    2    0  502  0.11286441036E+02 -0.81687524742E+02 -0.90951524930E+02  0.12276976556E+03  0.00000000000E+00 0.  1.
<scales pt_clust_5="13000.00000" pt_clust_6="13000.00000" pt_clust_7="13000.00000" pt_clust_8="13000.00000" pt_clust_9="82.46354"></scales>
<clustering>
<clus scale="   71.802">  5  6 -1 -1</clus>
<clus scale="   82.464">  2  9  1 -1</clus>
<clus scale="   91.830">  7  8 -1 -1</clus>
<clus scale="  205.046">  1  5  2 -1</clus>
<clus scale="   82.464">  2  5  1 -1</clus>
</clustering>
</event>
<event>
 9    2  0.1302972E-004  0.1098686E+03  0.7546771E-02  0.1264987E+00
          2   -1    0    0  502    0 -0.00000000000E+00  0.00000000000E+00  0.12721718196E+04  0.12721718196E+04  0.00000000000E+00 0. -1.
         21   -1    0    0  501  502  0.00000000000E+00 -0.00000000000E+00 -0.34301626234E+02  0.34301626234E+02  0.00000000000E+00 0. -1.
         24    2    1    2    0    0 -0.14252061066E+02 -0.71104752677E+02  0.45950561297E+03  0.47232199571E+03  0.81753606558E+02 0.  0.
         23    2    1    2    0    0 -0.78432259093E+02  0.16917696051E+02  0.13591454876E+03  0.18279236063E+03  0.92208756822E+02 0.  0.
        -11    1    3    3    0    0  0.31690389267E+02 -0.15798941966E+02  0.11231242650E+03  0.11776233899E+03  0.00000000000E+00 0.  1.
         12    1    3    3    0    0 -0.45942450333E+02 -0.55305810712E+02  0.34719318647E+03  0.35455965672E+03  0.00000000000E+00 0. -1.
        -13    1    4    4    0    0 -0.84685293602E+02 -0.34566072891E+01  0.59743272492E+02  0.10369573614E+03  0.00000000000E+00 0. -1.
         13    1    4    4    0    0  0.62530345093E+01  0.20374303340E+02  0.76171276264E+02  0.79096624484E+02  0.00000000000E+00 0.  1.
          1    1    1    2  501    0  0.92684320159E+02  0.54187056627E+02  0.64245003166E+03  0.65135908952E+03  0.00000000000E+00 0. -1.
<scales pt_clust_5="13000.00000" pt_clust_6="13000.00000" pt_clust_7="13000.00000" pt_clust_8="13000.00000" pt_clust_9="107.36215"></scales>
<clustering>
<clus scale="   81.754">  5  6 -1 -1</clus>
<clus scale="   92.209">  7  8 -1 -1</clus>
<clus scale="  107.362">  2  9  1 -1</clus>
<clus scale="  101.254">  1  5  2 -1</clus>
<clus scale="  107.362">  2  5  1 -1</clus>
</clustering>
</event>
<event>
 9    2  0.1302972E-004  0.1001918E+03  0.7546771E-02  0.1285432E+00
         -1   -1    0    0    0  501 -0.00000000000E+00  0.00000000000E+00  0.14682379471E+03  0.14682379471E+03  0.00000000000E+00 0.  1.
         21   -1    0    0  501  502  0.00000000000E+00 -0.00000000000E+00 -0.11214552602E+03  0.11214552602E+03  0.00000000000E+00 0. -1.
         23    2    1    2    0    0  0.37600136683E+02 -0.60303097391E+01  0.69913167357E+02  0.12139040737E+03  0.91638666055E+02 0.  0.
         24    2    1    2    0    0 -0.41279751210E+02  0.32383926465E+02 -0.48650318489E+02  0.10777914546E+03  0.80602445089E+02 0.  0.
        -13    1    4    4    0    0 -0.20874007103E+02 -0.11046851634E+02  0.15066956681E+02  0.28013751751E+02  0.00000000000E+00 0.  1.
         14    1    4    4    0    0 -0.20405744107E+02  0.43430778099E+02 -0.63717275170E+02  0.79765393712E+02  0.00000000000E+00 0. -1.
        -13    1    3    3    0    0  0.20737964339E+02 -0.44554778608E+02  0.61120785616E+02  0.78427940787E+02  0.00000000000E+00 0.  1.
         13    1    3    3    0    0  0.16862172345E+02  0.38524468869E+02  0.87923817407E+01  0.42962466579E+02  0.00000000000E+00 0. -1.
         -2    1    1    2    0  502  0.36796145267E+01 -0.26353616726E+02  0.13415419828E+02  0.29799767898E+02  0.00000000000E+00 0.  1.
<scales pt_clust_5="13000.00000" pt_clust_6="13000.00000" pt_clust_7="13000.00000" pt_clust_8="13000.00000" pt_clust_9="26.60927"></scales>
<clustering>
<clus scale="   26.609">  2  9  1 -1</clus>
<clus scale="   80.602">  5  6 -1 -1</clus>
<clus scale="   90.208">  2  5  1 -1</clus>
<clus scale="   91.639">  7  8 -1 -1</clus>
<clus scale="   26.609">  2  5  1 -1</clus>
</clustering>
</event>
<event>
 9    2  0.1302972E-004  0.2816754E+03  0.7546771E-02  0.1124027E+00
         -1   -1    0    0    0  501 -0.00000000000E+00  0.00000000000E+00  0.51038159616E+02  0.51038159616E+02  0.00000000000E+00 0.  1.
         21   -1    0    0  501  502  0.00000000000E+00 -0.00000000000E+00 -0.27587128370E+04  0.27587128370E+04  0.00000000000E+00 0.  1.
         24    2    1    2    0    0  0.23302867800E+02  0.10324760253E+03 -0.60914503271E+03  0.62362107499E+03  0.81501430745E+02 0.  0.
         23    2    1    2    0    0 -0.25930785734E+03 -0.18663942967E+03 -0.84219033300E+03  0.90509868939E+03  0.88567708287E+02 0.  0.
        -13    1    3    3    0    0 -0.27379267237E+01  0.10703738537E+03 -0.47483956257E+03  0.48676185994E+03  0.00000000000E+00 0.  1.
         14    1    3    3    0    0  0.26040794524E+02 -0.37897828377E+01 -0.13430547014E+03  0.13685921505E+03  0.00000000000E+00 0. -1.
        -13    1    4    4    0    0 -0.31321671657E+01 -0.20068882154E+02 -0.10740922232E+03  0.10931290657E+03  0.00000000000E+00 0. -1.
         13    1    4    4    0    0 -0.25617569017E+03 -0.16657054752E+03 -0.73478111068E+03  0.79578578283E+03  0.00000000000E+00 0.  1.
         -2    1    1    2    0  502  0.23600498954E+03  0.83391827138E+02 -0.12563393117E+04  0.12810312322E+04  0.00000000000E+00 0.  1.
<scales pt_clust_5="13000.00000" pt_clust_6="13000.00000" pt_clust_7="13000.00000" pt_clust_8="13000.00000" pt_clust_9="267.38886"></scales>
<clustering>
<clus scale="   81.501">  5  6 -1 -1</clus>
<clus scale="   88.568">  7  8 -1 -1</clus>
<clus scale="  133.587">  1  5  2 -1</clus>
<clus scale="  267.389">  2  9  1 -1</clus>
<clus scale="  267.389">  2  5  1 -1</clus>
</clustering>
</event>
<event>
 9    2  0.1302972E-004  0.9945777E+02  0.7546771E-02  0.1285756E+00
         21   -1    0    0  501  502  0.00000000000E+00  0.00000000000E+00  0.73460186166E+02  0.73460186166E+02  0.00000000000E+00 0.  1.
          2   -1    0    0  502    0 -0.00000000000E+00 -0.00000000000E+00 -0.40380601150E+03  0.40380601150E+03  0.00000000000E+00 0. -1.
         24    2    1    2    0    0  0.50226902300E+02  0.30747166576E+02 -0.14124776907E+03  0.17338190478E+03  0.81499832338E+02 0.  0.
         23    2    1    2    0    0  0.19051238388E+02 -0.72752686714E+01  0.88233893159E+01  0.92878867861E+02  0.90181775752E+02 0.  0.
        -11    1    3    3    0    0  0.25887037807E+02  0.33743395519E+02 -0.15501268941E+02  0.45266376112E+02  0.00000000000E+00 0.  1.
         12    1    3    3    0    0  0.24339864493E+02 -0.29962289429E+01 -0.12574650013E+03  0.12811552867E+03  0.00000000000E+00 0. -1.
        -13    1    4    4    0    0  0.48823297934E+02  0.23232601426E+01  0.27859650089E+02  0.56260750634E+02  0.00000000000E+00 0.  1.
         13    1    4    4    0    0 -0.29772059546E+02 -0.95985288139E+01 -0.19036260773E+02  0.36618117227E+02  0.00000000000E+00 0. -1.
          1    1    1    2  501    0 -0.69278140688E+02 -0.23471897904E+02 -0.19792144559E+03  0.21100542503E+03  0.00000000000E+00 0. -1.
<scales pt_clust_5="13000.00000" pt_clust_6="13000.00000" pt_clust_7="13000.00000" pt_clust_8="13000.00000" pt_clust_9="73.14640"></scales>
<clustering>
<clus scale="   73.146">  1  9  2 -1</clus>
<clus scale="   81.500">  5  6 -1 -1</clus>
<clus scale="   90.182">  7  8 -1 -1</clus>
<clus scale="   91.659">  2  5  1 -1</clus>
<clus scale="   73.146">  1  5  2 -1</clus>
</clustering>
</event>
<event>
 9    2  0.1302972E-004  0.1109267E+03  0.7546771E-02  0.1262697E+00
          2   -1    0    0  502    0 -0.00000000000E+00  0.00000000000E+00  0.74422056579E+03  0.74422056579E+03  0.00000000000E+00 0. -1.
         21   -1    0    0  501  502  0.00000000000E+00 -0.00000000000E+00 -0.21755342945E+02  0.21755342945E+02  0.00000000000E+00 0. -1.
         23    2    1    2    0    0  0.81654392387E+02  0.14319326064E+02  0.39764513592E+03  0.41615165528E+03  0.90487917305E+02 0.  0.
         24    2    1    2    0    0 -0.45165211701E+02 -0.66731523028E+01  0.22472738068E+03  0.24301379459E+03  0.80429356715E+02 0.  0.
        -13    1    4    4    0    0 -0.31632524850E+02  0.30203872264E+02  0.17070952898E+03  0.17622324992E+03  0.00000000000E+00 0.  1.
         14    1    4    4    0    0 -0.13532686850E+02 -0.36877024567E+02  0.54017851705E+02  0.66790544668E+02  0.00000000000E+00 0. -1.
        -13    1    3    3    0    0  0.15673109263E+02  0.43396986009E+02  0.10386640300E+03  0.11365374794E+03  0.00000000000E+00 0. -1.
         13    1    3    3    0    0  0.65981283124E+02 -0.29077659944E+02  0.29377873292E+03  0.30249790734E+03  0.00000000000E+00 0.  1.
          1    1    1    2  501    0 -0.36489180687E+02 -0.76461737615E+01  0.10009270624E+03  0.10681045886E+03  0.00000000000E+00 0. -1.
<scales pt_clust_5="13000.00000" pt_clust_6="13000.00000" pt_clust_7="13000.00000" pt_clust_8="13000.00000" pt_clust_9="37.28169"></scales>
<clustering>
<clus scale="   37.282">  2  9  1 -1</clus>
<clus scale="   80.429">  5  6 -1 -1</clus>
<clus scale="   90.488">  7  8 -1 -1</clus>
<clus scale="  102.886">  2  5  1 -1</clus>
<clus scale="   37.282">  2  5  1 -1</clus>
</clustering>
</event>
<event>
 9    2  0.1302972E-004  0.2711204E+03  0.7546771E-02  0.1109459E+00
         21   -1    0    0  501  502  0.00000000000E+00  0.00000000000E+00  0.90985731070E+02  0.90985731070E+02  0.00000000000E+00 0. -1.
          2   -1    0    0  502    0 -0.00000000000E+00 -0.00000000000E+00 -0.31534656167E+04  0.31534656167E+04  0.00000000000E+00 0. -1.
         23    2    1    2    0    0 -0.29373638114E+02 -0.19353680509E+03 -0.47853830248E+03  0.52508050182E+03  0.91604153359E+02 0.  0.
         24    2    1    2    0    0  0.23636751108E+03 -0.87024878136E+02 -0.26788393902E+03  0.37721706525E+03  0.84190140849E+02 0.  0.
        -13    1    4    4    0    0  0.66676171455E+01 -0.24536699435E+02 -0.13365201125E+02  0.28725169080E+02  0.00000000000E+00 0.  1.
         14    1    4    4    0    0  0.22969989394E+03 -0.62488178701E+02 -0.25451873790E+03  0.34849189617E+03  0.00000000000E+00 0. -1.
        -11    1    3    3    0    0 -0.58766981173E+01 -0.19204067818E+03 -0.43612872742E+03  0.47657362971E+03  0.00000000000E+00 0. -1.
         11    1    3    3    0    0 -0.23496939996E+02 -0.14961269064E+01 -0.42409575055E+02  0.48506872103E+02  0.00000000000E+00 0.  1.
          1    1    1    2  501    0 -0.20699387297E+03  0.28056168322E+03 -0.23160576442E+04  0.23421537807E+04  0.00000000000E+00 0. -1.
<scales pt_clust_5="13000.00000" pt_clust_6="13000.00000" pt_clust_7="13000.00000" pt_clust_8="13000.00000" pt_clust_9="257.71762"></scales>
<clustering>
<clus scale="   84.190">  5  6 -1 -1</clus>
<clus scale="   91.604">  7  8 -1 -1</clus>
<clus scale="  216.127">  2  7  1 -1</clus>
<clus scale="  257.718">  1  9  2 -1</clus>
<clus scale="  257.718">  1  5  2 -1</clus>
</clustering>
</event>
<event>
 9    2  0.1302972E-004  0.1430004E+03  0.7546771E-02  0.1231976E+00
          4   -1    0    0  502    0 -0.00000000000E+00  0.00000000000E+00  0.48260805151E+03  0.48260805151E+03  0.00000000000E+00 0. -1.
         21   -1    0    0  501  502  0.00000000000E+00 -0.00000000000E+00 -0.10910042168E+03  0.10910042168E+03  0.00000000000E+00 0. -1.
         24    2    1    2    0    0  0.24890102408E+02  0.87313853269E+01  0.11500977625E+02  0.89703333506E+02  0.84962705161E+02 0.  0.
         23    2    1    2    0    0 -0.10659414955E+02  0.10341487732E+03  0.36396006354E+03  0.38894271221E+03  0.89449681649E+02 0.  0.
        -11    1    3    3    0    0  0.33057262938E+02  0.40889990550E+02 -0.46791541447E+01  0.52788904551E+02  0.00000000000E+00 0.  1.
         12    1    3    3    0    0 -0.81671605303E+01 -0.32158605223E+02  0.16180131770E+02  0.36914428956E+02  0.00000000000E+00 0. -1.
        -13    1    4    4    0    0 -0.34292302745E+02  0.88643490042E+02  0.33707643893E+03  0.35022015367E+03  0.00000000000E+00 0. -1.
         13    1    4    4    0    0  0.23632887789E+02  0.14771387279E+02  0.26883624610E+02  0.38722558536E+02  0.00000000000E+00 0.  1.
          3    1    1    2  501    0 -0.14230687452E+02 -0.11214626265E+03 -0.19534113400E+01  0.11306242748E+03  0.00000000000E+00 0. -1.
<scales pt_clust_5="13000.00000" pt_clust_6="13000.00000" pt_clust_7="13000.00000" pt_clust_8="13000.00000" pt_clust_9="111.56999"></scales>
<clustering>
<clus scale="   84.963">  5  6 -1 -1</clus>
<clus scale="   88.963">  1  5  2 -1</clus>
<clus scale="   89.450">  7  8 -1 -1</clus>
<clus scale="  111.570">  2  9  1 -1</clus>
<clus scale="  111.570">  2  5  1 -1</clus>
</clustering>
</event>
<event>
 9    2  0.1302972E-004  0.1021992E+03  0.7546771E-02  0.1276920E+00
         -1   -1    0    0    0  501 -0.00000000000E+00  0.00000000000E+00  0.16240033521E+03  0.16240033521E+03  0.00000000000E+00 0.  1.
         21   -1    0    0  501  502  0.00000000000E+00 -0.00000000000E+00 -0.10999169992E+03  0.10999169992E+03  0.00000000000E+00 0. -1.
         23    2    1    2    0    0  0.30313922829E+02 -0.40367110978E+02  0.69454746535E+02  0.12536998677E+03  0.91352253396E+02 0.  0.
         24    2    1    2    0    0 -0.49304316284E+02  0.25323601437E+01 -0.56090254064E+00  0.10159226165E+03  0.88788200589E+02 0.  0.
        -11    1    4    4    0    0 -0.17496929862E+02  0.36897642832E+02  0.25360696218E+02  0.48070193611E+02  0.00000000000E+00 0.  1.
         12    1    4    4    0    0 -0.31807386422E+02 -0.34365282688E+02 -0.25921598759E+02  0.53522068041E+02  0.00000000000E+00 0. -1.
        -11    1    3    3    0    0  0.97832171400E+01 -0.67141424485E+02  0.59362466656E+02  0.90153117899E+02  0.00000000000E+00 0. -1.
         11    1    3    3    0    0  0.20530705689E+02  0.26774313508E+02  0.10092279879E+02  0.35216868871E+02  0.00000000000E+00 0.  1.
         -2    1    1    2    0  502  0.18990393454E+02  0.37834750834E+02 -0.16485208711E+02  0.45429786710E+02  0.00000000000E+00 0.  1.
<scales pt_clust_5="13000.00000" pt_clust_6="13000.00000" pt_clust_7="13000.00000" pt_clust_8="13000.00000" pt_clust_9="42.33324"></scales>
<clustering>
<clus scale="   42.333">  2  9  1 -1</clus>
<clus scale="   88.788">  5  6 -1 -1</clus>
<clus scale="   91.352">  7  8 -1 -1</clus>
<clus scale="   99.914">  2  5  1 -1</clus>
<clus scale="   42.333">  2  5  1 -1</clus>
</clustering>
</event>
<event>
 9    2  0.1302972E-004  0.1201798E+03  0.7546771E-02  0.1246434E+00
         21   -1    0    0  501  502  0.00000000000E+00  0.00000000000E+00  0.57634954513E+03  0.57634954513E+03  0.00000000000E+00 0.  1.
         -1   -1    0    0    0  501 -0.00000000000E+00 -0.00000000000E+00 -0.47541509385E+02  0.47541509385E+02  0.00000000000E+00 0.  1.
         23    2    1    2    0    0  0.64728379818E+02 -0.82615099764E+02  0.25354313514E+03  0.28935628312E+03  0.91803700049E+02 0.  0.
         24    2    1    2    0    0 -0.48003706306E+02  0.25297692580E+02  0.25276330583E+03  0.27072786239E+03  0.80373861589E+02 0.  0.
        -13    1    4    4    0    0  0.14628814557E+02  0.27497232107E+02  0.54232691479E+02  0.62540265541E+02  0.00000000000E+00 0.  1.
         14    1    4    4    0    0 -0.62632520863E+02 -0.21995395267E+01  0.19853061436E+03  0.20818759684E+03  0.00000000000E+00 0. -1.
        -13    1    3    3    0    0 -0.23482982472E+02 -0.18866661483E+02  0.45559331803E+02  0.54617342444E+02  0.00000000000E+00 0. -1.
         13    1    3    3    0    0  0.88211362290E+02 -0.63748438281E+02  0.20798380333E+03  0.23473894067E+03  0.00000000000E+00 0.  1.
         -2    1    1    2    0  502 -0.16724673513E+02  0.57317407184E+02  0.22501594778E+02  0.63806909014E+02  0.00000000000E+00 0.  1.
<scales pt_clust_5="13000.00000" pt_clust_6="13000.00000" pt_clust_7="13000.00000" pt_clust_8="13000.00000" pt_clust_9="59.70765"></scales>
<clustering>
<clus scale="   59.708">  1  9  2 -1</clus>
<clus scale="   80.374">  5  6 -1 -1</clus>
<clus scale="   91.804">  7  8 -1 -1</clus>
<clus scale="  111.693">  1  5  2 -1</clus>
<clus scale="   59.708">  1  5  2 -1</clus>
</clustering>
</event>
<event>
 9    2  0.1302972E-004  0.1111027E+03  0.7546771E-02  0.1264048E+00
          2   -1    0    0  502    0 -0.00000000000E+00  0.00000000000E+00  0.42080713710E+03  0.42080713710E+03  0.00000000000E+00 0. -1.
         21   -1    0    0  501  502  0.00000000000E+00 -0.00000000000E+00 -0.12105607056E+03  0.12105607056E+03  0.00000000000E+00 0. -1.
         23    2    1    2    0    0  0.60053971468E+02 -0.23060910766E+02  0.36705990976E+03  0.38417128461E+03  0.93361198962E+02 0.  0.
         24    2    1    2    0    0 -0.38169804675E+02  0.67376452324E+01 -0.37449810028E+01  0.88512949849E+02  0.79487027596E+02 0.  0.
        -11    1    4    4    0    0 -0.47352322896E+02  0.28484996232E+02 -0.21165625395E+02  0.59174497821E+02  0.00000000000E+00 0.  1.
         12    1    4    4    0    0  0.91825182209E+01 -0.21747350999E+02  0.17420644393E+02  0.29338452028E+02  0.00000000000E+00 0. -1.
        -11    1    3    3    0    0 -0.24400573115E+02 -0.13172872489E+02  0.74003556384E+02  0.79028089281E+02  0.00000000000E+00 0.  1.
         11    1    3    3    0    0  0.84454544582E+02 -0.98880382767E+01  0.29305635337E+03  0.30514319533E+03  0.00000000000E+00 0. -1.
          1    1    1    2  501    0 -0.21884166793E+02  0.16323265533E+02 -0.63563862214E+02  0.69178973203E+02  0.00000000000E+00 0. -1.
<scales pt_clust_5="13000.00000" pt_clust_6="13000.00000" pt_clust_7="13000.00000" pt_clust_8="13000.00000" pt_clust_9="27.30139"></scales>
<clustering>
<clus scale="   27.301">  2  9  1 -1</clus>
<clus scale="   79.487">  5  6 -1 -1</clus>
<clus scale="   93.361">  7  8 -1 -1</clus>
<clus scale="   99.728">  2  5  1 -1</clus>
<clus scale="   27.301">  2  5  1 -1</clus>
</clustering>
</event>
<event>
 9    2  0.1302972E-004  0.1059472E+03  0.7546771E-02  0.1272924E+00
         21   -1    0    0  501  502  0.00000000000E+00  0.00000000000E+00  0.36017007849E+02  0.36017007849E+02  0.00000000000E+00 0. -1.
          2   -1    0    0  502    0 -0.00000000000E+00 -0.00000000000E+00 -0.39979053814E+03  0.39979053814E+03  0.00000000000E+00 0. -1.
         23    2    1    2    0    0 -0.53470731453E+02 -0.52117712646E-01 -0.19194139137E+03  0.21915432918E+03  0.91257878774E+02 0.  0.
         24    2    1    2    0    0  0.50220200136E+02  0.29791385036E+02 -0.14847813790E+03  0.17870062351E+03  0.80489504183E+02 0.  0.
        -11    1    4    4    0    0  0.44387401647E+02 -0.13566437408E+02 -0.38373745401E+02  0.60223201385E+02  0.00000000000E+00 0.  1.
         12    1    4    4    0    0  0.58327984890E+01  0.43357822444E+02 -0.11010439250E+03  0.11847742212E+03  0.00000000000E+00 0. -1.
        -13    1    3    3    0    0 -0.27155196358E+02  0.45218608280E+02 -0.84095830048E+02  0.99268503844E+02  0.00000000000E+00 0. -1.
         13    1    3    3    0    0 -0.26315535095E+02 -0.45270725993E+02 -0.10784556132E+03  0.11988582533E+03  0.00000000000E+00 0.  1.
          1    1    1    2  501    0  0.32505313165E+01 -0.29739267323E+02 -0.23354001021E+02  0.37952593303E+02  0.00000000000E+00 0. -1.
<scales pt_clust_5="13000.00000" pt_clust_6="13000.00000" pt_clust_7="13000.00000" pt_clust_8="13000.00000" pt_clust_9="29.91638"></scales>
<clustering>
<clus scale="   29.916">  1  9  2 -1</clus>
<clus scale="   80.490">  5  6 -1 -1</clus>
<clus scale="   91.258">  7  8 -1 -1</clus>
<clus scale="   96.826">  1  5  2 -1</clus>
<clus scale="   29.916">  1  5  2 -1</clus>
</clustering>
</event>
<event>
 9    2  0.1302972E-004  0.2679969E+03  0.7546771E-02  0.1148909E+00
          2   -1    0    0  502    0 -0.00000000000E+00  0.00000000000E+00  0.59373645530E+03  0.59373645530E+03  0.00000000000E+00 0. -1.
         21   -1    0    0  501  502  0.00000000000E+00 -0.00000000000E+00 -0.16915520526E+03  0.16915520526E+03  0.00000000000E+00 0. -1.
         24    2    1    2    0    0 -0.26937653288E+02 -0.81959296794E+01  0.71298107602E+02  0.11077238392E+03  0.79964307431E+02 0.  0.
         23    2    1    2    0    0 -0.38929856608E+02  0.25144781640E+03  0.28179034701E+03  0.39016273626E+03  0.89886723111E+02 0.  0.
        -11    1    3    3    0    0  0.19742593590E+02 -0.27740896391E+02  0.31597995545E+02  0.46451702409E+02  0.00000000000E+00 0.  1.
         12    1    3    3    0    0 -0.46680246877E+02  0.19544966711E+02  0.39700112057E+02  0.64320681508E+02  0.00000000000E+00 0. -1.
        -11    1    4    4    0    0  0.64445952094E+01  0.15449403461E+03  0.21190511379E+03  0.26232368705E+03  0.00000000000E+00 0. -1.
         11    1    4    4    0    0 -0.45374451818E+02  0.96953781786E+02  0.69885233218E+02  0.12783904921E+03  0.00000000000E+00 0.  1.
          1    1    1    2  501    0  0.65867509896E+02 -0.24325188672E+03  0.71492795425E+02  0.26195654038E+03  0.00000000000E+00 0. -1.
<scales pt_clust_5="13000.00000" pt_clust_6="13000.00000" pt_clust_7="13000.00000" pt_clust_8="13000.00000" pt_clust_9="252.47321"></scales>
<clustering>
<clus scale="   79.964">  5  6 -1 -1</clus>
<clus scale="   84.777">  1  5  2 -1</clus>
<clus scale="   89.887">  7  8 -1 -1</clus>
<clus scale="  252.473">  2  9  1 -1</clus>
<clus scale="  252.473">  2  5  1 -1</clus>
</clustering>
</event>
<event>
 9    2  0.1302972E-004  0.1468344E+03  0.7546771E-02  0.1225018E+00
          4   -1    0    0  502    0 -0.00000000000E+00  0.00000000000E+00  0.25112734355E+03  0.25112734355E+03  0.00000000000E+00 0. -1.
         21   -1    0    0  501  502  0.00000000000E+00 -0.00000000000E+00 -0.15954418095E+03  0.15954418095E+03  0.00000000000E+00 0.  1.
         24    2    1    2    0    0 -0.50052578733E+02  0.66438865000E+01 -0.50981286500E+02  0.10773158653E+03  0.80359201691E+02 0.  0.
         23    2    1    2    0    0  0.11724721592E+02  0.10234954004E+03  0.11785977003E+03  0.18479209488E+03  0.98205374069E+02 0.  0.
        -11    1    3    3    0    0 -0.44649010508E+02  0.40700862427E+02 -0.31861452941E+02  0.68302609945E+02  0.00000000000E+00 0.  1.
         12    1    3    3    0    0 -0.54035682250E+01 -0.34056975927E+02 -0.19119833558E+02  0.39428976580E+02  0.00000000000E+00 0. -1.
        -11    1    4    4    0    0  0.24288574350E+02  0.64107700723E+02  0.12626114911E+03  0.14367188281E+03  0.00000000000E+00 0.  1.
         11    1    4    4    0    0 -0.12563852758E+02  0.38241839313E+02 -0.84013790782E+01  0.41120212068E+02  0.00000000000E+00 0. -1.
          3    1    1    2  501    0  0.38327857142E+02 -0.10899342654E+03  0.24704679065E+02  0.11814784310E+03  0.00000000000E+00 0. -1.
<scales pt_clust_5="13000.00000" pt_clust_6="13000.00000" pt_clust_7="13000.00000" pt_clust_8="13000.00000" pt_clust_9="109.16059"></scales>
<clustering>
<clus scale="   80.359">  5  6 -1 -1</clus>
<clus scale="   94.905">  1  5  2 -1</clus>
<clus scale="   98.205">  7  8 -1 -1</clus>
<clus scale="  109.161">  2  9  1 -1</clus>
<clus scale="  109.161">  2  5  1 -1</clus>
</clustering>
</event>
<event>
 9    2  0.1302972E-004  0.2363742E+03  0.7546771E-02  0.1123392E+00
          2   -1    0    0  502    0 -0.00000000000E+00  0.00000000000E+00  0.10090939598E+04  0.10090939598E+04  0.00000000000E+00 0. -1.
         21   -1    0    0  501  502  0.00000000000E+00 -0.00000000000E+00 -0.11592346344E+03  0.11592346344E+03  0.00000000000E+00 0. -1.
         24    2    1    2    0    0 -0.18792789223E+03 -0.16074534829E+03  0.65714385124E+03  0.70602832884E+03  0.74040530956E+02 0.  0.
         23    2    1    2    0    0  0.13375230983E+03  0.11654634204E+03  0.27405076804E+03  0.33940027731E+03  0.92822381710E+02 0.  0.
        -13    1    3    3    0    0 -0.91755132014E+02 -0.11452738415E+03  0.31243460695E+03  0.34518242944E+03  0.00000000000E+00 0.  1.
         14    1    3    3    0    0 -0.96172760216E+02 -0.46217964143E+02  0.34470924429E+03  0.36084589940E+03  0.00000000000E+00 0. -1.
        -13    1    4    4    0    0  0.50556758315E+02  0.19718772795E+02  0.25450165825E+02  0.59937690583E+02  0.00000000000E+00 0. -1.
         13    1    4    4    0    0  0.83195551513E+02  0.96827569247E+02  0.24860060222E+03  0.27946258673E+03  0.00000000000E+00 0.  1.
          1    1    1    2  501    0  0.54175582403E+02  0.44199006249E+02 -0.38024122922E+02  0.79588817092E+02  0.00000000000E+00 0. -1.
<scales pt_clust_5="13000.00000" pt_clust_6="13000.00000" pt_clust_7="13000.00000" pt_clust_8="13000.00000" pt_clust_9="69.91814"></scales>
<clustering>
<clus scale="   69.918">  2  9  1 -1</clus>
<clus scale="   74.041">  5  6 -1 -1</clus>
<clus scale="   92.822">  7  8 -1 -1</clus>
<clus scale="  229.649">  1  5  2 -1</clus>
<clus scale="   69.918">  2  5  1 -1</clus>
</clustering>
</event>
<event>
 9    2  0.1302972E-004  0.4149285E+03  0.7546771E-02  0.1054552E+00
          2   -1    0    0  502    0 -0.00000000000E+00  0.00000000000E+00  0.23144383759E+04  0.23144383759E+04  0.00000000000E+00 0. -1.
         21   -1    0    0  501  502  0.00000000000E+00 -0.00000000000E+00 -0.16859145326E+03  0.16859145326E+03  0.00000000000E+00 0. -1.
         23    2    1    2    0    0  0.19487422652E+03  0.15498768571E+03  0.65158646634E+03  0.70281106797E+03  0.85914651041E+02 0.  0.
         24    2    1    2    0    0  0.24461903997E+03 -0.23321844519E+03  0.11905938069E+04  0.12403226444E+04  0.81592469704E+02 0.  0.
        -11    1    4    4    0    0  0.15329454782E+03 -0.16020110319E+03  0.63616371144E+03  0.67369717204E+03  0.00000000000E+00 0.  1.
         12    1    4    4    0    0  0.91324492150E+02 -0.73017341995E+02  0.55443009548E+03  0.56662547231E+03  0.00000000000E+00 0. -1.
        -11    1    3    3    0    0  0.11368195454E+03  0.43117461192E+02  0.24781946041E+03  0.27603837995E+03  0.00000000000E+00 0. -1.
         11    1    3    3    0    0  0.81192271975E+02  0.11187022452E+03  0.40376700594E+03  0.42677268803E+03  0.00000000000E+00 0.  1.
          1    1    1    2  501    0 -0.43949326648E+03  0.78230759480E+02  0.30366664935E+03  0.53989611681E+03  0.00000000000E+00 0. -1.
<scales pt_clust_5="13000.00000" pt_clust_6="13000.00000" pt_clust_7="13000.00000" pt_clust_8="13000.00000" pt_clust_9="406.82711"></scales>
<clustering>
<clus scale="   81.592">  5  6 -1 -1</clus>
<clus scale="   85.915">  7  8 -1 -1</clus>
<clus scale="  263.398">  1  7  2 -1</clus>
<clus scale="  406.827">  2  9  1 -1</clus>
<clus scale="  406.827">  2  5  1 -1</clus>
</clustering>
</event>
<event>
 9    2  0.1302972E-004  0.1767218E+03  0.7546771E-02  0.1172447E+00
          2   -1    0    0  502    0 -0.00000000000E+00  0.00000000000E+00  0.14680828537E+04  0.14680828537E+04  0.00000000000E+00 0. -1.
         21   -1    0    0  501  502  0.00000000000E+00 -0.00000000000E+00 -0.26683430458E+02  0.26683430458E+02  0.00000000000E+00 0. -1.
         24    2    1    2    0    0 -0.10565530001E+03 -0.92316044973E+02  0.57004640920E+03  0.59250102873E+03  0.80120320908E+02 0.  0.
         23    2    1    2    0    0  0.14220370250E+03  0.85599949055E+02  0.62491894092E+03  0.65304518388E+03  0.91624697461E+02 0.  0.
        -13    1    3    3    0    0 -0.10938105248E+03 -0.59696453421E+02  0.38804469414E+03  0.40756173256E+03  0.00000000000E+00 0.  1.
         14    1    3    3    0    0  0.37257524699E+01 -0.32619591553E+02  0.18200171506E+03  0.18493929617E+03  0.00000000000E+00 0. -1.
        -13    1    4    4    0    0  0.39118037783E+02  0.31151758483E+01  0.52195400872E+02  0.65301493649E+02  0.00000000000E+00 0.  1.
         13    1    4    4    0    0  0.10308566471E+03  0.82484773207E+02  0.57272354005E+03  0.58774369023E+03  0.00000000000E+00 0. -1.
          1    1    1    2  501    0 -0.36548402487E+02  0.67160959184E+01  0.24643407316E+03  0.24922007159E+03  0.00000000000E+00 0. -1.
<scales pt_clust_5="13000.00000" pt_clust_6="13000.00000" pt_clust_7="13000.00000" pt_clust_8="13000.00000" pt_clust_9="37.16037"></scales>
<clustering>
<clus scale="   37.160">  2  9  1 -1</clus>
<clus scale="   80.120">  5  6 -1 -1</clus>
<clus scale="   91.625">  7  8 -1 -1</clus>
<clus scale="  171.040">  1  5  2 -1</clus>
<clus scale="   37.160">  2  5  1 -1</clus>
</clustering>
</event>
<event>
 9    2  0.1302972E-004  0.9905328E+02  0.7546771E-02  0.1285134E+00
          4   -1    0    0  502    0 -0.00000000000E+00  0.00000000000E+00  0.31233995982E+03  0.31233995982E+03  0.00000000000E+00 0. -1.
         21   -1    0    0  501  502  0.00000000000E+00 -0.00000000000E+00 -0.94890490601E+02  0.94890490601E+02  0.00000000000E+00 0. -1.
         24    2    1    2    0    0 -0.44414147318E+02 -0.79439181532E+01  0.26080626037E+03  0.27774715097E+03  0.84189382364E+02 0.  0.
         23    2    1    2    0    0  0.13729874117E+02  0.38073851314E+01 -0.32868559709E+02  0.96793262346E+02  0.89919896538E+02 0.  0.
        -11    1    3    3    0    0 -0.39311158510E+02  0.31574913792E+02  0.98923857712E+02  0.11103275188E+03  0.00000000000E+00 0.  1.
         12    1    3    3    0    0 -0.51029888084E+01 -0.39518831945E+02  0.16188240266E+03  0.16671439909E+03  0.00000000000E+00 0. -1.
        -11    1    4    4    0    0 -0.27269937440E+02 -0.96598800973E+01 -0.43598913795E+02  0.52324258767E+02  0.00000000000E+00 0. -1.
         11    1    4    4    0    0  0.40999811557E+02  0.13467265229E+02  0.10730354086E+02  0.44469003578E+02  0.00000000000E+00 0.  1.
          3    1    1    2  501    0  0.30684273202E+02  0.41365330217E+01 -0.10488231444E+02  0.32690037109E+02  0.00000000000E+00 0. -1.
<scales pt_clust_5="13000.00000" pt_clust_6="13000.00000" pt_clust_7="13000.00000" pt_clust_8="13000.00000" pt_clust_9="30.96184"></scales>
<clustering>
<clus scale="   30.962">  2  9  1 -1</clus>
<clus scale="   84.189">  5  6 -1 -1</clus>
<clus scale="   89.920">  7  8 -1 -1</clus>
<clus scale="   93.882">  1  5  2 -1</clus>
<clus scale="   30.962">  2  5  1 -1</clus>
</clustering>
</event>
<event>
 9    2  0.1302972E-004  0.9905205E+02  0.7546771E-02  0.1285378E+00
          2   -1    0    0  502    0 -0.00000000000E+00  0.00000000000E+00  0.15799133909E+04  0.15799133909E+04  0.00000000000E+00 0. -1.
         21   -1    0    0  501  502  0.00000000000E+00 -0.00000000000E+00 -0.13988820538E+02  0.13988820538E+02  0.00000000000E+00 0. -1.
         24    2    1    2    0    0  0.28569332425E+02 -0.36964134516E+02  0.10338748996E+04  0.10382234013E+04  0.82631525257E+02 0.  0.
         23    2    1    2    0    0 -0.54629865173E+02 -0.96114835691E+01  0.30726030188E+03  0.32464050178E+03  0.88914338013E+02 0.  0.
        -13    1    3    3    0    0  0.21160831732E+02 -0.52369673836E+00  0.59743366381E+02  0.63382370454E+02  0.00000000000E+00 0.  1.
         14    1    3    3    0    0  0.74085006935E+01 -0.36440437777E+02  0.97413153326E+03  0.97484103088E+03  0.00000000000E+00 0. -1.
        -13    1    4    4    0    0  0.17263414495E+02 -0.25849700811E+02  0.93114819822E+02  0.98166196741E+02  0.00000000000E+00 0.  1.
         13    1    4    4    0    0 -0.71893279668E+02  0.16238217242E+02  0.21414548205E+03  0.22647430504E+03  0.00000000000E+00 0. -1.
          1    1    1    2  501    0  0.26060532748E+02  0.46575618085E+02  0.22478936885E+03  0.23103830832E+03  0.00000000000E+00 0. -1.
<scales pt_clust_5="13000.00000" pt_clust_6="13000.00000" pt_clust_7="13000.00000" pt_clust_8="13000.00000" pt_clust_9="53.37077"></scales>
<clustering>
<clus scale="   53.371">  2  9  1 -1</clus>
<clus scale="   82.632">  5  6 -1 -1</clus>
<clus scale="   88.914">  7  8 -1 -1</clus>
<clus scale="   93.453">  1  5  2 -1</clus>
<clus scale="   53.371">  2  5  1 -1</clus>
</clustering>
</event>
<event>
 9    2  0.1302972E-004  0.1076550E+03  0.7546771E-02  0.1269608E+00
         21   -1    0    0  501  502  0.00000000000E+00  0.00000000000E+00  0.67626199413E+03  0.67626199413E+03  0.00000000000E+00 0.  1.
          2   -1    0    0  502    0 -0.00000000000E+00 -0.00000000000E+00 -0.43435651103E+02  0.43435651103E+02  0.00000000000E+00 0. -1.
         23    2    1    2    0    0 -0.40203512163E+01  0.25950718501E+02  0.22873688734E+03  0.24792120491E+03  0.91949753669E+02 0.  0.
         24    2    1    2    0    0  0.25423608969E+02 -0.99401896275E+02  0.36111395859E+03  0.38402640722E+03  0.80906696120E+02 0.  0.
        -13    1    4    4    0    0  0.34353965460E+02 -0.10426015723E+03  0.35620617606E+03  0.37273746148E+03  0.00000000000E+00 0.  1.
         14    1    4    4    0    0 -0.89303564910E+01  0.48582609546E+01  0.49077825343E+01  0.11288945742E+02  0.00000000000E+00 0. -1.
        -11    1    3    3    0    0  0.25747202336E+02  0.45681132811E+02  0.18011604797E+03  0.18759390997E+03  0.00000000000E+00 0.  1.
         11    1    3    3    0    0 -0.29767553552E+02 -0.19730414310E+02  0.48620839368E+02  0.60327294935E+02  0.00000000000E+00 0. -1.
          1    1    1    2  501    0 -0.21403257752E+02  0.73451177774E+02  0.42975497097E+02  0.87750033103E+02  0.00000000000E+00 0. -1.
<scales pt_clust_5="13000.00000" pt_clust_6="13000.00000" pt_clust_7="13000.00000" pt_clust_8="13000.00000" pt_clust_9="76.50608"></scales>
<clustering>
<clus scale="   76.506">  1  9  2 -1</clus>
<clus scale="   80.907">  5  6 -1 -1</clus>
<clus scale="   91.950">  7  8 -1 -1</clus>
<clus scale="   98.391">  1  5  2 -1</clus>
<clus scale="   76.506">  1  5  2 -1</clus>
</clustering>
</event>
<event>
 9    2  0.1302972E-004  0.1040860E+03  0.7546771E-02  0.1272684E+00
         21   -1    0    0  501  502  0.00000000000E+00  0.00000000000E+00  0.26275346648E+03  0.26275346648E+03  0.00000000000E+00 0.  1.
         -1   -1    0    0    0  501 -0.00000000000E+00 -0.00000000000E+00 -0.17019478087E+03  0.17019478087E+03  0.00000000000E+00 0.  1.
         24    2    1    2    0    0 -0.99528721727E+01 -0.63883589712E+02 -0.95079156304E+02  0.14114657483E+03  0.81866580012E+02 0.  0.
         23    2    1    2    0    0 -0.84041517075E+02  0.48740959553E+02  0.10877029076E+03  0.16817184164E+03  0.83738488406E+02 0.  0.
        -11    1    3    3    0    0 -0.29983843567E+02 -0.75447518972E+02 -0.74344305852E+02  0.11008376268E+03  0.00000000000E+00 0.  1.
         12    1    3    3    0    0  0.20030971395E+02  0.11563929260E+02 -0.20734850452E+02  0.31062812143E+02  0.00000000000E+00 0. -1.
        -13    1    4    4    0    0 -0.43887621166E+02  0.41987565102E+02  0.11191326835E+03  0.12733286515E+03  0.00000000000E+00 0.  1.
         13    1    4    4    0    0 -0.40153895909E+02  0.67533944505E+01 -0.31429775885E+01  0.40838976498E+02  0.00000000000E+00 0. -1.
         -2    1    1    2    0  502  0.93994389248E+02  0.15142630160E+02  0.78867551155E+02  0.12362983088E+03  0.00000000000E+00 0.  1.
<scales pt_clust_5="13000.00000" pt_clust_6="13000.00000" pt_clust_7="13000.00000" pt_clust_8="13000.00000" pt_clust_9="95.20633"></scales>
<clustering>
<clus scale="   81.867">  5  6 -1 -1</clus>
<clus scale="   83.738">  7  8 -1 -1</clus>
<clus scale="   95.206">  1  9  2 -1</clus>
<clus scale="  102.586">  2  5  1 -1</clus>
<clus scale="   95.206">  1  5  2 -1</clus>
</clustering>
</event>
<event>
 9    2  0.1302972E-004  0.1543312E+03  0.7546771E-02  0.1214300E+00
         21   -1    0    0  501  502  0.00000000000E+00  0.00000000000E+00  0.18866415676E+03  0.18866415676E+03  0.00000000000E+00 0. -1.
         -3   -1    0    0    0  501 -0.00000000000E+00 -0.00000000000E+00 -0.47378181664E+03  0.47378181664E+03  0.00000000000E+00 0.  1.
         24    2    1    2    0    0 -0.57226370618E+02  0.24927964864E+02 -0.18076953678E+03  0.20774719454E+03  0.81148077513E+02 0.  0.
         23    2    1    2    0    0 -0.49520559717E+02  0.10368415760E+03  0.10818263229E+03  0.18431884771E+03  0.95222189230E+02 0.  0.
        -13    1    3    3    0    0 -0.42522103664E+02  0.54604336488E+02 -0.12528124796E+03  0.14312635660E+03  0.00000000000E+00 0.  1.
         14    1    3    3    0    0 -0.14704266954E+02 -0.29676371624E+02 -0.55488288821E+02  0.64620837938E+02  0.00000000000E+00 0. -1.
        -11    1    4    4    0    0  0.26016010418E+02  0.46619261501E+02  0.28152834385E+02  0.60355367821E+02  0.00000000000E+00 0.  1.
         11    1    4    4    0    0 -0.75536570134E+02  0.57064896097E+02  0.80029797904E+02  0.12396347989E+03  0.00000000000E+00 0. -1.
         -4    1    1    2    0  502  0.10674693033E+03 -0.12861212246E+03 -0.21253075539E+03  0.27037993115E+03  0.00000000000E+00 0.  1.
<scales pt_clust_5="13000.00000" pt_clust_6="13000.00000" pt_clust_7="13000.00000" pt_clust_8="13000.00000" pt_clust_9="121.45312"></scales>
<clustering>
<clus scale="   81.148">  5  6 -1 -1</clus>
<clus scale="   95.222">  7  8 -1 -1</clus>
<clus scale="  102.378">  2  5  1 -1</clus>
<clus scale="  121.453">  1  9  2 -1</clus>
<clus scale="  121.453">  1  5  2 -1</clus>
</clustering>
</event>
<event>
 9    2  0.1302972E-004  0.9818393E+02  0.7546771E-02  0.1290199E+00
         -1   -1    0    0    0  501 -0.00000000000E+00  0.00000000000E+00  0.95263261975E+02  0.95263261975E+02  0.00000000000E+00 0.  1.
         21   -1    0    0  501  502  0.00000000000E+00 -0.00000000000E+00 -0.48527878247E+03  0.48527878247E+03  0.00000000000E+00 0.  1.
         24    2    1    2    0    0  0.45466012653E+02  0.12719912671E+02  0.48240754814E+02  0.10449775016E+03  0.79772519569E+02 0.  0.
         23    2    1    2    0    0  0.20431342654E+02 -0.22696501271E+01 -0.12698868042E+03  0.15770613281E+03  0.91227782485E+02 0.  0.
        -11    1    3    3    0    0  0.42675476188E+02  0.17061722411E+02  0.69111565225E+02  0.82998235447E+02  0.00000000000E+00 0.  1.
         12    1    3    3    0    0  0.27905364652E+01 -0.43418097403E+01 -0.20870810412E+02  0.21499514711E+02  0.00000000000E+00 0. -1.
        -13    1    4    4    0    0  0.47335230102E+02 -0.28931947550E+02 -0.79965499041E+02  0.97325036011E+02  0.00000000000E+00 0.  1.
         13    1    4    4    0    0 -0.26903887448E+02  0.26662297423E+02 -0.47023181381E+02  0.60381096801E+02  0.00000000000E+00 0. -1.
         -2    1    1    2    0  502 -0.65897355306E+02 -0.10450262544E+02 -0.31126759489E+03  0.31833816147E+03  0.00000000000E+00 0.  1.
<scales pt_clust_5="13000.00000" pt_clust_6="13000.00000" pt_clust_7="13000.00000" pt_clust_8="13000.00000" pt_clust_9="66.72083"></scales>
<clustering>
<clus scale="   66.721">  2  9  1 -1</clus>
<clus scale="   79.773">  5  6 -1 -1</clus>
<clus scale="   87.643">  1  5  2 -1</clus>
<clus scale="   91.228">  7  8 -1 -1</clus>
<clus scale="   66.721">  2  5  1 -1</clus>
</clustering>
</event>
<event>
 9    2  0.1302972E-004  0.1191827E+03  0.7546771E-02  0.1248944E+00
         21   -1    0    0  501  502  0.00000000000E+00  0.00000000000E+00  0.10675138120E+03  0.10675138120E+03  0.00000000000E+00 0.  1.
          2   -1    0    0  502    0 -0.00000000000E+00 -0.00000000000E+00 -0.33032181782E+03  0.33032181782E+03  0.00000000000E+00 0. -1.
         24    2    1    2    0    0 -0.67499311709E+02  0.27771226476E+02 -0.18121125238E+03  0.21006865287E+03  0.77226438651E+02 0.  0.
         23    2    1    2    0    0  0.10832636970E+03  0.36958698892E+02 -0.23646513116E+02  0.14822018246E+03  0.91156552746E+02 0.  0.
        -11    1    3    3    0    0 -0.55219873321E+02 -0.16288381258E+02 -0.75991880261E+02  0.95337881449E+02  0.00000000000E+00 0.  1.
         12    1    3    3    0    0 -0.12279438388E+02  0.44059607734E+02 -0.10521937212E+03  0.11473077142E+03  0.00000000000E+00 0. -1.
        -13    1    4    4    0    0  0.60412923318E+02  0.27223965006E+01 -0.54790574930E+02  0.81603552911E+02  0.00000000000E+00 0. -1.
         13    1    4    4    0    0  0.47913446384E+02  0.34236302392E+02  0.31144061814E+02  0.66616629546E+02  0.00000000000E+00 0.  1.
          1    1    1    2  501    0 -0.40827057993E+02 -0.64729925368E+02 -0.18712671123E+02  0.78784363697E+02  0.00000000000E+00 0. -1.
<scales pt_clust_5="13000.00000" pt_clust_6="13000.00000" pt_clust_7="13000.00000" pt_clust_8="13000.00000" pt_clust_9="76.52981"></scales>
<clustering>
<clus scale="   76.530">  1  9  2 -1</clus>
<clus scale="   77.226">  5  6 -1 -1</clus>
<clus scale="   91.157">  7  8 -1 -1</clus>
<clus scale="  108.899">  2  5  1 -1</clus>
<clus scale="   76.530">  1  5  2 -1</clus>
</clustering>
</event>
<event>
 9    2  0.1302972E-004  0.1282245E+03  0.7546771E-02  0.1234383E+00
         -3   -1    0    0    0  501 -0.00000000000E+00  0.00000000000E+00  0.34449872947E+03  0.34449872947E+03  0.00000000000E+00 0.  1.
         21   -1    0    0  501  502  0.00000000000E+00 -0.00000000000E+00 -0.80614798358E+02  0.80614798358E+02  0.00000000000E+00 0. -1.
         23    2    1    2    0    0 -0.60003681333E+02 -0.56123080351E+02  0.17211060786E+03  0.21197691379E+03  0.92530582623E+02 0.  0.
         24    2    1    2    0    0  0.94104414152E+02  0.55671544027E+02  0.21995401346E+02  0.13547051944E+03  0.76899300263E+02 0.  0.
        -13    1    4    4    0    0  0.53226090992E+02 -0.79084174407E+01  0.26029947275E+02  0.59775563434E+02  0.00000000000E+00 0.  1.
         14    1    4    4    0    0  0.40878323160E+02  0.63579961468E+02 -0.40345459292E+01  0.75694956011E+02  0.00000000000E+00 0. -1.
        -11    1    3    3    0    0  0.15761404115E+02 -0.43367085247E+02  0.76270504131E+02  0.89142109818E+02  0.00000000000E+00 0. -1.
         11    1    3    3    0    0 -0.75765085448E+02 -0.12755995104E+02  0.95840103734E+02  0.12283480398E+03  0.00000000000E+00 0.  1.
         -4    1    1    2    0  502 -0.34100732819E+02  0.45153632364E+00  0.69777921902E+02  0.77666094589E+02  0.00000000000E+00 0.  1.
<scales pt_clust_5="13000.00000" pt_clust_6="13000.00000" pt_clust_7="13000.00000" pt_clust_8="13000.00000" pt_clust_9="34.10374"></scales>
<clustering>
<clus scale="   34.104">  2  9  1 -1</clus>
<clus scale="   76.899">  5  6 -1 -1</clus>
<clus scale="   92.531">  7  8 -1 -1</clus>
<clus scale="  117.444">  2  5  1 -1</clus>
<clus scale="   34.104">  2  5  1 -1</clus>
</clustering>
</event>
<event>
 9    2  0.1302972E-004  0.1308204E+03  0.7546771E-02  0.1226829E+00
          2   -1    0    0  502    0 -0.00000000000E+00  0.00000000000E+00  0.39061444676E+03  0.39061444676E+03  0.00000000000E+00 0. -1.
         21   -1    0    0  501  502  0.00000000000E+00 -0.00000000000E+00 -0.76067884423E+02  0.76067884423E+02  0.00000000000E+00 0. -1.
         24    2    1    2    0    0 -0.95114521684E+02 -0.42192072894E+02  0.28172946439E+03  0.31076109868E+03  0.79837498065E+02 0.  0.
         23    2    1    2    0    0  0.10205117872E+03  0.20453624996E+02  0.27226680119E+02  0.13242803988E+03  0.77221109709E+02 0.  0.
        -13    1    3    3    0    0 -0.63326712002E+02  0.89477741711E+01  0.94666538918E+02  0.11424573824E+03  0.00000000000E+00 0.  1.
         14    1    3    3    0    0 -0.31787809682E+02 -0.51139847065E+02  0.18706292547E+03  0.19651536044E+03  0.00000000000E+00 0. -1.
        -11    1    4    4    0    0  0.24983791325E+02  0.25324054791E+02  0.40683684789E+02  0.54043128962E+02  0.00000000000E+00 0.  1.
         11    1    4    4    0    0  0.77067387390E+02 -0.48704297953E+01 -0.13457004670E+02  0.78384910922E+02  0.00000000000E+00 0. -1.
          1    1    1    2  501    0 -0.69366570307E+01  0.21738447899E+02  0.55904178257E+01  0.23493192616E+02  0.00000000000E+00 0. -1.
<scales pt_clust_5="13000.00000" pt_clust_6="13000.00000" pt_clust_7="13000.00000" pt_clust_8="13000.00000" pt_clust_9="22.81836"></scales>
<clustering>
<clus scale="   22.818">  2  9  1 -1</clus>
<clus scale="   77.221">  7  8 -1 -1</clus>
<clus scale="   79.837">  5  6 -1 -1</clus>
<clus scale="  129.240">  2  7  1 -1</clus>
<clus scale="   22.818">  2  5  1 -1</clus>
</clustering>
</event>
<event>
 9    2  0.1302972E-004  0.2628160E+03  0.7546771E-02  0.1140594E+00
          2   -1    0    0  502    0 -0.00000000000E+00  0.00000000000E+00  0.10155585339E+04  0.10155585339E+04  0.00000000000E+00 0. -1.
         21   -1    0    0  501  502  0.00000000000E+00 -0.00000000000E+00 -0.17962616395E+03  0.17962616395E+03  0.00000000000E+00 0. -1.
         24    2    1    2    0    0 -0.51131589660E+02  0.57903059524E+02 -0.24330289163E+02  0.11233466661E+03  0.77845427531E+02 0.  0.
         23    2    1    2    0    0  0.11491916753E+03 -0.27722475448E+03  0.77699938496E+03  0.83973764205E+03  0.10663622127E+03 0.  0.
        -13    1    3    3    0    0 -0.31500007925E+02  0.18135335895E+01  0.20733455235E+02  0.37754676126E+02  0.00000000000E+00 0.  1.
         14    1    3    3    0    0 -0.19631581734E+02  0.56089525934E+02 -0.45063744398E+02  0.74579990481E+02  0.00000000000E+00 0. -1.
        -13    1    4    4    0    0  0.68068307852E+02 -0.53220459616E+02  0.16317350393E+03  0.18463830654E+03  0.00000000000E+00 0.  1.
         13    1    4    4    0    0  0.46850859678E+02 -0.22400429486E+03  0.61382588103E+03  0.65509933552E+03  0.00000000000E+00 0. -1.
          1    1    1    2  501    0 -0.63787577870E+02  0.21932169495E+03  0.83263274169E+02  0.24311238922E+03  0.00000000000E+00 0. -1.
<scales pt_clust_5="13000.00000" pt_clust_6="13000.00000" pt_clust_7="13000.00000" pt_clust_8="13000.00000" pt_clust_9="240.21030"></scales>
<clustering>
<clus scale="   77.845">  5  6 -1 -1</clus>
<clus scale="  106.636">  7  8 -1 -1</clus>
<clus scale="  109.668">  1  5  2 -1</clus>
<clus scale="  240.210">  2  9  1 -1</clus>
<clus scale="  240.210">  2  5  1 -1</clus>
</clustering>
</event>
<event>
 9    2  0.1302972E-004  0.1455053E+03  0.7546771E-02  0.1224562E+00
         21   -1    0    0  501  502  0.00000000000E+00  0.00000000000E+00  0.23234316477E+03  0.23234316477E+03  0.00000000000E+00 0.  1.
         -3   -1    0    0    0  501 -0.00000000000E+00 -0.00000000000E+00 -0.43128179175E+03  0.43128179175E+03  0.00000000000E+00 0.  1.
         24    2    1    2    0    0  0.47205595931E+02  0.31323136684E+02  0.33594314778E+02  0.10403280880E+03  0.80527884257E+02 0.  0.
         23    2    1    2    0    0 -0.67331798731E+02  0.76796847759E+02 -0.36282632426E+03  0.38908889086E+03  0.96518891782E+02 0.  0.
        -11    1    3    3    0    0  0.25809598360E+02  0.50842905517E+02  0.45271117820E+02  0.72805291824E+02  0.00000000000E+00 0.  1.
         12    1    3    3    0    0  0.21395997571E+02 -0.19519768832E+02 -0.11676803042E+02  0.31227516978E+02  0.00000000000E+00 0. -1.
        -11    1    4    4    0    0 -0.47678241084E+01 -0.22210445288E+02 -0.45877518780E+02  0.51193581200E+02  0.00000000000E+00 0. -1.
         11    1    4    4    0    0 -0.62563974622E+02  0.99007293048E+02 -0.31694880548E+03  0.33789530966E+03  0.00000000000E+00 0.  1.
         -4    1    1    2    0  502  0.20126202800E+02 -0.10811998444E+03  0.13029338250E+03  0.17050325686E+03  0.00000000000E+00 0.  1.
<scales pt_clust_5="13000.00000" pt_clust_6="13000.00000" pt_clust_7="13000.00000" pt_clust_8="13000.00000" pt_clust_9="108.88477"></scales>
<clustering>
<clus scale="   80.528">  5  6 -1 -1</clus>
<clus scale="   96.519">  7  8 -1 -1</clus>
<clus scale="   98.459">  2  5  1 -1</clus>
<clus scale="  108.885">  1  9  2 -1</clus>
<clus scale="  108.885">  1  5  2 -1</clus>
</clustering>
</event>
<event>
 9    2  0.1302972E-004  0.9725827E+02  0.7546771E-02  0.1288575E+00
         21   -1    0    0  501  502  0.00000000000E+00  0.00000000000E+00  0.21109509051E+03  0.21109509051E+03  0.00000000000E+00 0. -1.
          4   -1    0    0  502    0 -0.00000000000E+00 -0.00000000000E+00 -0.16489565502E+03  0.16489565502E+03  0.00000000000E+00 0. -1.
         23    2    1    2    0    0  0.39430470713E+02  0.25730796712E+02 -0.12855648681E+03  0.16167909320E+03  0.86003040401E+02 0.  0.
         24    2    1    2    0    0 -0.15942619436E+02 -0.25287566568E+02  0.16945624320E+03  0.19022924778E+03  0.81105611476E+02 0.  0.
        -11    1    4    4    0    0 -0.20693473528E+02  0.18455428979E+02  0.19362553960E+02  0.33819095217E+02  0.00000000000E+00 0.  1.
         12    1    4    4    0    0  0.47508540922E+01 -0.43742995547E+02  0.15009368924E+03  0.15641015256E+03  0.00000000000E+00 0. -1.
        -11    1    3    3    0    0 -0.21378730224E+02 -0.98084995805E+01 -0.55104784008E+02  0.59914889556E+02  0.00000000000E+00 0.  1.
         11    1    3    3    0    0  0.60809200937E+02  0.35539296293E+02 -0.73451702802E+02  0.10176420365E+03  0.00000000000E+00 0. -1.
          3    1    1    2  501    0 -0.23487851277E+02 -0.44323014465E+00  0.52996790985E+01  0.24082404554E+02  0.00000000000E+00 0. -1.
<scales pt_clust_5="13000.00000" pt_clust_6="13000.00000" pt_clust_7="13000.00000" pt_clust_8="13000.00000" pt_clust_9="23.49203"></scales>
<clustering>
<clus scale="   23.492">  1  9  2 -1</clus>
<clus scale="   81.106">  5  6 -1 -1</clus>
<clus scale="   86.003">  7  8 -1 -1</clus>
<clus scale="   92.956">  1  5  2 -1</clus>
<clus scale="   23.492">  1  5  2 -1</clus>
</clustering>
</event>
<event>
 9    2  0.1302972E-004  0.1270742E+03  0.7546771E-02  0.1234606E+00
          2   -1    0    0  502    0 -0.00000000000E+00  0.00000000000E+00  0.18524034312E+03  0.18524034312E+03  0.00000000000E+00 0. -1.
         21   -1    0    0  501  502  0.00000000000E+00 -0.00000000000E+00 -0.20831447082E+03  0.20831447082E+03  0.00000000000E+00 0. -1.
         23    2    1    2    0    0 -0.80568465253E+02  0.42819947617E+02  0.13442540305E+03  0.18624445840E+03  0.91060330504E+02 0.  0.
         24    2    1    2    0    0  0.57900087918E+02 -0.44770320159E+02 -0.14442084560E+03  0.18106704613E+03  0.81062277312E+02 0.  0.
        -11    1    4    4    0    0  0.65607740236E+02 -0.13793678029E+02 -0.56990971225E+02  0.87992112906E+02  0.00000000000E+00 0.  1.
         12    1    4    4    0    0 -0.77076523184E+01 -0.30976642130E+02 -0.87429874371E+02  0.93074933222E+02  0.00000000000E+00 0. -1.
        -11    1    3    3    0    0 -0.89659658710E+02  0.54045291832E+01  0.10194273263E+03  0.13586899599E+03  0.00000000000E+00 0. -1.
         11    1    3    3    0    0  0.90911934561E+01  0.37415418434E+02  0.32482670417E+02  0.50375462404E+02  0.00000000000E+00 0.  1.
          1    1    1    2  501    0  0.22668377336E+02  0.19503725420E+01 -0.13078685152E+02  0.26243309422E+02  0.00000000000E+00 0. -1.
<scales pt_clust_5="13000.00000" pt_clust_6="13000.00000" pt_clust_7="13000.00000" pt_clust_8="13000.00000" pt_clust_9="22.75213"></scales>
<clustering>
<clus scale="   22.752">  2  9  1 -1</clus>
<clus scale="   81.062">  5  6 -1 -1</clus>
<clus scale="   91.060">  7  8 -1 -1</clus>
<clus scale="  120.112">  2  5  1 -1</clus>
<clus scale="   22.752">  2  5  1 -1</clus>
</clustering>
</event>
<event>
 9    2  0.1302972E-004  0.2114806E+03  0.7546771E-02  0.1142170E+00
         21   -1    0    0  501  502  0.00000000000E+00  0.00000000000E+00  0.13050436657E+03  0.13050436657E+03  0.00000000000E+00 0. -1.
          2   -1    0    0  502    0 -0.00000000000E+00 -0.00000000000E+00 -0.57787466157E+03  0.57787466157E+03  0.00000000000E+00 0. -1.
         24    2    1    2    0    0 -0.18670975142E+03 -0.45980469477E+02 -0.43365839264E+03  0.48034605707E+03  0.75485085831E+02 0.  0.
         23    2    1    2    0    0  0.16924528926E+03  0.35450688853E+02 -0.31936707950E+02  0.20068288411E+03  0.96710637370E+02 0.  0.
        -11    1    3    3    0    0 -0.43769098086E+02  0.13853362516E+02 -0.15314051257E+03  0.15987390716E+03  0.00000000000E+00 0.  1.
         12    1    3    3    0    0 -0.14294065334E+03 -0.59833831994E+02 -0.28051788007E+03  0.32047214991E+03  0.00000000000E+00 0. -1.
        -11    1    4    4    0    0  0.10918083593E+03 -0.97653975481E+01  0.17072258308E+02  0.11093818066E+03  0.00000000000E+00 0. -1.
         11    1    4    4    0    0  0.60064453334E+02  0.45216086401E+02 -0.49008966258E+02  0.89744703451E+02  0.00000000000E+00 0.  1.
          1    1    1    2  501    0  0.17464462161E+02  0.10529780625E+02  0.18224805582E+02  0.27350086966E+02  0.00000000000E+00 0. -1.
<scales pt_clust_5="13000.00000" pt_clust_6="13000.00000" pt_clust_7="13000.00000" pt_clust_8="13000.00000" pt_clust_9="20.39323"></scales>
<clustering>
<clus scale="   20.393">  1  9  2 -1</clus>
<clus scale="   75.485">  5  6 -1 -1</clus>
<clus scale="   96.711">  7  8 -1 -1</clus>
<clus scale="  202.655">  2  5  1 -1</clus>
<clus scale="   20.393">  1  5  2 -1</clus>
</clustering>
</event>
<event>
 9    2  0.1302972E-004  0.9132211E+02  0.7546771E-02  0.1302713E+00
         21   -1    0    0  501  502  0.00000000000E+00  0.00000000000E+00  0.56011273016E+02  0.56011273016E+02  0.00000000000E+00 0.  1.
         -3   -1    0    0    0  501 -0.00000000000E+00 -0.00000000000E+00 -0.36175319374E+03  0.36175319374E+03  0.00000000000E+00 0.  1.
         23    2    1    2    0    0  0.34637904023E+02  0.67687947117E+01 -0.23182071016E+03  0.25044306071E+03  0.87950463447E+02 0.  0.
         24    2    1    2    0    0  0.21023490861E+02 -0.19568880843E+02 -0.22516237583E+02  0.90480633457E+02  0.82793935831E+02 0.  0.
        -11    1    4    4    0    0  0.26895601859E+02 -0.47658779620E+02 -0.12078103115E+01  0.54737477837E+02  0.00000000000E+00 0.  1.
         12    1    4    4    0    0 -0.58721109978E+01  0.28089898777E+02 -0.21308427272E+02  0.35743155620E+02  0.00000000000E+00 0. -1.
        -11    1    3    3    0    0 -0.28112568214E+02  0.11775648279E+02 -0.57054615824E+02  0.64685481917E+02  0.00000000000E+00 0. -1.
         11    1    3    3    0    0  0.62750472237E+02 -0.50068535674E+01 -0.17476609434E+03  0.18575757879E+03  0.00000000000E+00 0.  1.
         -4    1    1    2    0  502 -0.55661394884E+02  0.12800086131E+02 -0.51404972983E+02  0.76840772594E+02  0.00000000000E+00 0.  1.
<scales pt_clust_5="13000.00000" pt_clust_6="13000.00000" pt_clust_7="13000.00000" pt_clust_8="13000.00000" pt_clust_9="57.11421"></scales>
<clustering>
<clus scale="   57.114">  1  9  2 -1</clus>
<clus scale="   82.794">  5  6 -1 -1</clus>
<clus scale="   86.367">  1  5  2 -1</clus>
<clus scale="   87.950">  7  8 -1 -1</clus>
<clus scale="   57.114">  1  5  2 -1</clus>
</clustering>
</event>
<event>
 9    2  0.1302972E-004  0.1397987E+03  0.7546771E-02  0.1216118E+00
         21   -1    0    0  501  502  0.00000000000E+00  0.00000000000E+00  0.43396220809E+03  0.43396220809E+03  0.00000000000E+00 0.  1.
          2   -1    0    0  502    0 -0.00000000000E+00 -0.00000000000E+00 -0.27697500309E+03  0.27697500309E+03  0.00000000000E+00 0. -1.
         24    2    1    2    0    0 -0.84197602369E+02  0.61469875596E+02 -0.23842903185E+03  0.27256618948E+03  0.81093418766E+02 0.  0.
         23    2    1    2    0    0  0.11316504490E+03 -0.40464273742E+02  0.29361837428E+03  0.33046757941E+03  0.92484520240E+02 0.  0.
        -11    1    3    3    0    0 -0.63668194357E+01  0.53355391538E+02 -0.92185939831E+02  0.10670324127E+03  0.00000000000E+00 0.  1.
         12    1    3    3    0    0 -0.77830782934E+02  0.81144840584E+01 -0.14624309202E+03  0.16586294820E+03  0.00000000000E+00 0. -1.
        -11    1    4    4    0    0  0.12857845372E+03 -0.27650601495E+02  0.25843422622E+03  0.28997452269E+03  0.00000000000E+00 0.  1.
         11    1    4    4    0    0 -0.15413408815E+02 -0.12813672247E+02  0.35184148062E+02  0.40493056721E+02  0.00000000000E+00 0. -1.
          1    1    1    2  501    0 -0.28967442533E+02 -0.21005601855E+02  0.10179786257E+03  0.10790344230E+03  0.00000000000E+00 0. -1.
<scales pt_clust_5="13000.00000" pt_clust_6="13000.00000" pt_clust_7="13000.00000" pt_clust_8="13000.00000" pt_clust_9="35.78195"></scales>
<clustering>
<clus scale="   35.782">  1  9  2 -1</clus>
<clus scale="   81.093">  5  6 -1 -1</clus>
<clus scale="   92.485">  7  8 -1 -1</clus>
<clus scale="  132.538">  2  5  1 -1</clus>
<clus scale="   35.782">  1  5  2 -1</clus>
</clustering>
</event>
<event>
 9    2  0.1302972E-004  0.2104417E+03  0.7546771E-02  0.1142225E+00
          2   -1    0    0  502    0 -0.00000000000E+00  0.00000000000E+00  0.17795360929E+03  0.17795360929E+03  0.00000000000E+00 0. -1.
         21   -1    0    0  501  502  0.00000000000E+00 -0.00000000000E+00 -0.50217666713E+03  0.50217666713E+03  0.00000000000E+00 0. -1.
         23    2    1    2    0    0  0.14904871914E+03 -0.10587627818E+03 -0.16924512278E+02  0.20526328854E+03  0.91767486326E+02 0.  0.
         24    2    1    2    0    0 -0.19762614338E+03  0.85074885020E+02 -0.34188668685E+03  0.41171001184E+03  0.79528602392E+02 0.  0.
        -13    1    4    4    0    0 -0.77461740799E+02  0.74636797677E+02 -0.18228379032E+03  0.21165621434E+03  0.00000000000E+00 0.  1.
         14    1    4    4    0    0 -0.12016440258E+03  0.10438087342E+02 -0.15960289653E+03  0.20005379751E+03  0.00000000000E+00 0. -1.
        -13    1    3    3    0    0  0.75095156994E+02 -0.55154220333E+02 -0.54601507524E+02  0.10799349632E+03  0.00000000000E+00 0. -1.
         13    1    3    3    0    0  0.73953562142E+02 -0.50722057849E+02  0.37676995246E+02  0.97269792211E+02  0.00000000000E+00 0.  1.
          1    1    1    2  501    0  0.48577424243E+02  0.20801393163E+02  0.34588141292E+02  0.63156976033E+02  0.00000000000E+00 0. -1.
<scales pt_clust_5="13000.00000" pt_clust_6="13000.00000" pt_clust_7="13000.00000" pt_clust_8="13000.00000" pt_clust_9="52.84380"></scales>
<clustering>
<clus scale="   52.844">  2  9  1 -1</clus>
<clus scale="   79.529">  5  6 -1 -1</clus>
<clus scale="   91.767">  7  8 -1 -1</clus>
<clus scale="  205.400">  2  5  1 -1</clus>
<clus scale="   52.844">  2  5  1 -1</clus>
</clustering>
</event>
<event>
 9    2  0.1302972E-004  0.9296699E+02  0.7546771E-02  0.1301699E+00
         21   -1    0    0  501  502  0.00000000000E+00  0.00000000000E+00  0.14536260243E+03  0.14536260243E+03  0.00000000000E+00 0.  1.
         -1   -1    0    0    0  501 -0.00000000000E+00 -0.00000000000E+00 -0.13706235389E+03  0.13706235389E+03  0.00000000000E+00 0.  1.
         23    2    1    2    0    0  0.25106916202E+01  0.90466751782E+01 -0.68365429656E+02  0.11396392836E+03  0.90696191158E+02 0.  0.
         24    2    1    2    0    0  0.13733141112E+02 -0.53077819645E+02  0.29812120711E+02  0.10214466772E+03  0.80863567200E+02 0.  0.
        -13    1    4    4    0    0 -0.21684619681E+02 -0.72309424523E+01  0.37281373009E+02  0.43731110584E+02  0.00000000000E+00 0.  1.
         14    1    4    4    0    0  0.35417760794E+02 -0.45846877192E+02 -0.74692522987E+01  0.58413557141E+02  0.00000000000E+00 0. -1.
        -11    1    3    3    0    0  0.37675277810E+02 -0.62720520775E+01 -0.65089479563E+02  0.75467910698E+02  0.00000000000E+00 0.  1.
         11    1    3    3    0    0 -0.35164586190E+02  0.15318727256E+02 -0.32759500936E+01  0.38496017660E+02  0.00000000000E+00 0. -1.
         -2    1    1    2    0  502 -0.16243832733E+02  0.44031144466E+02  0.46853557485E+02  0.66316360228E+02  0.00000000000E+00 0.  1.
<scales pt_clust_5="13000.00000" pt_clust_6="13000.00000" pt_clust_7="13000.00000" pt_clust_8="13000.00000" pt_clust_9="46.93191"></scales>
<clustering>
<clus scale="   46.932">  1  9  2 -1</clus>
<clus scale="   80.864">  5  6 -1 -1</clus>
<clus scale="   83.403">  1  5  2 -1</clus>
<clus scale="   90.696">  7  8 -1 -1</clus>
<clus scale="   46.932">  1  5  2 -1</clus>
</clustering>
</event>
<event>
 9    2  0.1302972E-004  0.1738702E+03  0.7546771E-02  0.1174651E+00
         21   -1    0    0  501  502  0.00000000000E+00  0.00000000000E+00  0.74874476518E+02  0.74874476518E+02  0.00000000000E+00 0.  1.
          2   -1    0    0  502    0 -0.00000000000E+00 -0.00000000000E+00 -0.11497565972E+04  0.11497565972E+04  0.00000000000E+00 0. -1.
         24    2    1    2    0    0 -0.52587988550E+02 -0.13048863337E+03 -0.81442294616E+03  0.83046823783E+03  0.81240253842E+02 0.  0.
         23    2    1    2    0    0  0.79476258888E+02  0.19344784484E+03 -0.21108952756E+03  0.30975783939E+03  0.87479060452E+02 0.  0.
        -11    1    3    3    0    0  0.58668593114E+00 -0.40553017523E+02 -0.92183808191E+02  0.10071120058E+03  0.00000000000E+00 0.  1.
         12    1    3    3    0    0 -0.53174674481E+02 -0.89935615848E+02 -0.72223913797E+03  0.72975703725E+03  0.00000000000E+00 0. -1.
        -11    1    4    4    0    0 -0.68382014780E+01  0.77536608068E+02 -0.10392049874E+03  0.12983896429E+03  0.00000000000E+00 0. -1.
         11    1    4    4    0    0  0.86314460366E+02  0.11591123677E+03 -0.10716902883E+03  0.17991887510E+03  0.00000000000E+00 0.  1.
          1    1    1    2  501    0 -0.26888270338E+02 -0.62959211470E+02 -0.49369646948E+02  0.84404996478E+02  0.00000000000E+00 0. -1.
<scales pt_clust_5="13000.00000" pt_clust_6="13000.00000" pt_clust_7="13000.00000" pt_clust_8="13000.00000" pt_clust_9="68.46051"></scales>
<clustering>
<clus scale="   68.461">  1  9  2 -1</clus>
<clus scale="   81.240">  5  6 -1 -1</clus>
<clus scale="   87.479">  7  8 -1 -1</clus>
<clus scale="  170.816">  2  5  1 -1</clus>
<clus scale="   68.461">  1  5  2 -1</clus>
</clustering>
</event>
<event>
 9    2  0.1302972E-004  0.2281803E+03  0.7546771E-02  0.1129405E+00
         21   -1    0    0  501  502  0.00000000000E+00  0.00000000000E+00  0.39743476520E+03  0.39743476520E+03  0.00000000000E+00 0.  1.
         -3   -1    0    0    0  501 -0.00000000000E+00 -0.00000000000E+00 -0.29949174254E+03  0.29949174254E+03  0.00000000000E+00 0.  1.
         24    2    1    2    0    0  0.15601235730E+03 -0.15148487910E+03 -0.18212056935E+03  0.30384040593E+03  0.10891999940E+03 0.  0.
         23    2    1    2    0    0 -0.80221466773E+02  0.13448504532E+03  0.12575568654E+03  0.22033141120E+03  0.90607543377E+02 0.  0.
        -13    1    3    3    0    0  0.14337443791E+03 -0.10943067903E+03 -0.18681864124E+03  0.25967769961E+03  0.00000000000E+00 0.  1.
         14    1    3    3    0    0  0.12637919389E+02 -0.42054200076E+02  0.46980718864E+01  0.44162706325E+02  0.00000000000E+00 0. -1.
        -13    1    4    4    0    0 -0.40555669088E+02  0.71442420612E+01  0.70455877677E+01  0.41778496823E+02  0.00000000000E+00 0.  1.
         13    1    4    4    0    0 -0.39665797685E+02  0.12734080326E+03  0.11871009878E+03  0.17855291438E+03  0.00000000000E+00 0. -1.
         -4    1    1    2    0  502 -0.75790890530E+02  0.16999833784E+02  0.15430790547E+03  0.17275469060E+03  0.00000000000E+00 0.  1.
<scales pt_clust_5="13000.00000" pt_clust_6="13000.00000" pt_clust_7="13000.00000" pt_clust_8="13000.00000" pt_clust_9="77.67402"></scales>
<clustering>
<clus scale="   77.674">  1  9  2 -1</clus>
<clus scale="   90.608">  7  8 -1 -1</clus>
<clus scale="  108.920">  5  6 -1 -1</clus>
<clus scale="  220.028">  1  7  2 -1</clus>
<clus scale="   77.674">  1  5  2 -1</clus>
</clustering>
</event>
<event>
 9    2  0.1302972E-004  0.1884327E+03  0.7546771E-02  0.1180961E+00
          2   -1    0    0  502    0 -0.00000000000E+00  0.00000000000E+00  0.58547781647E+03  0.58547781647E+03  0.00000000000E+00 0. -1.
         21   -1    0    0  501  502  0.00000000000E+00 -0.00000000000E+00 -0.20898614446E+03  0.20898614446E+03  0.00000000000E+00 0. -1.
         24    2    1    2    0    0  0.80807028255E+02 -0.26591855354E+02 -0.97777911001E+02  0.15200788788E+03  0.79429059619E+02 0.  0.
         23    2    1    2    0    0 -0.89911728604E+02  0.15390204005E+03  0.61995170678E+02  0.21087645147E+03  0.94103771039E+02 0.  0.
        -11    1    3    3    0    0  0.56242959662E+02 -0.54728366305E+02 -0.59111744719E+02  0.98247966664E+02  0.00000000000E+00 0.  1.
         12    1    3    3    0    0  0.24564068593E+02  0.28136510951E+02 -0.38666166281E+02  0.53759921217E+02  0.00000000000E+00 0. -1.
        -13    1    4    4    0    0  0.93355811484E+01  0.68878451586E+02  0.99905049382E+01  0.70222534539E+02  0.00000000000E+00 0.  1.
         13    1    4    4    0    0 -0.99247309752E+02  0.85023588467E+02  0.52004665739E+02  0.14065391693E+03  0.00000000000E+00 0. -1.
          1    1    1    2  501    0  0.91047003491E+01 -0.12731018470E+03  0.41227441234E+03  0.43157962158E+03  0.00000000000E+00 0. -1.
<scales pt_clust_5="13000.00000" pt_clust_6="13000.00000" pt_clust_7="13000.00000" pt_clust_8="13000.00000" pt_clust_9="163.25259"></scales>
<clustering>
<clus scale="   79.429">  5  6 -1 -1</clus>
<clus scale="   94.104">  7  8 -1 -1</clus>
<clus scale="  116.387">  1  5  2 -1</clus>
<clus scale="  163.253">  2  9  1 -1</clus>
<clus scale="  163.253">  2  5  1 -1</clus>
</clustering>
</event>
<event>
 9    2  0.1302972E-004  0.1831560E+03  0.7546771E-02  0.1164959E+00
         21   -1    0    0  501  502  0.00000000000E+00  0.00000000000E+00  0.17835318783E+03  0.17835318783E+03  0.00000000000E+00 0. -1.
         -1   -1    0    0    0  501 -0.00000000000E+00 -0.00000000000E+00 -0.49412058403E+03  0.49412058403E+03  0.00000000000E+00 0.  1.
         23    2    1    2    0    0  0.15724751693E+03 -0.59998544118E+02 -0.21405519977E+03  0.28741032104E+03  0.91969871245E+02 0.  0.
         24    2    1    2    0    0 -0.12782899320E+03 -0.95764208883E+01  0.87621104834E+02  0.18121737098E+03  0.93436171758E+02 0.  0.
        -13    1    4    4    0    0  0.68656751305E+01 -0.21073384870E+02  0.47924013228E+01  0.22675805506E+02  0.00000000000E+00 0.  1.
         14    1    4    4    0    0 -0.13469466833E+03  0.11496963982E+02  0.82828703511E+02  0.15854156547E+03  0.00000000000E+00 0. -1.
        -13    1    3    3    0    0  0.36558822833E+02  0.23402391813E+02 -0.33878553681E+02  0.55063380472E+02  0.00000000000E+00 0.  1.
         13    1    3    3    0    0  0.12068869409E+03 -0.83400935931E+02 -0.18017664609E+03  0.23234694057E+03  0.00000000000E+00 0. -1.
         -2    1    1    2    0  502 -0.29418523725E+02  0.69574965006E+02 -0.18933330127E+03  0.20384607983E+03  0.00000000000E+00 0.  1.
<scales pt_clust_5="13000.00000" pt_clust_6="13000.00000" pt_clust_7="13000.00000" pt_clust_8="13000.00000" pt_clust_9="75.53894"></scales>
<clustering>
<clus scale="   75.539">  1  9  2 -1</clus>
<clus scale="   91.970">  7  8 -1 -1</clus>
<clus scale="   93.436">  5  6 -1 -1</clus>
<clus scale="  182.412">  2  7  1 -1</clus>
<clus scale="   75.539">  1  5  2 -1</clus>
</clustering>
</event>
<event>
 9    2  0.1302972E-004  0.2579206E+03  0.7546771E-02  0.1128453E+00
         21   -1    0    0  501  502  0.00000000000E+00  0.00000000000E+00  0.35058023531E+03  0.35058023531E+03  0.00000000000E+00 0. -1.
          2   -1    0    0  502    0 -0.00000000000E+00 -0.00000000000E+00 -0.35709934152E+03  0.35709934152E+03  0.00000000000E+00 0. -1.
         23    2    1    2    0    0  0.11237128440E+03 -0.59526046942E+02  0.60259918882E+02  0.16720125279E+03  0.90301413554E+02 0.  0.
         24    2    1    2    0    0  0.13355964138E+03 -0.96357951096E+02 -0.15146538838E+03  0.23723976906E+03  0.78853735495E+02 0.  0.
        -13    1    4    4    0    0  0.10921251123E+03 -0.54210468997E+02 -0.65388626145E+02  0.13835396628E+03  0.00000000000E+00 0.  1.
         14    1    4    4    0    0  0.24347130155E+02 -0.42147482099E+02 -0.86076762233E+02  0.98885802776E+02  0.00000000000E+00 0. -1.
        -11    1    3    3    0    0  0.10359205240E+03 -0.83037647820E+01  0.37780379918E+02  0.11057858263E+03  0.00000000000E+00 0. -1.
         11    1    3    3    0    0  0.87792319983E+01 -0.51222282160E+02  0.22479538964E+02  0.56622670161E+02  0.00000000000E+00 0.  1.
          1    1    1    2  501    0 -0.24593092578E+03  0.15588399804E+03  0.84686363280E+02  0.30323855498E+03  0.00000000000E+00 0. -1.
<scales pt_clust_5="13000.00000" pt_clust_6="13000.00000" pt_clust_7="13000.00000" pt_clust_8="13000.00000" pt_clust_9="245.57105"></scales>
<clustering>
<clus scale="   78.854">  5  6 -1 -1</clus>
<clus scale="   90.301">  7  8 -1 -1</clus>
<clus scale="  155.965">  2  7  1 -1</clus>
<clus scale="  245.571">  1  9  2 -1</clus>
<clus scale="  245.571">  1  5  2 -1</clus>
</clustering>
</event>
<event>
 9    2  0.1302972E-004  0.1138576E+03  0.7546771E-02  0.1253911E+00
          2   -1    0    0  502    0 -0.00000000000E+00  0.00000000000E+00  0.46717240181E+03  0.46717240181E+03  0.00000000000E+00 0. -1.
         21   -1    0    0  501  502  0.00000000000E+00 -0.00000000000E+00 -0.98225523849E+02  0.98225523849E+02  0.00000000000E+00 0. -1.
         23    2    1    2    0    0  0.40344289615E+00  0.46046265169E+02  0.17920903543E+02  0.10427909191E+03  0.91828911149E+02 0.  0.
         24    2    1    2    0    0  0.56487885137E+02 -0.81642685965E+02  0.36460937825E+02  0.13947479040E+03  0.90925287079E+02 0.  0.
        -11    1    4    4    0    0 -0.44090950356E+01 -0.51833660913E+02  0.47900588306E+02  0.70715167275E+02  0.00000000000E+00 0.  1.
         12    1    4    4    0    0  0.60896980173E+02 -0.29809025052E+02 -0.11439650482E+02  0.68759623122E+02  0.00000000000E+00 0. -1.
        -13    1    3    3    0    0 -0.19101762244E+02  0.34195275341E+02 -0.31225222410E+02  0.50092002266E+02  0.00000000000E+00 0. -1.
         13    1    3    3    0    0  0.19505205140E+02  0.11850989828E+02  0.49146125953E+02  0.54187089640E+02  0.00000000000E+00 0.  1.
          1    1    1    2  501    0 -0.56891328033E+02  0.35596420796E+02  0.31456503659E+03  0.32164404335E+03  0.00000000000E+00 0. -1.
<scales pt_clust_5="13000.00000" pt_clust_6="13000.00000" pt_clust_7="13000.00000" pt_clust_8="13000.00000" pt_clust_9="67.10986"></scales>
<clustering>
<clus scale="   67.110">  2  9  1 -1</clus>
<clus scale="   90.925">  5  6 -1 -1</clus>
<clus scale="   91.829">  7  8 -1 -1</clus>
<clus scale="  113.130">  2  5  1 -1</clus>
<clus scale="   67.110">  2  5  1 -1</clus>
</clustering>
</event>
<event>
 9    2  0.1302972E-004  0.1213101E+03  0.7546771E-02  0.1245903E+00
         21   -1    0    0  501  502  0.00000000000E+00  0.00000000000E+00  0.83260592096E+02  0.83260592096E+02  0.00000000000E+00 0. -1.
          2   -1    0    0  502    0 -0.00000000000E+00 -0.00000000000E+00 -0.53197727288E+03  0.53197727288E+03  0.00000000000E+00 0. -1.
         24    2    1    2    0    0  0.11239479678E+02 -0.94868454371E+02 -0.31260119879E+03  0.33543393101E+03  0.75299821049E+02 0.  0.
         23    2    1    2    0    0 -0.47138280344E+02  0.47383371454E+02 -0.17521850225E+03  0.20858172407E+03  0.91310518133E+02 0.  0.
        -11    1    3    3    0    0  0.41796902699E+02 -0.44320356137E+02 -0.13109232723E+03  0.14455612509E+03  0.00000000000E+00 0.  1.
         12    1    3    3    0    0 -0.30557423021E+02 -0.50548098234E+02 -0.18150887156E+03  0.19087780592E+03  0.00000000000E+00 0. -1.
        -11    1    4    4    0    0  0.37648188667E+01 -0.24490292208E+02 -0.45099455570E+02  0.51457838725E+02  0.00000000000E+00 0. -1.
         11    1    4    4    0    0 -0.50903099211E+02  0.71873663662E+02 -0.13011904668E+03  0.15712388535E+03  0.00000000000E+00 0.  1.
          1    1    1    2  501    0  0.35898800667E+02  0.47485082917E+02  0.39103020257E+02  0.71222209894E+02  0.00000000000E+00 0. -1.
<scales pt_clust_5="13000.00000" pt_clust_6="13000.00000" pt_clust_7="13000.00000" pt_clust_8="13000.00000" pt_clust_9="59.52778"></scales>
<clustering>
<clus scale="   59.528">  1  9  2 -1</clus>
<clus scale="   75.300">  5  6 -1 -1</clus>
<clus scale="   91.311">  7  8 -1 -1</clus>
<clus scale="  109.766">  2  5  1 -1</clus>
<clus scale="   59.528">  1  5  2 -1</clus>
</clustering>
</event>
<event>
 9    2  0.1302972E-004  0.2397130E+03  0.7546771E-02  0.1145058E+00
          2   -1    0    0  502    0 -0.00000000000E+00  0.00000000000E+00  0.65871995161E+03  0.65871995161E+03  0.00000000000E+00 0. -1.
         21   -1    0    0  501  502  0.00000000000E+00 -0.00000000000E+00 -0.30740693709E+03  0.30740693709E+03  0.00000000000E+00 0. -1.
         24    2    1    2    0    0 -0.77025503144E+02 -0.70806584536E+02  0.40528096235E+03  0.42557374570E+03  0.76901586701E+02 0.  0.
         23    2    1    2    0    0  0.19214795031E+03  0.23038583019E+03  0.50811399227E+02  0.31762395009E+03  0.91130180631E+02 0.  0.
        -11    1    3    3    0    0 -0.90781013821E+02 -0.71923029343E+02  0.35378574106E+03  0.37226128619E+03  0.00000000000E+00 0.  1.
         12    1    3    3    0    0  0.13755510677E+02  0.11164448073E+01  0.51495221292E+02  0.53312459509E+02  0.00000000000E+00 0. -1.
        -13    1    4    4    0    0  0.11384804694E+01  0.48658113394E+02 -0.21147581759E+01  0.48717351518E+02  0.00000000000E+00 0.  1.
         13    1    4    4    0    0  0.19100946984E+03  0.18172771680E+03  0.52926157403E+02  0.26890659858E+03  0.00000000000E+00 0. -1.
          1    1    1    2  501    0 -0.11512244716E+03 -0.15957924565E+03 -0.10477934705E+03  0.22292919291E+03  0.00000000000E+00 0. -1.
<scales pt_clust_5="13000.00000" pt_clust_6="13000.00000" pt_clust_7="13000.00000" pt_clust_8="13000.00000" pt_clust_9="221.71512"></scales>
<clustering>
<clus scale="   76.902">  5  6 -1 -1</clus>
<clus scale="   91.130">  7  8 -1 -1</clus>
<clus scale="  129.847">  1  5  2 -1</clus>
<clus scale="  221.715">  2  9  1 -1</clus>
<clus scale="  221.715">  2  5  1 -1</clus>
</clustering>
</event>
<event>
 9    2  0.1302972E-004  0.9030520E+02  0.7546771E-02  0.1307845E+00
          2   -1    0    0  502    0 -0.00000000000E+00  0.00000000000E+00  0.25675775452E+03  0.25675775452E+03  0.00000000000E+00 0. -1.
         21   -1    0    0  501  502  0.00000000000E+00 -0.00000000000E+00 -0.74390796825E+02  0.74390796825E+02  0.00000000000E+00 0.  1.
         24    2    1    2    0    0  0.56817220650E+00 -0.58366544306E+00  0.19780480684E+03  0.21385047057E+03  0.81268805025E+02 0.  0.
         23    2    1    2    0    0  0.17343781207E+02  0.14267364327E+02 -0.17567682928E+02  0.94657014499E+02  0.90260525585E+02 0.  0.
        -13    1    3    3    0    0 -0.38687508462E+02 -0.72061938209E+00  0.67986326931E+02  0.78226486901E+02  0.00000000000E+00 0.  1.
         14    1    3    3    0    0  0.39255680669E+02  0.13695393902E+00  0.12981847991E+03  0.13562398367E+03  0.00000000000E+00 0. -1.
        -11    1    4    4    0    0 -0.19749123330E+02  0.17708218827E+02 -0.42309502359E+02  0.49936989058E+02  0.00000000000E+00 0.  1.
         11    1    4    4    0    0  0.37092904537E+02 -0.34408544995E+01  0.24741819431E+02  0.44720025441E+02  0.00000000000E+00 0. -1.
          1    1    1    2  501    0 -0.17911953413E+02 -0.13683698884E+02  0.21298337887E+01  0.22641066278E+02  0.00000000000E+00 0. -1.
<scales pt_clust_5="13000.00000" pt_clust_6="13000.00000" pt_clust_7="13000.00000" pt_clust_8="13000.00000" pt_clust_9="22.54067"></scales>
<clustering>
<clus scale="   22.541">  2  9  1 -1</clus>
<clus scale="   81.269">  5  6 -1 -1</clus>
<clus scale="   81.318">  1  5  2 -1</clus>
<clus scale="   90.261">  7  8 -1 -1</clus>
<clus scale="   22.541">  2  5  1 -1</clus>
</clustering>
</event>
<event>
 9    2  0.1302972E-004  0.9904329E+02  0.7546771E-02  0.1286518E+00
         21   -1    0    0  501  502  0.00000000000E+00  0.00000000000E+00  0.78913226129E+02  0.78913226129E+02  0.00000000000E+00 0.  1.
         -1   -1    0    0    0  501 -0.00000000000E+00 -0.00000000000E+00 -0.19492161899E+03  0.19492161899E+03  0.00000000000E+00 0.  1.
         24    2    1    2    0    0 -0.14064593458E+02 -0.16879504639E+02 -0.54378149189E+02  0.10202172821E+03  0.83478856320E+02 0.  0.
         23    2    1    2    0    0  0.33159330682E+02  0.57225667189E+02 -0.29584931190E+02  0.11686474228E+03  0.91693956386E+02 0.  0.
        -11    1    3    3    0    0 -0.38969633917E+01 -0.50779777480E+02 -0.32248788736E+02  0.60280647803E+02  0.00000000000E+00 0.  1.
         12    1    3    3    0    0 -0.10167630066E+02  0.33900272840E+02 -0.22129360453E+02  0.41741080411E+02  0.00000000000E+00 0. -1.
        -13    1    4    4    0    0  0.55830726988E+02  0.13071204671E+02 -0.34610503066E+02  0.66976215107E+02  0.00000000000E+00 0.  1.
         13    1    4    4    0    0 -0.22671396306E+02  0.44154462518E+02  0.50255718757E+01  0.49888527172E+02  0.00000000000E+00 0. -1.
         -2    1    1    2    0  502 -0.19094737224E+02 -0.40346162549E+02 -0.32045312480E+02  0.54948374626E+02  0.00000000000E+00 0.  1.
<scales pt_clust_5="13000.00000" pt_clust_6="13000.00000" pt_clust_7="13000.00000" pt_clust_8="13000.00000" pt_clust_9="44.63657"></scales>
<clustering>
<clus scale="   44.637">  1  9  2 -1</clus>
<clus scale="   83.479">  5  6 -1 -1</clus>
<clus scale="   91.491">  2  5  1 -1</clus>
<clus scale="   91.694">  7  8 -1 -1</clus>
<clus scale="   44.637">  1  5  2 -1</clus>
</clustering>
</event>
<event>
 9    2  0.1302972E-004  0.1953366E+03  0.7546771E-02  0.1194243E+00
         21   -1    0    0  501  502  0.00000000000E+00  0.00000000000E+00  0.79427130493E+03  0.79427130493E+03  0.00000000000E+00 0.  1.
         -1   -1    0    0    0  501 -0.00000000000E+00 -0.00000000000E+00 -0.23740203613E+03  0.23740203613E+03  0.00000000000E+00 0.  1.
         24    2    1    2    0    0  0.19987664175E+02 -0.90460582548E+01 -0.87487926075E+02  0.11708483015E+03  0.74655089269E+02 0.  0.
         23    2    1    2    0    0  0.15061955362E+03  0.24305735803E+02 -0.59588553618E+02  0.19010297113E+03  0.96495208093E+02 0.  0.
        -11    1    3    3    0    0 -0.14380821693E+02  0.25375250669E+02 -0.32267831801E+02  0.43496256715E+02  0.00000000000E+00 0.  1.
         12    1    3    3    0    0  0.34368485868E+02 -0.34421308924E+02 -0.55220094274E+02  0.73588573437E+02  0.00000000000E+00 0. -1.
        -13    1    4    4    0    0  0.91157936921E+02  0.29115274175E+02  0.12526809216E+02  0.96511085389E+02  0.00000000000E+00 0.  1.
         13    1    4    4    0    0  0.59461616697E+02 -0.48095383722E+01 -0.72115362834E+02  0.93591885739E+02  0.00000000000E+00 0. -1.
         -2    1    1    2    0  502 -0.17060721779E+03 -0.15259677548E+02  0.70394574849E+03  0.72448553978E+03  0.00000000000E+00 0.  1.
<scales pt_clust_5="13000.00000" pt_clust_6="13000.00000" pt_clust_7="13000.00000" pt_clust_8="13000.00000" pt_clust_9="169.83835"></scales>
<clustering>
<clus scale="   74.655">  5  6 -1 -1</clus>
<clus scale="   77.812">  2  5  1 -1</clus>
<clus scale="   96.495">  7  8 -1 -1</clus>
<clus scale="  169.838">  1  9  2 -1</clus>
<clus scale="  169.838">  1  5  2 -1</clus>
</clustering>
</event>
<event>
 9    2  0.1302972E-004  0.9648419E+02  0.7546771E-02  0.1292037E+00
          2   -1    0    0  502    0 -0.00000000000E+00  0.00000000000E+00  0.29412826208E+03  0.29412826208E+03  0.00000000000E+00 0. -1.
         21   -1    0    0  501  502  0.00000000000E+00 -0.00000000000E+00 -0.75235719293E+02  0.75235719293E+02  0.00000000000E+00 0. -1.
         23    2    1    2    0    0  0.38158260632E+02 -0.34261025779E+01  0.19784623827E+03  0.21967910710E+03  0.87452759039E+02 0.  0.
         24    2    1    2    0    0 -0.47153135618E+02 -0.37509848413E+02  0.34817841768E+02  0.10556781297E+03  0.79384344198E+02 0.  0.
        -13    1    4    4    0    0 -0.36118609922E+02 -0.49454206593E+02  0.53132332925E+02  0.81075997277E+02  0.00000000000E+00 0.  1.
         14    1    4    4    0    0 -0.11034525696E+02  0.11944358180E+02 -0.18314491157E+02  0.24491815694E+02  0.00000000000E+00 0. -1.
        -11    1    3    3    0    0  0.43741467740E+02 -0.39240222581E+02  0.11159731155E+03  0.12612323740E+03  0.00000000000E+00 0. -1.
         11    1    3    3    0    0 -0.55832071084E+01  0.35814120003E+02  0.86248926726E+02  0.93555869697E+02  0.00000000000E+00 0.  1.
          1    1    1    2  501    0  0.89948749856E+01  0.40935950991E+02 -0.13771537255E+02  0.44117061302E+02  0.00000000000E+00 0. -1.
<scales pt_clust_5="13000.00000" pt_clust_6="13000.00000" pt_clust_7="13000.00000" pt_clust_8="13000.00000" pt_clust_9="41.91253"></scales>
<clustering>
<clus scale="   41.913">  2  9  1 -1</clus>
<clus scale="   79.384">  5  6 -1 -1</clus>
<clus scale="   87.453">  7  8 -1 -1</clus>
<clus scale="   89.236">  2  5  1 -1</clus>
<clus scale="   41.913">  2  5  1 -1</clus>
</clustering>
</event>
<event>
 9    2  0.1811040E-004  0.4485918E+03  0.7546771E-02  0.1070868E+00
          2   -1    0    0  502    0 -0.00000000000E+00  0.00000000000E+00  0.48779238652E+03  0.48779238652E+03  0.00000000000E+00 0. -1.
         21   -1    0    0  501  502  0.00000000000E+00 -0.00000000000E+00 -0.68140835464E+03  0.68140835464E+03  0.00000000000E+00 0. -1.
         24    2    1    2    0    0 -0.80891997080E+02 -0.65927791716E+02  0.66083512238E+02  0.14792426058E+03  0.81391445290E+02 0.  0.
         23    2    1    2    0    0 -0.12991040757E+02  0.45714443960E+03 -0.38000075176E+03  0.60135162270E+03  0.89852083931E+02 0.  0.
        -13    1    3    3    0    0 -0.89719830228E+02 -0.33470424018E+02  0.61910485115E+02  0.11402993198E+03  0.00000000000E+00 0.  1.
         14    1    3    3    0    0  0.88278331477E+01 -0.32457367698E+02  0.41730271237E+01  0.33894328602E+02  0.00000000000E+00 0. -1.
        -13    1    4    4    0    0 -0.22519996893E+02  0.43437535546E+03 -0.37856275458E+03  0.57662714023E+03  0.00000000000E+00 0. -1.
         13    1    4    4    0    0  0.95289561364E+01  0.22769084139E+02 -0.14379971809E+01  0.24724482471E+02  0.00000000000E+00 0.  1.
          1    1    1    2  501    0  0.93883037837E+02 -0.39121664788E+03  0.12030127140E+03  0.41992485789E+03  0.00000000000E+00 0. -1.
<scales pt_clust_5="13000.00000" pt_clust_6="13000.00000" pt_clust_7="13000.00000" pt_clust_8="13000.00000" pt_clust_9="439.50132"></scales>
<clustering>
<clus scale="   81.391">  5  6 -1 -1</clus>
<clus scale="   89.852">  7  8 -1 -1</clus>
<clus scale="  132.343">  1  5  2 -1</clus>
<clus scale="  439.501">  2  9  1 -1</clus>
<clus scale="  439.501">  2  5  1 -1</clus>
</clustering>
</event>
<event>
 9    2  0.1302972E-004  0.1390975E+03  0.7546771E-02  0.1216409E+00
         21   -1    0    0  501  502  0.00000000000E+00  0.00000000000E+00  0.19811786459E+03  0.19811786459E+03  0.00000000000E+00 0. -1.
         -3   -1    0    0    0  501 -0.00000000000E+00 -0.00000000000E+00 -0.17352464296E+03  0.17352464296E+03  0.00000000000E+00 0.  1.
         24    2    1    2    0    0 -0.71646128934E+02  0.97978026218E+02 -0.35929220198E+02  0.15136314368E+03  0.82988137633E+02 0.  0.
         23    2    1    2    0    0  0.11442352981E+02 -0.93212265635E+02 -0.50477024125E+01  0.13113537401E+03  0.91386832264E+02 0.  0.
        -11    1    3    3    0    0  0.57646862979E+00  0.52150025803E+02  0.11716158613E+02  0.53453024985E+02  0.00000000000E+00 0.  1.
         12    1    3    3    0    0 -0.72222597564E+02  0.45828000415E+02 -0.47645378811E+02  0.97910118695E+02  0.00000000000E+00 0. -1.
        -13    1    4    4    0    0  0.19529836474E+02 -0.44630213086E+02 -0.46061009924E+02  0.67043918949E+02  0.00000000000E+00 0.  1.
         13    1    4    4    0    0 -0.80874834927E+01 -0.48582052549E+02  0.41013307512E+02  0.64091455064E+02  0.00000000000E+00 0. -1.
         -4    1    1    2    0  502  0.60203775953E+02 -0.47657605836E+01  0.65570144233E+02  0.89143989857E+02  0.00000000000E+00 0.  1.
<scales pt_clust_5="13000.00000" pt_clust_6="13000.00000" pt_clust_7="13000.00000" pt_clust_8="13000.00000" pt_clust_9="60.39211"></scales>
<clustering>
<clus scale="   60.392">  1  9  2 -1</clus>
<clus scale="   82.988">  5  6 -1 -1</clus>
<clus scale="   91.387">  7  8 -1 -1</clus>
<clus scale="  133.730">  2  5  1 -1</clus>
<clus scale="   60.392">  1  5  2 -1</clus>
</clustering>
</event>
<event>
 9    2  0.1302972E-004  0.8808921E+02  0.7546771E-02  0.1310703E+00
          2   -1    0    0  502    0 -0.00000000000E+00  0.00000000000E+00  0.91872244912E+02  0.91872244912E+02  0.00000000000E+00 0. -1.
         21   -1    0    0  501  502  0.00000000000E+00 -0.00000000000E+00 -0.18222089282E+03  0.18222089282E+03  0.00000000000E+00 0. -1.
         23    2    1    2    0    0  0.25394316094E+02  0.24842084041E+01  0.44728948703E+02  0.99714382975E+02  0.85388738945E+02 0.  0.
         24    2    1    2    0    0 -0.17153094717E+01 -0.64411192766E+01 -0.12412421170E+03  0.14799070558E+03  0.80311883950E+02 0.  0.
        -13    1    4    4    0    0 -0.29419843465E+02  0.24664640255E+02 -0.68128765435E+02  0.78201025237E+02  0.00000000000E+00 0.  1.
         14    1    4    4    0    0  0.27704533994E+02 -0.31105759531E+02 -0.55995446266E+02  0.69789680343E+02  0.00000000000E+00 0. -1.
        -11    1    3    3    0    0 -0.16800895065E+02  0.24208117460E+02  0.43121580555E+02  0.52228093355E+02  0.00000000000E+00 0. -1.
         11    1    3    3    0    0  0.42195211159E+02 -0.21723909056E+02  0.16073681485E+01  0.47486289619E+02  0.00000000000E+00 0.  1.
          1    1    1    2  501    0 -0.23679006622E+02  0.39569108725E+01 -0.10953384907E+02  0.26388049173E+02  0.00000000000E+00 0. -1.
<scales pt_clust_5="13000.00000" pt_clust_6="13000.00000" pt_clust_7="13000.00000" pt_clust_8="13000.00000" pt_clust_9="24.00734"></scales>
<clustering>
<clus scale="   24.007">  2  9  1 -1</clus>
<clus scale="   80.312">  5  6 -1 -1</clus>
<clus scale="   83.177">  2  5  1 -1</clus>
<clus scale="   85.389">  7  8 -1 -1</clus>
<clus scale="   24.007">  2  5  1 -1</clus>
</clustering>
</event>
<event>
 9    2  0.1302972E-004  0.9466372E+02  0.7546771E-02  0.1298335E+00
         21   -1    0    0  501  502  0.00000000000E+00  0.00000000000E+00  0.11495140985E+03  0.11495140985E+03  0.00000000000E+00 0.  1.
         -1   -1    0    0    0  501 -0.00000000000E+00 -0.00000000000E+00 -0.30077937231E+03  0.30077937231E+03  0.00000000000E+00 0.  1.
         23    2    1    2    0    0  0.12065301636E+02 -0.16739645383E+02 -0.17059690226E+03  0.19589472046E+03  0.94051322223E+02 0.  0.
         24    2    1    2    0    0  0.53677162079E+02 -0.32233418179E+02  0.49472666031E+02  0.11539945568E+03  0.83362213926E+02 0.  0.
        -13    1    4    4    0    0  0.16883140292E+02 -0.56011794721E+02  0.17168694252E+02  0.60968234649E+02  0.00000000000E+00 0.  1.
         14    1    4    4    0    0  0.36794021788E+02  0.23778376541E+02  0.32303971779E+02  0.54431221031E+02  0.00000000000E+00 0. -1.
        -11    1    3    3    0    0  0.43902040621E+02  0.17323651523E+02 -0.63762608658E+02  0.79329492219E+02  0.00000000000E+00 0.  1.
         11    1    3    3    0    0 -0.31836738985E+02 -0.34063296906E+02 -0.10683429360E+03  0.11656522824E+03  0.00000000000E+00 0. -1.
         -2    1    1    2    0  502 -0.65742463716E+02  0.48973063562E+02 -0.64703726236E+02  0.10443660603E+03  0.00000000000E+00 0.  1.
<scales pt_clust_5="13000.00000" pt_clust_6="13000.00000" pt_clust_7="13000.00000" pt_clust_8="13000.00000" pt_clust_9="81.97828"></scales>
<clustering>
<clus scale="   81.978">  1  9  2 -1</clus>
<clus scale="   83.362">  5  6 -1 -1</clus>
<clus scale="   84.053">  1  5  2 -1</clus>
<clus scale="   94.051">  7  8 -1 -1</clus>
<clus scale="   81.978">  1  5  2 -1</clus>
</clustering>
</event>
<event>
 9    2  0.1302972E-004  0.1099873E+03  0.7546771E-02  0.1263124E+00
         21   -1    0    0  501  502  0.00000000000E+00  0.00000000000E+00  0.15679136201E+03  0.15679136201E+03  0.00000000000E+00 0. -1.
          2   -1    0    0  502    0 -0.00000000000E+00 -0.00000000000E+00 -0.23678625769E+03  0.23678625769E+03  0.00000000000E+00 0. -1.
         24    2    1    2    0    0 -0.53859289834E+02 -0.42653057808E+02 -0.16520100890E+03  0.19641220447E+03  0.81032550753E+02 0.  0.
         23    2    1    2    0    0  0.25740028108E+01  0.71443787581E+02  0.78928037628E+02  0.13801728746E+03  0.87796903356E+02 0.  0.
        -11    1    3    3    0    0 -0.34520031026E+02 -0.45410765286E+01 -0.11175020089E+02  0.36566856470E+02  0.00000000000E+00 0.  1.
         12    1    3    3    0    0 -0.19339258808E+02 -0.38111981279E+02 -0.15402598881E+03  0.15984534800E+03  0.00000000000E+00 0. -1.
        -13    1    4    4    0    0  0.22374824961E+02  0.14430225619E+02 -0.11740393968E+02  0.29098128015E+02  0.00000000000E+00 0.  1.
         13    1    4    4    0    0 -0.19800822150E+02  0.57013561961E+02  0.90668431596E+02  0.10891915944E+03  0.00000000000E+00 0. -1.
          1    1    1    2  501    0  0.51285287024E+02 -0.28790729773E+02  0.62780755865E+01  0.59148127773E+02  0.00000000000E+00 0. -1.
<scales pt_clust_5="13000.00000" pt_clust_6="13000.00000" pt_clust_7="13000.00000" pt_clust_8="13000.00000" pt_clust_9="58.81400"></scales>
<clustering>
<clus scale="   58.814">  1  9  2 -1</clus>
<clus scale="   81.033">  5  6 -1 -1</clus>
<clus scale="   87.797">  7  8 -1 -1</clus>
<clus scale="  104.667">  2  5  1 -1</clus>
<clus scale="   58.814">  1  5  2 -1</clus>
</clustering>
</event>
<event>
 9    2  0.1302972E-004  0.9945836E+02  0.7546771E-02  0.1287421E+00
         -1   -1    0    0    0  501 -0.00000000000E+00  0.00000000000E+00  0.34922407580E+03  0.34922407580E+03  0.00000000000E+00 0.  1.
         21   -1    0    0  501  502  0.00000000000E+00 -0.00000000000E+00 -0.60285812455E+02  0.60285812455E+02  0.00000000000E+00 0. -1.
         23    2    1    2    0    0  0.13559677765E+02 -0.29788046965E+02  0.22680480863E+03  0.24627079753E+03  0.90209156386E+02 0.  0.
         24    2    1    2    0    0 -0.32220062163E+02  0.67753627306E+02  0.48269479075E+02  0.11872162160E+03  0.78333865009E+02 0.  0.
        -11    1    4    4    0    0  0.90625920239E+01  0.30872474642E+02  0.54216915473E+02  0.63045334388E+02  0.00000000000E+00 0.  1.
         12    1    4    4    0    0 -0.41282654187E+02  0.36881152665E+02 -0.59474363974E+01  0.55676287217E+02  0.00000000000E+00 0. -1.
        -11    1    3    3    0    0 -0.20221766530E+02  0.21018877340E+02  0.38322196161E+02  0.48159150374E+02  0.00000000000E+00 0. -1.
         11    1    3    3    0    0  0.33781444294E+02 -0.50806924305E+02  0.18848261246E+03  0.19811164715E+03  0.00000000000E+00 0.  1.
         -2    1    1    2    0  502  0.18660384398E+02 -0.37965580342E+02  0.13863975645E+02  0.44517469124E+02  0.00000000000E+00 0.  1.
<scales pt_clust_5="13000.00000" pt_clust_6="13000.00000" pt_clust_7="13000.00000" pt_clust_8="13000.00000" pt_clust_9="42.30361"></scales>
<clustering>
<clus scale="   42.304">  2  9  1 -1</clus>
<clus scale="   78.334">  5  6 -1 -1</clus>
<clus scale="   88.828">  2  5  1 -1</clus>
<clus scale="   90.209">  7  8 -1 -1</clus>
<clus scale="   42.304">  2  5  1 -1</clus>
</clustering>
</event>
<event>
 9    2  0.1302972E-004  0.1970661E+03  0.7546771E-02  0.1153239E+00
          2   -1    0    0  502    0 -0.00000000000E+00  0.00000000000E+00  0.81671604858E+03  0.81671604858E+03  0.00000000000E+00 0. -1.
         21   -1    0    0  501  502  0.00000000000E+00 -0.00000000000E+00 -0.90290551364E+02  0.90290551364E+02  0.00000000000E+00 0. -1.
         24    2    1    2    0    0 -0.71180198830E+02  0.20220713003E+03  0.28329511331E+03  0.36456845103E+03  0.81851634787E+02 0.  0.
         23    2    1    2    0    0  0.91322237070E+02 -0.10447065320E+03  0.12283953731E+03  0.20696185016E+03  0.92140040883E+02 0.  0.
        -11    1    3    3    0    0 -0.70920626055E+02  0.83169754340E+02  0.15367862596E+03  0.18858436657E+03  0.00000000000E+00 0.  1.
         12    1    3    3    0    0 -0.25957277558E+00  0.11903737569E+03  0.12961648735E+03  0.17598408446E+03  0.00000000000E+00 0. -1.
        -13    1    4    4    0    0  0.46349683482E+02 -0.10220900685E+03  0.11602259713E+03  0.16141938324E+03  0.00000000000E+00 0. -1.
         13    1    4    4    0    0  0.44972553588E+02 -0.22616463567E+01  0.68169401733E+01  0.45542466927E+02  0.00000000000E+00 0.  1.
          1    1    1    2  501    0 -0.20142038240E+02 -0.97736476830E+02  0.32029084660E+03  0.33547629875E+03  0.00000000000E+00 0. -1.
<scales pt_clust_5="13000.00000" pt_clust_6="13000.00000" pt_clust_7="13000.00000" pt_clust_8="13000.00000" pt_clust_9="99.79043"></scales>
<clustering>
<clus scale="   81.852">  5  6 -1 -1</clus>
<clus scale="   92.140">  7  8 -1 -1</clus>
<clus scale="   99.790">  2  9  1 -1</clus>
<clus scale="  192.471">  1  5  2 -1</clus>
<clus scale="   99.790">  2  5  1 -1</clus>
</clustering>
</event>
<event>
 9    2  0.1302972E-004  0.9536774E+02  0.7546771E-02  0.1296016E+00
         21   -1    0    0  501  502  0.00000000000E+00  0.00000000000E+00  0.30094952285E+03  0.30094952285E+03  0.00000000000E+00 0. -1.
          2   -1    0    0  502    0 -0.00000000000E+00 -0.00000000000E+00 -0.11123656424E+03  0.11123656424E+03  0.00000000000E+00 0. -1.
         24    2    1    2    0    0 -0.39538418339E+02  0.15402232812E+01 -0.40807786614E+02  0.98104222494E+02  0.79959391007E+02 0.  0.
         23    2    1    2    0    0 -0.35400033000E+02 -0.42731140537E+02  0.19420394259E+03  0.22117668010E+03  0.90137893206E+02 0.  0.
        -11    1    3    3    0    0 -0.49463587761E+02 -0.23502017474E+02 -0.75113483489E+01  0.55275778543E+02  0.00000000000E+00 0.  1.
         12    1    3    3    0    0  0.99251694221E+01  0.25042240755E+02 -0.33296438265E+02  0.42828443951E+02  0.00000000000E+00 0. -1.
        -13    1    4    4    0    0 -0.37262623742E+02  0.17135955063E+02  0.11343872870E+03  0.12062540883E+03  0.00000000000E+00 0. -1.
         13    1    4    4    0    0  0.18625907417E+01 -0.59867095600E+02  0.80765213887E+02  0.10055127127E+03  0.00000000000E+00 0.  1.
          1    1    1    2  501    0  0.74938451339E+02  0.41190917256E+02  0.36316802634E+02  0.92905184500E+02  0.00000000000E+00 0. -1.
<scales pt_clust_5="13000.00000" pt_clust_6="13000.00000" pt_clust_7="13000.00000" pt_clust_8="13000.00000" pt_clust_9="85.51298"></scales>
<clustering>
<clus scale="   79.959">  5  6 -1 -1</clus>
<clus scale="   85.513">  1  9  2 -1</clus>
<clus scale="   85.812">  2  5  1 -1</clus>
<clus scale="   90.138">  7  8 -1 -1</clus>
<clus scale="   85.513">  1  5  2 -1</clus>
</clustering>
</event>
<event>
 9    2  0.1302972E-004  0.9363179E+02  0.7546771E-02  0.1297649E+00
          2   -1    0    0  502    0 -0.00000000000E+00  0.00000000000E+00  0.31426904427E+03  0.31426904427E+03  0.00000000000E+00 0. -1.
         21   -1    0    0  501  502  0.00000000000E+00 -0.00000000000E+00 -0.65613074329E+02  0.65613074329E+02  0.00000000000E+00 0.  1.
         24    2    1    2    0    0  0.21953184619E+01 -0.37988956214E+02  0.23485510798E+03  0.25120162079E+03  0.80606155621E+02 0.  0.
         23    2    1    2    0    0  0.21759637999E+02  0.23341807607E+02  0.28841788817E+02  0.96827579861E+02  0.86749118793E+02 0.  0.
        -13    1    3    3    0    0  0.27503131408E+02 -0.13857427351E+02  0.28683640374E+02  0.42085647852E+02  0.00000000000E+00 0.  1.
         14    1    3    3    0    0 -0.25307812946E+02 -0.24131528863E+02  0.20617146760E+03  0.20911597293E+03  0.00000000000E+00 0. -1.
        -11    1    4    4    0    0  0.54922193413E+02  0.14456000985E+02  0.25745472584E+02  0.62355854997E+02  0.00000000000E+00 0.  1.
         11    1    4    4    0    0 -0.33162555414E+02  0.88858066221E+01  0.30963162327E+01  0.34471724864E+02  0.00000000000E+00 0. -1.
          1    1    1    2  501    0 -0.23954956461E+02  0.14647148607E+02 -0.15040926856E+02  0.31852917952E+02  0.00000000000E+00 0. -1.
<scales pt_clust_5="13000.00000" pt_clust_6="13000.00000" pt_clust_7="13000.00000" pt_clust_8="13000.00000" pt_clust_9="28.07809"></scales>
<clustering>
<clus scale="   28.078">  2  9  1 -1</clus>
<clus scale="   80.606">  5  6 -1 -1</clus>
<clus scale="   86.749">  7  8 -1 -1</clus>
<clus scale="   87.971">  1  5  2 -1</clus>
<clus scale="   28.078">  2  5  1 -1</clus>
</clustering>
</event>
<event>
 9    2  0.1302972E-004  0.9198703E+02  0.7546771E-02  0.1302575E+00
         21   -1    0    0  501  502  0.00000000000E+00  0.00000000000E+00  0.25854717091E+03  0.25854717091E+03  0.00000000000E+00 0.  1.
         -1   -1    0    0    0  501 -0.00000000000E+00 -0.00000000000E+00 -0.10499398499E+03  0.10499398499E+03  0.00000000000E+00 0.  1.
         24    2    1    2    0    0 -0.21333020369E+02 -0.42993715923E+01 -0.55167218110E+02  0.10174456284E+03  0.82673767053E+02 0.  0.
         23    2    1    2    0    0  0.40721013095E+01 -0.37703447092E+02  0.83396309531E+02  0.12849878825E+03  0.90104729100E+02 0.  0.
        -11    1    3    3    0    0 -0.33878758126E+02 -0.19456804315E+02  0.41130000452E+01  0.39284274916E+02  0.00000000000E+00 0.  1.
         12    1    3    3    0    0  0.12545737757E+02  0.15157432723E+02 -0.59280218155E+02  0.62460287921E+02  0.00000000000E+00 0. -1.
        -13    1    4    4    0    0 -0.23651653210E+02  0.18254516038E+02  0.86619688938E+01  0.31107197889E+02  0.00000000000E+00 0.  1.
         13    1    4    4    0    0  0.27723754520E+02 -0.55957963130E+02  0.74734340637E+02  0.97391590360E+02  0.00000000000E+00 0. -1.
         -2    1    1    2    0  502  0.17260919060E+02  0.42002818684E+02  0.12532409451E+03  0.13329780481E+03  0.00000000000E+00 0.  1.
<scales pt_clust_5="13000.00000" pt_clust_6="13000.00000" pt_clust_7="13000.00000" pt_clust_8="13000.00000" pt_clust_9="45.41119"></scales>
<clustering>
<clus scale="   45.411">  1  9  2 -1</clus>
<clus scale="   82.674">  5  6 -1 -1</clus>
<clus scale="   84.721">  2  5  1 -1</clus>
<clus scale="   90.105">  7  8 -1 -1</clus>
<clus scale="   45.411">  1  5  2 -1</clus>
</clustering>
</event>
<event>
 9    2  0.1302972E-004  0.1259859E+03  0.7546771E-02  0.1248728E+00
          2   -1    0    0  502    0 -0.00000000000E+00  0.00000000000E+00  0.25457369318E+03  0.25457369318E+03  0.00000000000E+00 0. -1.
         21   -1    0    0  501  502  0.00000000000E+00 -0.00000000000E+00 -0.18325076694E+03  0.18325076694E+03  0.00000000000E+00 0. -1.
         23    2    1    2    0    0  0.12048344690E+02  0.38704465351E+02  0.61066205970E+02  0.11091577546E+03  0.83246798658E+02 0.  0.
         24    2    1    2    0    0  0.34107189165E+02  0.44004965126E+02 -0.11593119906E+03  0.16912853957E+03  0.10983934939E+03 0.  0.
        -11    1    4    4    0    0 -0.36356887226E+02  0.16350546104E+01 -0.58277096655E+02  0.68707471551E+02  0.00000000000E+00 0.  1.
         12    1    4    4    0    0  0.70464076391E+02  0.42369910515E+02 -0.57654102406E+02  0.10042106802E+03  0.00000000000E+00 0. -1.
        -13    1    3    3    0    0 -0.30088012479E+02  0.44057965886E+01  0.17227896727E+01  0.30457635213E+02  0.00000000000E+00 0.  1.
         13    1    3    3    0    0  0.42136357170E+02  0.34298668763E+02  0.59343416297E+02  0.80458140249E+02  0.00000000000E+00 0. -1.
          1    1    1    2  501    0 -0.46155533856E+02 -0.82709430477E+02  0.12618791933E+03  0.15778014508E+03  0.00000000000E+00 0. -1.
<scales pt_clust_5="13000.00000" pt_clust_6="13000.00000" pt_clust_7="13000.00000" pt_clust_8="13000.00000" pt_clust_9="61.70715"></scales>
<clustering>
<clus scale="   83.247">  7  8 -1 -1</clus>
<clus scale="   92.592">  1  7  2 -1</clus>
<clus scale="   61.707">  2  9  1 -1</clus>
<clus scale="  109.839">  5  6 -1 -1</clus>
<clus scale="   61.707">  2  5  1 -1</clus>
</clustering>
</event>
<event>
 9    2  0.1302972E-004  0.1017484E+03  0.7546771E-02  0.1286432E+00
         21   -1    0    0  501  502  0.00000000000E+00  0.00000000000E+00  0.23494201295E+03  0.23494201295E+03  0.00000000000E+00 0. -1.
          2   -1    0    0  502    0 -0.00000000000E+00 -0.00000000000E+00 -0.60952128436E+02  0.60952128436E+02  0.00000000000E+00 0. -1.
         24    2    1    2    0    0  0.18872111589E+02  0.21949477083E+02  0.21965715528E+02  0.84893607622E+02  0.76723502373E+02 0.  0.
         23    2    1    2    0    0 -0.11241278336E+02 -0.51727086405E+02  0.88617967549E+02  0.14053577652E+03  0.95368246825E+02 0.  0.
        -11    1    3    3    0    0  0.75681633708E+01  0.45868710778E+02  0.32174083520E+02  0.56536602087E+02  0.00000000000E+00 0.  1.
         12    1    3    3    0    0  0.11303948218E+02 -0.23919233695E+02 -0.10208367992E+02  0.28357005535E+02  0.00000000000E+00 0. -1.
        -13    1    4    4    0    0 -0.41183344164E+02 -0.21750999568E+02  0.50580405015E+01  0.46848240014E+02  0.00000000000E+00 0.  1.
         13    1    4    4    0    0  0.29942065827E+02 -0.29976086837E+02  0.83559927048E+02  0.93687536504E+02  0.00000000000E+00 0. -1.
          1    1    1    2  501    0 -0.76308332522E+01  0.29777609322E+02  0.63406201437E+02  0.70464757245E+02  0.00000000000E+00 0. -1.
<scales pt_clust_5="13000.00000" pt_clust_6="13000.00000" pt_clust_7="13000.00000" pt_clust_8="13000.00000" pt_clust_9="30.73981"></scales>
<clustering>
<clus scale="   30.740">  1  9  2 -1</clus>
<clus scale="   76.724">  5  6 -1 -1</clus>
<clus scale="   84.523">  2  5  1 -1</clus>
<clus scale="   95.368">  7  8 -1 -1</clus>
<clus scale="   30.740">  1  5  2 -1</clus>
</clustering>
</event>
<event>
 9    2  0.1302972E-004  0.2230462E+03  0.7546771E-02  0.1160769E+00
         -3   -1    0    0    0  501 -0.00000000000E+00  0.00000000000E+00  0.88632532653E+03  0.88632532653E+03  0.00000000000E+00 0.  1.
         21   -1    0    0  501  502  0.00000000000E+00 -0.00000000000E+00 -0.11612498525E+03  0.11612498525E+03  0.00000000000E+00 0. -1.
         23    2    1    2    0    0 -0.31157084725E+02  0.52720583603E+02  0.31414511216E+01  0.11134051939E+03  0.92933409915E+02 0.  0.
         24    2    1    2    0    0 -0.19740154790E+03 -0.33536508829E+02  0.27813150721E+03  0.35105695881E+03  0.76103774469E+02 0.  0.
        -13    1    4    4    0    0 -0.94887926839E+02 -0.54559994641E+02  0.14761338510E+03  0.18376676287E+03  0.00000000000E+00 0.  1.
         14    1    4    4    0    0 -0.10251362106E+03  0.21023485812E+02  0.13051812211E+03  0.16729019594E+03  0.00000000000E+00 0. -1.
        -13    1    3    3    0    0 -0.55961147354E+02  0.58714998033E+02 -0.11496097056E+02  0.81922287899E+02  0.00000000000E+00 0. -1.
         13    1    3    3    0    0  0.24804062629E+02 -0.59944144297E+01  0.14637548178E+02  0.29418231488E+02  0.00000000000E+00 0.  1.
         -4    1    1    2    0  502  0.22855863262E+03 -0.19184074774E+02  0.48892738294E+03  0.54005283359E+03  0.00000000000E+00 0.  1.
<scales pt_clust_5="13000.00000" pt_clust_6="13000.00000" pt_clust_7="13000.00000" pt_clust_8="13000.00000" pt_clust_9="209.66128"></scales>
<clustering>
<clus scale="   76.104">  5  6 -1 -1</clus>
<clus scale="   92.933">  7  8 -1 -1</clus>
<clus scale="  111.296">  1  7  2 -1</clus>
<clus scale="  209.661">  2  9  1 -1</clus>
<clus scale="  209.661">  2  5  1 -1</clus>
</clustering>
</event>
<event>
 9    2  0.1302972E-004  0.1533817E+03  0.7546771E-02  0.1199218E+00
          4   -1    0    0  502    0 -0.00000000000E+00  0.00000000000E+00  0.74711492078E+03  0.74711492078E+03  0.00000000000E+00 0. -1.
         21   -1    0    0  501  502  0.00000000000E+00 -0.00000000000E+00 -0.13823636623E+03  0.13823636623E+03  0.00000000000E+00 0. -1.
         24    2    1    2    0    0 -0.20383616883E+02  0.12803938862E+03  0.59987988389E+03  0.61848104739E+03  0.76507215436E+02 0.  0.
         23    2    1    2    0    0  0.16066699740E+02 -0.94460053947E+02  0.10202228281E+03  0.16787731105E+03  0.92700618892E+02 0.  0.
        -13    1    3    3    0    0 -0.32767455458E+02  0.49423872041E+02  0.14442079753E+03  0.15612108129E+03  0.00000000000E+00 0.  1.
         14    1    3    3    0    0  0.12383838576E+02  0.78615516577E+02  0.45545908636E+03  0.46235996610E+03  0.00000000000E+00 0. -1.
        -13    1    4    4    0    0  0.33550207353E+02 -0.10647784066E+03  0.80334933578E+02  0.13753853466E+03  0.00000000000E+00 0.  1.
         13    1    4    4    0    0 -0.17483507612E+02  0.12017786710E+02  0.21687349236E+02  0.30338776388E+02  0.00000000000E+00 0. -1.
          3    1    1    2  501    0  0.43169171421E+01 -0.33579334670E+02 -0.93023612149E+02  0.98992928575E+02  0.00000000000E+00 0. -1.
<scales pt_clust_5="13000.00000" pt_clust_6="13000.00000" pt_clust_7="13000.00000" pt_clust_8="13000.00000" pt_clust_9="33.85569"></scales>
<clustering>
<clus scale="   33.856">  2  9  1 -1</clus>
<clus scale="   76.507">  5  6 -1 -1</clus>
<clus scale="   92.701">  7  8 -1 -1</clus>
<clus scale="  144.173">  1  5  2 -1</clus>
<clus scale="   33.856">  2  5  1 -1</clus>
</clustering>
</event>
<event>
 9    2  0.1302972E-004  0.1724822E+03  0.7546771E-02  0.1176784E+00
          4   -1    0    0  502    0 -0.00000000000E+00  0.00000000000E+00  0.62795233189E+03  0.62795233189E+03  0.00000000000E+00 0. -1.
         21   -1    0    0  501  502  0.00000000000E+00 -0.00000000000E+00 -0.57095059608E+02  0.57095059608E+02  0.00000000000E+00 0.  1.
         23    2    1    2    0    0  0.13682858548E+03  0.28819625353E+02  0.34875972914E+03  0.38677391603E+03  0.91695587931E+02 0.  0.
         24    2    1    2    0    0 -0.15041931647E+03 -0.45775221960E+02  0.20546202443E+03  0.27090669436E+03  0.80339603249E+02 0.  0.
        -13    1    4    4    0    0 -0.13400840814E+03 -0.60658300362E+02  0.19967710271E+03  0.24800933088E+03  0.00000000000E+00 0.  1.
         14    1    4    4    0    0 -0.16410908335E+02  0.14883078402E+02  0.57849217214E+01  0.22897363482E+02  0.00000000000E+00 0. -1.
        -13    1    3    3    0    0  0.13254776879E+02  0.19811566883E+02  0.96112030328E+01  0.25701410782E+02  0.00000000000E+00 0.  1.
         13    1    3    3    0    0  0.12357380860E+03  0.90080584704E+01  0.33914852610E+03  0.36107250525E+03  0.00000000000E+00 0. -1.
          3    1    1    2  501    0  0.13590730992E+02  0.16955596607E+02  0.16635518708E+02  0.27366781102E+02  0.00000000000E+00 0. -1.
<scales pt_clust_5="13000.00000" pt_clust_6="13000.00000" pt_clust_7="13000.00000" pt_clust_8="13000.00000" pt_clust_9="21.73017"></scales>
<clustering>
<clus scale="   21.730">  2  9  1 -1</clus>
<clus scale="   80.340">  5  6 -1 -1</clus>
<clus scale="   91.696">  7  8 -1 -1</clus>
<clus scale="  166.723">  2  5  1 -1</clus>
<clus scale="   21.730">  2  5  1 -1</clus>
</clustering>
</event>
<event>
 9    2  0.1302972E-004  0.1075195E+03  0.7546771E-02  0.1272125E+00
          2   -1    0    0  502    0 -0.00000000000E+00  0.00000000000E+00  0.25536844274E+03  0.25536844274E+03  0.00000000000E+00 0. -1.
         21   -1    0    0  501  502  0.00000000000E+00 -0.00000000000E+00 -0.66796546423E+02  0.66796546423E+02  0.00000000000E+00 0. -1.
         23    2    1    2    0    0  0.32095549259E+02  0.25537560087E+02  0.11469814972E+03  0.15273568494E+03  0.92142458440E+02 0.  0.
         24    2    1    2    0    0 -0.58739502085E+02 -0.47780547805E+02  0.80440565877E+02  0.13410546184E+03  0.76028155338E+02 0.  0.
        -11    1    4    4    0    0 -0.52008707254E+02 -0.68216310781E+02  0.63800999271E+02  0.10690621214E+03  0.00000000000E+00 0.  1.
         12    1    4    4    0    0 -0.67307948309E+01  0.20435762976E+02  0.16639566606E+02  0.27199249701E+02  0.00000000000E+00 0. -1.
        -13    1    3    3    0    0  0.26698774876E+02 -0.13050791202E+02 -0.19207246259E+01  0.29779807151E+02  0.00000000000E+00 0.  1.
         13    1    3    3    0    0  0.53967743836E+01  0.38588351289E+02  0.11661887435E+03  0.12295587779E+03  0.00000000000E+00 0. -1.
          1    1    1    2  501    0  0.26643952825E+02  0.22242987717E+02 -0.65668192836E+01  0.35323842377E+02  0.00000000000E+00 0. -1.
<scales pt_clust_5="13000.00000" pt_clust_6="13000.00000" pt_clust_7="13000.00000" pt_clust_8="13000.00000" pt_clust_9="34.70808"></scales>
<clustering>
<clus scale="   34.708">  2  9  1 -1</clus>
<clus scale="   76.028">  5  6 -1 -1</clus>
<clus scale="   92.142">  7  8 -1 -1</clus>
<clus scale="   94.077">  2  5  1 -1</clus>
<clus scale="   34.708">  2  5  1 -1</clus>
</clustering>
</event>
<event>
 9    2  0.1337817E-004  0.1408914E+03  0.7546771E-02  0.1213977E+00
         21   -1    0    0  501  502  0.00000000000E+00  0.00000000000E+00  0.69521893560E+02  0.69521893560E+02  0.00000000000E+00 0. -1.
          2   -1    0    0  502    0 -0.00000000000E+00 -0.00000000000E+00 -0.11196824409E+04  0.11196824409E+04  0.00000000000E+00 0. -1.
         24    2    1    2    0    0  0.85271996597E+02  0.76056885805E+02 -0.35901582362E+03  0.38611045032E+03  0.84456823042E+02 0.  0.
         23    2    1    2    0    0 -0.10321529355E+03  0.14459751556E+02 -0.39694841323E+02  0.14514086695E+03  0.92885464930E+02 0.  0.
        -13    1    3    3    0    0  0.91052296692E+02  0.33901005614E+02 -0.21486685197E+03  0.23581255902E+03  0.00000000000E+00 0.  1.
         14    1    3    3    0    0 -0.57803000955E+01  0.42155880191E+02 -0.14414897164E+03  0.15029789130E+03  0.00000000000E+00 0. -1.
        -13    1    4    4    0    0 -0.10217678714E+03  0.34921528677E+02 -0.91574238080E+01  0.10836728014E+03  0.00000000000E+00 0. -1.
         13    1    4    4    0    0 -0.10385064113E+01 -0.20461777121E+02 -0.30537417515E+02  0.36773586812E+02  0.00000000000E+00 0.  1.
          1    1    1    2  501    0  0.17943296950E+02 -0.90516637361E+02 -0.65144988236E+03  0.65795301715E+03  0.00000000000E+00 0. -1.
<scales pt_clust_5="13000.00000" pt_clust_6="13000.00000" pt_clust_7="13000.00000" pt_clust_8="13000.00000" pt_clust_9="92.27802"></scales>
<clustering>
<clus scale="   84.457">  5  6 -1 -1</clus>
<clus scale="   92.278">  1  9  2 -1</clus>
<clus scale="   92.885">  7  8 -1 -1</clus>
<clus scale="  135.483">  2  5  1 -1</clus>
<clus scale="   92.278">  1  5  2 -1</clus>
</clustering>
</event>
<event>
 9    2  0.1302972E-004  0.1520313E+03  0.7546771E-02  0.1226996E+00
         21   -1    0    0  501  502  0.00000000000E+00  0.00000000000E+00  0.16283928422E+03  0.16283928422E+03  0.00000000000E+00 0. -1.
          2   -1    0    0  502    0 -0.00000000000E+00 -0.00000000000E+00 -0.27709727136E+03  0.27709727136E+03  0.00000000000E+00 0. -1.
         24    2    1    2    0    0  0.16340489531E+01 -0.13174431864E+02 -0.14323058818E+03  0.16507078073E+03  0.80976079729E+02 0.  0.
         23    2    1    2    0    0  0.76530058223E+02 -0.85203705039E+02  0.20430653088E+02  0.14892590688E+03  0.92978454438E+02 0.  0.
        -13    1    3    3    0    0  0.23950024736E+01  0.21628181637E+02 -0.47379964080E+01  0.22270224241E+02  0.00000000000E+00 0.  1.
         14    1    3    3    0    0 -0.76095352055E+00 -0.34802613501E+02 -0.13849259177E+03  0.14280055648E+03  0.00000000000E+00 0. -1.
        -11    1    4    4    0    0  0.71471551105E+02 -0.29012799494E+02 -0.19795789449E+02  0.79635409409E+02  0.00000000000E+00 0.  1.
         11    1    4    4    0    0  0.50585071174E+01 -0.56190905545E+02  0.40226442537E+02  0.69290497468E+02  0.00000000000E+00 0. -1.
          1    1    1    2  501    0 -0.78164107176E+02  0.98378136902E+02  0.85419479588E+01  0.12593986798E+03  0.00000000000E+00 0. -1.
<scales pt_clust_5="13000.00000" pt_clust_6="13000.00000" pt_clust_7="13000.00000" pt_clust_8="13000.00000" pt_clust_9="120.28520"></scales>
<clustering>
<clus scale="   80.976">  5  6 -1 -1</clus>
<clus scale="   82.057">  2  5  1 -1</clus>
<clus scale="   92.978">  7  8 -1 -1</clus>
<clus scale="  120.285">  1  9  2 -1</clus>
<clus scale="  120.285">  1  5  2 -1</clus>
</clustering>
</event>
<event>
 9    2  0.1302972E-004  0.1058695E+03  0.7546771E-02  0.1273775E+00
         21   -1    0    0  501  502  0.00000000000E+00  0.00000000000E+00  0.16160288254E+03  0.16160288254E+03  0.00000000000E+00 0.  1.
          4   -1    0    0  502    0 -0.00000000000E+00 -0.00000000000E+00 -0.32443159593E+03  0.32443159593E+03  0.00000000000E+00 0. -1.
         23    2    1    2    0    0  0.43839180122E+02 -0.27317435684E+02 -0.28391521584E+03  0.30328134194E+03  0.93293121814E+02 0.  0.
         24    2    1    2    0    0 -0.45383904767E+02 -0.14837325161E+02  0.90125131118E+02  0.13042707657E+03  0.81294760069E+02 0.  0.
        -13    1    4    4    0    0 -0.98291468084E+01 -0.26917227612E+02  0.88298363180E+02  0.92831838340E+02  0.00000000000E+00 0.  1.
         14    1    4    4    0    0 -0.35554757959E+02  0.12079902451E+02  0.18267679380E+01  0.37595238234E+02  0.00000000000E+00 0. -1.
        -11    1    3    3    0    0 -0.19810366991E+02 -0.37277149474E+02 -0.11251221401E+03  0.12017085676E+03  0.00000000000E+00 0. -1.
         11    1    3    3    0    0  0.63649547113E+02  0.99597137903E+01 -0.17140300184E+03  0.18311048518E+03  0.00000000000E+00 0.  1.
          3    1    1    2  501    0  0.15447246450E+01  0.42154760845E+02  0.30961371327E+02  0.52326059956E+02  0.00000000000E+00 0. -1.
<scales pt_clust_5="13000.00000" pt_clust_6="13000.00000" pt_clust_7="13000.00000" pt_clust_8="13000.00000" pt_clust_9="42.18305"></scales>
<clustering>
<clus scale="   42.183">  1  9  2 -1</clus>
<clus scale="   81.295">  5  6 -1 -1</clus>
<clus scale="   93.293">  7  8 -1 -1</clus>
<clus scale="   95.465">  1  5  2 -1</clus>
<clus scale="   42.183">  1  5  2 -1</clus>
</clustering>
</event>
<event>
 9    2  0.1302972E-004  0.9357750E+02  0.7546771E-02  0.1302822E+00
          2   -1    0    0  502    0 -0.00000000000E+00  0.00000000000E+00  0.52552060066E+03  0.52552060066E+03  0.00000000000E+00 0. -1.
         21   -1    0    0  501  502  0.00000000000E+00 -0.00000000000E+00 -0.15881018683E+03  0.15881018683E+03  0.00000000000E+00 0.  1.
         23    2    1    2    0    0  0.52352343380E+01  0.11955762385E+02  0.47770917875E+03  0.48676419467E+03  0.92536337840E+02 0.  0.
         24    2    1    2    0    0 -0.58303526646E+02  0.27698662345E+01 -0.36029171904E+02  0.10454225373E+03  0.78892383713E+02 0.  0.
        -13    1    4    4    0    0 -0.71672070704E+02 -0.21752210579E+01 -0.47698748411E+02  0.86120775110E+02  0.00000000000E+00 0.  1.
         14    1    4    4    0    0  0.13368544058E+02  0.49450872925E+01  0.11669576507E+02  0.18421478616E+02  0.00000000000E+00 0. -1.
        -13    1    3    3    0    0 -0.17882419047E+02  0.47645702645E+02  0.26717626386E+03  0.27197987032E+03  0.00000000000E+00 0. -1.
         13    1    3    3    0    0  0.23117653385E+02 -0.35689940260E+02  0.21053291489E+03  0.21478432435E+03  0.00000000000E+00 0.  1.
          1    1    1    2  501    0  0.53068292308E+02 -0.14725628619E+02 -0.74969593013E+02  0.93024339090E+02  0.00000000000E+00 0. -1.
<scales pt_clust_5="13000.00000" pt_clust_6="13000.00000" pt_clust_7="13000.00000" pt_clust_8="13000.00000" pt_clust_9="55.07348"></scales>
<clustering>
<clus scale="   55.073">  2  9  1 -1</clus>
<clus scale="   78.892">  5  6 -1 -1</clus>
<clus scale="   80.111">  2  5  1 -1</clus>
<clus scale="   92.536">  7  8 -1 -1</clus>
<clus scale="   55.073">  2  5  1 -1</clus>
</clustering>
</event>
<event>
 9    2  0.1302972E-004  0.1296992E+03  0.7546771E-02  0.1240151E+00
         21   -1    0    0  501  502  0.00000000000E+00  0.00000000000E+00  0.32849911076E+02  0.32849911076E+02  0.00000000000E+00 0.  1.
          2   -1    0    0  502    0 -0.00000000000E+00 -0.00000000000E+00 -0.91586894322E+03  0.91586894322E+03  0.00000000000E+00 0. -1.
         24    2    1    2    0    0 -0.33373116062E+02 -0.49581842141E+02 -0.19104891975E+03  0.21604973248E+03  0.81275292802E+02 0.  0.
         23    2    1    2    0    0 -0.74989854409E+02  0.28994702336E+02 -0.47526205129E+03  0.48950508780E+03  0.85305583376E+02 0.  0.
        -13    1    3    3    0    0 -0.27711518635E+02 -0.70699800997E+02 -0.16753773409E+03  0.18394369375E+03  0.00000000000E+00 0.  1.
         14    1    3    3    0    0 -0.56615974270E+01  0.21117958856E+02 -0.23511185661E+02  0.32106038729E+02  0.00000000000E+00 0. -1.
        -11    1    4    4    0    0 -0.48867500287E+02 -0.22237866953E+02 -0.15286839757E+03  0.16202253635E+03  0.00000000000E+00 0.  1.
         11    1    4    4    0    0 -0.26122354122E+02  0.51232569289E+02 -0.32239365373E+03  0.32748255145E+03  0.00000000000E+00 0. -1.
          1    1    1    2  501    0  0.10836297047E+03  0.20587139805E+02 -0.21670806110E+03  0.24316403402E+03  0.00000000000E+00 0. -1.
<scales pt_clust_5="13000.00000" pt_clust_6="13000.00000" pt_clust_7="13000.00000" pt_clust_8="13000.00000" pt_clust_9="97.69768"></scales>
<clustering>
<clus scale="   81.275">  5  6 -1 -1</clus>
<clus scale="   85.306">  7  8 -1 -1</clus>
<clus scale="  100.885">  2  5  1 -1</clus>
<clus scale="   97.698">  1  9  2 -1</clus>
<clus scale="   97.698">  1  5  2 -1</clus>
</clustering>
</event>
<event>
 9    2  0.1302972E-004  0.1469449E+03  0.7546771E-02  0.1206160E+00
         -1   -1    0    0    0  501 -0.00000000000E+00  0.00000000000E+00  0.54298441375E+03  0.54298441375E+03  0.00000000000E+00 0.  1.
         21   -1    0    0  501  502  0.00000000000E+00 -0.00000000000E+00 -0.14511452454E+03  0.14511452454E+03  0.00000000000E+00 0.  1.
         24    2    1    2    0    0  0.10068614770E+03  0.55356787696E+02  0.42567210454E+03  0.44813443280E+03  0.80160183371E+02 0.  0.
         23    2    1    2    0    0 -0.93962364258E+02 -0.82087519215E+02  0.46482763668E+02  0.16073067827E+03  0.90035642444E+02 0.  0.
        -13    1    3    3    0    0  0.57448072549E+02 -0.86813343622E+01  0.24188892669E+03  0.24876876705E+03  0.00000000000E+00 0.  1.
         14    1    3    3    0    0  0.43238075146E+02  0.64038122058E+02  0.18378317785E+03  0.19936566575E+03  0.00000000000E+00 0. -1.
        -13    1    4    4    0    0 -0.78296308878E+02 -0.30675050166E+02  0.62357767531E+02  0.10468888125E+03  0.00000000000E+00 0. -1.
         13    1    4    4    0    0 -0.15666055380E+02 -0.51412469050E+02 -0.15875003864E+02  0.56041797015E+02  0.00000000000E+00 0.  1.
         -2    1    1    2    0  502 -0.67237834367E+01  0.26730731519E+02 -0.74284978993E+02  0.79233827216E+02  0.00000000000E+00 0.  1.
<scales pt_clust_5="13000.00000" pt_clust_6="13000.00000" pt_clust_7="13000.00000" pt_clust_8="13000.00000" pt_clust_9="27.56340"></scales>
<clustering>
<clus scale="   27.563">  2  9  1 -1</clus>
<clus scale="   80.160">  5  6 -1 -1</clus>
<clus scale="   90.036">  7  8 -1 -1</clus>
<clus scale="  141.110">  1  5  2 -1</clus>
<clus scale="   27.563">  2  5  1 -1</clus>
</clustering>
</event>
<event>
 9    2  0.1302972E-004  0.1868190E+03  0.7546771E-02  0.1171529E+00
          2   -1    0    0  502    0 -0.00000000000E+00  0.00000000000E+00  0.51532104841E+03  0.51532104841E+03  0.00000000000E+00 0. -1.
         21   -1    0    0  501  502  0.00000000000E+00 -0.00000000000E+00 -0.17362401491E+03  0.17362401491E+03  0.00000000000E+00 0. -1.
         24    2    1    2    0    0 -0.82836074544E+02  0.91736263583E+02  0.12369346674E+03  0.19276166196E+03  0.81114901868E+02 0.  0.
         23    2    1    2    0    0 -0.10240033056E+03 -0.12877278093E+03 -0.22814315882E+02  0.19011562784E+03  0.92494335672E+02 0.  0.
        -13    1    3    3    0    0 -0.43510792078E+02 -0.13541937898E+01  0.19788829459E+02  0.47818622308E+02  0.00000000000E+00 0.  1.
         14    1    3    3    0    0 -0.39325282466E+02  0.93090457373E+02  0.10390463728E+03  0.14494303965E+03  0.00000000000E+00 0. -1.
        -11    1    4    4    0    0 -0.94286166447E+02 -0.79301766392E+02  0.19221581546E+02  0.12469210293E+03  0.00000000000E+00 0. -1.
         11    1    4    4    0    0 -0.81141641143E+01 -0.49471014538E+02 -0.42035897428E+02  0.65423524907E+02  0.00000000000E+00 0.  1.
          1    1    1    2  501    0  0.18523640511E+03  0.37036517347E+02  0.24081788263E+03  0.30606777352E+03  0.00000000000E+00 0. -1.
<scales pt_clust_5="13000.00000" pt_clust_6="13000.00000" pt_clust_7="13000.00000" pt_clust_8="13000.00000" pt_clust_9="162.31504"></scales>
<clustering>
<clus scale="   81.115">  5  6 -1 -1</clus>
<clus scale="   92.494">  7  8 -1 -1</clus>
<clus scale="  147.841">  1  5  2 -1</clus>
<clus scale="  162.315">  2  9  1 -1</clus>
<clus scale="  162.315">  2  5  1 -1</clus>
</clustering>
</event>
<event>
 9    2  0.1302972E-004  0.9549125E+02  0.7546771E-02  0.1296365E+00
          4   -1    0    0  502    0 -0.00000000000E+00  0.00000000000E+00  0.79101042512E+03  0.79101042512E+03  0.00000000000E+00 0. -1.
         21   -1    0    0  501  502  0.00000000000E+00 -0.00000000000E+00 -0.22661369198E+02  0.22661369198E+02  0.00000000000E+00 0. -1.
         24    2    1    2    0    0 -0.15256658705E+02 -0.90415394959E+01  0.33529901251E+03  0.34516951387E+03  0.80012814263E+02 0.  0.
         23    2    1    2    0    0 -0.10721390757E+02  0.67753324857E+02  0.29357929148E+03  0.31496393527E+03  0.91148334525E+02 0.  0.
        -11    1    3    3    0    0 -0.25820362296E+02 -0.18209324943E+02  0.47606047608E+02  0.57136734180E+02  0.00000000000E+00 0.  1.
         12    1    3    3    0    0  0.10563703591E+02  0.91677854469E+01  0.28769296490E+03  0.28803277969E+03  0.00000000000E+00 0. -1.
        -11    1    4    4    0    0 -0.28009216088E+02 -0.10223659130E+02  0.12373856218E+03  0.12728028584E+03  0.00000000000E+00 0.  1.
         11    1    4    4    0    0  0.17287825331E+02  0.77976983988E+02  0.16984072930E+03  0.18768364943E+03  0.00000000000E+00 0. -1.
          3    1    1    2  501    0  0.25978049461E+02 -0.58711785362E+02  0.13947075193E+03  0.15353834517E+03  0.00000000000E+00 0. -1.
<scales pt_clust_5="13000.00000" pt_clust_6="13000.00000" pt_clust_7="13000.00000" pt_clust_8="13000.00000" pt_clust_9="64.20228"></scales>
<clustering>
<clus scale="   64.202">  2  9  1 -1</clus>
<clus scale="   80.013">  5  6 -1 -1</clus>
<clus scale="   84.927">  1  5  2 -1</clus>
<clus scale="   91.148">  7  8 -1 -1</clus>
<clus scale="   64.202">  2  5  1 -1</clus>
</clustering>
</event>
<event>
 9    2  0.1302972E-004  0.1055178E+03  0.7546771E-02  0.1274286E+00
         -1   -1    0    0    0  501 -0.00000000000E+00  0.00000000000E+00  0.35231258883E+03  0.35231258883E+03  0.00000000000E+00 0.  1.
         21   -1    0    0  501  502  0.00000000000E+00 -0.00000000000E+00 -0.51920677018E+02  0.51920677018E+02  0.00000000000E+00 0.  1.
         24    2    1    2    0    0 -0.42708670436E+02 -0.99834408245E+01  0.10796978935E+03  0.14126432507E+03  0.79840055753E+02 0.  0.
         23    2    1    2    0    0  0.59354333161E+02 -0.45475925086E+02  0.15091552120E+03  0.19172557405E+03  0.91608976517E+02 0.  0.
        -11    1    3    3    0    0 -0.59554433053E+02 -0.50511952262E+01  0.10831172734E+03  0.12370802459E+03  0.00000000000E+00 0.  1.
         12    1    3    3    0    0  0.16845762617E+02 -0.49322455984E+01 -0.34193798548E+00  0.17556300475E+02  0.00000000000E+00 0. -1.
        -13    1    4    4    0    0  0.43137887808E+02 -0.63753060303E+02  0.60039674044E+02  0.97622192772E+02  0.00000000000E+00 0.  1.
         13    1    4    4    0    0  0.16216445354E+02  0.18277135216E+02  0.90875847156E+02  0.94103381278E+02  0.00000000000E+00 0. -1.
         -2    1    1    2    0  502 -0.16645662726E+02  0.55459365911E+02  0.41506601256E+02  0.71243366727E+02  0.00000000000E+00 0.  1.
<scales pt_clust_5="13000.00000" pt_clust_6="13000.00000" pt_clust_7="13000.00000" pt_clust_8="13000.00000" pt_clust_9="57.90353"></scales>
<clustering>
<clus scale="   57.904">  2  9  1 -1</clus>
<clus scale="   79.840">  5  6 -1 -1</clus>
<clus scale="   91.609">  7  8 -1 -1</clus>
<clus scale="   95.479">  1  5  2 -1</clus>
<clus scale="   57.904">  2  5  1 -1</clus>
</clustering>
</event>
<event>
 9    2  0.1302972E-004  0.1821400E+03  0.7546771E-02  0.1189495E+00
          2   -1    0    0  502    0 -0.00000000000E+00  0.00000000000E+00  0.95958768955E+03  0.95958768955E+03  0.00000000000E+00 0. -1.
         21   -1    0    0  501  502  0.00000000000E+00 -0.00000000000E+00 -0.95640965173E+02  0.95640965173E+02  0.00000000000E+00 0. -1.
         24    2    1    2    0    0  0.27864861159E+02  0.57164445324E+02  0.61688468234E+03  0.62602042345E+03  0.85502251307E+02 0.  0.
         23    2    1    2    0    0  0.11918977490E+03  0.42138071872E+02  0.18280350091E+03  0.24048829058E+03  0.91845949385E+02 0.  0.
        -11    1    3    3    0    0  0.45112453256E+02 -0.92308025742E+00  0.22512834541E+03  0.22960565634E+03  0.00000000000E+00 0.  1.
         12    1    3    3    0    0 -0.17247592098E+02  0.58087525582E+02  0.39175633692E+03  0.39641476711E+03  0.00000000000E+00 0. -1.
        -11    1    4    4    0    0  0.18717809966E+02  0.40286315207E+02  0.10298253154E+03  0.11215500615E+03  0.00000000000E+00 0.  1.
         11    1    4    4    0    0  0.10047196493E+03  0.18517566644E+01  0.79820969374E+02  0.12833328443E+03  0.00000000000E+00 0. -1.
          1    1    1    2  501    0 -0.14705463606E+03 -0.99302517196E+02  0.64258541124E+02  0.18871994069E+03  0.00000000000E+00 0. -1.
<scales pt_clust_5="13000.00000" pt_clust_6="13000.00000" pt_clust_7="13000.00000" pt_clust_8="13000.00000" pt_clust_9="157.28737"></scales>
<clustering>
<clus scale="   85.502">  5  6 -1 -1</clus>
<clus scale="   91.846">  7  8 -1 -1</clus>
<clus scale="  106.559">  1  5  2 -1</clus>
<clus scale="  157.287">  2  9  1 -1</clus>
<clus scale="  157.287">  2  5  1 -1</clus>
</clustering>
</event>
<event>
 9    2  0.1302972E-004  0.9396763E+02  0.7546771E-02  0.1300008E+00
          2   -1    0    0  502    0 -0.00000000000E+00  0.00000000000E+00  0.18058827647E+03  0.18058827647E+03  0.00000000000E+00 0. -1.
         21   -1    0    0  501  502  0.00000000000E+00 -0.00000000000E+00 -0.95599589763E+02  0.95599589763E+02  0.00000000000E+00 0.  1.
         24    2    1    2    0    0  0.11399357423E+02 -0.18984873910E+02  0.67160580365E+02  0.10740690571E+03  0.80841382057E+02 0.  0.
         23    2    1    2    0    0 -0.31346731929E+02 -0.10168458517E+02 -0.36380146328E+02  0.10407895747E+03  0.91776354195E+02 0.  0.
        -13    1    3    3    0    0  0.36749344756E+02 -0.36357110478E+02  0.51280344907E+02  0.72815023148E+02  0.00000000000E+00 0.  1.
         14    1    3    3    0    0 -0.25349987333E+02  0.17372236568E+02  0.15880235458E+02  0.34591882564E+02  0.00000000000E+00 0. -1.
        -13    1    4    4    0    0  0.16923780832E+01  0.36883184169E+02 -0.27196371975E+02  0.45857126672E+02  0.00000000000E+00 0.  1.
         13    1    4    4    0    0 -0.33039110012E+02 -0.47051642686E+02 -0.91837743534E+01  0.58221830795E+02  0.00000000000E+00 0. -1.
          1    1    1    2  501    0  0.19947374506E+02  0.29153332427E+02  0.54208252668E+02  0.64702003050E+02  0.00000000000E+00 0. -1.
<scales pt_clust_5="13000.00000" pt_clust_6="13000.00000" pt_clust_7="13000.00000" pt_clust_8="13000.00000" pt_clust_9="35.32444"></scales>
<clustering>
<clus scale="   35.324">  2  9  1 -1</clus>
<clus scale="   80.841">  5  6 -1 -1</clus>
<clus scale="   83.321">  1  5  2 -1</clus>
<clus scale="   91.776">  7  8 -1 -1</clus>
<clus scale="   35.324">  2  5  1 -1</clus>
</clustering>
</event>
<event>
 9    2  0.1302972E-004  0.9695320E+02  0.7546771E-02  0.1293505E+00
          2   -1    0    0  502    0 -0.00000000000E+00  0.00000000000E+00  0.37264074981E+03  0.37264074981E+03  0.00000000000E+00 0. -1.
         21   -1    0    0  501  502  0.00000000000E+00 -0.00000000000E+00 -0.73666850651E+02  0.73666850651E+02  0.00000000000E+00 0. -1.
         24    2    1    2    0    0  0.14611264937E+02  0.20655342921E+02  0.25849356752E+03  0.27203251947E+03  0.80886556012E+02 0.  0.
         23    2    1    2    0    0  0.17562909681E+02 -0.63531447127E+02  0.14748347870E+02  0.11481355719E+03  0.92843624334E+02 0.  0.
        -13    1    3    3    0    0 -0.20178354101E+02  0.37016405961E+02  0.92645763681E+02  0.10178712007E+03  0.00000000000E+00 0.  1.
         14    1    3    3    0    0  0.34789619038E+02 -0.16361063039E+02  0.16584780384E+03  0.17024539940E+03  0.00000000000E+00 0. -1.
        -11    1    4    4    0    0  0.51974357839E+02 -0.57575648018E+02  0.18348489408E+02  0.79705433823E+02  0.00000000000E+00 0. -1.
         11    1    4    4    0    0 -0.34411448157E+02 -0.59557991091E+01 -0.36001415384E+01  0.35108123368E+02  0.00000000000E+00 0.  1.
          1    1    1    2  501    0 -0.32174174619E+02  0.42876104205E+02  0.25731983767E+02  0.59461523801E+02  0.00000000000E+00 0. -1.
<scales pt_clust_5="13000.00000" pt_clust_6="13000.00000" pt_clust_7="13000.00000" pt_clust_8="13000.00000" pt_clust_9="53.60539"></scales>
<clustering>
<clus scale="   53.605">  2  9  1 -1</clus>
<clus scale="   80.887">  5  6 -1 -1</clus>
<clus scale="   85.572">  1  5  2 -1</clus>
<clus scale="   92.844">  7  8 -1 -1</clus>
<clus scale="   53.605">  2  5  1 -1</clus>
</clustering>
</event>
<event>
 9    2  0.1302972E-004  0.1002656E+03  0.7546771E-02  0.1285708E+00
         21   -1    0    0  501  502  0.00000000000E+00  0.00000000000E+00  0.60693825150E+02  0.60693825150E+02  0.00000000000E+00 0. -1.
          4   -1    0    0  502    0 -0.00000000000E+00 -0.00000000000E+00 -0.35826694267E+03  0.35826694267E+03  0.00000000000E+00 0. -1.
         23    2    1    2    0    0  0.38496439282E+02  0.96910014827E+01 -0.24101979600E+03  0.26110545725E+03  0.92247636249E+02 0.  0.
         24    2    1    2    0    0 -0.19423553546E+02 -0.50970582617E+02 -0.56394261993E+02  0.11238219666E+03  0.80462230987E+02 0.  0.
        -13    1    4    4    0    0  0.25107728757E+02  0.46725834866E+01 -0.19486064318E+02  0.32123788418E+02  0.00000000000E+00 0.  1.
         14    1    4    4    0    0 -0.44531282303E+02 -0.55643166104E+02 -0.36908197675E+02  0.80258408240E+02  0.00000000000E+00 0. -1.
        -13    1    3    3    0    0  0.20801667306E+02  0.45939074319E+02 -0.75868223548E+02  0.91099370231E+02  0.00000000000E+00 0. -1.
         13    1    3    3    0    0  0.17694771975E+02 -0.36248072836E+02 -0.16515157245E+03  0.17000608702E+03  0.00000000000E+00 0.  1.
          3    1    1    2  501    0 -0.19072885736E+02  0.41279581134E+02 -0.15905952413E+00  0.45473113912E+02  0.00000000000E+00 0. -1.
<scales pt_clust_5="13000.00000" pt_clust_6="13000.00000" pt_clust_7="13000.00000" pt_clust_8="13000.00000" pt_clust_9="45.47284"></scales>
<clustering>
<clus scale="   45.473">  1  9  2 -1</clus>
<clus scale="   80.462">  5  6 -1 -1</clus>
<clus scale="   89.542">  1  5  2 -1</clus>
<clus scale="   92.248">  7  8 -1 -1</clus>
<clus scale="   45.473">  1  5  2 -1</clus>
</clustering>
</event>
<event>
 9    2  0.1302972E-004  0.2201256E+03  0.7546771E-02  0.1134588E+00
         21   -1    0    0  501  502  0.00000000000E+00  0.00000000000E+00  0.15181277345E+03  0.15181277345E+03  0.00000000000E+00 0.  1.
         -1   -1    0    0    0  501 -0.00000000000E+00 -0.00000000000E+00 -0.57238805570E+03  0.57238805570E+03  0.00000000000E+00 0.  1.
         24    2    1    2    0    0  0.10384498050E+03 -0.16480684017E+03 -0.28832053911E+03  0.35716698576E+03  0.80588137465E+02 0.  0.
         23    2    1    2    0    0 -0.85127639955E+02  0.19207720442E+03 -0.19188852050E+03  0.29884147573E+03  0.91349087444E+02 0.  0.
        -13    1    3    3    0    0  0.73220019853E+02 -0.43784824773E+02 -0.10337525142E+03  0.13403255125E+03  0.00000000000E+00 0.  1.
         14    1    3    3    0    0  0.30624960648E+02 -0.12102201539E+03 -0.18494528769E+03  0.22313443451E+03  0.00000000000E+00 0. -1.
        -13    1    4    4    0    0 -0.63696148042E+02  0.52276479153E+02 -0.10255095672E+03  0.13155503895E+03  0.00000000000E+00 0.  1.
         13    1    4    4    0    0 -0.21431491913E+02  0.13980072527E+03 -0.89337563780E+02  0.16728643679E+03  0.00000000000E+00 0. -1.
         -2    1    1    2    0  502 -0.18717340546E+02 -0.27270364254E+02  0.59633777361E+02  0.68192367652E+02  0.00000000000E+00 0.  1.
<scales pt_clust_5="13000.00000" pt_clust_6="13000.00000" pt_clust_7="13000.00000" pt_clust_8="13000.00000" pt_clust_9="33.07585"></scales>
<clustering>
<clus scale="   33.076">  1  9  2 -1</clus>
<clus scale="   80.588">  5  6 -1 -1</clus>
<clus scale="   91.349">  7  8 -1 -1</clus>
<clus scale="  215.882">  2  5  1 -1</clus>
<clus scale="   33.076">  1  5  2 -1</clus>
</clustering>
</event>
<event>
 9    2  0.1302972E-004  0.1057349E+03  0.7546771E-02  0.1273788E+00
         21   -1    0    0  501  502  0.00000000000E+00  0.00000000000E+00  0.34178803000E+02  0.34178803000E+02  0.00000000000E+00 0.  1.
          2   -1    0    0  502    0 -0.00000000000E+00 -0.00000000000E+00 -0.39969234182E+03  0.39969234182E+03  0.00000000000E+00 0. -1.
         23    2    1    2    0    0  0.40205316166E+02  0.12736042719E+02 -0.21428204227E+03  0.23731416071E+03  0.92857649125E+02 0.  0.
         24    2    1    2    0    0 -0.61825226758E+02 -0.16496382479E+02 -0.12757458971E+03  0.16428919940E+03  0.81370607720E+02 0.  0.
        -13    1    4    4    0    0 -0.31524275059E+02  0.28575349083E+02 -0.28208440624E+02  0.51049452648E+02  0.00000000000E+00 0.  1.
         14    1    4    4    0    0 -0.30300951699E+02 -0.45071731562E+02 -0.99366149086E+02  0.11323974675E+03  0.00000000000E+00 0. -1.
        -11    1    3    3    0    0  0.70153067705E+02  0.38842481437E+01 -0.13713340314E+03  0.15408475119E+03  0.00000000000E+00 0. -1.
         11    1    3    3    0    0 -0.29947751538E+02  0.88517945756E+01 -0.77148639131E+02  0.83229409521E+02  0.00000000000E+00 0.  1.
          1    1    1    2  501    0  0.21619910592E+02  0.37603397592E+01 -0.23656906841E+02  0.32267784714E+02  0.00000000000E+00 0. -1.
<scales pt_clust_5="13000.00000" pt_clust_6="13000.00000" pt_clust_7="13000.00000" pt_clust_8="13000.00000" pt_clust_9="21.94449"></scales>
<clustering>
<clus scale="   21.944">  1  9  2 -1</clus>
<clus scale="   81.371">  5  6 -1 -1</clus>
<clus scale="   92.858">  7  8 -1 -1</clus>
<clus scale="   95.805">  1  5  2 -1</clus>
<clus scale="   21.944">  1  5  2 -1</clus>
</clustering>
</event>
<event>
 9    2  0.1302972E-004  0.1359505E+03  0.7546771E-02  0.1221737E+00
         21   -1    0    0  501  502  0.00000000000E+00  0.00000000000E+00  0.11663184504E+03  0.11663184504E+03  0.00000000000E+00 0. -1.
          2   -1    0    0  502    0 -0.00000000000E+00 -0.00000000000E+00 -0.45353518842E+03  0.45353518842E+03  0.00000000000E+00 0. -1.
         23    2    1    2    0    0 -0.82868655098E+02 -0.28768138637E+02 -0.25247409133E+03  0.28243366497E+03  0.91273153336E+02 0.  0.
         24    2    1    2    0    0  0.15565860437E+03 -0.18943732022E+02 -0.95687962126E+02  0.19997484828E+03  0.79027133015E+02 0.  0.
        -13    1    4    4    0    0  0.13592355281E+02 -0.16555838365E+02  0.92556730870E+01  0.23334853554E+02  0.00000000000E+00 0.  1.
         14    1    4    4    0    0  0.14206624909E+03 -0.23878936567E+01 -0.10494363521E+03  0.17663999473E+03  0.00000000000E+00 0. -1.
        -13    1    3    3    0    0 -0.80353306129E+02 -0.52035592288E+02 -0.23330667576E+03  0.25218319060E+03  0.00000000000E+00 0. -1.
         13    1    3    3    0    0 -0.25153489698E+01  0.23267453651E+02 -0.19167415569E+02  0.30250474367E+02  0.00000000000E+00 0.  1.
          1    1    1    2  501    0 -0.72789949269E+02  0.47711870659E+02  0.11258710074E+02  0.87758520207E+02  0.00000000000E+00 0. -1.
<scales pt_clust_5="13000.00000" pt_clust_6="13000.00000" pt_clust_7="13000.00000" pt_clust_8="13000.00000" pt_clust_9="87.03332"></scales>
<clustering>
<clus scale="   79.027">  5  6 -1 -1</clus>
<clus scale="   87.033">  1  9  2 -1</clus>
<clus scale="   91.273">  7  8 -1 -1</clus>
<clus scale="  128.051">  1  5  2 -1</clus>
<clus scale="   87.033">  1  5  2 -1</clus>
</clustering>
</event>
<event>
 9    2  0.1302972E-004  0.1325041E+03  0.7546771E-02  0.1228562E+00
         21   -1    0    0  501  502  0.00000000000E+00  0.00000000000E+00  0.99473169326E+02  0.99473169326E+02  0.00000000000E+00 0.  1.
          4   -1    0    0  502    0 -0.00000000000E+00 -0.00000000000E+00 -0.91336578102E+03  0.91336578102E+03  0.00000000000E+00 0. -1.
         24    2    1    2    0    0 -0.58717820228E+02 -0.68279927854E+02 -0.85089882105E+03  0.85952862546E+03  0.81551967261E+02 0.  0.
         23    2    1    2    0    0  0.34426292710E+02  0.42844649820E+02  0.23879080435E+02  0.11576897180E+03  0.99052565347E+02 0.  0.
        -11    1    3    3    0    0 -0.15612474011E+02 -0.61836806805E+02 -0.28956705773E+03  0.29650737081E+03  0.00000000000E+00 0.  1.
         12    1    3    3    0    0 -0.43105346216E+02 -0.64431210492E+01 -0.56133176331E+03  0.56302125465E+03  0.00000000000E+00 0. -1.
        -11    1    4    4    0    0 -0.16818124538E+02  0.52434554807E+02 -0.64702467680E+01  0.55444530334E+02  0.00000000000E+00 0. -1.
         11    1    4    4    0    0  0.51244417248E+02 -0.95899049870E+01  0.30349327204E+02  0.60324441468E+02  0.00000000000E+00 0.  1.
          3    1    1    2  501    0  0.24291527517E+02  0.25435278034E+02  0.13127128917E+02  0.37541353084E+02  0.00000000000E+00 0. -1.
<scales pt_clust_5="13000.00000" pt_clust_6="13000.00000" pt_clust_7="13000.00000" pt_clust_8="13000.00000" pt_clust_9="35.17146"></scales>
<clustering>
<clus scale="   35.171">  1  9  2 -1</clus>
<clus scale="   81.552">  5  6 -1 -1</clus>
<clus scale="   99.053">  7  8 -1 -1</clus>
<clus scale="  119.986">  2  5  1 -1</clus>
<clus scale="   35.171">  1  5  2 -1</clus>
</clustering>
</event>
<event>
 9    2  0.1302972E-004  0.1542324E+03  0.7546771E-02  0.1197214E+00
         -1   -1    0    0    0  501 -0.00000000000E+00  0.00000000000E+00  0.83612169422E+03  0.83612169422E+03  0.00000000000E+00 0.  1.
         21   -1    0    0  501  502  0.00000000000E+00 -0.00000000000E+00 -0.53800938945E+02  0.53800938945E+02  0.00000000000E+00 0.  1.
         23    2    1    2    0    0 -0.10464999221E+03 -0.69087266425E+02  0.42907658115E+03  0.45620405838E+03  0.91053605849E+02 0.  0.
         24    2    1    2    0    0  0.67620904759E+02  0.11267886290E+03  0.12477987422E+03  0.19820357116E+03  0.80284031451E+02 0.  0.
        -11    1    4    4    0    0  0.71517713244E+02  0.60759681424E+02  0.47922383916E+02  0.10537113967E+03  0.00000000000E+00 0.  1.
         12    1    4    4    0    0 -0.38968084849E+01  0.51919181478E+02  0.76857490303E+02  0.92832431496E+02  0.00000000000E+00 0. -1.
        -11    1    3    3    0    0 -0.16902166756E+02  0.22386287705E+02  0.69980525435E+02  0.75392990778E+02  0.00000000000E+00 0. -1.
         11    1    3    3    0    0 -0.87747825455E+02 -0.91473554130E+02  0.35909605572E+03  0.38081106761E+03  0.00000000000E+00 0.  1.
         -2    1    1    2    0  502  0.37029087453E+02 -0.43591596477E+02  0.22846429991E+03  0.23551500363E+03  0.00000000000E+00 0.  1.
<scales pt_clust_5="13000.00000" pt_clust_6="13000.00000" pt_clust_7="13000.00000" pt_clust_8="13000.00000" pt_clust_9="57.19601"></scales>
<clustering>
<clus scale="   57.196">  2  9  1 -1</clus>
<clus scale="   80.284">  5  6 -1 -1</clus>
<clus scale="   91.054">  7  8 -1 -1</clus>
<clus scale="  148.130">  2  5  1 -1</clus>
<clus scale="   57.196">  2  5  1 -1</clus>
</clustering>
</event>
<event>
 9    2  0.1302972E-004  0.9053068E+02  0.7546771E-02  0.1306229E+00
         21   -1    0    0  501  502  0.00000000000E+00  0.00000000000E+00  0.80834301429E+02  0.80834301429E+02  0.00000000000E+00 0. -1.
          2   -1    0    0  502    0 -0.00000000000E+00 -0.00000000000E+00 -0.30290225153E+03  0.30290225153E+03  0.00000000000E+00 0. -1.
         24    2    1    2    0    0 -0.17482677253E+01  0.14597264642E+02 -0.20755228210E+03  0.22334489816E+03  0.81171775601E+02 0.  0.
         23    2    1    2    0    0 -0.47516815815E+02 -0.34282623987E+02 -0.47260191525E+01  0.10644354034E+03  0.88739765218E+02 0.  0.
        -11    1    3    3    0    0  0.57813761905E+01  0.47843442575E+02 -0.12936904428E+03  0.13805350023E+03  0.00000000000E+00 0.  1.
         12    1    3    3    0    0 -0.75296439157E+01 -0.33246177934E+02 -0.78183237826E+02  0.85291397935E+02  0.00000000000E+00 0. -1.
        -11    1    4    4    0    0 -0.63765977585E+02 -0.21919117090E+02  0.23676041574E+02  0.71463994683E+02  0.00000000000E+00 0. -1.
         11    1    4    4    0    0  0.16249161770E+02 -0.12363506897E+02 -0.28402060727E+02  0.34979545660E+02  0.00000000000E+00 0.  1.
          1    1    1    2  501    0  0.49265083541E+02  0.19685359345E+02 -0.97896488482E+01  0.53948114456E+02  0.00000000000E+00 0. -1.
<scales pt_clust_5="13000.00000" pt_clust_6="13000.00000" pt_clust_7="13000.00000" pt_clust_8="13000.00000" pt_clust_9="53.05244"></scales>
<clustering>
<clus scale="   53.052">  1  9  2 -1</clus>
<clus scale="   81.172">  5  6 -1 -1</clus>
<clus scale="   83.126">  2  5  1 -1</clus>
<clus scale="   88.740">  7  8 -1 -1</clus>
<clus scale="   53.052">  1  5  2 -1</clus>
</clustering>
</event>
<event>
 9    2  0.1302972E-004  0.1228511E+03  0.7546771E-02  0.1242107E+00
          4   -1    0    0  502    0 -0.00000000000E+00  0.00000000000E+00  0.10723326564E+03  0.10723326564E+03  0.00000000000E+00 0. -1.
         21   -1    0    0  501  502  0.00000000000E+00 -0.00000000000E+00 -0.21233587851E+03  0.21233587851E+03  0.00000000000E+00 0.  1.
         23    2    1    2    0    0  0.89121073547E+02 -0.18034473592E+02  0.95981788041E+01  0.13017510655E+03  0.92658649571E+02 0.  0.
         24    2    1    2    0    0 -0.51663493559E+02  0.37544650852E+02 -0.10292696684E+03  0.14554953662E+03  0.80696900398E+02 0.  0.
        -13    1    4    4    0    0 -0.68547266427E+02  0.40349690424E+02 -0.10064653057E+03  0.12828308294E+03  0.00000000000E+00 0.  1.
         14    1    4    4    0    0  0.16883772868E+02 -0.28050395728E+01 -0.22804362688E+01  0.17266453685E+02  0.00000000000E+00 0. -1.
        -13    1    3    3    0    0  0.39619877019E+02 -0.40402260636E+02  0.38695725013E+02  0.68552435797E+02  0.00000000000E+00 0. -1.
         13    1    3    3    0    0  0.49501196528E+02  0.22367787045E+02 -0.29097546208E+02  0.61622670750E+02  0.00000000000E+00 0.  1.
          3    1    1    2  501    0 -0.37457579988E+02 -0.19510177260E+02 -0.11773824840E+02  0.43844500985E+02  0.00000000000E+00 0. -1.
<scales pt_clust_5="13000.00000" pt_clust_6="13000.00000" pt_clust_7="13000.00000" pt_clust_8="13000.00000" pt_clust_9="42.23410"></scales>
<clustering>
<clus scale="   42.234">  2  9  1 -1</clus>
<clus scale="   80.697">  5  6 -1 -1</clus>
<clus scale="   92.659">  7  8 -1 -1</clus>
<clus scale="  114.100">  2  5  1 -1</clus>
<clus scale="   42.234">  2  5  1 -1</clus>
</clustering>
</event>
<event>
 9    2  0.1302972E-004  0.9057602E+02  0.7546771E-02  0.1306202E+00
         21   -1    0    0  501  502  0.00000000000E+00  0.00000000000E+00  0.43981599760E+03  0.43981599760E+03  0.00000000000E+00 0. -1.
          2   -1    0    0  502    0 -0.00000000000E+00 -0.00000000000E+00 -0.45801093840E+02  0.45801093840E+02  0.00000000000E+00 0. -1.
         23    2    1    2    0    0 -0.19794580410E+02  0.38712588141E+01  0.73991762299E+02  0.11857226897E+03  0.90431134144E+02 0.  0.
         24    2    1    2    0    0 -0.46236982668E+02 -0.61219441971E+01  0.26335575540E+03  0.28000215735E+03  0.82883155426E+02 0.  0.
        -11    1    4    4    0    0 -0.47648213731E+02 -0.25273231455E+02  0.85352215366E+02  0.10096578216E+03  0.00000000000E+00 0.  1.
         12    1    4    4    0    0  0.14112310633E+01  0.19151287258E+02  0.17800354003E+03  0.17903637519E+03  0.00000000000E+00 0. -1.
        -13    1    3    3    0    0 -0.20123605843E+02 -0.25379013575E+02  0.82065959695E+02  0.88226274901E+02  0.00000000000E+00 0.  1.
         13    1    3    3    0    0  0.32902543318E+00  0.29250272389E+02 -0.80741973960E+01  0.30345994071E+02  0.00000000000E+00 0. -1.
          1    1    1    2  501    0  0.66031563078E+02  0.22506853830E+01  0.56667386059E+02  0.87042665113E+02  0.00000000000E+00 0. -1.
<scales pt_clust_5="13000.00000" pt_clust_6="13000.00000" pt_clust_7="13000.00000" pt_clust_8="13000.00000" pt_clust_9="66.06994"></scales>
<clustering>
<clus scale="   66.070">  1  9  2 -1</clus>
<clus scale="   82.883">  5  6 -1 -1</clus>
<clus scale="   83.041">  1  5  2 -1</clus>
<clus scale="   90.431">  7  8 -1 -1</clus>
<clus scale="   66.070">  1  5  2 -1</clus>
</clustering>
</event>
<event>
 9    2  0.1302972E-004  0.1575766E+03  0.7546771E-02  0.1198626E+00
         21   -1    0    0  501  502  0.00000000000E+00  0.00000000000E+00  0.46627108294E+03  0.46627108294E+03  0.00000000000E+00 0.  1.
         -1   -1    0    0    0  501 -0.00000000000E+00 -0.00000000000E+00 -0.14830881424E+03  0.14830881424E+03  0.00000000000E+00 0.  1.
         23    2    1    2    0    0  0.78842079691E+02  0.63307644801E+02  0.26900678029E+03  0.30084059921E+03  0.88974641724E+02 0.  0.
         24    2    1    2    0    0 -0.61082700353E+02  0.97715375802E+02 -0.94348638634E+01  0.14153813085E+03  0.81637215028E+02 0.  0.
        -13    1    4    4    0    0  0.61619754321E+01  0.63769071573E+02 -0.15665670604E+02  0.65953602374E+02  0.00000000000E+00 0.  1.
         14    1    4    4    0    0 -0.67244675785E+02  0.33946304228E+02  0.62308067411E+01  0.75584528475E+02  0.00000000000E+00 0. -1.
        -11    1    3    3    0    0  0.20082260217E+02 -0.88571449268E+01  0.73812470324E+01  0.23156618912E+02  0.00000000000E+00 0. -1.
         11    1    3    3    0    0  0.58759819474E+02  0.72164789728E+02  0.26162553326E+03  0.27768398030E+03  0.00000000000E+00 0.  1.
         -2    1    1    2    0  502 -0.17759379338E+02 -0.16102302060E+03  0.58390352271E+02  0.17220116712E+03  0.00000000000E+00 0.  1.
<scales pt_clust_5="13000.00000" pt_clust_6="13000.00000" pt_clust_7="13000.00000" pt_clust_8="13000.00000" pt_clust_9="134.78033"></scales>
<clustering>
<clus scale="   81.637">  5  6 -1 -1</clus>
<clus scale="   88.975">  7  8 -1 -1</clus>
<clus scale="  134.686">  2  7  1 -1</clus>
<clus scale="  134.780">  1  9  2 -1</clus>
<clus scale="  134.780">  1  5  2 -1</clus>
</clustering>
</event>
<event>
 9    2  0.1302972E-004  0.1102993E+03  0.7546771E-02  0.1266319E+00
         -1   -1    0    0    0  501 -0.00000000000E+00  0.00000000000E+00  0.78325650503E+02  0.78325650503E+02  0.00000000000E+00 0.  1.
         21   -1    0    0  501  502  0.00000000000E+00 -0.00000000000E+00 -0.33707645649E+03  0.33707645649E+03  0.00000000000E+00 0.  1.
         24    2    1    2    0    0  0.79639037558E+02  0.34566285262E+02 -0.67393751888E+02  0.13617322269E+03  0.80399156732E+02 0.  0.
         23    2    1    2    0    0 -0.11531924565E+02  0.23895437953E+02 -0.15143931463E+03  0.18099560152E+03  0.95506882030E+02 0.  0.
        -13    1    3    3    0    0  0.96117756390E+02  0.25309433416E+02 -0.57772980428E+02  0.11496481105E+03  0.00000000000E+00 0.  1.
         14    1    3    3    0    0 -0.16478718832E+02  0.92568518463E+01 -0.96207714597E+01  0.21208411631E+02  0.00000000000E+00 0. -1.
        -13    1    4    4    0    0 -0.11174292268E+02  0.57624498588E+02 -0.12514420240E+03  0.13822633266E+03  0.00000000000E+00 0.  1.
         13    1    4    4    0    0 -0.35763229740E+00 -0.33729060635E+02 -0.26295112235E+02  0.42769268869E+02  0.00000000000E+00 0. -1.
         -2    1    1    2    0  502 -0.68107112993E+02 -0.58461723215E+02 -0.39917739460E+02  0.98233282777E+02  0.00000000000E+00 0.  1.
<scales pt_clust_5="13000.00000" pt_clust_6="13000.00000" pt_clust_7="13000.00000" pt_clust_8="13000.00000" pt_clust_9="89.75723"></scales>
<clustering>
<clus scale="   80.399">  5  6 -1 -1</clus>
<clus scale="   89.757">  2  9  1 -1</clus>
<clus scale="   95.507">  7  8 -1 -1</clus>
<clus scale="   97.511">  1  5  2 -1</clus>
<clus scale="   89.757">  2  5  1 -1</clus>
</clustering>
</event>
<event>
 9    2  0.1302972E-004  0.1169773E+03  0.7546771E-02  0.1252537E+00
         -1   -1    0    0    0  501 -0.00000000000E+00  0.00000000000E+00  0.13463638245E+03  0.13463638245E+03  0.00000000000E+00 0.  1.
         21   -1    0    0  501  502  0.00000000000E+00 -0.00000000000E+00 -0.26246941896E+03  0.26246941896E+03  0.00000000000E+00 0. -1.
         24    2    1    2    0    0  0.38956624828E+02 -0.54577811252E+02  0.69293151851E+02  0.12444618678E+03  0.78669920626E+02 0.  0.
         23    2    1    2    0    0 -0.64939741659E+02  0.90311822208E+02 -0.15512130847E+03  0.21169690609E+03  0.91539960824E+02 0.  0.
        -11    1    3    3    0    0  0.61483662742E+02 -0.33090107821E+02  0.59712003290E+02  0.91873387641E+02  0.00000000000E+00 0.  1.
         12    1    3    3    0    0 -0.22527037914E+02 -0.21487703431E+02  0.95811485609E+01  0.32572799138E+02  0.00000000000E+00 0. -1.
        -11    1    4    4    0    0 -0.34494095281E+02  0.32419199536E+02 -0.45792792685E+01  0.47558562913E+02  0.00000000000E+00 0.  1.
         11    1    4    4    0    0 -0.30445646379E+02  0.57892622672E+02 -0.15054202920E+03  0.16413834317E+03  0.00000000000E+00 0. -1.
         -2    1    1    2    0  502  0.25983116831E+02 -0.35734010956E+02 -0.42004879882E+02  0.60962708545E+02  0.00000000000E+00 0.  1.
<scales pt_clust_5="13000.00000" pt_clust_6="13000.00000" pt_clust_7="13000.00000" pt_clust_8="13000.00000" pt_clust_9="44.18192"></scales>
<clustering>
<clus scale="   44.182">  2  9  1 -1</clus>
<clus scale="   78.670">  5  6 -1 -1</clus>
<clus scale="   91.540">  7  8 -1 -1</clus>
<clus scale="  107.206">  1  5  2 -1</clus>
<clus scale="   44.182">  2  5  1 -1</clus>
</clustering>
</event>
<event>
 9    2  0.1302972E-004  0.1567489E+03  0.7546771E-02  0.1197602E+00
         21   -1    0    0  501  502  0.00000000000E+00  0.00000000000E+00  0.22966246084E+03  0.22966246084E+03  0.00000000000E+00 0.  1.
         -1   -1    0    0    0  501 -0.00000000000E+00 -0.00000000000E+00 -0.50187407779E+03  0.50187407779E+03  0.00000000000E+00 0.  1.
         24    2    1    2    0    0  0.10769904976E+03  0.93481918426E+02 -0.20771997523E+03  0.26366816162E+03  0.77687559837E+02 0.  0.
         23    2    1    2    0    0 -0.12275305492E+03  0.62542453923E+02 -0.20076861354E+03  0.26016271775E+03  0.91633686433E+02 0.  0.
        -11    1    3    3    0    0  0.82380361637E+02  0.10529214429E+03 -0.16143298824E+03  0.20960336191E+03  0.00000000000E+00 0.  1.
         12    1    3    3    0    0  0.25318688123E+02 -0.11810225867E+02 -0.46286986986E+02  0.54064799709E+02  0.00000000000E+00 0. -1.
        -13    1    4    4    0    0 -0.22042507052E+02  0.26560074424E+02 -0.12347803254E+03  0.12821128730E+03  0.00000000000E+00 0.  1.
         13    1    4    4    0    0 -0.10071054787E+03  0.35982379499E+02 -0.77290580995E+02  0.13195143045E+03  0.00000000000E+00 0. -1.
         -2    1    1    2    0  502  0.15054005164E+02 -0.15602437235E+03  0.13627697181E+03  0.20770565925E+03  0.00000000000E+00 0.  1.
<scales pt_clust_5="13000.00000" pt_clust_6="13000.00000" pt_clust_7="13000.00000" pt_clust_8="13000.00000" pt_clust_9="156.74893"></scales>
<clustering>
<clus scale="   77.688">  5  6 -1 -1</clus>
<clus scale="   91.634">  7  8 -1 -1</clus>
<clus scale="  156.749">  1  9  2 -1</clus>
<clus scale="  139.920">  2  5  1 -1</clus>
<clus scale="  156.749">  1  5  2 -1</clus>
</clustering>
</event>
<event>
 9    2  0.1302972E-004  0.1293041E+03  0.7546771E-02  0.1240353E+00
          2   -1    0    0  502    0 -0.00000000000E+00  0.00000000000E+00  0.68255899154E+03  0.68255899154E+03  0.00000000000E+00 0. -1.
         21   -1    0    0  501  502  0.00000000000E+00 -0.00000000000E+00 -0.94861102365E+02  0.94861102365E+02  0.00000000000E+00 0. -1.
         24    2    1    2    0    0 -0.46539839034E+02 -0.68337164503E+02  0.48445864037E+03  0.49495579604E+03  0.58695324688E+02 0.  0.
         23    2    1    2    0    0 -0.50852966716E+02  0.23708412077E+02  0.13406564927E+03  0.17098626810E+03  0.90081033175E+02 0.  0.
        -11    1    3    3    0    0 -0.38887317491E+02 -0.83317437813E+01  0.22941520630E+03  0.23283680615E+03  0.00000000000E+00 0.  1.
         12    1    3    3    0    0 -0.76525215429E+01 -0.60005420722E+02  0.25504343406E+03  0.26211898989E+03  0.00000000000E+00 0. -1.
        -11    1    4    4    0    0 -0.72076627703E+02  0.23371714821E+02  0.12827810982E+03  0.14898506896E+03  0.00000000000E+00 0.  1.
         11    1    4    4    0    0  0.21223660987E+02  0.33669725605E+00  0.57875394532E+01  0.22001199141E+02  0.00000000000E+00 0. -1.
          1    1    1    2  501    0  0.97392805750E+02  0.44628752426E+02 -0.30826400460E+02  0.11147802976E+03  0.00000000000E+00 0. -1.
<scales pt_clust_5="13000.00000" pt_clust_6="13000.00000" pt_clust_7="13000.00000" pt_clust_8="13000.00000" pt_clust_9="92.76291"></scales>
<clustering>
<clus scale="   58.695">  5  6 -1 -1</clus>
<clus scale="   90.081">  7  8 -1 -1</clus>
<clus scale="  101.396">  1  5  2 -1</clus>
<clus scale="   92.763">  2  9  1 -1</clus>
<clus scale="   92.763">  2  5  1 -1</clus>
</clustering>
</event>
<event>
 9    2  0.1302972E-004  0.1122724E+03  0.7546771E-02  0.1265446E+00
         21   -1    0    0  501  502  0.00000000000E+00  0.00000000000E+00  0.29661846034E+02  0.29661846034E+02  0.00000000000E+00 0.  1.
          2   -1    0    0  502    0 -0.00000000000E+00 -0.00000000000E+00 -0.55694779942E+03  0.55694779942E+03  0.00000000000E+00 0. -1.
         23    2    1    2    0    0  0.58710362630E+02  0.58408303271E+01 -0.37546064969E+03  0.39281888047E+03  0.99272107914E+02 0.  0.
         24    2    1    2    0    0 -0.43327554888E+02  0.86855928912E+01 -0.14680963345E+03  0.17204669238E+03  0.78065865451E+02 0.  0.
        -13    1    4    4    0    0 -0.22627206650E+02 -0.31946084037E+02 -0.40290546135E+02  0.56177138356E+02  0.00000000000E+00 0.  1.
         14    1    4    4    0    0 -0.20700348238E+02  0.40631676928E+02 -0.10651908732E+03  0.11586955402E+03  0.00000000000E+00 0. -1.
        -13    1    3    3    0    0 -0.11370937515E+02  0.35295117651E+02 -0.88385663726E+02  0.95849199800E+02  0.00000000000E+00 0.  1.
         13    1    3    3    0    0  0.70081300144E+02 -0.29454287324E+02 -0.28707498596E+03  0.29696968067E+03  0.00000000000E+00 0. -1.
          1    1    1    2  501    0 -0.15382807742E+02 -0.14526423218E+02 -0.50156702518E+01  0.21744072609E+02  0.00000000000E+00 0. -1.
<scales pt_clust_5="13000.00000" pt_clust_6="13000.00000" pt_clust_7="13000.00000" pt_clust_8="13000.00000" pt_clust_9="21.15769"></scales>
<clustering>
<clus scale="   21.158">  1  9  2 -1</clus>
<clus scale="   78.066">  5  6 -1 -1</clus>
<clus scale="   94.045">  1  5  2 -1</clus>
<clus scale="   99.272">  7  8 -1 -1</clus>
<clus scale="   21.158">  1  5  2 -1</clus>
</clustering>
</event>
<event>
 9    2  0.1302972E-004  0.1056387E+03  0.7546771E-02  0.1272352E+00
         21   -1    0    0  501  502  0.00000000000E+00  0.00000000000E+00  0.47233875453E+03  0.47233875453E+03  0.00000000000E+00 0. -1.
          4   -1    0    0  502    0 -0.00000000000E+00 -0.00000000000E+00 -0.53692760409E+02  0.53692760409E+02  0.00000000000E+00 0. -1.
         24    2    1    2    0    0 -0.38790817678E+02  0.46884491617E+02  0.72781341142E+02  0.12556329570E+03  0.82256516575E+02 0.  0.
         23    2    1    2    0    0 -0.39022907204E+02 -0.65572646261E+02  0.16845665541E+03  0.20584596844E+03  0.90401099254E+02 0.  0.
        -11    1    3    3    0    0 -0.41160272383E+02  0.52046609423E+02  0.87483818811E+02  0.10980180385E+03  0.00000000000E+00 0.  1.
         12    1    3    3    0    0  0.23694547045E+01 -0.51621178057E+01 -0.14702477669E+02  0.15761491853E+02  0.00000000000E+00 0. -1.
        -11    1    4    4    0    0  0.49472027085E+01 -0.27744788422E+02  0.53336863159E+00  0.28187454325E+02  0.00000000000E+00 0.  1.
         11    1    4    4    0    0 -0.43970109913E+02 -0.37827857839E+02  0.16792328678E+03  0.17765851412E+03  0.00000000000E+00 0. -1.
          3    1    1    2  501    0  0.77813724882E+02  0.18688154644E+02  0.17740799756E+03  0.19462225079E+03  0.00000000000E+00 0. -1.
<scales pt_clust_5="13000.00000" pt_clust_6="13000.00000" pt_clust_7="13000.00000" pt_clust_8="13000.00000" pt_clust_9="80.02639"></scales>
<clustering>
<clus scale="   80.026">  1  9  2 -1</clus>
<clus scale="   82.257">  5  6 -1 -1</clus>
<clus scale="   90.401">  7  8 -1 -1</clus>
<clus scale="   98.759">  2  5  1 -1</clus>
<clus scale="   80.026">  1  5  2 -1</clus>
</clustering>
</event>
<event>
 9    2  0.1302972E-004  0.9590147E+02  0.7546771E-02  0.1295706E+00
         21   -1    0    0  501  502  0.00000000000E+00  0.00000000000E+00  0.25799143167E+03  0.25799143167E+03  0.00000000000E+00 0.  1.
         -3   -1    0    0    0  501 -0.00000000000E+00 -0.00000000000E+00 -0.77949164278E+02  0.77949164278E+02  0.00000000000E+00 0.  1.
         23    2    1    2    0    0  0.25982584838E+02  0.21892908435E+02 -0.16353786348E+01  0.99368608975E+02  0.93365153199E+02 0.  0.
         24    2    1    2    0    0  0.33821138396E+02 -0.11980688363E+02  0.12374510479E+03  0.15272142493E+03  0.81997416908E+02 0.  0.
        -13    1    4    4    0    0 -0.52512094926E+00  0.31215191261E+02  0.65067293257E+02  0.72169360322E+02  0.00000000000E+00 0.  1.
         14    1    4    4    0    0  0.34346259345E+02 -0.43195879624E+02  0.58677811528E+02  0.80552064612E+02  0.00000000000E+00 0. -1.
        -11    1    3    3    0    0  0.51796087262E+02  0.22615387348E+02 -0.27470452000E+02  0.62840402080E+02  0.00000000000E+00 0.  1.
         11    1    3    3    0    0 -0.25813502424E+02 -0.72247891310E+00  0.25835073365E+02  0.36528206895E+02  0.00000000000E+00 0. -1.
         -4    1    1    2    0  502 -0.59803723234E+02 -0.99122200716E+01  0.57932541241E+02  0.83850562038E+02  0.00000000000E+00 0.  1.
<scales pt_clust_5="13000.00000" pt_clust_6="13000.00000" pt_clust_7="13000.00000" pt_clust_8="13000.00000" pt_clust_9="60.61961"></scales>
<clustering>
<clus scale="   60.620">  1  9  2 -1</clus>
<clus scale="   81.997">  5  6 -1 -1</clus>
<clus scale="   84.874">  1  5  2 -1</clus>
<clus scale="   93.365">  7  8 -1 -1</clus>
<clus scale="   60.620">  1  5  2 -1</clus>
</clustering>
</event>
<event>
 9    2  0.1302972E-004  0.1031185E+03  0.7546771E-02  0.1278828E+00
         21   -1    0    0  501  502  0.00000000000E+00  0.00000000000E+00  0.56361487536E+02  0.56361487536E+02  0.00000000000E+00 0.  1.
          2   -1    0    0  502    0 -0.00000000000E+00 -0.00000000000E+00 -0.33142305501E+03  0.33142305501E+03  0.00000000000E+00 0. -1.
         24    2    1    2    0    0 -0.35002778542E+02 -0.11845744244E+02 -0.10173352343E+03  0.13530033107E+03  0.81184688437E+02 0.  0.
         23    2    1    2    0    0  0.54871987219E+02  0.45286332664E+02 -0.56132772464E+02  0.12900226912E+03  0.91809097509E+02 0.  0.
        -11    1    3    3    0    0 -0.21103761004E+02 -0.44893482507E+02 -0.39226961175E+02  0.63241979595E+02  0.00000000000E+00 0.  1.
         12    1    3    3    0    0 -0.13899017537E+02  0.33047738263E+02 -0.62506562250E+02  0.72058351474E+02  0.00000000000E+00 0. -1.
        -11    1    4    4    0    0  0.52173595234E+02  0.72194035475E+02 -0.41742745090E+02  0.98369301947E+02  0.00000000000E+00 0.  1.
         11    1    4    4    0    0  0.26983919850E+01 -0.26907702811E+02 -0.14390027374E+02  0.30632967171E+02  0.00000000000E+00 0. -1.
          1    1    1    2  501    0 -0.19869208677E+02 -0.33440588420E+02 -0.11719527159E+03  0.12348194236E+03  0.00000000000E+00 0. -1.
<scales pt_clust_5="13000.00000" pt_clust_6="13000.00000" pt_clust_7="13000.00000" pt_clust_8="13000.00000" pt_clust_9="38.89807"></scales>
<clustering>
<clus scale="   38.898">  1  9  2 -1</clus>
<clus scale="   81.185">  5  6 -1 -1</clus>
<clus scale="   91.809">  7  8 -1 -1</clus>
<clus scale="   93.784">  2  5  1 -1</clus>
<clus scale="   38.898">  1  5  2 -1</clus>
</clustering>
</event>
<event>
 9    2  0.1302972E-004  0.1225937E+03  0.7546771E-02  0.1243665E+00
         21   -1    0    0  501  502  0.00000000000E+00  0.00000000000E+00  0.16033956668E+03  0.16033956668E+03  0.00000000000E+00 0.  1.
          2   -1    0    0  502    0 -0.00000000000E+00 -0.00000000000E+00 -0.17587173280E+03  0.17587173280E+03  0.00000000000E+00 0. -1.
         23    2    1    2    0    0  0.16969761628E+02 -0.80772319231E+02 -0.11985954104E+03  0.17371691572E+03  0.94863675167E+02 0.  0.
         24    2    1    2    0    0 -0.10601669240E+02  0.59065805171E+02  0.71917851108E+02  0.12297094024E+03  0.79677538274E+02 0.  0.
        -13    1    4    4    0    0  0.91527455192E+01  0.51327812682E+02  0.83769359866E+02  0.98669259436E+02  0.00000000000E+00 0.  1.
         14    1    4    4    0    0 -0.19754414760E+02  0.77379924889E+01 -0.11851508759E+02  0.24301680808E+02  0.00000000000E+00 0. -1.
        -11    1    3    3    0    0 -0.10616091851E+00 -0.27693536243E+02 -0.11438633863E+03  0.11769102636E+03  0.00000000000E+00 0. -1.
         11    1    3    3    0    0  0.17075922546E+02 -0.53078782989E+02 -0.54732024068E+01  0.56025889363E+02  0.00000000000E+00 0.  1.
          1    1    1    2  501    0 -0.63680923873E+01  0.21706514061E+02  0.32409523811E+02  0.39523443511E+02  0.00000000000E+00 0. -1.
<scales pt_clust_5="13000.00000" pt_clust_6="13000.00000" pt_clust_7="13000.00000" pt_clust_8="13000.00000" pt_clust_9="22.62135"></scales>
<clustering>
<clus scale="   22.621">  1  9  2 -1</clus>
<clus scale="   79.678">  5  6 -1 -1</clus>
<clus scale="   94.864">  7  8 -1 -1</clus>
<clus scale="  111.259">  1  5  2 -1</clus>
<clus scale="   22.621">  1  5  2 -1</clus>
</clustering>
</event>
<event>
 9    2  0.1302972E-004  0.1086075E+03  0.7546771E-02  0.1263804E+00
          2   -1    0    0  502    0 -0.00000000000E+00  0.00000000000E+00  0.10138069321E+04  0.10138069321E+04  0.00000000000E+00 0. -1.
         21   -1    0    0  501  502  0.00000000000E+00 -0.00000000000E+00 -0.31730485139E+02  0.31730485139E+02  0.00000000000E+00 0. -1.
         24    2    1    2    0    0  0.42919243489E+02 -0.68001195730E+02  0.80451895055E+03  0.81270757428E+03  0.82320322020E+02 0.  0.
         23    2    1    2    0    0 -0.30438690627E+02  0.88499940797E+01  0.11353753906E+03  0.14477767777E+03  0.84053357597E+02 0.  0.
        -13    1    3    3    0    0  0.46957193124E+02 -0.79977704321E+02  0.54147525614E+03  0.54936041375E+03  0.00000000000E+00 0.  1.
         14    1    3    3    0    0 -0.40379496350E+01  0.11976508592E+02  0.26304369441E+03  0.26334716054E+03  0.00000000000E+00 0. -1.
        -13    1    4    4    0    0 -0.44282460593E+02  0.26432800563E+02  0.11082310802E+03  0.12223498080E+03  0.00000000000E+00 0.  1.
         13    1    4    4    0    0  0.13843769965E+02 -0.17582806483E+02  0.27144310407E+01  0.22542696967E+02  0.00000000000E+00 0. -1.
          1    1    1    2  501    0 -0.12480552862E+02  0.59151201650E+02  0.64019957391E+02  0.88052165225E+02  0.00000000000E+00 0. -1.
<scales pt_clust_5="13000.00000" pt_clust_6="13000.00000" pt_clust_7="13000.00000" pt_clust_8="13000.00000" pt_clust_9="60.45353"></scales>
<clustering>
<clus scale="   60.454">  2  9  1 -1</clus>
<clus scale="   82.320">  5  6 -1 -1</clus>
<clus scale="   84.053">  7  8 -1 -1</clus>
<clus scale="  107.272">  1  5  2 -1</clus>
<clus scale="   60.454">  2  5  1 -1</clus>
</clustering>
</event>
<event>
 9    2  0.1302972E-004  0.2019127E+03  0.7546771E-02  0.1172876E+00
         21   -1    0    0  501  502  0.00000000000E+00  0.00000000000E+00  0.62905110333E+02  0.62905110333E+02  0.00000000000E+00 0.  1.
          2   -1    0    0  502    0 -0.00000000000E+00 -0.00000000000E+00 -0.10517595942E+04  0.10517595942E+04  0.00000000000E+00 0. -1.
         23    2    1    2    0    0  0.31497505424E+02 -0.63491227812E+02 -0.18826644559E+03  0.21986549849E+03  0.88731922296E+02 0.  0.
         24    2    1    2    0    0 -0.15088150969E+03 -0.95996607869E+02 -0.33684592832E+03  0.39007586128E+03  0.81935458982E+02 0.  0.
        -11    1    4    4    0    0 -0.14374238929E+03 -0.10986785916E+03 -0.31442419327E+03  0.36276079484E+03  0.00000000000E+00 0.  1.
         12    1    4    4    0    0 -0.71391203984E+01  0.13871251286E+02 -0.22421735047E+02  0.27315066443E+02  0.00000000000E+00 0. -1.
        -11    1    3    3    0    0 -0.19211745551E+01 -0.39415878475E+02 -0.17050349794E+03  0.17501070023E+03  0.00000000000E+00 0. -1.
         11    1    3    3    0    0  0.33418679979E+02 -0.24075349337E+02 -0.17762947651E+02  0.44854798255E+02  0.00000000000E+00 0.  1.
          1    1    1    2  501    0  0.11938400426E+03  0.15948783568E+03 -0.46374211000E+03  0.50472334480E+03  0.00000000000E+00 0. -1.
<scales pt_clust_5="13000.00000" pt_clust_6="13000.00000" pt_clust_7="13000.00000" pt_clust_8="13000.00000" pt_clust_9="184.54093"></scales>
<clustering>
<clus scale="   81.935">  5  6 -1 -1</clus>
<clus scale="   88.732">  7  8 -1 -1</clus>
<clus scale="  113.563">  2  7  1 -1</clus>
<clus scale="  184.541">  1  9  2 -1</clus>
<clus scale="  184.541">  1  5  2 -1</clus>
</clustering>
</event>
<event>
 9    2  0.1302972E-004  0.9878898E+02  0.7546771E-02  0.1290703E+00
          2   -1    0    0  502    0 -0.00000000000E+00  0.00000000000E+00  0.29692638324E+03  0.29692638324E+03  0.00000000000E+00 0. -1.
         21   -1    0    0  501  502  0.00000000000E+00 -0.00000000000E+00 -0.63805289507E+02  0.63805289507E+02  0.00000000000E+00 0. -1.
         23    2    1    2    0    0  0.36896456106E+02  0.13822279674E+02  0.15104910626E+03  0.18147694892E+03  0.92550778493E+02 0.  0.
         24    2    1    2    0    0 -0.28478015199E+02  0.42002354535E+02  0.19555885081E+02  0.95019796449E+02  0.77917481606E+02 0.  0.
        -13    1    4    4    0    0 -0.66562810481E+01 -0.21291700541E+02 -0.64101301928E+01  0.23210608747E+02  0.00000000000E+00 0.  1.
         14    1    4    4    0    0 -0.21821734151E+02  0.63294055076E+02  0.25966015274E+02  0.71809187702E+02  0.00000000000E+00 0. -1.
        -13    1    3    3    0    0  0.43855538972E+02  0.44659121528E+02  0.67043206365E+02  0.91719883089E+02  0.00000000000E+00 0. -1.
         13    1    3    3    0    0 -0.69590828662E+01 -0.30836841854E+02  0.84005899893E+02  0.89757065831E+02  0.00000000000E+00 0.  1.
          1    1    1    2  501    0 -0.84184409069E+01 -0.55824634209E+02  0.62516102399E+02  0.84234927382E+02  0.00000000000E+00 0. -1.
<scales pt_clust_5="13000.00000" pt_clust_6="13000.00000" pt_clust_7="13000.00000" pt_clust_8="13000.00000" pt_clust_9="56.45585"></scales>
<clustering>
<clus scale="   56.456">  2  9  1 -1</clus>
<clus scale="   77.917">  5  6 -1 -1</clus>
<clus scale="   85.234">  2  5  1 -1</clus>
<clus scale="   92.551">  7  8 -1 -1</clus>
<clus scale="   56.456">  2  5  1 -1</clus>
</clustering>
</event>
<event>
 9    2  0.1537458E-004  0.3813234E+03  0.7546771E-02  0.1083073E+00
         21   -1    0    0  501  502  0.00000000000E+00  0.00000000000E+00  0.50346284224E+03  0.50346284224E+03  0.00000000000E+00 0. -1.
          2   -1    0    0  502    0 -0.00000000000E+00 -0.00000000000E+00 -0.61908947592E+03  0.61908947592E+03  0.00000000000E+00 0. -1.
         24    2    1    2    0    0 -0.58046975103E+02 -0.11919786959E+03 -0.12456794507E+03  0.19869448999E+03  0.79904592981E+02 0.  0.
         23    2    1    2    0    0  0.37758983705E+03 -0.16955704908E+02  0.28160730234E+03  0.48227864038E+03  0.10211970065E+03 0.  0.
        -13    1    3    3    0    0  0.17319385645E+02 -0.28688594210E+02 -0.46784722683E+02  0.57548300004E+02  0.00000000000E+00 0.  1.
         14    1    3    3    0    0 -0.75366360748E+02 -0.90509275379E+02 -0.77783222391E+02  0.14114618999E+03  0.00000000000E+00 0. -1.
        -11    1    4    4    0    0  0.10678397589E+03 -0.49691445005E+02  0.10074259186E+03  0.15498750604E+03  0.00000000000E+00 0.  1.
         11    1    4    4    0    0  0.27080586116E+03  0.32735740097E+02  0.18086471048E+03  0.32729113434E+03  0.00000000000E+00 0. -1.
          1    1    1    2  501    0 -0.31954286195E+03  0.13615357450E+03 -0.27266599094E+03  0.44157918779E+03  0.00000000000E+00 0. -1.
<scales pt_clust_5="13000.00000" pt_clust_6="13000.00000" pt_clust_7="13000.00000" pt_clust_8="13000.00000" pt_clust_9="367.39522"></scales>
<clustering>
<clus scale="   79.905">  5  6 -1 -1</clus>
<clus scale="  102.120">  7  8 -1 -1</clus>
<clus scale="  154.798">  2  5  1 -1</clus>
<clus scale="  367.395">  1  9  2 -1</clus>
<clus scale="  367.395">  1  5  2 -1</clus>
</clustering>
</event>
<event>
 9    2  0.1302972E-004  0.1186513E+03  0.7546771E-02  0.1247499E+00
         21   -1    0    0  501  502  0.00000000000E+00  0.00000000000E+00  0.23037337704E+03  0.23037337704E+03  0.00000000000E+00 0.  1.
         -3   -1    0    0    0  501 -0.00000000000E+00 -0.00000000000E+00 -0.53655540211E+03  0.53655540211E+03  0.00000000000E+00 0.  1.
         24    2    1    2    0    0 -0.75435226074E+02  0.87502661799E+01 -0.43076083722E+03  0.44490551656E+03  0.81357109669E+02 0.  0.
         23    2    1    2    0    0  0.98794834160E+02 -0.28727531202E+02 -0.50206634516E+02  0.14455575916E+03  0.88260812652E+02 0.  0.
        -13    1    3    3    0    0 -0.18929725234E+02 -0.33127056234E+02 -0.10715704163E+03  0.11374694687E+03  0.00000000000E+00 0.  1.
         14    1    3    3    0    0 -0.56505500841E+02  0.41877322414E+02 -0.32360379559E+03  0.33115856969E+03  0.00000000000E+00 0. -1.
        -11    1    4    4    0    0  0.92369617757E+02 -0.49111974246E+02 -0.60483467291E+02  0.12084031659E+03  0.00000000000E+00 0.  1.
         11    1    4    4    0    0  0.64252164024E+01  0.20384443044E+02  0.10276832775E+02  0.23715442562E+02  0.00000000000E+00 0. -1.
         -4    1    1    2    0  502 -0.23359608085E+02  0.19977265022E+02  0.17478544667E+03  0.17746750344E+03  0.00000000000E+00 0.  1.
<scales pt_clust_5="13000.00000" pt_clust_6="13000.00000" pt_clust_7="13000.00000" pt_clust_8="13000.00000" pt_clust_9="30.73699"></scales>
<clustering>
<clus scale="   30.737">  1  9  2 -1</clus>
<clus scale="   81.357">  5  6 -1 -1</clus>
<clus scale="   88.261">  7  8 -1 -1</clus>
<clus scale="  113.610">  2  5  1 -1</clus>
<clus scale="   30.737">  1  5  2 -1</clus>
</clustering>
</event>
<event>
 9    2  0.1302972E-004  0.1178161E+03  0.7546771E-02  0.1251360E+00
         -1   -1    0    0    0  501 -0.00000000000E+00  0.00000000000E+00  0.13179097316E+03  0.13179097316E+03  0.00000000000E+00 0.  1.
         21   -1    0    0  501  502  0.00000000000E+00 -0.00000000000E+00 -0.25281677134E+03  0.25281677134E+03  0.00000000000E+00 0.  1.
         23    2    1    2    0    0  0.82121839108E+02 -0.48796329639E+01 -0.19605575721E+01  0.12375531577E+03  0.92432283959E+02 0.  0.
         24    2    1    2    0    0 -0.48073152185E+02 -0.70821011378E+02 -0.74052553456E+00  0.11631648569E+03  0.78754890971E+02 0.  0.
        -13    1    4    4    0    0 -0.19033493978E+02 -0.32570700633E+02 -0.39486431172E+02  0.54610463095E+02  0.00000000000E+00 0.  1.
         14    1    4    4    0    0 -0.29039658207E+02 -0.38250310745E+02  0.38745905638E+02  0.61706022596E+02  0.00000000000E+00 0. -1.
        -13    1    3    3    0    0  0.41095724590E+02 -0.30419798934E+01  0.45237008724E+02  0.61192313075E+02  0.00000000000E+00 0.  1.
         13    1    3    3    0    0  0.41026114519E+02 -0.18376530706E+01 -0.47197566296E+02  0.62563002690E+02  0.00000000000E+00 0. -1.
         -2    1    1    2    0  502 -0.34048686924E+02  0.75700644342E+02 -0.11832471507E+03  0.14453594304E+03  0.00000000000E+00 0.  1.
<scales pt_clust_5="13000.00000" pt_clust_6="13000.00000" pt_clust_7="13000.00000" pt_clust_8="13000.00000" pt_clust_9="83.00543"></scales>
<clustering>
<clus scale="   78.755">  5  6 -1 -1</clus>
<clus scale="   83.005">  2  9  1 -1</clus>
<clus scale="   92.432">  7  8 -1 -1</clus>
<clus scale="  107.421">  2  5  1 -1</clus>
<clus scale="   83.005">  2  5  1 -1</clus>
</clustering>
</event>
<event>
 9    2  0.1302972E-004  0.1015598E+03  0.7546771E-02  0.1278329E+00
         -1   -1    0    0    0  501 -0.00000000000E+00  0.00000000000E+00  0.18191165196E+02  0.18191165196E+02  0.00000000000E+00 0.  1.
         21   -1    0    0  501  502  0.00000000000E+00 -0.00000000000E+00 -0.71604224882E+03  0.71604224882E+03  0.00000000000E+00 0. -1.
         24    2    1    2    0    0  0.37308992731E+02  0.40411940365E+02 -0.30156991156E+03  0.31665031601E+03  0.79359468284E+02 0.  0.
         23    2    1    2    0    0 -0.60414733097E+02 -0.42510680460E+02 -0.35115739761E+03  0.36684420791E+03  0.76197487164E+02 0.  0.
        -11    1    3    3    0    0  0.48098372701E+02  0.23970632670E+02 -0.95003581396E+02  0.10915001221E+03  0.00000000000E+00 0.  1.
         12    1    3    3    0    0 -0.10789379971E+02  0.16441307695E+02 -0.20656633016E+03  0.20750030380E+03  0.00000000000E+00 0. -1.
        -13    1    4    4    0    0 -0.36239750832E+02 -0.63366965640E+02 -0.26813646689E+03  0.27789540613E+03  0.00000000000E+00 0.  1.
         13    1    4    4    0    0 -0.24174982264E+02  0.20856285180E+02 -0.83020930726E+02  0.88948801777E+02  0.00000000000E+00 0. -1.
         -2    1    1    2    0  502  0.23105740366E+02  0.20987400952E+01 -0.45123774445E+02  0.50738890095E+02  0.00000000000E+00 0.  1.
<scales pt_clust_5="13000.00000" pt_clust_6="13000.00000" pt_clust_7="13000.00000" pt_clust_8="13000.00000" pt_clust_9="23.20087"></scales>
<clustering>
<clus scale="   23.201">  2  9  1 -1</clus>
<clus scale="   76.197">  7  8 -1 -1</clus>
<clus scale="   79.359">  5  6 -1 -1</clus>
<clus scale="   99.109">  2  7  1 -1</clus>
<clus scale="   23.201">  2  5  1 -1</clus>
</clustering>
</event>
<event>
 9    2  0.1302972E-004  0.1170004E+03  0.7546771E-02  0.1259681E+00
         21   -1    0    0  501  502  0.00000000000E+00  0.00000000000E+00  0.11975974165E+03  0.11975974165E+03  0.00000000000E+00 0.  1.
          2   -1    0    0  502    0 -0.00000000000E+00 -0.00000000000E+00 -0.53950963337E+03  0.53950963337E+03  0.00000000000E+00 0. -1.
         24    2    1    2    0    0  0.25518008030E+02 -0.40076072748E+02 -0.31424600112E+03  0.32772557217E+03  0.79976503407E+02 0.  0.
         23    2    1    2    0    0  0.34261456599E+02 -0.60696710327E+02  0.61071721794E+02  0.12788680482E+03  0.88132522889E+02 0.  0.
        -11    1    3    3    0    0  0.38854957513E+02  0.89598089853E+01 -0.10289382839E+03  0.11035001505E+03  0.00000000000E+00 0.  1.
         12    1    3    3    0    0 -0.13336949483E+02 -0.49035881733E+02 -0.21135217272E+03  0.21737555712E+03  0.00000000000E+00 0. -1.
        -11    1    4    4    0    0 -0.10991920436E+02 -0.58407284762E+02  0.57074092992E+02  0.82399546837E+02  0.00000000000E+00 0.  1.
         11    1    4    4    0    0  0.45253377036E+02 -0.22894255654E+01  0.39976288018E+01  0.45487257980E+02  0.00000000000E+00 0. -1.
          1    1    1    2  501    0 -0.59779464629E+02  0.10077278307E+03 -0.16657561240E+03  0.20365699803E+03  0.00000000000E+00 0. -1.
<scales pt_clust_5="13000.00000" pt_clust_6="13000.00000" pt_clust_7="13000.00000" pt_clust_8="13000.00000" pt_clust_9="76.95301"></scales>
<clustering>
<clus scale="   79.977">  5  6 -1 -1</clus>
<clus scale="   88.133">  7  8 -1 -1</clus>
<clus scale="   93.024">  2  5  1 -1</clus>
<clus scale="   76.953">  1  9  2 -1</clus>
<clus scale="   76.953">  1  5  2 -1</clus>
</clustering>
</event>
<event>
 9    2  0.1302972E-004  0.1650338E+03  0.7546771E-02  0.1184845E+00
         21   -1    0    0  501  502  0.00000000000E+00  0.00000000000E+00  0.27804398928E+03  0.27804398928E+03  0.00000000000E+00 0. -1.
         -3   -1    0    0    0  501 -0.00000000000E+00 -0.00000000000E+00 -0.45017674145E+03  0.45017674145E+03  0.00000000000E+00 0.  1.
         23    2    1    2    0    0  0.58441214619E+02 -0.12307159010E+03 -0.36750566906E+03  0.40269879719E+03  0.92433287377E+02 0.  0.
         24    2    1    2    0    0 -0.30778245964E+02  0.13933044898E+03  0.42631828040E+02  0.16944685369E+03  0.80836186374E+02 0.  0.
        -11    1    4    4    0    0 -0.37436055568E+02  0.18744434424E+02  0.20690581472E+02  0.46700238116E+02  0.00000000000E+00 0.  1.
         12    1    4    4    0    0  0.66578096040E+01  0.12058601456E+03  0.21941246567E+02  0.12274661558E+03  0.00000000000E+00 0. -1.
        -13    1    3    3    0    0  0.58164860186E+02 -0.10199451206E+03 -0.36248979721E+03  0.38103134324E+03  0.00000000000E+00 0.  1.
         13    1    3    3    0    0  0.27635443337E+00 -0.21077078039E+02 -0.50158718506E+01  0.21667453954E+02  0.00000000000E+00 0. -1.
         -4    1    1    2    0  502 -0.27662968655E+02 -0.16258858881E+02  0.15274108884E+03  0.15607507984E+03  0.00000000000E+00 0.  1.
<scales pt_clust_5="13000.00000" pt_clust_6="13000.00000" pt_clust_7="13000.00000" pt_clust_8="13000.00000" pt_clust_9="32.08723"></scales>
<clustering>
<clus scale="   32.087">  1  9  2 -1</clus>
<clus scale="   80.836">  5  6 -1 -1</clus>
<clus scale="   92.433">  7  8 -1 -1</clus>
<clus scale="  158.829">  1  5  2 -1</clus>
<clus scale="   32.087">  1  5  2 -1</clus>
</clustering>
</event>
<event>
 9    2  0.1302972E-004  0.1668850E+03  0.7546771E-02  0.1203677E+00
         21   -1    0    0  501  502  0.00000000000E+00  0.00000000000E+00  0.88753420735E+02  0.88753420735E+02  0.00000000000E+00 0. -1.
          2   -1    0    0  502    0 -0.00000000000E+00 -0.00000000000E+00 -0.71290732050E+03  0.71290732050E+03  0.00000000000E+00 0. -1.
         24    2    1    2    0    0 -0.62792489393E+02 -0.10502280615E+02 -0.36301892401E+03  0.37697531780E+03  0.79211466453E+02 0.  0.
         23    2    1    2    0    0  0.67004151518E+02  0.14451682641E+03 -0.21411331490E+03  0.28259857263E+03  0.92966511161E+02 0.  0.
        -13    1    3    3    0    0 -0.49853222222E+02 -0.12190390649E+02 -0.89693879489E+02  0.10333896365E+03  0.00000000000E+00 0.  1.
         14    1    3    3    0    0 -0.12939267172E+02  0.16881100334E+01 -0.27332504452E+03  0.27363635415E+03  0.00000000000E+00 0. -1.
        -13    1    4    4    0    0  0.54182745746E+02  0.18090640170E+02 -0.59832044499E+02  0.82721912135E+02  0.00000000000E+00 0.  1.
         13    1    4    4    0    0  0.12821405772E+02  0.12642618624E+03 -0.15428127040E+03  0.19987666049E+03  0.00000000000E+00 0. -1.
          1    1    1    2  501    0 -0.42116621244E+01 -0.13401454580E+03 -0.47021660862E+02  0.14208685081E+03  0.00000000000E+00 0. -1.
<scales pt_clust_5="13000.00000" pt_clust_6="13000.00000" pt_clust_7="13000.00000" pt_clust_8="13000.00000" pt_clust_9="138.59237"></scales>
<clustering>
<clus scale="   79.211">  5  6 -1 -1</clus>
<clus scale="   92.967">  7  8 -1 -1</clus>
<clus scale="  101.625">  2  5  1 -1</clus>
<clus scale="  138.592">  1  9  2 -1</clus>
<clus scale="  138.592">  1  5  2 -1</clus>
</clustering>
</event>
<event>
 9    2  0.1302972E-004  0.9323707E+02  0.7546771E-02  0.1300707E+00
          2   -1    0    0  502    0 -0.00000000000E+00  0.00000000000E+00  0.55173280873E+03  0.55173280873E+03  0.00000000000E+00 0. -1.
         21   -1    0    0  501  502  0.00000000000E+00 -0.00000000000E+00 -0.73937973354E+02  0.73937973354E+02  0.00000000000E+00 0.  1.
         24    2    1    2    0    0 -0.87962077936E+01  0.15545109136E+02  0.37565075018E+03  0.38447945043E+03  0.79949596647E+02 0.  0.
         23    2    1    2    0    0  0.18518323921E+01 -0.90752031557E+02  0.10574526823E+03  0.16557867366E+03  0.89414064343E+02 0.  0.
        -13    1    3    3    0    0  0.39809667967E+01  0.47191331671E+02  0.19851460705E+03  0.20408556807E+03  0.00000000000E+00 0.  1.
         14    1    3    3    0    0 -0.12777174590E+02 -0.31646222535E+02  0.17713614313E+03  0.18039388236E+03  0.00000000000E+00 0. -1.
        -11    1    4    4    0    0 -0.16036430750E+01 -0.52000405719E+02 -0.92668196772E+00  0.52033379724E+02  0.00000000000E+00 0.  1.
         11    1    4    4    0    0  0.34554754671E+01 -0.38751625838E+02  0.10667195019E+03  0.11354529393E+03  0.00000000000E+00 0. -1.
          1    1    1    2  501    0  0.69443754015E+01  0.75206922421E+02 -0.36011830325E+01  0.75612657994E+02  0.00000000000E+00 0. -1.
<scales pt_clust_5="13000.00000" pt_clust_6="13000.00000" pt_clust_7="13000.00000" pt_clust_8="13000.00000" pt_clust_9="75.52685"></scales>
<clustering>
<clus scale="   75.527">  2  9  1 -1</clus>
<clus scale="   79.950">  5  6 -1 -1</clus>
<clus scale="   84.203">  1  5  2 -1</clus>
<clus scale="   89.414">  7  8 -1 -1</clus>
<clus scale="   75.527">  2  5  1 -1</clus>
</clustering>
</event>
<event>
 9    2  0.1302972E-004  0.1037137E+03  0.7546771E-02  0.1276345E+00
         -1   -1    0    0    0  501 -0.00000000000E+00  0.00000000000E+00  0.84368786379E+03  0.84368786379E+03  0.00000000000E+00 0.  1.
         21   -1    0    0  501  502  0.00000000000E+00 -0.00000000000E+00 -0.24039759097E+02  0.24039759097E+02  0.00000000000E+00 0.  1.
         23    2    1    2    0    0  0.29238457962E+02  0.28674201832E+02  0.25270935909E+03  0.27113220054E+03  0.89294751942E+02 0.  0.
         24    2    1    2    0    0 -0.76798031800E+02  0.24442192790E+02  0.33537407137E+03  0.35430332014E+03  0.80992076362E+02 0.  0.
        -11    1    4    4    0    0 -0.79222051925E+02  0.10326361698E+02  0.32911478081E+03  0.33867286015E+03  0.00000000000E+00 0.  1.
         12    1    4    4    0    0  0.24240201245E+01  0.14115831092E+02  0.62592905674E+01  0.15630459987E+02  0.00000000000E+00 0. -1.
        -11    1    3    3    0    0  0.10373413963E+02 -0.26595808021E+02  0.15248319281E+03  0.15513242346E+03  0.00000000000E+00 0. -1.
         11    1    3    3    0    0  0.18865043999E+02  0.55270009853E+02  0.10022616629E+03  0.11599977708E+03  0.00000000000E+00 0.  1.
         -2    1    1    2    0  502  0.47559573839E+02 -0.53116394622E+02  0.23156467422E+03  0.24229210220E+03  0.00000000000E+00 0.  1.
<scales pt_clust_5="13000.00000" pt_clust_6="13000.00000" pt_clust_7="13000.00000" pt_clust_8="13000.00000" pt_clust_9="71.29705"></scales>
<clustering>
<clus scale="   71.297">  2  9  1 -1</clus>
<clus scale="   80.992">  5  6 -1 -1</clus>
<clus scale="   89.295">  7  8 -1 -1</clus>
<clus scale="   96.658">  2  5  1 -1</clus>
<clus scale="   71.297">  2  5  1 -1</clus>
</clustering>
</event>
<event>
 9    2  0.1302972E-004  0.1282503E+03  0.7546771E-02  0.1234615E+00
         21   -1    0    0  501  502  0.00000000000E+00  0.00000000000E+00  0.11224470367E+03  0.11224470367E+03  0.00000000000E+00 0.  1.
         -3   -1    0    0    0  501 -0.00000000000E+00 -0.00000000000E+00 -0.65693743632E+03  0.65693743632E+03  0.00000000000E+00 0.  1.
         23    2    1    2    0    0  0.85366680268E+02  0.42864071950E+02 -0.54549313347E+03  0.56116739146E+03  0.90671295403E+02 0.  0.
         24    2    1    2    0    0 -0.51596482368E+02 -0.57754889661E+02 -0.70302167882E+02  0.12790396277E+03  0.73615247130E+02 0.  0.
        -11    1    4    4    0    0 -0.19491345891E+02 -0.48206015961E+02 -0.77803223395E+02  0.93579239739E+02  0.00000000000E+00 0.  1.
         12    1    4    4    0    0 -0.32105136477E+02 -0.95488736998E+01  0.75010555130E+01  0.34324723028E+02  0.00000000000E+00 0. -1.
        -11    1    3    3    0    0 -0.75046619401E+01  0.37607123280E+02 -0.17803639488E+03  0.18211966828E+03  0.00000000000E+00 0. -1.
         11    1    3    3    0    0  0.92871342208E+02  0.52569486701E+01 -0.36745673859E+03  0.37904772318E+03  0.00000000000E+00 0.  1.
         -4    1    1    2    0  502 -0.33770197900E+02  0.14890817711E+02  0.71102568703E+02  0.80110785757E+02  0.00000000000E+00 0.  1.
<scales pt_clust_5="13000.00000" pt_clust_6="13000.00000" pt_clust_7="13000.00000" pt_clust_8="13000.00000" pt_clust_9="36.90749"></scales>
<clustering>
<clus scale="   36.907">  1  9  2 -1</clus>
<clus scale="   73.615">  5  6 -1 -1</clus>
<clus scale="   90.671">  7  8 -1 -1</clus>
<clus scale="  116.816">  1  5  2 -1</clus>
<clus scale="   36.907">  1  5  2 -1</clus>
</clustering>
</event>
<event>
 9    2  0.1302972E-004  0.1856040E+03  0.7546771E-02  0.1199657E+00
         21   -1    0    0  501  502  0.00000000000E+00  0.00000000000E+00  0.91557789818E+02  0.91557789818E+02  0.00000000000E+00 0.  1.
         -1   -1    0    0    0  501 -0.00000000000E+00 -0.00000000000E+00 -0.88248447486E+03  0.88248447486E+03  0.00000000000E+00 0.  1.
         24    2    1    2    0    0  0.20325342047E+00 -0.13436211703E+02 -0.15198379968E+03  0.17202995507E+03  0.79464815990E+02 0.  0.
         23    2    1    2    0    0  0.15006011338E+03 -0.58959852940E+02 -0.52263429037E+02  0.19208358094E+03  0.90389900801E+02 0.  0.
        -11    1    3    3    0    0  0.79189997468E+01  0.26556357699E+02 -0.11038911334E+03  0.11381435338E+03  0.00000000000E+00 0.  1.
         12    1    3    3    0    0 -0.77157463264E+01 -0.39992569402E+02 -0.41594686341E+02  0.58215601694E+02  0.00000000000E+00 0. -1.
        -13    1    4    4    0    0  0.46966343890E+02 -0.44998803700E+02 -0.59019634762E+02  0.87829648071E+02  0.00000000000E+00 0. -1.
         13    1    4    4    0    0  0.10309376949E+03 -0.13961049239E+02  0.67562057254E+01  0.10425393287E+03  0.00000000000E+00 0.  1.
         -2    1    1    2    0  502 -0.15026336680E+03  0.72396064643E+02 -0.58667945633E+03  0.60992872867E+03  0.00000000000E+00 0.  1.
<scales pt_clust_5="13000.00000" pt_clust_6="13000.00000" pt_clust_7="13000.00000" pt_clust_8="13000.00000" pt_clust_9="162.10655"></scales>
<clustering>
<clus scale="   79.465">  5  6 -1 -1</clus>
<clus scale="   80.593">  2  5  1 -1</clus>
<clus scale="   90.390">  7  8 -1 -1</clus>
<clus scale="  162.107">  1  9  2 -1</clus>
<clus scale="  162.107">  1  5  2 -1</clus>
</clustering>
</event>
<event>
 9    2  0.1302972E-004  0.1707007E+03  0.7546771E-02  0.1201126E+00
          2   -1    0    0  502    0 -0.00000000000E+00  0.00000000000E+00  0.25507505209E+03  0.25507505209E+03  0.00000000000E+00 0. -1.
         21   -1    0    0  501  502  0.00000000000E+00 -0.00000000000E+00 -0.22160646026E+03  0.22160646026E+03  0.00000000000E+00 0.  1.
         23    2    1    2    0    0 -0.17187406654E+02  0.58329150071E+01  0.10692334230E+03  0.14663673237E+03  0.98692959760E+02 0.  0.
         24    2    1    2    0    0 -0.31213882847E+02  0.14198473713E+03 -0.34774681183E+02  0.16976723672E+03  0.80483937227E+02 0.  0.
        -11    1    4    4    0    0 -0.16972794352E+02  0.14922699509E+03 -0.31214643964E+02  0.15339858477E+03  0.00000000000E+00 0.  1.
         12    1    4    4    0    0 -0.14241088495E+02 -0.72422579539E+01 -0.35600372184E+01  0.16368651954E+02  0.00000000000E+00 0. -1.
        -11    1    3    3    0    0  0.23256732169E+02 -0.35382727601E+02  0.40048302792E+02  0.58281039457E+02  0.00000000000E+00 0.  1.
         11    1    3    3    0    0 -0.40444138823E+02  0.41215642608E+02  0.66875039511E+02  0.88355692914E+02  0.00000000000E+00 0. -1.
          1    1    1    2  501    0  0.48401289501E+02 -0.14781765214E+03 -0.38680069291E+02  0.16027754325E+03  0.00000000000E+00 0. -1.
<scales pt_clust_5="13000.00000" pt_clust_6="13000.00000" pt_clust_7="13000.00000" pt_clust_8="13000.00000" pt_clust_9="150.53600"></scales>
<clustering>
<clus scale="   80.484">  5  6 -1 -1</clus>
<clus scale="   98.693">  7  8 -1 -1</clus>
<clus scale="  100.348">  1  7  2 -1</clus>
<clus scale="  150.536">  2  9  1 -1</clus>
<clus scale="  150.536">  2  5  1 -1</clus>
</clustering>
</event>
<event>
 9    2  0.3125574E-004  0.9905963E+02  0.7546771E-02  0.1287577E+00
         -1   -1    0    0    0  501 -0.00000000000E+00  0.00000000000E+00  0.24919453653E+03  0.24919453653E+03  0.00000000000E+00 0.  1.
         21   -1    0    0  501  502  0.00000000000E+00 -0.00000000000E+00 -0.54202886227E+03  0.54202886227E+03  0.00000000000E+00 0. -1.
         23    2    1    2    0    0 -0.24318663915E+02  0.31963335297E+02  0.23050305727E+03  0.25083723572E+03  0.90413534373E+02 0.  0.
         24    2    1    2    0    0  0.51713870969E+02 -0.29616714771E+02 -0.46899098429E+03  0.47948021057E+03  0.79982840285E+02 0.  0.
        -11    1    4    4    0    0  0.36599162917E+02  0.22664733198E+02 -0.15781686053E+03  0.16358285462E+03  0.00000000000E+00 0.  1.
         12    1    4    4    0    0  0.15114708052E+02 -0.52281447969E+02 -0.31117412376E+03  0.31589735596E+03  0.00000000000E+00 0. -1.
        -13    1    3    3    0    0 -0.29521841795E+02 -0.20854577240E+02  0.15086485561E+03  0.15513431984E+03  0.00000000000E+00 0.  1.
         13    1    3    3    0    0  0.52031778802E+01  0.52817912537E+02  0.79638201656E+02  0.95702915879E+02  0.00000000000E+00 0. -1.
         -2    1    1    2    0  502 -0.27395207054E+02 -0.23466205254E+01 -0.54346398716E+02  0.60905952508E+02  0.00000000000E+00 0.  1.
<scales pt_clust_5="13000.00000" pt_clust_6="13000.00000" pt_clust_7="13000.00000" pt_clust_8="13000.00000" pt_clust_9="27.49553"></scales>
<clustering>
<clus scale="   27.496">  2  9  1 -1</clus>
<clus scale="   79.983">  5  6 -1 -1</clus>
<clus scale="   89.641">  2  5  1 -1</clus>
<clus scale="   90.414">  7  8 -1 -1</clus>
<clus scale="   27.496">  2  5  1 -1</clus>
</clustering>
</event>
<event>
 9    2  0.1302972E-004  0.1035466E+03  0.7546771E-02  0.1277895E+00
         21   -1    0    0  501  502  0.00000000000E+00  0.00000000000E+00  0.33307372543E+03  0.33307372543E+03  0.00000000000E+00 0. -1.
          2   -1    0    0  502    0 -0.00000000000E+00 -0.00000000000E+00 -0.25412781778E+03  0.25412781778E+03  0.00000000000E+00 0. -1.
         24    2    1    2    0    0 -0.27147851867E+02  0.47253497262E+02 -0.18566824591E+03  0.20925533869E+03  0.79656765979E+02 0.  0.
         23    2    1    2    0    0  0.51992828248E+02 -0.44822797913E+01 -0.43294530601E+01  0.10449179617E+03  0.90423704206E+02 0.  0.
        -11    1    3    3    0    0 -0.44673046818E+02  0.31224893300E+01 -0.59658634708E+02  0.74596137613E+02  0.00000000000E+00 0.  1.
         12    1    3    3    0    0  0.17525194950E+02  0.44131007932E+02 -0.12600961120E+03  0.13465920108E+03  0.00000000000E+00 0. -1.
        -11    1    4    4    0    0 -0.83355972512E+01  0.20132502284E+02 -0.27724199972E+02  0.35262318327E+02  0.00000000000E+00 0. -1.
         11    1    4    4    0    0  0.60328425499E+02 -0.24614782075E+02  0.23394746912E+02  0.69229477846E+02  0.00000000000E+00 0.  1.
          1    1    1    2  501    0 -0.24844976381E+02 -0.42771217471E+02  0.26894360663E+03  0.27345440835E+03  0.00000000000E+00 0. -1.
<scales pt_clust_5="13000.00000" pt_clust_6="13000.00000" pt_clust_7="13000.00000" pt_clust_8="13000.00000" pt_clust_9="49.46362"></scales>
<clustering>
<clus scale="   49.464">  1  9  2 -1</clus>
<clus scale="   79.657">  5  6 -1 -1</clus>
<clus scale="   90.424">  7  8 -1 -1</clus>
<clus scale="   94.290">  2  5  1 -1</clus>
<clus scale="   49.464">  1  5  2 -1</clus>
</clustering>
</event>
<event>
 9    2  0.1302972E-004  0.9375365E+02  0.7546771E-02  0.1300732E+00
          4   -1    0    0  502    0 -0.00000000000E+00  0.00000000000E+00  0.27565974834E+03  0.27565974834E+03  0.00000000000E+00 0. -1.
         21   -1    0    0  501  502  0.00000000000E+00 -0.00000000000E+00 -0.15173306775E+03  0.15173306775E+03  0.00000000000E+00 0. -1.
         24    2    1    2    0    0 -0.13233885106E+02  0.84583140346E+01  0.19476785329E+03  0.21139109136E+03  0.80653568036E+02 0.  0.
         23    2    1    2    0    0  0.62017681888E+01 -0.39733168081E+02  0.34365432440E+02  0.10601992202E+03  0.91880652722E+02 0.  0.
        -11    1    3    3    0    0  0.17546693689E+02  0.22515338518E+02  0.23973067049E+02  0.37276465387E+02  0.00000000000E+00 0.  1.
         12    1    3    3    0    0 -0.30780578794E+02 -0.14057024484E+02  0.17079478624E+03  0.17411462597E+03  0.00000000000E+00 0. -1.
        -13    1    4    4    0    0  0.31332261635E+02 -0.36060088679E+02  0.55321796474E+02  0.73092693067E+02  0.00000000000E+00 0. -1.
         13    1    4    4    0    0 -0.25130493447E+02 -0.36730794028E+01 -0.20956364035E+02  0.32927228956E+02  0.00000000000E+00 0.  1.
          3    1    1    2  501    0  0.70321169170E+01  0.31274854047E+02 -0.10520660513E+03  0.10998180271E+03  0.00000000000E+00 0. -1.
<scales pt_clust_5="13000.00000" pt_clust_6="13000.00000" pt_clust_7="13000.00000" pt_clust_8="13000.00000" pt_clust_9="32.05569"></scales>
<clustering>
<clus scale="   32.056">  2  9  1 -1</clus>
<clus scale="   80.654">  5  6 -1 -1</clus>
<clus scale="   82.781">  1  5  2 -1</clus>
<clus scale="   91.881">  7  8 -1 -1</clus>
<clus scale="   32.056">  2  5  1 -1</clus>
</clustering>
</event>
<event>
 9    2  0.1302972E-004  0.2078056E+03  0.7546771E-02  0.1143428E+00
          2   -1    0    0  502    0 -0.00000000000E+00  0.00000000000E+00  0.82193332586E+03  0.82193332586E+03  0.00000000000E+00 0. -1.
         21   -1    0    0  501  502  0.00000000000E+00 -0.00000000000E+00 -0.62418211814E+02  0.62418211814E+02  0.00000000000E+00 0.  1.
         23    2    1    2    0    0 -0.71792510910E+02  0.17835807290E+03  0.33762413037E+03  0.39745025339E+03  0.83731020020E+02 0.  0.
         24    2    1    2    0    0  0.42402480054E+02 -0.18445465430E+03  0.32090310246E+03  0.38154714640E+03  0.82328208716E+02 0.  0.
        -13    1    4    4    0    0  0.59807639533E+02 -0.16668635828E+03  0.30280126558E+03  0.35078469497E+03  0.00000000000E+00 0.  1.
         14    1    4    4    0    0 -0.17405159479E+02 -0.17768296015E+02  0.18101836871E+02  0.30762451428E+02  0.00000000000E+00 0. -1.
        -11    1    3    3    0    0 -0.36650571612E+02  0.15566847311E+03  0.21548239255E+03  0.26834418089E+03  0.00000000000E+00 0. -1.
         11    1    3    3    0    0 -0.35141939299E+02  0.22689599795E+02  0.12214173782E+03  0.12910607249E+03  0.00000000000E+00 0.  1.
          1    1    1    2  501    0  0.29390030856E+02  0.60965813950E+01  0.10098788122E+03  0.10535413789E+03  0.00000000000E+00 0. -1.
<scales pt_clust_5="13000.00000" pt_clust_6="13000.00000" pt_clust_7="13000.00000" pt_clust_8="13000.00000" pt_clust_9="30.01571"></scales>
<clustering>
<clus scale="   30.016">  2  9  1 -1</clus>
<clus scale="   82.328">  5  6 -1 -1</clus>
<clus scale="   83.731">  7  8 -1 -1</clus>
<clus scale="  207.244">  2  5  1 -1</clus>
<clus scale="   30.016">  2  5  1 -1</clus>
</clustering>
</event>
<event>
 9    2  0.1302972E-004  0.1072850E+03  0.7546771E-02  0.1270890E+00
         -1   -1    0    0    0  501 -0.00000000000E+00  0.00000000000E+00  0.69130282569E+02  0.69130282569E+02  0.00000000000E+00 0.  1.
         21   -1    0    0  501  502  0.00000000000E+00 -0.00000000000E+00 -0.31480481779E+03  0.31480481779E+03  0.00000000000E+00 0. -1.
         23    2    1    2    0    0 -0.43214080774E+02  0.25023636099E+02 -0.36016331058E+02  0.11082207237E+03  0.92145083864E+02 0.  0.
         24    2    1    2    0    0  0.79001642643E+02  0.12180199380E+02 -0.18280197451E+03  0.21492254741E+03  0.79909465669E+02 0.  0.
        -11    1    4    4    0    0  0.35544246075E+02 -0.26510947680E+02 -0.36356088028E+02  0.57340988068E+02  0.00000000000E+00 0.  1.
         12    1    4    4    0    0  0.43457396568E+02  0.38691147060E+02 -0.14644588649E+03  0.15758155935E+03  0.00000000000E+00 0. -1.
        -11    1    3    3    0    0 -0.63837622351E+02  0.24821090242E+02  0.94052345945E+00  0.68499730895E+02  0.00000000000E+00 0.  1.
         11    1    3    3    0    0  0.20623541577E+02  0.20254585738E+00 -0.36956854518E+02  0.42322341474E+02  0.00000000000E+00 0. -1.
         -2    1    1    2    0  502 -0.35787561868E+02 -0.37203835480E+02 -0.26856229652E+02  0.58190480579E+02  0.00000000000E+00 0.  1.
<scales pt_clust_5="13000.00000" pt_clust_6="13000.00000" pt_clust_7="13000.00000" pt_clust_8="13000.00000" pt_clust_9="51.62245"></scales>
<clustering>
<clus scale="   51.622">  2  9  1 -1</clus>
<clus scale="   79.909">  5  6 -1 -1</clus>
<clus scale="   92.145">  7  8 -1 -1</clus>
<clus scale="   96.979">  2  5  1 -1</clus>
<clus scale="   51.622">  2  5  1 -1</clus>
</clustering>
</event>
<event>
 9    2  0.1302972E-004  0.1124468E+03  0.7546771E-02  0.1286078E+00
          4   -1    0    0  502    0 -0.00000000000E+00  0.00000000000E+00  0.43828227981E+03  0.43828227981E+03  0.00000000000E+00 0. -1.
         21   -1    0    0  501  502  0.00000000000E+00 -0.00000000000E+00 -0.50230229324E+02  0.50230229324E+02  0.00000000000E+00 0.  1.
         24    2    1    2    0    0  0.75441785629E+01  0.12962413566E+02  0.17869204813E+03  0.18948553394E+03  0.61228920539E+02 0.  0.
         23    2    1    2    0    0  0.76275167766E+01  0.64964704806E+02  0.49001091355E+02  0.12009180131E+03  0.87990578502E+02 0.  0.
        -13    1    3    3    0    0  0.19226505773E+02  0.30035950349E+02  0.67062794396E+02  0.75955481894E+02  0.00000000000E+00 0.  1.
         14    1    3    3    0    0 -0.11682327210E+02 -0.17073536783E+02  0.11162925373E+03  0.11353005204E+03  0.00000000000E+00 0. -1.
        -11    1    4    4    0    0 -0.37294235968E+02  0.19725885416E+02  0.35003153736E+02  0.54819625713E+02  0.00000000000E+00 0. -1.
         11    1    4    4    0    0  0.44921752745E+02  0.45238819390E+02  0.13997937618E+02  0.65272175596E+02  0.00000000000E+00 0.  1.
          3    1    1    2  501    0 -0.15171695340E+02 -0.77927118372E+02  0.16035891101E+03  0.17893517389E+03  0.00000000000E+00 0. -1.
<scales pt_clust_5="13000.00000" pt_clust_6="13000.00000" pt_clust_7="13000.00000" pt_clust_8="13000.00000" pt_clust_9="70.01382"></scales>
<clustering>
<clus scale="   61.229">  5  6 -1 -1</clus>
<clus scale="   63.039">  1  5  2 -1</clus>
<clus scale="   70.014">  2  9  1 -1</clus>
<clus scale="   87.991">  7  8 -1 -1</clus>
<clus scale="   70.014">  2  5  1 -1</clus>
</clustering>
</event>
<event>
 9    2  0.1302972E-004  0.9893772E+02  0.7546771E-02  0.1288210E+00
          4   -1    0    0  502    0 -0.00000000000E+00  0.00000000000E+00  0.95164562504E+03  0.95164562504E+03  0.00000000000E+00 0. -1.
         21   -1    0    0  501  502  0.00000000000E+00 -0.00000000000E+00 -0.82601850845E+02  0.82601850845E+02  0.00000000000E+00 0. -1.
         24    2    1    2    0    0 -0.56796522806E+01  0.36976723662E+02  0.87352820996E+03  0.87802195931E+03  0.80445577224E+02 0.  0.
         23    2    1    2    0    0  0.45055864126E+02 -0.39873001466E+02  0.17828464046E+02  0.11087422130E+03  0.91407612816E+02 0.  0.
        -11    1    3    3    0    0 -0.19421086274E+02 -0.13800116060E+02  0.10383195489E+03  0.10653026167E+03  0.00000000000E+00 0.  1.
         12    1    3    3    0    0  0.13741433994E+02  0.50776839722E+02  0.76969625507E+03  0.77149169764E+03  0.00000000000E+00 0. -1.
        -13    1    4    4    0    0  0.29778565580E+02 -0.69716145558E+01  0.52458671718E+02  0.60722966133E+02  0.00000000000E+00 0. -1.
         13    1    4    4    0    0  0.15277298547E+02 -0.32901386910E+02 -0.34630207672E+02  0.50151255168E+02  0.00000000000E+00 0.  1.
          3    1    1    2  501    0 -0.39376211846E+02  0.28962778035E+01 -0.22312899814E+02  0.45351295269E+02  0.00000000000E+00 0. -1.
<scales pt_clust_5="13000.00000" pt_clust_6="13000.00000" pt_clust_7="13000.00000" pt_clust_8="13000.00000" pt_clust_9="39.48258"></scales>
<clustering>
<clus scale="   39.483">  2  9  1 -1</clus>
<clus scale="   80.446">  5  6 -1 -1</clus>
<clus scale="   88.909">  1  5  2 -1</clus>
<clus scale="   91.408">  7  8 -1 -1</clus>
<clus scale="   39.483">  2  5  1 -1</clus>
</clustering>
</event>
<event>
 9    2  0.1302972E-004  0.1190529E+03  0.7546771E-02  0.1250256E+00
          2   -1    0    0  502    0 -0.00000000000E+00  0.00000000000E+00  0.53269787771E+03  0.53269787771E+03  0.00000000000E+00 0. -1.
         21   -1    0    0  501  502  0.00000000000E+00 -0.00000000000E+00 -0.50249114552E+02  0.50249114552E+02  0.00000000000E+00 0. -1.
         24    2    1    2    0    0  0.82933344631E+01  0.68865256420E+02  0.30636475112E+03  0.32405025620E+03  0.79611587591E+02 0.  0.
         23    2    1    2    0    0 -0.47331818775E+02 -0.68892702802E+02  0.68487276057E+02  0.14443686709E+03  0.95838384923E+02 0.  0.
        -11    1    3    3    0    0  0.37667530706E+02  0.61419258197E+02  0.24845513591E+03  0.25869117246E+03  0.00000000000E+00 0.  1.
         12    1    3    3    0    0 -0.29374196243E+02  0.74459982229E+01  0.57909615202E+02  0.65359083740E+02  0.00000000000E+00 0. -1.
        -13    1    4    4    0    0  0.14136345017E+01 -0.59953263070E+02  0.73229932802E+02  0.94652074322E+02  0.00000000000E+00 0.  1.
         13    1    4    4    0    0 -0.48745453277E+02 -0.89394397322E+01 -0.47426567444E+01  0.49784792767E+02  0.00000000000E+00 0. -1.
          1    1    1    2  501    0  0.39038484312E+02  0.27446382692E-01  0.10759673599E+03  0.11445986898E+03  0.00000000000E+00 0. -1.
<scales pt_clust_5="13000.00000" pt_clust_6="13000.00000" pt_clust_7="13000.00000" pt_clust_8="13000.00000" pt_clust_9="39.03851"></scales>
<clustering>
<clus scale="   39.039">  2  9  1 -1</clus>
<clus scale="   79.612">  5  6 -1 -1</clus>
<clus scale="   95.838">  7  8 -1 -1</clus>
<clus scale="  106.426">  1  5  2 -1</clus>
<clus scale="   39.039">  2  5  1 -1</clus>
</clustering>
</event>
<event>
 9    2  0.1302972E-004  0.1043231E+03  0.7546771E-02  0.1275675E+00
          2   -1    0    0  502    0 -0.00000000000E+00  0.00000000000E+00  0.19141632459E+03  0.19141632459E+03  0.00000000000E+00 0. -1.
         21   -1    0    0  501  502  0.00000000000E+00 -0.00000000000E+00 -0.13494635934E+03  0.13494635934E+03  0.00000000000E+00 0.  1.
         24    2    1    2    0    0  0.36633580193E+02  0.75425337366E+01 -0.17470835032E+00  0.88592643094E+02  0.80310129339E+02 0.  0.
         23    2    1    2    0    0 -0.82851044297E+02 -0.71041672885E+01 -0.41497930232E+02  0.12928862842E+03  0.89881624878E+02 0.  0.
        -11    1    3    3    0    0  0.59382081387E+02  0.15798280622E+02 -0.10398678073E+02  0.62321342782E+02  0.00000000000E+00 0.  1.
         12    1    3    3    0    0 -0.22748501194E+02 -0.82557468858E+01  0.10223969723E+02  0.26271300312E+02  0.00000000000E+00 0. -1.
        -13    1    4    4    0    0  0.95158188541E+01  0.22708120089E+02 -0.27241452818E+01  0.24771566239E+02  0.00000000000E+00 0. -1.
         13    1    4    4    0    0 -0.92366863151E+02 -0.29812287377E+02 -0.38773784950E+02  0.10451706218E+03  0.00000000000E+00 0.  1.
          1    1    1    2  501    0  0.46217464104E+02 -0.43836644814E+00  0.98142603835E+02  0.10848141242E+03  0.00000000000E+00 0. -1.
<scales pt_clust_5="13000.00000" pt_clust_6="13000.00000" pt_clust_7="13000.00000" pt_clust_8="13000.00000" pt_clust_9="46.21957"></scales>
<clustering>
<clus scale="   46.220">  2  9  1 -1</clus>
<clus scale="   80.310">  5  6 -1 -1</clus>
<clus scale="   89.882">  7  8 -1 -1</clus>
<clus scale="   96.199">  1  5  2 -1</clus>
<clus scale="   46.220">  2  5  1 -1</clus>
</clustering>
</event>
<event>
 9    2  0.1302972E-004  0.1165614E+03  0.7546771E-02  0.1253020E+00
          2   -1    0    0  502    0 -0.00000000000E+00  0.00000000000E+00  0.88177824156E+03  0.88177824156E+03  0.00000000000E+00 0. -1.
         21   -1    0    0  501  502  0.00000000000E+00 -0.00000000000E+00 -0.29182834396E+02  0.29182834396E+02  0.00000000000E+00 0.  1.
         23    2    1    2    0    0 -0.75567189627E+02  0.30592652840E+02  0.59144099789E+03  0.60408860201E+03  0.92055822936E+02 0.  0.
         24    2    1    2    0    0  0.30572468357E+02 -0.29134530568E+02  0.81902083770E+02  0.12205351588E+03  0.80035071810E+02 0.  0.
        -13    1    4    4    0    0  0.52761094360E+02 -0.11377371343E+02  0.27270009083E+02  0.60471737631E+02  0.00000000000E+00 0.  1.
         14    1    4    4    0    0 -0.22188626003E+02 -0.17757159225E+02  0.54632074687E+02  0.61581778248E+02  0.00000000000E+00 0. -1.
        -13    1    3    3    0    0 -0.29162585997E+02  0.60867037018E+02  0.31490291386E+03  0.32205449504E+03  0.00000000000E+00 0. -1.
         13    1    3    3    0    0 -0.46404603630E+02 -0.30274384178E+02  0.27653808404E+03  0.28203410698E+03  0.00000000000E+00 0.  1.
          1    1    1    2  501    0  0.44994721270E+02 -0.14581222721E+01  0.17925232550E+03  0.18481895806E+03  0.00000000000E+00 0. -1.
<scales pt_clust_5="13000.00000" pt_clust_6="13000.00000" pt_clust_7="13000.00000" pt_clust_8="13000.00000" pt_clust_9="45.01836"></scales>
<clustering>
<clus scale="   45.018">  2  9  1 -1</clus>
<clus scale="   80.035">  5  6 -1 -1</clus>
<clus scale="   92.056">  7  8 -1 -1</clus>
<clus scale="  107.321">  2  5  1 -1</clus>
<clus scale="   45.018">  2  5  1 -1</clus>
</clustering>
</event>
<event>
 9    2  0.1302972E-004  0.1369916E+03  0.7546771E-02  0.1219629E+00
         21   -1    0    0  501  502  0.00000000000E+00  0.00000000000E+00  0.10541961218E+03  0.10541961218E+03  0.00000000000E+00 0. -1.
          2   -1    0    0  502    0 -0.00000000000E+00 -0.00000000000E+00 -0.57654006021E+03  0.57654006021E+03  0.00000000000E+00 0. -1.
         24    2    1    2    0    0 -0.56054757912E+02 -0.60319350681E+02 -0.21383114709E+03  0.24357112356E+03  0.82598866931E+02 0.  0.
         23    2    1    2    0    0  0.71502585763E+02  0.10193499965E+03 -0.32351117359E+03  0.35866506396E+03  0.92074886592E+02 0.  0.
        -13    1    3    3    0    0  0.14521302745E+02 -0.35625123585E+02 -0.46905684915E+02  0.60664330056E+02  0.00000000000E+00 0.  1.
         14    1    3    3    0    0 -0.70576060657E+02 -0.24694227096E+02 -0.16692546217E+03  0.18290679351E+03  0.00000000000E+00 0. -1.
        -11    1    4    4    0    0 -0.11381231168E+02  0.43043845396E+02 -0.50440672808E+02  0.67279763099E+02  0.00000000000E+00 0. -1.
         11    1    4    4    0    0  0.82883816931E+02  0.58891154255E+02 -0.27307050078E+03  0.29138530086E+03  0.00000000000E+00 0.  1.
          1    1    1    2  501    0 -0.15447827851E+02 -0.41615648969E+02  0.66221872645E+02  0.79723484878E+02  0.00000000000E+00 0. -1.
<scales pt_clust_5="13000.00000" pt_clust_6="13000.00000" pt_clust_7="13000.00000" pt_clust_8="13000.00000" pt_clust_9="44.39029"></scales>
<clustering>
<clus scale="   44.390">  1  9  2 -1</clus>
<clus scale="   82.599">  5  6 -1 -1</clus>
<clus scale="   92.075">  7  8 -1 -1</clus>
<clus scale="  130.811">  2  5  1 -1</clus>
<clus scale="   44.390">  1  5  2 -1</clus>
</clustering>
</event>
<event>
 9    2  0.1302972E-004  0.1202076E+03  0.7546771E-02  0.1256705E+00
         -3   -1    0    0    0  501 -0.00000000000E+00  0.00000000000E+00  0.44587996612E+03  0.44587996612E+03  0.00000000000E+00 0.  1.
         21   -1    0    0  501  502  0.00000000000E+00 -0.00000000000E+00 -0.71160224386E+02  0.71160224386E+02  0.00000000000E+00 0. -1.
         24    2    1    2    0    0  0.31179730300E+02 -0.21727975774E+02  0.13284810906E+03  0.16100228368E+03  0.82636763941E+02 0.  0.
         23    2    1    2    0    0  0.62628941830E+02 -0.17378529039E+02  0.26749763969E+02  0.11811606235E+03  0.94928692643E+02 0.  0.
        -13    1    3    3    0    0  0.22088077098E+02  0.64516290585E+01  0.12912483435E+03  0.13115917625E+03  0.00000000000E+00 0.  1.
         14    1    3    3    0    0  0.90916532015E+01 -0.28179604832E+02  0.37232747104E+01  0.29843107429E+02  0.00000000000E+00 0. -1.
        -13    1    4    4    0    0  0.83573099125E+02 -0.54020244571E+01  0.37429734266E+02  0.91731291133E+02  0.00000000000E+00 0. -1.
         13    1    4    4    0    0 -0.20944157295E+02 -0.11976504582E+02 -0.10679970297E+02  0.26384771220E+02  0.00000000000E+00 0.  1.
         -4    1    1    2    0  502 -0.93808672130E+02  0.39106504812E+02  0.21512186870E+03  0.23792184447E+03  0.00000000000E+00 0.  1.
<scales pt_clust_5="13000.00000" pt_clust_6="13000.00000" pt_clust_7="13000.00000" pt_clust_8="13000.00000" pt_clust_9="73.74562"></scales>
<clustering>
<clus scale="   82.637">  5  6 -1 -1</clus>
<clus scale="   90.957">  1  5  2 -1</clus>
<clus scale="   73.746">  2  9  1 -1</clus>
<clus scale="   94.929">  7  8 -1 -1</clus>
<clus scale="   73.746">  2  5  1 -1</clus>
</clustering>
</event>
<event>
 9    2  0.1302972E-004  0.9624424E+02  0.7546771E-02  0.1293199E+00
         21   -1    0    0  501  502  0.00000000000E+00  0.00000000000E+00  0.42841052391E+02  0.42841052391E+02  0.00000000000E+00 0. -1.
          4   -1    0    0  502    0 -0.00000000000E+00 -0.00000000000E+00 -0.88604158381E+03  0.88604158381E+03  0.00000000000E+00 0. -1.
         23    2    1    2    0    0 -0.41626115038E+02  0.17439317829E+02 -0.53022405951E+03  0.53987919710E+03  0.91077609357E+02 0.  0.
         24    2    1    2    0    0  0.18777425533E+02  0.21490498749E+02 -0.32958885427E+03  0.34090391230E+03  0.82293567898E+02 0.  0.
        -13    1    4    4    0    0  0.37278528045E+02  0.37448413692E+02 -0.28683360724E+03  0.29166005998E+03  0.00000000000E+00 0.  1.
         14    1    4    4    0    0 -0.18501102512E+02 -0.15957914943E+02 -0.42755247026E+02  0.49243852325E+02  0.00000000000E+00 0. -1.
        -11    1    3    3    0    0  0.27615300049E+02 -0.65221357436E+01 -0.14686325433E+03  0.14957927170E+03  0.00000000000E+00 0.  1.
         11    1    3    3    0    0 -0.69241415087E+02  0.23961453573E+02 -0.38336080518E+03  0.39029992540E+03  0.00000000000E+00 0. -1.
          3    1    1    2  501    0  0.22848689505E+02 -0.38929816578E+02  0.16612382353E+02  0.48099526800E+02  0.00000000000E+00 0. -1.
<scales pt_clust_5="13000.00000" pt_clust_6="13000.00000" pt_clust_7="13000.00000" pt_clust_8="13000.00000" pt_clust_9="45.13971"></scales>
<clustering>
<clus scale="   45.140">  1  9  2 -1</clus>
<clus scale="   82.294">  5  6 -1 -1</clus>
<clus scale="   87.978">  1  5  2 -1</clus>
<clus scale="   91.078">  7  8 -1 -1</clus>
<clus scale="   45.140">  1  5  2 -1</clus>
</clustering>
</event>
<event>
 9    2  0.1302972E-004  0.3618572E+03  0.7546771E-02  0.1065496E+00
          2   -1    0    0  502    0 -0.00000000000E+00  0.00000000000E+00  0.10048248963E+04  0.10048248963E+04  0.00000000000E+00 0. -1.
         21   -1    0    0  501  502  0.00000000000E+00 -0.00000000000E+00 -0.63565131635E+03  0.63565131635E+03  0.00000000000E+00 0. -1.
         23    2    1    2    0    0 -0.12860734417E+03  0.24464686203E+03 -0.26208500976E+03  0.39263841336E+03  0.95312303664E+02 0.  0.
         24    2    1    2    0    0  0.45617744211E+03 -0.28825158846E+03  0.72231045734E+03  0.90506384490E+03  0.78875405641E+02 0.  0.
        -11    1    4    4    0    0  0.16616368463E+02 -0.20319807054E+02  0.14925956481E+02  0.30195735402E+02  0.00000000000E+00 0.  1.
         12    1    4    4    0    0  0.43956107365E+03 -0.26793178140E+03  0.70738450086E+03  0.87486810949E+03  0.00000000000E+00 0. -1.
        -11    1    3    3    0    0 -0.32748360318E+02  0.78186763318E+02 -0.14417460870E+03  0.16724814754E+03  0.00000000000E+00 0. -1.
         11    1    3    3    0    0 -0.95858983854E+02  0.16646009872E+03 -0.11791040106E+03  0.22539026582E+03  0.00000000000E+00 0.  1.
          1    1    1    2  501    0 -0.32757009794E+03  0.43604726424E+02 -0.91051867616E+02  0.34277395442E+03  0.00000000000E+00 0. -1.
<scales pt_clust_5="13000.00000" pt_clust_6="13000.00000" pt_clust_7="13000.00000" pt_clust_8="13000.00000" pt_clust_9="353.15623"></scales>
<clustering>
<clus scale="   78.875">  5  6 -1 -1</clus>
<clus scale="   95.312">  7  8 -1 -1</clus>
<clus scale="  292.364">  1  7  2 -1</clus>
<clus scale="  353.156">  2  9  1 -1</clus>
<clus scale="  353.156">  2  5  1 -1</clus>
</clustering>
</event>
<event>
 9    2  0.1302972E-004  0.9450177E+02  0.7546771E-02  0.1301977E+00
         -1   -1    0    0    0  501 -0.00000000000E+00  0.00000000000E+00  0.14303844133E+03  0.14303844133E+03  0.00000000000E+00 0.  1.
         21   -1    0    0  501  502  0.00000000000E+00 -0.00000000000E+00 -0.12115511324E+03  0.12115511324E+03  0.00000000000E+00 0.  1.
         24    2    1    2    0    0  0.19427565027E+02  0.93154143714E+01  0.56785180517E+02  0.97663014613E+02  0.76480719591E+02 0.  0.
         23    2    1    2    0    0 -0.19134924531E+02  0.47729334094E+02 -0.24338991585E+02  0.10851534371E+03  0.92406485920E+02 0.  0.
        -13    1    3    3    0    0 -0.25538715800E+02 -0.13606697561E+02  0.22346118234E+02  0.36561143628E+02  0.00000000000E+00 0.  1.
         14    1    3    3    0    0  0.44966280828E+02  0.22922111933E+02  0.34439062284E+02  0.61101870985E+02  0.00000000000E+00 0. -1.
        -13    1    4    4    0    0 -0.42968365596E+02  0.29330100474E+02  0.19307010503E+02  0.55491403752E+02  0.00000000000E+00 0.  1.
         13    1    4    4    0    0  0.23833441065E+02  0.18399233620E+02 -0.43646002088E+02  0.53023939962E+02  0.00000000000E+00 0. -1.
         -2    1    1    2    0  502 -0.29264049666E+00 -0.57044748465E+02 -0.10562860842E+02  0.58015196243E+02  0.00000000000E+00 0.  1.
<scales pt_clust_5="13000.00000" pt_clust_6="13000.00000" pt_clust_7="13000.00000" pt_clust_8="13000.00000" pt_clust_9="57.04550"></scales>
<clustering>
<clus scale="   57.045">  2  9  1 -1</clus>
<clus scale="   76.481">  5  6 -1 -1</clus>
<clus scale="   79.000">  1  5  2 -1</clus>
<clus scale="   92.406">  7  8 -1 -1</clus>
<clus scale="   57.045">  2  5  1 -1</clus>
</clustering>
</event>
<event>
 9    2  0.1302972E-004  0.1823971E+03  0.7546771E-02  0.1194269E+00
          2   -1    0    0  502    0 -0.00000000000E+00  0.00000000000E+00  0.81122925105E+03  0.81122925105E+03  0.00000000000E+00 0. -1.
         21   -1    0    0  501  502  0.00000000000E+00 -0.00000000000E+00 -0.70706615797E+02  0.70706615797E+02  0.00000000000E+00 0. -1.
         23    2    1    2    0    0  0.83393004557E+01  0.29500862503E+02  0.48057580809E+02  0.10692877375E+03  0.90467600624E+02 0.  0.
         24    2    1    2    0    0  0.32201289146E+02  0.14496497400E+03  0.34993473852E+03  0.38847263817E+03  0.80030635861E+02 0.  0.
        -11    1    4    4    0    0  0.36833163749E+02  0.10709535590E+03  0.16818433026E+03  0.20276110612E+03  0.00000000000E+00 0.  1.
         12    1    4    4    0    0 -0.46318746032E+01  0.37869618101E+02  0.18175040826E+03  0.18571153206E+03  0.00000000000E+00 0. -1.
        -11    1    3    3    0    0 -0.28674756917E+01 -0.30828345039E+02  0.36321247737E+01  0.31173732613E+02  0.00000000000E+00 0.  1.
         11    1    3    3    0    0  0.11206776147E+02  0.60329207542E+02  0.44425456036E+02  0.75755041141E+02  0.00000000000E+00 0. -1.
          1    1    1    2  501    0 -0.40540589602E+02 -0.17446583651E+03  0.34253031592E+03  0.38653445491E+03  0.00000000000E+00 0. -1.
<scales pt_clust_5="13000.00000" pt_clust_6="13000.00000" pt_clust_7="13000.00000" pt_clust_8="13000.00000" pt_clust_9="163.90186"></scales>
<clustering>
<clus scale="   80.031">  5  6 -1 -1</clus>
<clus scale="   90.468">  7  8 -1 -1</clus>
<clus scale="   95.521">  1  7  2 -1</clus>
<clus scale="  163.902">  2  9  1 -1</clus>
<clus scale="  163.902">  2  5  1 -1</clus>
</clustering>
</event>
<event>
 9    2  0.1302972E-004  0.1228931E+03  0.7546771E-02  0.1252229E+00
         21   -1    0    0  501  502  0.00000000000E+00  0.00000000000E+00  0.11420282744E+03  0.11420282744E+03  0.00000000000E+00 0. -1.
          2   -1    0    0  502    0 -0.00000000000E+00 -0.00000000000E+00 -0.40493109098E+03  0.40493109098E+03  0.00000000000E+00 0. -1.
         23    2    1    2    0    0  0.17792404429E+02  0.10029708017E+02 -0.26053353226E+03  0.27664340031E+03  0.90756183287E+02 0.  0.
         24    2    1    2    0    0  0.42269887028E+02  0.67152846213E+02 -0.74673222456E+02  0.13505234189E+03  0.79792210112E+02 0.  0.
        -11    1    4    4    0    0  0.19815092475E+02 -0.13844115385E+02 -0.25650162565E+01  0.24307956084E+02  0.00000000000E+00 0.  1.
         12    1    4    4    0    0  0.22454794553E+02  0.80996961598E+02 -0.72108206199E+02  0.11074438581E+03  0.00000000000E+00 0. -1.
        -13    1    3    3    0    0 -0.19406954495E+01  0.48328284526E+02 -0.11223247508E+03  0.12221095633E+03  0.00000000000E+00 0.  1.
         13    1    3    3    0    0  0.19733099878E+02 -0.38298576509E+02 -0.14830105718E+03  0.15443244398E+03  0.00000000000E+00 0. -1.
          1    1    1    2  501    0 -0.60062291456E+02 -0.77182554230E+02  0.44478491174E+02  0.10743817622E+03  0.00000000000E+00 0. -1.
<scales pt_clust_5="13000.00000" pt_clust_6="13000.00000" pt_clust_7="13000.00000" pt_clust_8="13000.00000" pt_clust_9="93.46613"></scales>
<clustering>
<clus scale="   79.792">  5  6 -1 -1</clus>
<clus scale="   90.756">  7  8 -1 -1</clus>
<clus scale="   93.026">  2  7  1 -1</clus>
<clus scale="   93.466">  1  9  2 -1</clus>
<clus scale="   93.466">  1  5  2 -1</clus>
</clustering>
</event>
<event>
 9    2  0.1302972E-004  0.1059554E+03  0.7546771E-02  0.1273525E+00
          2   -1    0    0  502    0 -0.00000000000E+00  0.00000000000E+00  0.15639063785E+04  0.15639063785E+04  0.00000000000E+00 0. -1.
         21   -1    0    0  501  502  0.00000000000E+00 -0.00000000000E+00 -0.15360091789E+03  0.15360091789E+03  0.00000000000E+00 0. -1.
         24    2    1    2    0    0  0.19055440248E+02 -0.50824343347E+02  0.13402793908E+04  0.13437589828E+04  0.79957082116E+02 0.  0.
         23    2    1    2    0    0 -0.33690483639E+02  0.30434723052E+02  0.20884362511E+03  0.23268012173E+03  0.91994881600E+02 0.  0.
        -13    1    3    3    0    0  0.89562359498E+01 -0.23988643146E+02  0.10258311590E+03  0.10573062390E+03  0.00000000000E+00 0.  1.
         14    1    3    3    0    0  0.10099204299E+02 -0.26835700201E+02  0.12376962749E+04  0.12380283589E+04  0.00000000000E+00 0. -1.
        -13    1    4    4    0    0  0.27782901175E+02  0.25617569676E+02  0.53106191748E+02  0.65179882447E+02  0.00000000000E+00 0.  1.
         13    1    4    4    0    0 -0.61473384814E+02  0.48171533761E+01  0.15573743337E+03  0.16750023928E+03  0.00000000000E+00 0. -1.
          1    1    1    2  501    0  0.14635043390E+02  0.20389620295E+02 -0.13881755523E+03  0.14106819185E+03  0.00000000000E+00 0. -1.
<scales pt_clust_5="13000.00000" pt_clust_6="13000.00000" pt_clust_7="13000.00000" pt_clust_8="13000.00000" pt_clust_9="25.09823"></scales>
<clustering>
<clus scale="   25.098">  2  9  1 -1</clus>
<clus scale="   79.957">  5  6 -1 -1</clus>
<clus scale="   91.995">  7  8 -1 -1</clus>
<clus scale="   95.690">  1  5  2 -1</clus>
<clus scale="   25.098">  2  5  1 -1</clus>
</clustering>
</event>
<event>
 9    2  0.1302972E-004  0.1122185E+03  0.7546771E-02  0.1257591E+00
         21   -1    0    0  501  502  0.00000000000E+00  0.00000000000E+00  0.10430634833E+03  0.10430634833E+03  0.00000000000E+00 0.  1.
         -1   -1    0    0    0  501 -0.00000000000E+00 -0.00000000000E+00 -0.18255084418E+03  0.18255084418E+03  0.00000000000E+00 0.  1.
         23    2    1    2    0    0 -0.46042410412E+02  0.25996974520E+02 -0.30641884088E+02  0.11418276758E+03  0.96452232278E+02 0.  0.
         24    2    1    2    0    0  0.12818193152E+02 -0.61479886861E+02 -0.35027951538E+02  0.12246478681E+03  0.99129128182E+02 0.  0.
        -13    1    4    4    0    0  0.39070160652E+02 -0.37025139182E+02  0.19450719477E+02  0.57233459383E+02  0.00000000000E+00 0.  1.
         14    1    4    4    0    0 -0.26251967500E+02 -0.24454747680E+02 -0.54478671015E+02  0.65231327423E+02  0.00000000000E+00 0. -1.
        -13    1    3    3    0    0  0.25899042961E+02  0.11024066350E+02  0.10409095637E+02  0.30010660392E+02  0.00000000000E+00 0. -1.
         13    1    3    3    0    0 -0.71941453373E+02  0.14972908169E+02 -0.41050979725E+02  0.84172107190E+02  0.00000000000E+00 0.  1.
         -2    1    1    2    0  502  0.33224217260E+02  0.35482912342E+02 -0.12574660219E+02  0.50209638123E+02  0.00000000000E+00 0.  1.
<scales pt_clust_5="13000.00000" pt_clust_6="13000.00000" pt_clust_7="13000.00000" pt_clust_8="13000.00000" pt_clust_9="48.60952"></scales>
<clustering>
<clus scale="   48.610">  1  9  2 -1</clus>
<clus scale="   96.452">  7  8 -1 -1</clus>
<clus scale="   99.129">  5  6 -1 -1</clus>
<clus scale="  109.861">  2  7  1 -1</clus>
<clus scale="   48.610">  1  5  2 -1</clus>
</clustering>
</event>
<event>
 9    2  0.1302972E-004  0.1142893E+03  0.7546771E-02  0.1257401E+00
          2   -1    0    0  502    0 -0.00000000000E+00  0.00000000000E+00  0.84007438668E+03  0.84007438668E+03  0.00000000000E+00 0. -1.
         21   -1    0    0  501  502  0.00000000000E+00 -0.00000000000E+00 -0.46035607448E+02  0.46035607448E+02  0.00000000000E+00 0.  1.
         24    2    1    2    0    0  0.70746594205E+02 -0.78629467808E+00  0.52707473117E+03  0.53800317547E+03  0.81449037626E+02 0.  0.
         23    2    1    2    0    0 -0.26844947084E+02 -0.97842149618E+01  0.23960770056E+02  0.10094354587E+03  0.93803512216E+02 0.  0.
        -11    1    3    3    0    0  0.82842320006E+02 -0.19665120620E+02  0.39941225462E+03  0.40838672370E+03  0.00000000000E+00 0.  1.
         12    1    3    3    0    0 -0.12095725801E+02  0.18878825942E+02  0.12766247655E+03  0.12961645177E+03  0.00000000000E+00 0. -1.
        -13    1    4    4    0    0 -0.53151628052E+02 -0.24858369341E+02 -0.51607306508E+01  0.58903881296E+02  0.00000000000E+00 0.  1.
         13    1    4    4    0    0  0.26306680968E+02  0.15074154380E+02  0.29121500707E+02  0.42039664571E+02  0.00000000000E+00 0. -1.
          1    1    1    2  501    0 -0.43901647121E+02  0.10570509640E+02  0.24300327800E+03  0.24716327278E+03  0.00000000000E+00 0. -1.
<scales pt_clust_5="13000.00000" pt_clust_6="13000.00000" pt_clust_7="13000.00000" pt_clust_8="13000.00000" pt_clust_9="45.15631"></scales>
<clustering>
<clus scale="   45.156">  2  9  1 -1</clus>
<clus scale="   81.449">  5  6 -1 -1</clus>
<clus scale="   93.804">  7  8 -1 -1</clus>
<clus scale="  104.388">  1  5  2 -1</clus>
<clus scale="   45.156">  2  5  1 -1</clus>
</clustering>
</event>
<event>
 9    2  0.1302972E-004  0.1044580E+03  0.7546771E-02  0.1274958E+00
          2   -1    0    0  502    0 -0.00000000000E+00  0.00000000000E+00  0.81610214715E+02  0.81610214715E+02  0.00000000000E+00 0. -1.
         21   -1    0    0  501  502  0.00000000000E+00 -0.00000000000E+00 -0.51942442235E+03  0.51942442235E+03  0.00000000000E+00 0. -1.
         23    2    1    2    0    0 -0.26545437711E+02 -0.41560053608E+02  0.23191462295E+02  0.10517846279E+03  0.89959806543E+02 0.  0.
         24    2    1    2    0    0  0.74912244934E+01  0.77576979561E+02 -0.18316689984E+03  0.21504544769E+03  0.81364151647E+02 0.  0.
        -11    1    4    4    0    0  0.22761964951E+02 -0.90691692385E+01 -0.45169575829E+02  0.51387230512E+02  0.00000000000E+00 0.  1.
         12    1    4    4    0    0 -0.15270740458E+02  0.86646148800E+02 -0.13799732401E+03  0.16365821718E+03  0.00000000000E+00 0. -1.
        -11    1    3    3    0    0  0.15955869199E+02 -0.45486663863E+02  0.36506210941E+02  0.60467592879E+02  0.00000000000E+00 0.  1.
         11    1    3    3    0    0 -0.42501306910E+02  0.39266102545E+01 -0.13314748646E+02  0.44710869916E+02  0.00000000000E+00 0. -1.
          1    1    1    2  501    0  0.19054213218E+02 -0.36016925953E+02 -0.27783877009E+03  0.28081072658E+03  0.00000000000E+00 0. -1.
<scales pt_clust_5="13000.00000" pt_clust_6="13000.00000" pt_clust_7="13000.00000" pt_clust_8="13000.00000" pt_clust_9="40.74656"></scales>
<clustering>
<clus scale="   40.747">  2  9  1 -1</clus>
<clus scale="   81.364">  5  6 -1 -1</clus>
<clus scale="   89.960">  7  8 -1 -1</clus>
<clus scale="   97.154">  2  5  1 -1</clus>
<clus scale="   40.747">  2  5  1 -1</clus>
</clustering>
</event>
<event>
 9    2  0.1302972E-004  0.8715976E+02  0.7546771E-02  0.1313330E+00
         21   -1    0    0  501  502  0.00000000000E+00  0.00000000000E+00  0.26147610284E+02  0.26147610284E+02  0.00000000000E+00 0.  1.
          2   -1    0    0  502    0 -0.00000000000E+00 -0.00000000000E+00 -0.76872878740E+03  0.76872878740E+03  0.00000000000E+00 0. -1.
         24    2    1    2    0    0 -0.64034395008E+01  0.70856459275E+01 -0.48240241465E+03  0.48917181456E+03  0.80534241691E+02 0.  0.
         23    2    1    2    0    0 -0.26243604451E+02 -0.51738421701E+02 -0.14874302802E+03  0.18129548870E+03  0.85895138306E+02 0.  0.
        -13    1    3    3    0    0 -0.23145639644E+02 -0.24596095183E+02 -0.11047897196E+03  0.11552615192E+03  0.00000000000E+00 0.  1.
         14    1    3    3    0    0  0.16742200143E+02  0.31681741111E+02 -0.37192344270E+03  0.37364566265E+03  0.00000000000E+00 0. -1.
        -13    1    4    4    0    0  0.20314930359E+02 -0.52904572028E+02 -0.73599944012E+02  0.92889945073E+02  0.00000000000E+00 0.  1.
         13    1    4    4    0    0 -0.46558534811E+02  0.11661503274E+01 -0.75143084009E+02  0.88405543631E+02  0.00000000000E+00 0. -1.
          1    1    1    2  501    0  0.32647043952E+02  0.44652775774E+02 -0.11143573444E+03  0.12440909442E+03  0.00000000000E+00 0. -1.
<scales pt_clust_5="13000.00000" pt_clust_6="13000.00000" pt_clust_7="13000.00000" pt_clust_8="13000.00000" pt_clust_9="55.31455"></scales>
<clustering>
<clus scale="   55.315">  1  9  2 -1</clus>
<clus scale="   80.534">  5  6 -1 -1</clus>
<clus scale="   81.882">  2  5  1 -1</clus>
<clus scale="   85.895">  7  8 -1 -1</clus>
<clus scale="   55.315">  1  5  2 -1</clus>
</clustering>
</event>
<event>
 9    2  0.1302972E-004  0.9685956E+02  0.7546771E-02  0.1293591E+00
          2   -1    0    0  502    0 -0.00000000000E+00  0.00000000000E+00  0.49814861535E+03  0.49814861535E+03  0.00000000000E+00 0. -1.
         21   -1    0    0  501  502  0.00000000000E+00 -0.00000000000E+00 -0.13715275238E+03  0.13715275238E+03  0.00000000000E+00 0. -1.
         24    2    1    2    0    0  0.28446190371E+02 -0.12180052990E+02  0.41330870342E+03  0.42190472957E+03  0.78879509836E+02 0.  0.
         23    2    1    2    0    0 -0.59542577663E+02  0.44917216342E+00  0.39604074216E+02  0.11565556148E+03  0.90896677039E+02 0.  0.
        -11    1    3    3    0    0  0.15582176598E+02 -0.45093307721E+02  0.19482222498E+03  0.20057893701E+03  0.00000000000E+00 0.  1.
         12    1    3    3    0    0  0.12864013773E+02  0.32913254731E+02  0.21848647845E+03  0.22132579256E+03  0.00000000000E+00 0. -1.
        -13    1    4    4    0    0 -0.14630696025E+02 -0.33362538252E+02 -0.12985926339E+02  0.38674933842E+02  0.00000000000E+00 0.  1.
         13    1    4    4    0    0 -0.44911881638E+02  0.33811710415E+02  0.52590000556E+02  0.76980627640E+02  0.00000000000E+00 0. -1.
          1    1    1    2  501    0  0.31096387292E+02  0.11730880827E+02 -0.91916914673E+02  0.97741076680E+02  0.00000000000E+00 0. -1.
<scales pt_clust_5="13000.00000" pt_clust_6="13000.00000" pt_clust_7="13000.00000" pt_clust_8="13000.00000" pt_clust_9="33.23551"></scales>
<clustering>
<clus scale="   33.236">  2  9  1 -1</clus>
<clus scale="   78.880">  5  6 -1 -1</clus>
<clus scale="   85.683">  1  5  2 -1</clus>
<clus scale="   90.897">  7  8 -1 -1</clus>
<clus scale="   33.236">  2  5  1 -1</clus>
</clustering>
</event>
<event>
 9    2  0.1302972E-004  0.1446601E+03  0.7546771E-02  0.1233773E+00
         -1   -1    0    0    0  501 -0.00000000000E+00  0.00000000000E+00  0.92051899786E+02  0.92051899786E+02  0.00000000000E+00 0.  1.
         21   -1    0    0  501  502  0.00000000000E+00 -0.00000000000E+00 -0.36729631568E+03  0.36729631568E+03  0.00000000000E+00 0.  1.
         24    2    1    2    0    0  0.20535261796E+02  0.61779221048E+01 -0.95102640475E+02  0.12610971600E+03  0.79995528282E+02 0.  0.
         23    2    1    2    0    0  0.99034698314E+00 -0.11377628777E+03 -0.16827127437E+03  0.22286790138E+03  0.91699810496E+02 0.  0.
        -11    1    3    3    0    0 -0.29321260851E+02 -0.87958434725E+01 -0.31582130757E+02  0.43983339840E+02  0.00000000000E+00 0.  1.
         12    1    3    3    0    0  0.49856522647E+02  0.14973765577E+02 -0.63520509717E+02  0.82126376158E+02  0.00000000000E+00 0. -1.
        -13    1    4    4    0    0 -0.24971103210E+02 -0.62267683183E+02 -0.30868783332E+02  0.73849185160E+02  0.00000000000E+00 0. -1.
         13    1    4    4    0    0  0.25961450193E+02 -0.51508604585E+02 -0.13740249103E+03  0.14901871622E+03  0.00000000000E+00 0.  1.
         -2    1    1    2    0  502 -0.21525608779E+02  0.10759836566E+03 -0.11870501054E+02  0.11037059809E+03  0.00000000000E+00 0.  1.
<scales pt_clust_5="13000.00000" pt_clust_6="13000.00000" pt_clust_7="13000.00000" pt_clust_8="13000.00000" pt_clust_9="111.88250"></scales>
<clustering>
<clus scale="   79.996">  5  6 -1 -1</clus>
<clus scale="   82.820">  1  5  2 -1</clus>
<clus scale="   91.700">  7  8 -1 -1</clus>
<clus scale="  111.883">  2  9  1 -1</clus>
<clus scale="  111.883">  2  5  1 -1</clus>
</clustering>
</event>
<event>
 9    2  0.1302972E-004  0.1152169E+03  0.7546771E-02  0.1264697E+00
         21   -1    0    0  501  502  0.00000000000E+00  0.00000000000E+00  0.39105043524E+02  0.39105043524E+02  0.00000000000E+00 0.  1.
         -1   -1    0    0    0  501 -0.00000000000E+00 -0.00000000000E+00 -0.10873628977E+04  0.10873628977E+04  0.00000000000E+00 0.  1.
         24    2    1    2    0    0  0.36127849656E+02 -0.88934673945E+00 -0.30396489516E+03  0.31652964030E+03  0.80562666513E+02 0.  0.
         23    2    1    2    0    0  0.38980576157E+02  0.54026602383E+02 -0.78827691806E+02  0.13814304535E+03  0.91822311554E+02 0.  0.
        -13    1    3    3    0    0  0.46937361999E+02  0.35782192420E+01 -0.84292467069E+02  0.96546049163E+02  0.00000000000E+00 0.  1.
         14    1    3    3    0    0 -0.10809512343E+02 -0.44675659814E+01 -0.21967242809E+03  0.21998359113E+03  0.00000000000E+00 0. -1.
        -13    1    4    4    0    0  0.36780919866E+02 -0.17962781320E+02 -0.34818959320E+02  0.53738789595E+02  0.00000000000E+00 0. -1.
         13    1    4    4    0    0  0.21996562903E+01  0.71989383703E+02 -0.44008732487E+02  0.84404255751E+02  0.00000000000E+00 0.  1.
         -2    1    1    2    0  502 -0.75108425813E+02 -0.53137255643E+02 -0.66546526722E+03  0.67179525560E+03  0.00000000000E+00 0.  1.
<scales pt_clust_5="13000.00000" pt_clust_6="13000.00000" pt_clust_7="13000.00000" pt_clust_8="13000.00000" pt_clust_9="69.59593"></scales>
<clustering>
<clus scale="   80.563">  5  6 -1 -1</clus>
<clus scale="   88.297">  2  5  1 -1</clus>
<clus scale="   69.596">  1  9  2 -1</clus>
<clus scale="   91.822">  7  8 -1 -1</clus>
<clus scale="   69.596">  1  5  2 -1</clus>
</clustering>
</event>
<event>
 9    2  0.1302972E-004  0.1198136E+03  0.7546771E-02  0.1249332E+00
         -1   -1    0    0    0  501 -0.00000000000E+00  0.00000000000E+00  0.60312103156E+02  0.60312103156E+02  0.00000000000E+00 0.  1.
         21   -1    0    0  501  502  0.00000000000E+00 -0.00000000000E+00 -0.32365409496E+03  0.32365409496E+03  0.00000000000E+00 0.  1.
         24    2    1    2    0    0 -0.28058492117E+02 -0.56471291236E+02 -0.11966937389E+03  0.15644720499E+03  0.78604600301E+02 0.  0.
         23    2    1    2    0    0  0.66739764569E+02  0.53465944703E+02 -0.13745713191E+03  0.18822643387E+03  0.96030848574E+02 0.  0.
        -13    1    3    3    0    0 -0.54721509673E+02 -0.39475137060E+02 -0.94056697072E+02  0.11575574427E+03  0.00000000000E+00 0.  1.
         14    1    3    3    0    0  0.26663017556E+02 -0.16996154176E+02 -0.25612676813E+02  0.40691460720E+02  0.00000000000E+00 0. -1.
        -13    1    4    4    0    0  0.62015713090E+02  0.88667595629E+01 -0.25530761636E+02  0.67649005055E+02  0.00000000000E+00 0.  1.
         13    1    4    4    0    0  0.47240514784E+01  0.44599185140E+02 -0.11192637028E+03  0.12057742882E+03  0.00000000000E+00 0. -1.
         -2    1    1    2    0  502 -0.38681272452E+02  0.30053465332E+01 -0.62154860046E+01  0.39292559252E+02  0.00000000000E+00 0.  1.
<scales pt_clust_5="13000.00000" pt_clust_6="13000.00000" pt_clust_7="13000.00000" pt_clust_8="13000.00000" pt_clust_9="38.79787"></scales>
<clustering>
<clus scale="   38.798">  2  9  1 -1</clus>
<clus scale="   78.605">  5  6 -1 -1</clus>
<clus scale="   96.031">  7  8 -1 -1</clus>
<clus scale="  106.358">  1  5  2 -1</clus>
<clus scale="   38.798">  2  5  1 -1</clus>
</clustering>
</event>
<event>
 9    2  0.1302972E-004  0.1664928E+03  0.7546771E-02  0.1183515E+00
         -1   -1    0    0    0  501 -0.00000000000E+00  0.00000000000E+00  0.53396072731E+03  0.53396072731E+03  0.00000000000E+00 0.  1.
         21   -1    0    0  501  502  0.00000000000E+00 -0.00000000000E+00 -0.19238373467E+03  0.19238373467E+03  0.00000000000E+00 0.  1.
         23    2    1    2    0    0 -0.13455724877E+03  0.16640347944E+02  0.41564872787E+03  0.44668213749E+03  0.91534215412E+02 0.  0.
         24    2    1    2    0    0  0.16602254839E+03 -0.68135400234E+02 -0.92779850682E+02  0.21648163856E+03  0.77783544544E+02 0.  0.
        -13    1    4    4    0    0  0.13168797266E+03 -0.82323955180E+02 -0.89353769057E+02  0.17917324517E+03  0.00000000000E+00 0.  1.
         14    1    4    4    0    0  0.34334575735E+02  0.14188554946E+02 -0.34260816249E+01  0.37308393394E+02  0.00000000000E+00 0. -1.
        -11    1    3    3    0    0 -0.12262577727E+03  0.33778542832E+02  0.40222652680E+03  0.42185809233E+03  0.00000000000E+00 0.  1.
         11    1    3    3    0    0 -0.11931471495E+02 -0.17138194888E+02  0.13422201077E+02  0.24824045154E+02  0.00000000000E+00 0. -1.
         -2    1    1    2    0  502 -0.31465299625E+02  0.51495052290E+02  0.18708115458E+02  0.63180685932E+02  0.00000000000E+00 0.  1.
<scales pt_clust_5="13000.00000" pt_clust_6="13000.00000" pt_clust_7="13000.00000" pt_clust_8="13000.00000" pt_clust_9="60.34737"></scales>
<clustering>
<clus scale="   60.347">  2  9  1 -1</clus>
<clus scale="   77.784">  5  6 -1 -1</clus>
<clus scale="   91.534">  7  8 -1 -1</clus>
<clus scale="  159.348">  2  5  1 -1</clus>
<clus scale="   60.347">  2  5  1 -1</clus>
</clustering>
</event>
<event>
 9    2  0.1302972E-004  0.1638794E+03  0.7546771E-02  0.1203188E+00
         21   -1    0    0  501  502  0.00000000000E+00  0.00000000000E+00  0.79982271585E+03  0.79982271585E+03  0.00000000000E+00 0. -1.
          4   -1    0    0  502    0 -0.00000000000E+00 -0.00000000000E+00 -0.65648855726E+02  0.65648855726E+02  0.00000000000E+00 0. -1.
         24    2    1    2    0    0 -0.40175582044E+02 -0.52437127985E+02  0.86224334586E+02  0.13855573406E+03  0.86019333773E+02 0.  0.
         23    2    1    2    0    0 -0.12289332194E+03  0.23136056240E+02  0.40194750406E+03  0.43032349974E+03  0.89322296973E+02 0.  0.
        -13    1    3    3    0    0 -0.53529488024E+02 -0.29030432577E+02  0.15449374382E+02  0.62824002360E+02  0.00000000000E+00 0.  1.
         14    1    3    3    0    0  0.13353905980E+02 -0.23406695408E+02  0.70774960203E+02  0.75731731702E+02  0.00000000000E+00 0. -1.
        -11    1    4    4    0    0 -0.88617470166E+02 -0.19368689107E+02  0.31367881859E+03  0.32653116753E+03  0.00000000000E+00 0.  1.
         11    1    4    4    0    0 -0.34275851775E+02  0.42504745347E+02  0.88268685465E+02  0.10379233221E+03  0.00000000000E+00 0. -1.
          3    1    1    2  501    0  0.16306890399E+03  0.29301071745E+02  0.24600202148E+03  0.29659233777E+03  0.00000000000E+00 0. -1.
<scales pt_clust_5="13000.00000" pt_clust_6="13000.00000" pt_clust_7="13000.00000" pt_clust_8="13000.00000" pt_clust_9="137.39730"></scales>
<clustering>
<clus scale="   86.019">  5  6 -1 -1</clus>
<clus scale="   89.322">  7  8 -1 -1</clus>
<clus scale="  108.458">  2  5  1 -1</clus>
<clus scale="  137.397">  1  9  2 -1</clus>
<clus scale="  137.397">  1  5  2 -1</clus>
</clustering>
</event>
<event>
 9    2  0.1302972E-004  0.1133220E+03  0.7546771E-02  0.1258723E+00
         21   -1    0    0  501  502  0.00000000000E+00  0.00000000000E+00  0.18021728751E+03  0.18021728751E+03  0.00000000000E+00 0. -1.
          2   -1    0    0  502    0 -0.00000000000E+00 -0.00000000000E+00 -0.18488431863E+03  0.18488431863E+03  0.00000000000E+00 0. -1.
         24    2    1    2    0    0 -0.64723058609E+02 -0.37209006919E+02 -0.79886048559E+02  0.13557095898E+03  0.80150606063E+02 0.  0.
         23    2    1    2    0    0 -0.94354087243E+01  0.83653197227E+02  0.19755200978E+02  0.12593153506E+03  0.91551074342E+02 0.  0.
        -13    1    3    3    0    0 -0.60308118861E+02 -0.36393508236E+02 -0.16916000607E+02  0.72441063761E+02  0.00000000000E+00 0.  1.
         14    1    3    3    0    0 -0.44149397483E+01 -0.81549868233E+00 -0.62970047952E+02  0.63129895217E+02  0.00000000000E+00 0. -1.
        -13    1    4    4    0    0 -0.10420467872E+02  0.18862182113E+02  0.49982200197E+02  0.54429664717E+02  0.00000000000E+00 0. -1.
         13    1    4    4    0    0  0.98505914794E+00  0.64791015114E+02 -0.30226999219E+02  0.71501870344E+02  0.00000000000E+00 0.  1.
          1    1    1    2  501    0  0.74158467333E+02 -0.46444190308E+02  0.55463816470E+02  0.10359911210E+03  0.00000000000E+00 0. -1.
<scales pt_clust_5="13000.00000" pt_clust_6="13000.00000" pt_clust_7="13000.00000" pt_clust_8="13000.00000" pt_clust_9="87.50166"></scales>
<clustering>
<clus scale="   80.151">  5  6 -1 -1</clus>
<clus scale="   87.502">  1  9  2 -1</clus>
<clus scale="   91.551">  7  8 -1 -1</clus>
<clus scale="  104.328">  2  5  1 -1</clus>
<clus scale="   87.502">  1  5  2 -1</clus>
</clustering>
</event>
<event>
 9    2  0.1302972E-004  0.2243571E+03  0.7546771E-02  0.1158083E+00
         21   -1    0    0  501  502  0.00000000000E+00  0.00000000000E+00  0.11334656385E+03  0.11334656385E+03  0.00000000000E+00 0. -1.
          2   -1    0    0  502    0 -0.00000000000E+00 -0.00000000000E+00 -0.15207540435E+04  0.15207540435E+04  0.00000000000E+00 0. -1.
         23    2    1    2    0    0 -0.41741715703E+02  0.63295146378E+02  0.14464892144E+02  0.11731628676E+03  0.88347222089E+02 0.  0.
         24    2    1    2    0    0  0.22458184322E+03 -0.13465688230E+03 -0.11455508917E+04  0.11778498580E+04  0.80460935737E+02 0.  0.
        -11    1    4    4    0    0  0.16269960980E+03 -0.89852534433E+02 -0.63593324034E+03  0.66253734019E+03  0.00000000000E+00 0.  1.
         12    1    4    4    0    0  0.61882233417E+02 -0.44804347872E+02 -0.50961765136E+03  0.51531251778E+03  0.00000000000E+00 0. -1.
        -11    1    3    3    0    0 -0.28336852076E+02  0.85576909836E+02  0.78670865751E+01  0.90489091794E+02  0.00000000000E+00 0. -1.
         11    1    3    3    0    0 -0.13404863627E+02 -0.22281763458E+02  0.65978055693E+01  0.26827194970E+02  0.00000000000E+00 0.  1.
          1    1    1    2  501    0 -0.18284012752E+03  0.71361735927E+02 -0.27632148006E+03  0.33893446259E+03  0.00000000000E+00 0. -1.
<scales pt_clust_5="13000.00000" pt_clust_6="13000.00000" pt_clust_7="13000.00000" pt_clust_8="13000.00000" pt_clust_9="209.43291"></scales>
<clustering>
<clus scale="   80.461">  5  6 -1 -1</clus>
<clus scale="   88.347">  7  8 -1 -1</clus>
<clus scale="  116.421">  2  7  1 -1</clus>
<clus scale="  209.433">  1  9  2 -1</clus>
<clus scale="  209.433">  1  5  2 -1</clus>
</clustering>
</event>
<event>
 9    2  0.1302972E-004  0.1402390E+03  0.7546771E-02  0.1215239E+00
          2   -1    0    0  502    0 -0.00000000000E+00  0.00000000000E+00  0.99231067776E+03  0.99231067776E+03  0.00000000000E+00 0. -1.
         21   -1    0    0  501  502  0.00000000000E+00 -0.00000000000E+00 -0.77984873207E+02  0.77984873207E+02  0.00000000000E+00 0. -1.
         24    2    1    2    0    0 -0.87406640351E+02  0.28094965220E+02  0.24291584861E+03  0.27199355942E+03  0.80889671866E+02 0.  0.
         23    2    1    2    0    0  0.13270091270E+03 -0.11605785743E+03  0.10740517469E+03  0.22568481158E+03  0.91207478446E+02 0.  0.
        -13    1    3    3    0    0 -0.16853835506E+02  0.23922694580E+02  0.14046324980E+02  0.32459918865E+02  0.00000000000E+00 0.  1.
         14    1    3    3    0    0 -0.70552804845E+02  0.41722706399E+01  0.22886952363E+03  0.23953364056E+03  0.00000000000E+00 0. -1.
        -11    1    4    4    0    0  0.65509929652E+02 -0.57463816986E+01  0.16685321508E+02  0.67845204248E+02  0.00000000000E+00 0.  1.
         11    1    4    4    0    0  0.67190983047E+02 -0.11031147573E+03  0.90719853179E+02  0.15783960733E+03  0.00000000000E+00 0. -1.
          1    1    1    2  501    0 -0.45294272348E+02  0.87962892209E+02  0.56400478126E+03  0.57261717997E+03  0.00000000000E+00 0. -1.
<scales pt_clust_5="13000.00000" pt_clust_6="13000.00000" pt_clust_7="13000.00000" pt_clust_8="13000.00000" pt_clust_9="98.93963"></scales>
<clustering>
<clus scale="   80.890">  5  6 -1 -1</clus>
<clus scale="   91.207">  7  8 -1 -1</clus>
<clus scale="   98.940">  2  9  1 -1</clus>
<clus scale="  133.758">  1  5  2 -1</clus>
<clus scale="   98.940">  2  5  1 -1</clus>
</clustering>
</event>
<event>
 9    2  0.1302972E-004  0.1078096E+03  0.7546771E-02  0.1270339E+00
          2   -1    0    0  502    0 -0.00000000000E+00  0.00000000000E+00  0.72271028248E+03  0.72271028248E+03  0.00000000000E+00 0. -1.
         21   -1    0    0  501  502  0.00000000000E+00 -0.00000000000E+00 -0.27793020565E+02  0.27793020565E+02  0.00000000000E+00 0. -1.
         24    2    1    2    0    0 -0.34704596369E+02 -0.20618458140E+02  0.28583194720E+03  0.29980136738E+03  0.80940892123E+02 0.  0.
         23    2    1    2    0    0  0.74821526660E+02  0.40942562022E+02  0.20044279720E+03  0.23726778327E+03  0.94043244258E+02 0.  0.
        -13    1    3    3    0    0 -0.60601694616E+02 -0.96282857845E+01  0.17466840624E+03  0.18513325313E+03  0.00000000000E+00 0.  1.
         14    1    3    3    0    0  0.25897098247E+02 -0.10990172356E+02  0.11116354096E+03  0.11466811425E+03  0.00000000000E+00 0. -1.
        -11    1    4    4    0    0  0.33299396641E+02  0.36171608991E+02  0.18701303101E+03  0.19336780725E+03  0.00000000000E+00 0.  1.
         11    1    4    4    0    0  0.41522130019E+02  0.47709530313E+01  0.13429766187E+02  0.43899976013E+02  0.00000000000E+00 0. -1.
          1    1    1    2  501    0 -0.40116930291E+02 -0.20324103882E+02  0.20864251751E+03  0.21343415239E+03  0.00000000000E+00 0. -1.
<scales pt_clust_5="13000.00000" pt_clust_6="13000.00000" pt_clust_7="13000.00000" pt_clust_8="13000.00000" pt_clust_9="44.97154"></scales>
<clustering>
<clus scale="   44.972">  2  9  1 -1</clus>
<clus scale="   80.941">  5  6 -1 -1</clus>
<clus scale="   94.043">  7  8 -1 -1</clus>
<clus scale="   96.593">  1  5  2 -1</clus>
<clus scale="   44.972">  2  5  1 -1</clus>
</clustering>
</event>
<event>
 9    2  0.1302972E-004  0.1588253E+03  0.7546771E-02  0.1192573E+00
          2   -1    0    0  502    0 -0.00000000000E+00  0.00000000000E+00  0.11771716874E+03  0.11771716874E+03  0.00000000000E+00 0. -1.
         21   -1    0    0  501  502  0.00000000000E+00 -0.00000000000E+00 -0.27217289282E+03  0.27217289282E+03  0.00000000000E+00 0. -1.
         24    2    1    2    0    0 -0.82550117359E+02 -0.64285380201E+02 -0.81761523091E+02  0.15738928306E+03  0.84494424552E+02 0.  0.
         23    2    1    2    0    0  0.12334882676E+03  0.77428526670E+02 -0.70037748060E+02  0.18955507174E+03  0.99074362282E+02 0.  0.
        -13    1    3    3    0    0 -0.50465094326E+02  0.92002115328E+01 -0.16141072853E+02  0.53776424858E+02  0.00000000000E+00 0.  1.
         14    1    3    3    0    0 -0.32085023033E+02 -0.73485591734E+02 -0.65620450238E+02  0.10361285820E+03  0.00000000000E+00 0. -1.
        -13    1    4    4    0    0  0.78904475047E+02  0.30626881497E+02 -0.88465287043E+02  0.12243377420E+03  0.00000000000E+00 0. -1.
         13    1    4    4    0    0  0.44444351714E+02  0.46801645172E+02  0.18427538983E+02  0.67121297537E+02  0.00000000000E+00 0.  1.
          1    1    1    2  501    0 -0.40798709402E+02 -0.13143146469E+02 -0.26564529311E+01  0.42945706772E+02  0.00000000000E+00 0. -1.
<scales pt_clust_5="13000.00000" pt_clust_6="13000.00000" pt_clust_7="13000.00000" pt_clust_8="13000.00000" pt_clust_9="42.86349"></scales>
<clustering>
<clus scale="   42.863">  2  9  1 -1</clus>
<clus scale="   84.494">  5  6 -1 -1</clus>
<clus scale="   99.074">  7  8 -1 -1</clus>
<clus scale="  150.163">  1  5  2 -1</clus>
<clus scale="   42.863">  2  5  1 -1</clus>
</clustering>
</event>
<event>
 9    2  0.1302972E-004  0.1855339E+03  0.7546771E-02  0.1192685E+00
          2   -1    0    0  502    0 -0.00000000000E+00  0.00000000000E+00  0.44452278529E+03  0.44452278529E+03  0.00000000000E+00 0. -1.
         21   -1    0    0  501  502  0.00000000000E+00 -0.00000000000E+00 -0.11594527285E+03  0.11594527285E+03  0.00000000000E+00 0. -1.
         24    2    1    2    0    0 -0.45517186637E+02 -0.21374563399E+02  0.10663713812E+03  0.14213334341E+03  0.79383385178E+02 0.  0.
         23    2    1    2    0    0 -0.13300252539E+03 -0.58841068850E+01  0.16070887899E+03  0.22764748730E+03  0.90949107821E+02 0.  0.
        -13    1    3    3    0    0 -0.19831518896E+02  0.26638647948E+02  0.17138510307E+02  0.37371583346E+02  0.00000000000E+00 0.  1.
         14    1    3    3    0    0 -0.25685667741E+02 -0.48013211347E+02  0.89498627811E+02  0.10476176006E+03  0.00000000000E+00 0. -1.
        -13    1    4    4    0    0  0.48659021449E+01 -0.19829423712E+02  0.35162877325E+02  0.40660927070E+02  0.00000000000E+00 0.  1.
         13    1    4    4    0    0 -0.13786842753E+03  0.13945316827E+02  0.12554600166E+03  0.18698656023E+03  0.00000000000E+00 0. -1.
          1    1    1    2  501    0  0.17851971203E+03  0.27258670284E+02  0.61231495338E+02  0.19068722744E+03  0.00000000000E+00 0. -1.
<scales pt_clust_5="13000.00000" pt_clust_6="13000.00000" pt_clust_7="13000.00000" pt_clust_8="13000.00000" pt_clust_9="161.71303"></scales>
<clustering>
<clus scale="   79.383">  5  6 -1 -1</clus>
<clus scale="   90.949">  7  8 -1 -1</clus>
<clus scale="   93.970">  1  5  2 -1</clus>
<clus scale="  161.713">  2  9  1 -1</clus>
<clus scale="  161.713">  2  5  1 -1</clus>
</clustering>
</event>
<event>
 9    2  0.1302972E-004  0.8458694E+02  0.7546771E-02  0.1320026E+00
         -3   -1    0    0    0  501 -0.00000000000E+00  0.00000000000E+00  0.32482179473E+02  0.32482179473E+02  0.00000000000E+00 0.  1.
         21   -1    0    0  501  502  0.00000000000E+00 -0.00000000000E+00 -0.58015510167E+03  0.58015510167E+03  0.00000000000E+00 0.  1.
         23    2    1    2    0    0  0.17243381906E+02  0.10484229478E+02 -0.14829557204E+03  0.16860835541E+03  0.77652736845E+02 0.  0.
         24    2    1    2    0    0 -0.15259868341E+02  0.23072392247E+02 -0.40095922657E+03  0.41037653324E+03  0.82918024551E+02 0.  0.
        -13    1    4    4    0    0 -0.43427974611E+02  0.20861987533E+02 -0.14350828160E+03  0.15137978198E+03  0.00000000000E+00 0.  1.
         14    1    4    4    0    0  0.28168106270E+02  0.22104047137E+01 -0.25745094497E+03  0.25899675126E+03  0.00000000000E+00 0. -1.
        -13    1    3    3    0    0  0.37942478095E+02  0.17876687691E+02 -0.13819368969E+03  0.14441850116E+03  0.00000000000E+00 0.  1.
         13    1    3    3    0    0 -0.20699096189E+02 -0.73924582136E+01 -0.10101882346E+02  0.24189854246E+02  0.00000000000E+00 0. -1.
         -4    1    1    2    0  502 -0.19835135656E+01 -0.33556621724E+02  0.15818764139E+01  0.33652392495E+02  0.00000000000E+00 0.  1.
<scales pt_clust_5="13000.00000" pt_clust_6="13000.00000" pt_clust_7="13000.00000" pt_clust_8="13000.00000" pt_clust_9="33.61521"></scales>
<clustering>
<clus scale="   33.615">  2  9  1 -1</clus>
<clus scale="   77.653">  7  8 -1 -1</clus>
<clus scale="   79.432">  1  7  2 -1</clus>
<clus scale="   82.918">  5  6 -1 -1</clus>
<clus scale="   33.615">  2  5  1 -1</clus>
</clustering>
</event>
<event>
 9    2  0.1302972E-004  0.3293167E+03  0.7546771E-02  0.1119287E+00
         21   -1    0    0  501  502  0.00000000000E+00  0.00000000000E+00  0.69972901659E+03  0.69972901659E+03  0.00000000000E+00 0.  1.
          2   -1    0    0  502    0 -0.00000000000E+00 -0.00000000000E+00 -0.22694040507E+03  0.22694040507E+03  0.00000000000E+00 0. -1.
         23    2    1    2    0    0  0.16515442134E+02 -0.16649235879E+02 -0.37141220616E+02  0.10114755639E+03  0.91112024513E+02 0.  0.
         24    2    1    2    0    0 -0.11838010428E+02 -0.31103523420E+03  0.24881336727E+03  0.40649824002E+03  0.80309849956E+02 0.  0.
        -11    1    4    4    0    0  0.26123385713E+02 -0.20499452814E+03  0.18309879776E+03  0.27609845633E+03  0.00000000000E+00 0.  1.
         12    1    4    4    0    0 -0.37961396141E+02 -0.10604070606E+03  0.65714569505E+02  0.13039978368E+03  0.00000000000E+00 0. -1.
        -11    1    3    3    0    0  0.32845971023E+02  0.26796264664E+02 -0.11344219996E+01  0.42405005903E+02  0.00000000000E+00 0. -1.
         11    1    3    3    0    0 -0.16330528889E+02 -0.43445500543E+02 -0.36006798617E+02  0.58742550488E+02  0.00000000000E+00 0.  1.
          1    1    1    2  501    0 -0.46774317060E+01  0.32768447008E+03  0.26111646486E+03  0.41902362526E+03  0.00000000000E+00 0. -1.
<scales pt_clust_5="13000.00000" pt_clust_6="13000.00000" pt_clust_7="13000.00000" pt_clust_8="13000.00000" pt_clust_9="319.37428"></scales>
<clustering>
<clus scale="   80.310">  5  6 -1 -1</clus>
<clus scale="   91.112">  7  8 -1 -1</clus>
<clus scale="   94.082">  2  7  1 -1</clus>
<clus scale="  319.374">  1  9  2 -1</clus>
<clus scale="  319.374">  1  5  2 -1</clus>
</clustering>
</event>
<event>
 9    2  0.1302972E-004  0.2170932E+03  0.7546771E-02  0.1176749E+00
         21   -1    0    0  501  502  0.00000000000E+00  0.00000000000E+00  0.50012866871E+02  0.50012866871E+02  0.00000000000E+00 0. -1.
          2   -1    0    0  502    0 -0.00000000000E+00 -0.00000000000E+00 -0.12901076326E+04  0.12901076326E+04  0.00000000000E+00 0. -1.
         24    2    1    2    0    0 -0.84901906070E+00 -0.25919743818E+02 -0.31042720613E+03  0.32150869046E+03  0.79562766324E+02 0.  0.
         23    2    1    2    0    0 -0.17633367715E+03 -0.76459006078E+02 -0.48760587540E+03  0.53148384953E+03  0.88181898817E+02 0.  0.
        -13    1    3    3    0    0  0.33122393739E+02  0.63162137497E+01 -0.88775227529E+02  0.94963301048E+02  0.00000000000E+00 0.  1.
         14    1    3    3    0    0 -0.33971412799E+02 -0.32235957568E+02 -0.22165197860E+03  0.22654538941E+03  0.00000000000E+00 0. -1.
        -13    1    4    4    0    0 -0.13390738525E+03 -0.34935540470E+02 -0.41630579844E+03  0.43870513745E+03  0.00000000000E+00 0.  1.
         13    1    4    4    0    0 -0.42426291899E+02 -0.41523465608E+02 -0.71300076966E+02  0.92778712083E+02  0.00000000000E+00 0. -1.
          1    1    1    2  501    0  0.17718269621E+03  0.10237874990E+03 -0.44206168415E+03  0.48712795943E+03  0.00000000000E+00 0. -1.
<scales pt_clust_5="13000.00000" pt_clust_6="13000.00000" pt_clust_7="13000.00000" pt_clust_8="13000.00000" pt_clust_9="198.37697"></scales>
<clustering>
<clus scale="   79.563">  5  6 -1 -1</clus>
<clus scale="   83.683">  2  5  1 -1</clus>
<clus scale="   88.182">  7  8 -1 -1</clus>
<clus scale="  198.377">  1  9  2 -1</clus>
<clus scale="  198.377">  1  5  2 -1</clus>
</clustering>
</event>
<event>
 9    2  0.1302972E-004  0.1383534E+03  0.7546771E-02  0.1218272E+00
         21   -1    0    0  501  502  0.00000000000E+00  0.00000000000E+00  0.11343634171E+03  0.11343634171E+03  0.00000000000E+00 0. -1.
          2   -1    0    0  502    0 -0.00000000000E+00 -0.00000000000E+00 -0.66943602952E+03  0.66943602952E+03  0.00000000000E+00 0. -1.
         24    2    1    2    0    0  0.86475937813E+02  0.48236649724E+02 -0.33133521733E+02  0.13141846854E+03  0.79800510105E+02 0.  0.
         23    2    1    2    0    0 -0.74528561792E+01 -0.13955813834E+03 -0.67504373742E+02  0.18035027966E+03  0.91855124279E+02 0.  0.
        -11    1    3    3    0    0  0.34218126800E+02 -0.12484459476E+01 -0.46974787827E+02  0.58129764410E+02  0.00000000000E+00 0.  1.
         12    1    3    3    0    0  0.52257811013E+02  0.49485095672E+02  0.13841266095E+02  0.73288704127E+02  0.00000000000E+00 0. -1.
        -11    1    4    4    0    0 -0.24152530459E+02 -0.21291159760E+02  0.14660489833E+02  0.35377792097E+02  0.00000000000E+00 0.  1.
         11    1    4    4    0    0  0.16699674280E+02 -0.11826697858E+03 -0.82164863575E+02  0.14497248756E+03  0.00000000000E+00 0. -1.
          1    1    1    2  501    0 -0.79023081634E+02  0.91321488612E+02 -0.45536179234E+03  0.47110362303E+03  0.00000000000E+00 0. -1.
<scales pt_clust_5="13000.00000" pt_clust_6="13000.00000" pt_clust_7="13000.00000" pt_clust_8="13000.00000" pt_clust_9="120.76538"></scales>
<clustering>
<clus scale="   79.801">  5  6 -1 -1</clus>
<clus scale="   91.855">  7  8 -1 -1</clus>
<clus scale="  120.765">  1  9  2 -1</clus>
<clus scale="  130.661">  2  5  1 -1</clus>
<clus scale="  120.765">  1  5  2 -1</clus>
</clustering>
</event>
<event>
 9    2  0.1302972E-004  0.1343311E+03  0.7546771E-02  0.1225221E+00
         -1   -1    0    0    0  501 -0.00000000000E+00  0.00000000000E+00  0.57679828556E+03  0.57679828556E+03  0.00000000000E+00 0.  1.
         21   -1    0    0  501  502  0.00000000000E+00 -0.00000000000E+00 -0.71113028993E+02  0.71113028993E+02  0.00000000000E+00 0.  1.
         23    2    1    2    0    0 -0.13588238892E+02  0.80445965822E+02  0.25175785430E+03  0.28058851271E+03  0.93229301244E+02 0.  0.
         24    2    1    2    0    0  0.13220979992E+02 -0.14870057563E+03  0.91537409862E+02  0.19117134351E+03  0.76685915734E+02 0.  0.
        -11    1    4    4    0    0 -0.11208069907E+02 -0.12369551490E+03  0.94533205429E+02  0.15608564369E+03  0.00000000000E+00 0.  1.
         12    1    4    4    0    0  0.24429049899E+02 -0.25005060730E+02 -0.29957955667E+01  0.35085699824E+02  0.00000000000E+00 0. -1.
        -13    1    3    3    0    0  0.38512471295E+02  0.18619480897E+02  0.95878266211E+02  0.10498827290E+03  0.00000000000E+00 0.  1.
         13    1    3    3    0    0 -0.52100710187E+02  0.61826484925E+02  0.15587958809E+03  0.17560023982E+03  0.00000000000E+00 0. -1.
         -2    1    1    2    0  502  0.36725890078E+00  0.68254609806E+02  0.16238999240E+03  0.17615145833E+03  0.00000000000E+00 0.  1.
<scales pt_clust_5="13000.00000" pt_clust_6="13000.00000" pt_clust_7="13000.00000" pt_clust_8="13000.00000" pt_clust_9="68.25563"></scales>
<clustering>
<clus scale="   68.256">  2  9  1 -1</clus>
<clus scale="   76.686">  5  6 -1 -1</clus>
<clus scale="   93.229">  7  8 -1 -1</clus>
<clus scale="  123.426">  2  5  1 -1</clus>
<clus scale="   68.256">  2  5  1 -1</clus>
</clustering>
</event>
<event>
 9    2  0.1302972E-004  0.1081864E+03  0.7546771E-02  0.1267870E+00
         21   -1    0    0  501  502  0.00000000000E+00  0.00000000000E+00  0.39421600346E+03  0.39421600346E+03  0.00000000000E+00 0. -1.
          2   -1    0    0  502    0 -0.00000000000E+00 -0.00000000000E+00 -0.13773716598E+03  0.13773716598E+03  0.00000000000E+00 0. -1.
         24    2    1    2    0    0  0.28329366361E+02  0.43813656263E+02 -0.66623586884E+02  0.11780659324E+03  0.81960366079E+02 0.  0.
         23    2    1    2    0    0 -0.12313231905E+03 -0.26951089214E+02  0.15093334022E+03  0.21687990506E+03  0.91477269452E+02 0.  0.
        -11    1    3    3    0    0  0.19540987822E+02 -0.18674521206E+02 -0.14181890208E+01  0.27066569924E+02  0.00000000000E+00 0.  1.
         12    1    3    3    0    0  0.87883785385E+01  0.62488177469E+02 -0.65205397864E+02  0.90740023315E+02  0.00000000000E+00 0. -1.
        -13    1    4    4    0    0 -0.10008159277E+03 -0.49011822353E+02  0.14739162391E+03  0.18477763594E+03  0.00000000000E+00 0. -1.
         13    1    4    4    0    0 -0.23050726282E+02  0.22060733139E+02  0.35417163012E+01  0.32102269127E+02  0.00000000000E+00 0.  1.
          1    1    1    2  501    0  0.94802952691E+02 -0.16862567049E+02  0.17216908414E+03  0.19726667114E+03  0.00000000000E+00 0. -1.
<scales pt_clust_5="13000.00000" pt_clust_6="13000.00000" pt_clust_7="13000.00000" pt_clust_8="13000.00000" pt_clust_9="96.29094"></scales>
<clustering>
<clus scale="   81.960">  5  6 -1 -1</clus>
<clus scale="   91.477">  7  8 -1 -1</clus>
<clus scale="   96.291">  1  9  2 -1</clus>
<clus scale="  100.268">  2  5  1 -1</clus>
<clus scale="   96.291">  1  5  2 -1</clus>
</clustering>
</event>
<event>
 9    2  0.1302972E-004  0.1045201E+03  0.7546771E-02  0.1276683E+00
         21   -1    0    0  501  502  0.00000000000E+00  0.00000000000E+00  0.20027288766E+03  0.20027288766E+03  0.00000000000E+00 0.  1.
         -3   -1    0    0    0  501 -0.00000000000E+00 -0.00000000000E+00 -0.18026044060E+03  0.18026044060E+03  0.00000000000E+00 0.  1.
         24    2    1    2    0    0  0.53371282463E+02 -0.27846671055E+02 -0.43266645335E+02  0.10834132151E+03  0.79005749589E+02 0.  0.
         23    2    1    2    0    0  0.79256764926E+01  0.22427523717E+02  0.14305243619E+03  0.17144246225E+03  0.91447844132E+02 0.  0.
        -13    1    3    3    0    0  0.38949630548E+01 -0.36479407789E+02  0.69275300307E+01  0.37335085404E+02  0.00000000000E+00 0.  1.
         14    1    3    3    0    0  0.49476319408E+02  0.86327367337E+01 -0.50194175366E+02  0.71006236109E+02  0.00000000000E+00 0. -1.
        -13    1    4    4    0    0  0.10234257644E+02  0.56141053305E+02  0.11127949293E+03  0.12505871998E+03  0.00000000000E+00 0.  1.
         13    1    4    4    0    0 -0.23085811516E+01 -0.33713529588E+02  0.31772943256E+02  0.46383742275E+02  0.00000000000E+00 0. -1.
         -4    1    1    2    0  502 -0.61296958955E+02  0.54191473387E+01 -0.79773343795E+02  0.10074954449E+03  0.00000000000E+00 0.  1.
<scales pt_clust_5="13000.00000" pt_clust_6="13000.00000" pt_clust_7="13000.00000" pt_clust_8="13000.00000" pt_clust_9="61.53607"></scales>
<clustering>
<clus scale="   61.536">  1  9  2 -1</clus>
<clus scale="   79.006">  5  6 -1 -1</clus>
<clus scale="   91.448">  7  8 -1 -1</clus>
<clus scale="   93.828">  2  5  1 -1</clus>
<clus scale="   61.536">  1  5  2 -1</clus>
</clustering>
</event>
<event>
 9    2  0.1302972E-004  0.1328805E+03  0.7546771E-02  0.1225871E+00
          4   -1    0    0  502    0 -0.00000000000E+00  0.00000000000E+00  0.79199975509E+02  0.79199975509E+02  0.00000000000E+00 0. -1.
         21   -1    0    0  501  502  0.00000000000E+00 -0.00000000000E+00 -0.30637491689E+03  0.30637491689E+03  0.00000000000E+00 0. -1.
         23    2    1    2    0    0 -0.70983745792E+02 -0.67304943868E+02 -0.87157770380E+02  0.16037966162E+03  0.92501412350E+02 0.  0.
         24    2    1    2    0    0  0.31221769991E+02  0.93852316248E+02 -0.10506315914E+03  0.16597056831E+03  0.82005523900E+02 0.  0.
        -13    1    4    4    0    0  0.35094365107E+02  0.16375833261E+01 -0.19848289798E+02  0.40351589179E+02  0.00000000000E+00 0.  1.
         14    1    4    4    0    0 -0.38725951153E+01  0.92214732922E+02 -0.85214869345E+02  0.12561897913E+03  0.00000000000E+00 0. -1.
        -11    1    3    3    0    0 -0.33936085065E+02 -0.64327545960E+02 -0.97651054078E+02  0.12175967888E+03  0.00000000000E+00 0.  1.
         11    1    3    3    0    0 -0.37047660727E+02 -0.29773979080E+01  0.10493283698E+02  0.38619982734E+02  0.00000000000E+00 0. -1.
          3    1    1    2  501    0  0.39761975800E+02 -0.26547372380E+02 -0.34954011855E+02  0.59224662469E+02  0.00000000000E+00 0. -1.
<scales pt_clust_5="13000.00000" pt_clust_6="13000.00000" pt_clust_7="13000.00000" pt_clust_8="13000.00000" pt_clust_9="47.80981"></scales>
<clustering>
<clus scale="   47.810">  2  9  1 -1</clus>
<clus scale="   82.006">  5  6 -1 -1</clus>
<clus scale="   92.501">  7  8 -1 -1</clus>
<clus scale="  125.800">  2  5  1 -1</clus>
<clus scale="   47.810">  2  5  1 -1</clus>
</clustering>
</event>
<event>
 9    2  0.1302972E-004  0.2527548E+03  0.7546771E-02  0.1112465E+00
         21   -1    0    0  501  502  0.00000000000E+00  0.00000000000E+00  0.75676088229E+02  0.75676088229E+02  0.00000000000E+00 0. -1.
          2   -1    0    0  502    0 -0.00000000000E+00 -0.00000000000E+00 -0.11893853514E+04  0.11893853514E+04  0.00000000000E+00 0. -1.
         23    2    1    2    0    0 -0.29688008248E+02  0.19125236554E+03 -0.30769046429E+03  0.37457676289E+03  0.90418384876E+02 0.  0.
         24    2    1    2    0    0  0.48274428867E+02 -0.27569259621E+03 -0.57185876426E+03  0.64087191785E+03  0.73195223468E+02 0.  0.
        -11    1    4    4    0    0  0.25608553425E+02 -0.35495464367E+02 -0.13367956601E+03  0.14066254785E+03  0.00000000000E+00 0.  1.
         12    1    4    4    0    0  0.22665875442E+02 -0.24019713184E+03 -0.43817919825E+03  0.50020937000E+03  0.00000000000E+00 0. -1.
        -11    1    3    3    0    0  0.29883635407E+02  0.39382317508E+02 -0.56668053736E+02  0.75201508706E+02  0.00000000000E+00 0.  1.
         11    1    3    3    0    0 -0.59571643655E+02  0.15187004803E+03 -0.25102241056E+03  0.29937525419E+03  0.00000000000E+00 0. -1.
          1    1    1    2  501    0 -0.18586420619E+02  0.84440230672E+02 -0.23416003460E+03  0.24961275887E+03  0.00000000000E+00 0. -1.
<scales pt_clust_5="13000.00000" pt_clust_6="13000.00000" pt_clust_7="13000.00000" pt_clust_8="13000.00000" pt_clust_9="86.46164"></scales>
<clustering>
<clus scale="   73.195">  5  6 -1 -1</clus>
<clus scale="   86.462">  1  9  2 -1</clus>
<clus scale="   90.418">  7  8 -1 -1</clus>
<clus scale="  247.117">  1  5  2 -1</clus>
<clus scale="   86.462">  1  5  2 -1</clus>
</clustering>
</event>
<event>
 9    2  0.1302972E-004  0.1022471E+03  0.7546771E-02  0.1281454E+00
         21   -1    0    0  501  502  0.00000000000E+00  0.00000000000E+00  0.99105721834E+02  0.99105721834E+02  0.00000000000E+00 0. -1.
          2   -1    0    0  502    0 -0.00000000000E+00 -0.00000000000E+00 -0.22257168651E+03  0.22257168651E+03  0.00000000000E+00 0. -1.
         24    2    1    2    0    0 -0.26065960630E+01  0.24237388998E+02 -0.81467878023E+02  0.11840362614E+03  0.82390279548E+02 0.  0.
         23    2    1    2    0    0  0.56486260593E+02 -0.54128558709E+02 -0.63624505528E+02  0.13797292257E+03  0.94169268629E+02 0.  0.
        -11    1    3    3    0    0  0.12971845917E+02  0.50092022116E+02 -0.67743697841E+02  0.85244871185E+02  0.00000000000E+00 0.  1.
         12    1    3    3    0    0 -0.15578441980E+02 -0.25854633118E+02 -0.13724180182E+02  0.33158754950E+02  0.00000000000E+00 0. -1.
        -11    1    4    4    0    0  0.52420558708E+01 -0.54635624467E+02  0.17401768048E+01  0.54914104071E+02  0.00000000000E+00 0.  1.
         11    1    4    4    0    0  0.51244204723E+02  0.50706575743E+00 -0.65364682333E+02  0.83058818495E+02  0.00000000000E+00 0. -1.
          1    1    1    2  501    0 -0.53879664530E+02  0.29891169711E+02  0.21626418875E+02  0.65300859642E+02  0.00000000000E+00 0. -1.
<scales pt_clust_5="13000.00000" pt_clust_6="13000.00000" pt_clust_7="13000.00000" pt_clust_8="13000.00000" pt_clust_9="61.61575"></scales>
<clustering>
<clus scale="   61.616">  1  9  2 -1</clus>
<clus scale="   82.390">  5  6 -1 -1</clus>
<clus scale="   91.514">  2  5  1 -1</clus>
<clus scale="   94.169">  7  8 -1 -1</clus>
<clus scale="   61.616">  1  5  2 -1</clus>
</clustering>
</event>
<event>
 9    2  0.1302972E-004  0.3225703E+03  0.7546771E-02  0.1074922E+00
         21   -1    0    0  501  502  0.00000000000E+00  0.00000000000E+00  0.48076627688E+02  0.48076627688E+02  0.00000000000E+00 0.  1.
          2   -1    0    0  502    0 -0.00000000000E+00 -0.00000000000E+00 -0.26663029517E+04  0.26663029517E+04  0.00000000000E+00 0. -1.
         24    2    1    2    0    0 -0.23045345453E+03  0.18506140829E+03 -0.13292329315E+04  0.13641407325E+04  0.81628623826E+02 0.  0.
         23    2    1    2    0    0  0.28131339301E+03 -0.17181443299E+03 -0.10216523838E+04  0.10777807205E+04  0.95813692990E+02 0.  0.
        -11    1    3    3    0    0 -0.12695248004E+03  0.86343932017E+02 -0.85984432608E+03  0.87344402905E+03  0.00000000000E+00 0.  1.
         12    1    3    3    0    0 -0.10350097449E+03  0.98717476277E+02 -0.46938860542E+03  0.49069670342E+03  0.00000000000E+00 0. -1.
        -13    1    4    4    0    0  0.18267560235E+03 -0.15521649639E+03 -0.64607298325E+03  0.68911017706E+03  0.00000000000E+00 0.  1.
         13    1    4    4    0    0  0.98637790666E+02 -0.16597936594E+02 -0.37557940056E+03  0.38867054348E+03  0.00000000000E+00 0. -1.
          1    1    1    2  501    0 -0.50859938481E+02 -0.13246975306E+02 -0.26734100868E+03  0.27245812636E+03  0.00000000000E+00 0. -1.
<scales pt_clust_5="13000.00000" pt_clust_6="13000.00000" pt_clust_7="13000.00000" pt_clust_8="13000.00000" pt_clust_9="52.55681"></scales>
<clustering>
<clus scale="   52.557">  1  9  2 -1</clus>
<clus scale="   81.629">  5  6 -1 -1</clus>
<clus scale="   95.814">  7  8 -1 -1</clus>
<clus scale="  318.645">  2  5  1 -1</clus>
<clus scale="   52.557">  1  5  2 -1</clus>
</clustering>
</event>
<event>
 9    2  0.1302972E-004  0.4711517E+03  0.7546771E-02  0.1021718E+00
          2   -1    0    0  502    0 -0.00000000000E+00  0.00000000000E+00  0.28180678622E+03  0.28180678622E+03  0.00000000000E+00 0. -1.
         21   -1    0    0  501  502  0.00000000000E+00 -0.00000000000E+00 -0.87227333806E+03  0.87227333806E+03  0.00000000000E+00 0.  1.
         24    2    1    2    0    0  0.27571203642E+02  0.45251332999E+03 -0.23437199451E+03  0.51674950119E+03  0.81063740839E+02 0.  0.
         23    2    1    2    0    0 -0.32626252582E+02 -0.47304060467E+03 -0.37316753712E+03  0.61015693793E+03  0.90584723417E+02 0.  0.
        -11    1    3    3    0    0 -0.23632563208E+02  0.89387245019E+02 -0.63582122838E+02  0.11221080144E+03  0.00000000000E+00 0.  1.
         12    1    3    3    0    0  0.51203766850E+02  0.36312608497E+03 -0.17078987168E+03  0.40453869975E+03  0.00000000000E+00 0. -1.
        -13    1    4    4    0    0 -0.83298333470E+01 -0.78538656538E+02 -0.23408165904E+02  0.82375050382E+02  0.00000000000E+00 0. -1.
         13    1    4    4    0    0 -0.24296419235E+02 -0.39450194813E+03 -0.34975937122E+03  0.52778188755E+03  0.00000000000E+00 0.  1.
          1    1    1    2  501    0  0.50550489402E+01  0.20527274680E+02  0.17072979800E+02  0.27173685154E+02  0.00000000000E+00 0. -1.
<scales pt_clust_5="13000.00000" pt_clust_6="13000.00000" pt_clust_7="13000.00000" pt_clust_8="13000.00000" pt_clust_9="21.14055"></scales>
<clustering>
<clus scale="   21.141">  2  9  1 -1</clus>
<clus scale="   81.064">  5  6 -1 -1</clus>
<clus scale="   90.585">  7  8 -1 -1</clus>
<clus scale="  469.414">  1  5  2 -1</clus>
<clus scale="   21.141">  2  5  1 -1</clus>
</clustering>
</event>
<event>
 9    2  0.1302972E-004  0.1156127E+03  0.7546771E-02  0.1253641E+00
         21   -1    0    0  501  502  0.00000000000E+00  0.00000000000E+00  0.29186159058E+02  0.29186159058E+02  0.00000000000E+00 0. -1.
          2   -1    0    0  502    0 -0.00000000000E+00 -0.00000000000E+00 -0.99981697178E+03  0.99981697178E+03  0.00000000000E+00 0. -1.
         23    2    1    2    0    0  0.87713803614E+02 -0.39613205422E+02 -0.48573437106E+03  0.50316410529E+03  0.89293450137E+02 0.  0.
         24    2    1    2    0    0 -0.40733150339E+02 -0.23950941294E+02 -0.11642549205E+03  0.14898570762E+03  0.80056284878E+02 0.  0.
        -13    1    4    4    0    0 -0.24446336072E+02  0.86744630942E+01 -0.10864685195E+03  0.11170052862E+03  0.00000000000E+00 0.  1.
         14    1    4    4    0    0 -0.16286814267E+02 -0.32625404388E+02 -0.77786401081E+01  0.37285178991E+02  0.00000000000E+00 0. -1.
        -13    1    3    3    0    0 -0.16255541867E+01 -0.38924254996E+02 -0.10251107645E+03  0.10966430982E+03  0.00000000000E+00 0.  1.
         13    1    3    3    0    0  0.89339357800E+02 -0.68895042579E+00 -0.38322329461E+03  0.39349979547E+03  0.00000000000E+00 0. -1.
          1    1    1    2  501    0 -0.46980653274E+02  0.63564146716E+02 -0.36847094961E+03  0.37685331794E+03  0.00000000000E+00 0. -1.
<scales pt_clust_5="13000.00000" pt_clust_6="13000.00000" pt_clust_7="13000.00000" pt_clust_8="13000.00000" pt_clust_9="79.04169"></scales>
<clustering>
<clus scale="   79.042">  1  9  2 -1</clus>
<clus scale="   80.056">  5  6 -1 -1</clus>
<clus scale="   89.293">  7  8 -1 -1</clus>
<clus scale="  108.637">  1  5  2 -1</clus>
<clus scale="   79.042">  1  5  2 -1</clus>
</clustering>
</event>
<event>
 9    2  0.1302972E-004  0.4492168E+03  0.7546771E-02  0.1028150E+00
          2   -1    0    0  502    0 -0.00000000000E+00  0.00000000000E+00  0.18945603557E+04  0.18945603557E+04  0.00000000000E+00 0. -1.
         21   -1    0    0  501  502  0.00000000000E+00 -0.00000000000E+00 -0.14168591016E+03  0.14168591016E+03  0.00000000000E+00 0. -1.
         23    2    1    2    0    0  0.29395301035E+03  0.39698461908E+03  0.99220012018E+03  0.11121028962E+04  0.91140622666E+02 0.  0.
         24    2    1    2    0    0 -0.17478222806E+03 -0.34578269854E+03  0.57199236388E+03  0.69518006562E+03  0.77366384508E+02 0.  0.
        -11    1    4    4    0    0 -0.90397709738E+02 -0.13363812713E+03  0.18152211639E+03  0.24286039959E+03  0.00000000000E+00 0.  1.
         12    1    4    4    0    0 -0.84384518325E+02 -0.21214457140E+03  0.39047024749E+03  0.45231966603E+03  0.00000000000E+00 0. -1.
        -13    1    3    3    0    0  0.27924992535E+02  0.55759093255E+02  0.71959194853E+02  0.95220834971E+02  0.00000000000E+00 0.  1.
         13    1    3    3    0    0  0.26602801782E+03  0.34122552582E+03  0.92024092533E+03  0.10168820612E+04  0.00000000000E+00 0. -1.
          1    1    1    2  501    0 -0.11917078229E+03 -0.51201920543E+02  0.18868196144E+03  0.22896330403E+03  0.00000000000E+00 0. -1.
<scales pt_clust_5="13000.00000" pt_clust_6="13000.00000" pt_clust_7="13000.00000" pt_clust_8="13000.00000" pt_clust_9="129.70471"></scales>
<clustering>
<clus scale="   77.366">  5  6 -1 -1</clus>
<clus scale="   91.141">  7  8 -1 -1</clus>
<clus scale="  129.705">  2  9  1 -1</clus>
<clus scale="  446.626">  2  5  1 -1</clus>
<clus scale="  129.705">  2  5  1 -1</clus>
</clustering>
</event>
<event>
 9    2  0.1302972E-004  0.1194738E+03  0.7546771E-02  0.1248163E+00
         -3   -1    0    0    0  501 -0.00000000000E+00  0.00000000000E+00  0.25507835316E+03  0.25507835316E+03  0.00000000000E+00 0.  1.
         21   -1    0    0  501  502  0.00000000000E+00 -0.00000000000E+00 -0.79637045681E+02  0.79637045681E+02  0.00000000000E+00 0. -1.
         24    2    1    2    0    0 -0.83905163093E+02  0.54166534937E+02  0.10751184214E+03  0.16605184703E+03  0.77719558673E+02 0.  0.
         23    2    1    2    0    0  0.48048794932E+02 -0.19748080995E+02  0.45102127614E+02  0.11396989169E+03  0.90863969206E+02 0.  0.
        -13    1    3    3    0    0 -0.91387541780E+02  0.61335622562E+02  0.78344738915E+02  0.13509862880E+03  0.00000000000E+00 0.  1.
         14    1    3    3    0    0  0.74823786872E+01 -0.71690876251E+01  0.29167103225E+02  0.30953218229E+02  0.00000000000E+00 0. -1.
        -11    1    4    4    0    0  0.70499871128E+02 -0.53457387108E+01  0.12420438871E+02  0.71784929151E+02  0.00000000000E+00 0. -1.
         11    1    4    4    0    0 -0.22451076196E+02 -0.14402342284E+02  0.32681688743E+02  0.42184962543E+02  0.00000000000E+00 0.  1.
         -4    1    1    2    0  502  0.35856368161E+02 -0.34418453942E+02  0.22827337722E+02  0.54693660116E+02  0.00000000000E+00 0.  1.
<scales pt_clust_5="13000.00000" pt_clust_6="13000.00000" pt_clust_7="13000.00000" pt_clust_8="13000.00000" pt_clust_9="49.70220"></scales>
<clustering>
<clus scale="   49.702">  2  9  1 -1</clus>
<clus scale="   77.720">  5  6 -1 -1</clus>
<clus scale="   90.864">  7  8 -1 -1</clus>
<clus scale="  109.809">  1  5  2 -1</clus>
<clus scale="   49.702">  2  5  1 -1</clus>
</clustering>
</event>
<event>
 9    2  0.1302972E-004  0.9981694E+02  0.7546771E-02  0.1289652E+00
          2   -1    0    0  502    0 -0.00000000000E+00  0.00000000000E+00  0.60130237613E+02  0.60130237613E+02  0.00000000000E+00 0. -1.
         21   -1    0    0  501  502  0.00000000000E+00 -0.00000000000E+00 -0.34117773734E+03  0.34117773734E+03  0.00000000000E+00 0.  1.
         24    2    1    2    0    0 -0.38516053414E+01  0.14216346576E+02 -0.45253799409E+00  0.84128354073E+02  0.82827747735E+02 0.  0.
         23    2    1    2    0    0  0.40704725980E+02 -0.19575700929E+01 -0.22868142941E+03  0.25234564106E+03  0.98602330627E+02 0.  0.
        -11    1    3    3    0    0  0.28285872551E+02  0.33072367844E+02 -0.11958005054E+02  0.45131651705E+02  0.00000000000E+00 0.  1.
         12    1    3    3    0    0 -0.32137477892E+02 -0.18856021268E+02  0.11505467060E+02  0.38996702368E+02  0.00000000000E+00 0. -1.
        -11    1    4    4    0    0  0.11912007554E+02  0.46420163030E+02 -0.78666443050E+02  0.92114801861E+02  0.00000000000E+00 0. -1.
         11    1    4    4    0    0  0.28792718427E+02 -0.48377733123E+02 -0.15001498636E+03  0.16023083920E+03  0.00000000000E+00 0.  1.
          1    1    1    2  501    0 -0.36853120639E+02 -0.12258776483E+02 -0.51913532324E+02  0.64833979826E+02  0.00000000000E+00 0. -1.
<scales pt_clust_5="13000.00000" pt_clust_6="13000.00000" pt_clust_7="13000.00000" pt_clust_8="13000.00000" pt_clust_9="38.83851"></scales>
<clustering>
<clus scale="   38.839">  2  9  1 -1</clus>
<clus scale="   82.828">  5  6 -1 -1</clus>
<clus scale="   84.270">  1  5  2 -1</clus>
<clus scale="   98.602">  7  8 -1 -1</clus>
<clus scale="   38.839">  2  5  1 -1</clus>
</clustering>
</event>
<event>
 9    2  0.1302972E-004  0.1716410E+03  0.7546771E-02  0.1197056E+00
          2   -1    0    0  502    0 -0.00000000000E+00  0.00000000000E+00  0.98931544496E+03  0.98931544496E+03  0.00000000000E+00 0. -1.
         21   -1    0    0  501  502  0.00000000000E+00 -0.00000000000E+00 -0.92131297310E+02  0.92131297310E+02  0.00000000000E+00 0. -1.
         24    2    1    2    0    0  0.45432303369E+02  0.19779639752E+00  0.71003918635E+03  0.71818250756E+03  0.97807641303E+02 0.  0.
         23    2    1    2    0    0 -0.44993004124E+00  0.12925710268E+03  0.74486708184E+02  0.18585547844E+03  0.11084398107E+03 0.  0.
        -11    1    3    3    0    0  0.13702538911E+02  0.46761271198E+02  0.24991350665E+03  0.25461959245E+03  0.00000000000E+00 0.  1.
         12    1    3    3    0    0  0.31729764458E+02 -0.46563474801E+02  0.46012567971E+03  0.46356291511E+03  0.00000000000E+00 0. -1.
        -11    1    4    4    0    0 -0.14851206687E+02 -0.17253219830E+02  0.63377054477E+01  0.23630455876E+02  0.00000000000E+00 0.  1.
         11    1    4    4    0    0  0.14401276646E+02  0.14651032251E+03  0.68149002736E+02  0.16222502256E+03  0.00000000000E+00 0. -1.
          1    1    1    2  501    0 -0.44982373328E+02 -0.12945489908E+03  0.11265825311E+03  0.17740875627E+03  0.00000000000E+00 0. -1.
<scales pt_clust_5="13000.00000" pt_clust_6="13000.00000" pt_clust_7="13000.00000" pt_clust_8="13000.00000" pt_clust_9="131.05063"></scales>
<clustering>
<clus scale="   97.808">  5  6 -1 -1</clus>
<clus scale="  107.845">  1  5  2 -1</clus>
<clus scale="  110.844">  7  8 -1 -1</clus>
<clus scale="  131.051">  2  9  1 -1</clus>
<clus scale="  131.051">  2  5  1 -1</clus>
</clustering>
</event>
<event>
 9    2  0.1302972E-004  0.1008975E+03  0.7546771E-02  0.1280034E+00
         -1   -1    0    0    0  501 -0.00000000000E+00  0.00000000000E+00  0.34476361112E+03  0.34476361112E+03  0.00000000000E+00 0.  1.
         21   -1    0    0  501  502  0.00000000000E+00 -0.00000000000E+00 -0.10245186510E+03  0.10245186510E+03  0.00000000000E+00 0.  1.
         23    2    1    2    0    0  0.38177393153E+02 -0.46058728161E+02  0.13618483108E+03  0.17111922819E+03  0.84596467130E+02 0.  0.
         24    2    1    2    0    0 -0.63458309482E+02 -0.16877340247E+02 -0.42637498686E+02  0.11260030253E+03  0.80926325628E+02 0.  0.
        -13    1    4    4    0    0 -0.62537857860E+02 -0.37757109614E+02 -0.52030047777E+02  0.89686726240E+02  0.00000000000E+00 0.  1.
         14    1    4    4    0    0 -0.92045162222E+00  0.20879769367E+02  0.93925490907E+01  0.22913576290E+02  0.00000000000E+00 0. -1.
        -11    1    3    3    0    0  0.30760534650E+02 -0.68142733279E+02  0.12408545139E+03  0.14486836037E+03  0.00000000000E+00 0.  1.
         11    1    3    3    0    0  0.74168585029E+01  0.22084005118E+02  0.12099379695E+02  0.26250867816E+02  0.00000000000E+00 0. -1.
         -2    1    1    2    0  502  0.25280916329E+02  0.62936068408E+02  0.14876441362E+03  0.16349594550E+03  0.00000000000E+00 0.  1.
<scales pt_clust_5="13000.00000" pt_clust_6="13000.00000" pt_clust_7="13000.00000" pt_clust_8="13000.00000" pt_clust_9="67.82388"></scales>
<clustering>
<clus scale="   67.824">  2  9  1 -1</clus>
<clus scale="   80.926">  5  6 -1 -1</clus>
<clus scale="   84.596">  7  8 -1 -1</clus>
<clus scale="   97.841">  2  5  1 -1</clus>
<clus scale="   67.824">  2  5  1 -1</clus>
</clustering>
</event>
<event>
 9    2  0.1302972E-004  0.3779228E+03  0.7546771E-02  0.1082048E+00
          2   -1    0    0  502    0 -0.00000000000E+00  0.00000000000E+00  0.49180120955E+03  0.49180120955E+03  0.00000000000E+00 0. -1.
         21   -1    0    0  501  502  0.00000000000E+00 -0.00000000000E+00 -0.70744175841E+03  0.70744175841E+03  0.00000000000E+00 0. -1.
         23    2    1    2    0    0  0.12623040103E+01  0.14768653509E+03 -0.36162318767E+03  0.39684495433E+03  0.70012012224E+02 0.  0.
         24    2    1    2    0    0 -0.28894204906E+03 -0.32499191465E+03  0.14138621664E+03  0.46443653589E+03  0.81264883645E+02 0.  0.
        -13    1    4    4    0    0 -0.24284087639E+03 -0.22135919505E+03  0.11343347533E+03  0.34761866723E+03  0.00000000000E+00 0.  1.
         14    1    4    4    0    0 -0.46101172670E+02 -0.10363271959E+03  0.27952741308E+02  0.11681786866E+03  0.00000000000E+00 0. -1.
        -13    1    3    3    0    0 -0.31729797942E+02  0.75752235597E+02 -0.15179817933E+03  0.17259162356E+03  0.00000000000E+00 0.  1.
         13    1    3    3    0    0  0.32992101953E+02  0.71934299494E+02 -0.20982500834E+03  0.22425333077E+03  0.00000000000E+00 0. -1.
          1    1    1    2  501    0  0.28767974505E+03  0.17730537956E+03  0.45964221797E+01  0.33796147773E+03  0.00000000000E+00 0. -1.
<scales pt_clust_5="13000.00000" pt_clust_6="13000.00000" pt_clust_7="13000.00000" pt_clust_8="13000.00000" pt_clust_9="369.08223"></scales>
<clustering>
<clus scale="   70.012">  7  8 -1 -1</clus>
<clus scale="   81.265">  5  6 -1 -1</clus>
<clus scale="  163.446">  1  7  2 -1</clus>
<clus scale="  369.082">  2  9  1 -1</clus>
<clus scale="  369.082">  2  5  1 -1</clus>
</clustering>
</event>
<event>
 9    2  0.1302972E-004  0.1016562E+03  0.7546771E-02  0.1282602E+00
          2   -1    0    0  502    0 -0.00000000000E+00  0.00000000000E+00  0.23994904517E+03  0.23994904517E+03  0.00000000000E+00 0. -1.
         21   -1    0    0  501  502  0.00000000000E+00 -0.00000000000E+00 -0.14565372675E+03  0.14565372675E+03  0.00000000000E+00 0. -1.
         24    2    1    2    0    0 -0.33939350185E+02  0.32624695791E+02  0.16313108414E+03  0.18705478997E+03  0.78495181850E+02 0.  0.
         23    2    1    2    0    0  0.20697323929E+01 -0.55292785981E+02  0.13935694366E+02  0.10700220402E+03  0.90519015205E+02 0.  0.
        -11    1    3    3    0    0 -0.47050909291E+02 -0.78881332576E+01  0.70748035913E+02  0.85330506250E+02  0.00000000000E+00 0.  1.
         12    1    3    3    0    0  0.13111559106E+02  0.40512829048E+02  0.92383048223E+02  0.10172428372E+03  0.00000000000E+00 0. -1.
        -11    1    4    4    0    0 -0.34433672997E+02 -0.58842964076E+02  0.12317150136E+01  0.68188630864E+02  0.00000000000E+00 0. -1.
         11    1    4    4    0    0  0.36503405390E+02  0.35501780943E+01  0.12703979353E+02  0.38813573154E+02  0.00000000000E+00 0.  1.
          1    1    1    2  501    0  0.31869617793E+02  0.22668090191E+02 -0.82771460087E+02  0.91545777926E+02  0.00000000000E+00 0. -1.
<scales pt_clust_5="13000.00000" pt_clust_6="13000.00000" pt_clust_7="13000.00000" pt_clust_8="13000.00000" pt_clust_9="39.10901"></scales>
<clustering>
<clus scale="   39.109">  2  9  1 -1</clus>
<clus scale="   78.495">  5  6 -1 -1</clus>
<clus scale="   90.519">  7  8 -1 -1</clus>
<clus scale="   91.114">  1  5  2 -1</clus>
<clus scale="   39.109">  2  5  1 -1</clus>
</clustering>
</event>
<event>
 9    2  0.1302972E-004  0.3550299E+03  0.7546771E-02  0.1060871E+00
         21   -1    0    0  501  502  0.00000000000E+00  0.00000000000E+00  0.33745413830E+03  0.33745413830E+03  0.00000000000E+00 0.  1.
          2   -1    0    0  502    0 -0.00000000000E+00 -0.00000000000E+00 -0.70197335973E+03  0.70197335973E+03  0.00000000000E+00 0. -1.
         23    2    1    2    0    0 -0.16202834906E+03  0.31653616441E+03 -0.48630115888E+03  0.60936220622E+03  0.91570475394E+02 0.  0.
         24    2    1    2    0    0  0.20052603668E+03 -0.23497904039E+03  0.71576504759E+02  0.32684600144E+03  0.79241856469E+02 0.  0.
        -11    1    4    4    0    0  0.19168924405E+03 -0.19383636219E+03  0.79624379777E+02  0.28400236521E+03  0.00000000000E+00 0.  1.
         12    1    4    4    0    0  0.88367926359E+01 -0.41142678197E+02 -0.80478750173E+01  0.42843636232E+02  0.00000000000E+00 0. -1.
        -13    1    3    3    0    0 -0.79531800642E+02  0.10529478837E+03 -0.11897946384E+03  0.17767501959E+03  0.00000000000E+00 0.  1.
         13    1    3    3    0    0 -0.82496548418E+02  0.21124137603E+03 -0.36732169505E+03  0.43168718663E+03  0.00000000000E+00 0. -1.
          1    1    1    2  501    0 -0.38497687622E+02 -0.81557124021E+02  0.50205432702E+02  0.10321929037E+03  0.00000000000E+00 0. -1.
<scales pt_clust_5="13000.00000" pt_clust_6="13000.00000" pt_clust_7="13000.00000" pt_clust_8="13000.00000" pt_clust_9="90.18668"></scales>
<clustering>
<clus scale="   79.242">  5  6 -1 -1</clus>
<clus scale="   90.187">  1  9  2 -1</clus>
<clus scale="   91.570">  7  8 -1 -1</clus>
<clus scale="  352.052">  1  5  2 -1</clus>
<clus scale="   90.187">  1  5  2 -1</clus>
</clustering>
</event>
<event>
 9    2  0.1302972E-004  0.1523386E+03  0.7546771E-02  0.1201148E+00
         21   -1    0    0  501  502  0.00000000000E+00  0.00000000000E+00  0.84971654849E+02  0.84971654849E+02  0.00000000000E+00 0. -1.
          2   -1    0    0  502    0 -0.00000000000E+00 -0.00000000000E+00 -0.60475904630E+03  0.60475904630E+03  0.00000000000E+00 0. -1.
         23    2    1    2    0    0  0.12797339147E+03  0.22053671241E+02 -0.48018489963E+03  0.50563785781E+03  0.90711366876E+02 0.  0.
         24    2    1    2    0    0 -0.99351782064E+02 -0.20232817939E+02 -0.70385553479E+02  0.14202018100E+03  0.70252844430E+02 0.  0.
        -13    1    4    4    0    0 -0.64784522082E+02 -0.14404211592E+02 -0.81631176589E+02  0.10520534494E+03  0.00000000000E+00 0.  1.
         14    1    4    4    0    0 -0.34567259983E+02 -0.58286063464E+01  0.11245623109E+02  0.36814836055E+02  0.00000000000E+00 0. -1.
        -13    1    3    3    0    0  0.51579851112E+02 -0.26177420539E+02 -0.10657740114E+03  0.12126203372E+03  0.00000000000E+00 0.  1.
         13    1    3    3    0    0  0.76393540355E+02  0.48231091780E+02 -0.37360749849E+03  0.38437582409E+03  0.00000000000E+00 0. -1.
          1    1    1    2  501    0 -0.28621609403E+02 -0.18208533023E+01  0.30783061657E+02  0.42072662342E+02  0.00000000000E+00 0. -1.
<scales pt_clust_5="13000.00000" pt_clust_6="13000.00000" pt_clust_7="13000.00000" pt_clust_8="13000.00000" pt_clust_9="28.67947"></scales>
<clustering>
<clus scale="   28.679">  1  9  2 -1</clus>
<clus scale="   70.253">  5  6 -1 -1</clus>
<clus scale="   90.711">  7  8 -1 -1</clus>
<clus scale="  141.117">  1  5  2 -1</clus>
<clus scale="   28.679">  1  5  2 -1</clus>
</clustering>
</event>
<event>
 9    2  0.1302972E-004  0.1301508E+03  0.7546771E-02  0.1229557E+00
         21   -1    0    0  501  502  0.00000000000E+00  0.00000000000E+00  0.28368152908E+03  0.28368152908E+03  0.00000000000E+00 0. -1.
         -3   -1    0    0    0  501 -0.00000000000E+00 -0.00000000000E+00 -0.13552090556E+03  0.13552090556E+03  0.00000000000E+00 0.  1.
         23    2    1    2    0    0  0.11688103946E+03 -0.13155836748E+02  0.31723616788E+02  0.15170794769E+03  0.90413826962E+02 0.  0.
         24    2    1    2    0    0 -0.50929284401E+02 -0.24479913982E+02  0.15374134663E+03  0.18289131028E+03  0.81361978303E+02 0.  0.
        -11    1    4    4    0    0 -0.54044890169E+02  0.17598950185E+02  0.90364109935E+02  0.10675319932E+03  0.00000000000E+00 0.  1.
         12    1    4    4    0    0  0.31156057683E+01 -0.42078864167E+02  0.63377236694E+02  0.76138110956E+02  0.00000000000E+00 0. -1.
        -13    1    3    3    0    0  0.99948742940E+02 -0.40052266458E+02  0.12585532469E+01  0.10768249263E+03  0.00000000000E+00 0.  1.
         13    1    3    3    0    0  0.16932296516E+02  0.26896429710E+02  0.30465063541E+02  0.44025455058E+02  0.00000000000E+00 0. -1.
         -4    1    1    2    0  502 -0.65951755055E+02  0.37635750729E+02 -0.37304339902E+02  0.84603176674E+02  0.00000000000E+00 0.  1.
<scales pt_clust_5="13000.00000" pt_clust_6="13000.00000" pt_clust_7="13000.00000" pt_clust_8="13000.00000" pt_clust_9="75.93477"></scales>
<clustering>
<clus scale="   75.935">  1  9  2 -1</clus>
<clus scale="   81.362">  5  6 -1 -1</clus>
<clus scale="   90.414">  7  8 -1 -1</clus>
<clus scale="  124.034">  1  5  2 -1</clus>
<clus scale="   75.935">  1  5  2 -1</clus>
</clustering>
</event>
<event>
 9    2  0.1302972E-004  0.1406542E+03  0.7546771E-02  0.1214238E+00
         21   -1    0    0  501  502  0.00000000000E+00  0.00000000000E+00  0.20480185586E+03  0.20480185586E+03  0.00000000000E+00 0. -1.
          2   -1    0    0  502    0 -0.00000000000E+00 -0.00000000000E+00 -0.13379903512E+03  0.13379903512E+03  0.00000000000E+00 0. -1.
         24    2    1    2    0    0 -0.53371756102E+02 -0.10753586900E+03 -0.26776716917E+02  0.14860678401E+03  0.83393502232E+02 0.  0.
         23    2    1    2    0    0  0.29932592048E+02  0.76029596930E+02  0.82124400121E+02  0.14771973030E+03  0.91652833824E+02 0.  0.
        -11    1    3    3    0    0  0.19515002384E+02 -0.34671690895E+02 -0.21933188719E+02  0.45431555498E+02  0.00000000000E+00 0.  1.
         12    1    3    3    0    0 -0.72886758486E+02 -0.72864178108E+02 -0.48435281978E+01  0.10317522852E+03  0.00000000000E+00 0. -1.
        -13    1    4    4    0    0  0.42664539888E+02  0.59083966487E+02  0.11246563599E+02  0.73740512966E+02  0.00000000000E+00 0.  1.
         13    1    4    4    0    0 -0.12731947841E+02  0.16945630442E+02  0.70877836522E+02  0.73979217331E+02  0.00000000000E+00 0. -1.
          1    1    1    2  501    0  0.23439164054E+02  0.31506272073E+02  0.15655137538E+02  0.42274376670E+02  0.00000000000E+00 0. -1.
<scales pt_clust_5="13000.00000" pt_clust_6="13000.00000" pt_clust_7="13000.00000" pt_clust_8="13000.00000" pt_clust_9="39.26881"></scales>
<clustering>
<clus scale="   39.269">  1  9  2 -1</clus>
<clus scale="   83.394">  5  6 -1 -1</clus>
<clus scale="   91.653">  7  8 -1 -1</clus>
<clus scale="  135.417">  2  5  1 -1</clus>
<clus scale="   39.269">  1  5  2 -1</clus>
</clustering>
</event>
<event>
 9    2  0.1302972E-004  0.2035267E+03  0.7546771E-02  0.1180183E+00
         -1   -1    0    0    0  501 -0.00000000000E+00  0.00000000000E+00  0.12463439818E+03  0.12463439818E+03  0.00000000000E+00 0.  1.
         21   -1    0    0  501  502  0.00000000000E+00 -0.00000000000E+00 -0.62040686538E+03  0.62040686538E+03  0.00000000000E+00 0.  1.
         23    2    1    2    0    0  0.17018836180E+02 -0.10330758740E+02 -0.75654904706E+02  0.12065859592E+03  0.91861127804E+02 0.  0.
         24    2    1    2    0    0 -0.53467799557E+02 -0.17751625306E+03 -0.37755796223E+03  0.42835627567E+03  0.81044792353E+02 0.  0.
        -13    1    4    4    0    0 -0.59783538118E+02 -0.18337516622E+03 -0.35189864622E+03  0.40128939710E+03  0.00000000000E+00 0.  1.
         14    1    4    4    0    0  0.63157385613E+01  0.58589131574E+01 -0.25659316013E+02  0.27066878564E+02  0.00000000000E+00 0. -1.
        -13    1    3    3    0    0  0.41066305344E+02 -0.28259436464E+02 -0.13502068184E+02  0.51646326385E+02  0.00000000000E+00 0.  1.
         13    1    3    3    0    0 -0.24047469164E+02  0.17928677724E+02 -0.62152836522E+02  0.69012269532E+02  0.00000000000E+00 0. -1.
         -2    1    1    2    0  502  0.36448963377E+02  0.18784701180E+03 -0.42559600261E+02  0.19602639197E+03  0.00000000000E+00 0.  1.
<scales pt_clust_5="13000.00000" pt_clust_6="13000.00000" pt_clust_7="13000.00000" pt_clust_8="13000.00000" pt_clust_9="186.69469"></scales>
<clustering>
<clus scale="   81.045">  5  6 -1 -1</clus>
<clus scale="   91.861">  7  8 -1 -1</clus>
<clus scale="   93.994">  1  7  2 -1</clus>
<clus scale="  186.695">  2  9  1 -1</clus>
<clus scale="  186.695">  2  5  1 -1</clus>
</clustering>
</event>
<event>
 9    2  0.1302972E-004  0.9779166E+02  0.7546771E-02  0.1299760E+00
         21   -1    0    0  501  502  0.00000000000E+00  0.00000000000E+00  0.36814548782E+02  0.36814548782E+02  0.00000000000E+00 0. -1.
          2   -1    0    0  502    0 -0.00000000000E+00 -0.00000000000E+00 -0.38557647499E+03  0.38557647499E+03  0.00000000000E+00 0. -1.
         24    2    1    2    0    0 -0.14541833340E+02  0.45473660061E+02 -0.22496367780E+03  0.23871520421E+03  0.64007606709E+02 0.  0.
         23    2    1    2    0    0  0.11539318351E+02 -0.18661809443E+01 -0.73042300223E+02  0.11669228720E+03  0.90251170469E+02 0.  0.
        -11    1    3    3    0    0  0.21269853775E+02  0.14245889082E+02 -0.38074301303E+02  0.45880327539E+02  0.00000000000E+00 0.  1.
         12    1    3    3    0    0 -0.35811687115E+02  0.31227770978E+02 -0.18688937649E+03  0.19283487667E+03  0.00000000000E+00 0. -1.
        -13    1    4    4    0    0  0.45617835210E+02 -0.21162887245E+02 -0.30251236370E+02  0.58685534740E+02  0.00000000000E+00 0. -1.
         13    1    4    4    0    0 -0.34078516859E+02  0.19296706301E+02 -0.42791063853E+02  0.58006752461E+02  0.00000000000E+00 0.  1.
          1    1    1    2  501    0  0.30025149891E+01 -0.43607479117E+02 -0.50755948192E+02  0.66983532364E+02  0.00000000000E+00 0. -1.
<scales pt_clust_5="13000.00000" pt_clust_6="13000.00000" pt_clust_7="13000.00000" pt_clust_8="13000.00000" pt_clust_9="43.71072"></scales>
<clustering>
<clus scale="   43.711">  1  9  2 -1</clus>
<clus scale="   64.008">  5  6 -1 -1</clus>
<clus scale="   74.262">  2  5  1 -1</clus>
<clus scale="   90.251">  7  8 -1 -1</clus>
<clus scale="   43.711">  1  5  2 -1</clus>
</clustering>
</event>
<event>
 9    2  0.1302972E-004  0.2029191E+03  0.7546771E-02  0.1148714E+00
         21   -1    0    0  501  502  0.00000000000E+00  0.00000000000E+00  0.89032842701E+02  0.89032842701E+02  0.00000000000E+00 0.  1.
          2   -1    0    0  502    0 -0.00000000000E+00 -0.00000000000E+00 -0.11035035333E+04  0.11035035333E+04  0.00000000000E+00 0. -1.
         23    2    1    2    0    0  0.16280987311E+03  0.63453430977E+02 -0.88614976999E+03  0.90833495095E+03  0.96320172311E+02 0.  0.
         24    2    1    2    0    0 -0.18839538881E+03 -0.64392731598E+02 -0.13944658827E+03  0.25628581333E+03  0.81226970440E+02 0.  0.
        -11    1    4    4    0    0 -0.17479661328E+03 -0.36091960314E+02 -0.13660169903E+03  0.22475878134E+03  0.00000000000E+00 0.  1.
         12    1    4    4    0    0 -0.13598775526E+02 -0.28300771284E+02 -0.28448892469E+01  0.31527031987E+02  0.00000000000E+00 0. -1.
        -13    1    3    3    0    0  0.16996703483E+03  0.43445747346E+02 -0.82908662587E+03  0.84744377931E+03  0.00000000000E+00 0. -1.
         13    1    3    3    0    0 -0.71571617166E+01  0.20007683631E+02 -0.57063144114E+02  0.60891171645E+02  0.00000000000E+00 0.  1.
          1    1    1    2  501    0  0.25585515698E+02  0.93930062113E+00  0.11125667626E+02  0.27915611749E+02  0.00000000000E+00 0. -1.
<scales pt_clust_5="13000.00000" pt_clust_6="13000.00000" pt_clust_7="13000.00000" pt_clust_8="13000.00000" pt_clust_9="25.60275"></scales>
<clustering>
<clus scale="   25.603">  1  9  2 -1</clus>
<clus scale="   81.227">  5  6 -1 -1</clus>
<clus scale="   96.320">  7  8 -1 -1</clus>
<clus scale="  196.205">  1  5  2 -1</clus>
<clus scale="   25.603">  1  5  2 -1</clus>
</clustering>
</event>
<event>
 9    2  0.1302972E-004  0.9809625E+02  0.7546771E-02  0.1289203E+00
         21   -1    0    0  501  502  0.00000000000E+00  0.00000000000E+00  0.10986431690E+03  0.10986431690E+03  0.00000000000E+00 0. -1.
         -3   -1    0    0    0  501 -0.00000000000E+00 -0.00000000000E+00 -0.22974032109E+03  0.22974032109E+03  0.00000000000E+00 0.  1.
         24    2    1    2    0    0 -0.26611582647E+02 -0.22636282183E+02 -0.17290012680E+03  0.19422157265E+03  0.81283379819E+02 0.  0.
         23    2    1    2    0    0  0.31447409636E+02  0.49534894871E+02  0.40361984825E+02  0.11526246905E+03  0.90629474071E+02 0.  0.
        -13    1    3    3    0    0 -0.43462139769E+02 -0.16154654478E+02 -0.16965626499E+03  0.17587830652E+03  0.00000000000E+00 0.  1.
         14    1    3    3    0    0  0.16850557122E+02 -0.64816277048E+01 -0.32438618120E+01  0.18343266134E+02  0.00000000000E+00 0. -1.
        -11    1    4    4    0    0  0.23567330792E+01  0.51396348617E+02  0.60810043239E+02  0.79655509544E+02  0.00000000000E+00 0. -1.
         11    1    4    4    0    0  0.29090676557E+02 -0.18614537456E+01 -0.20448058414E+02  0.35606959509E+02  0.00000000000E+00 0.  1.
         -4    1    1    2    0  502 -0.48358269886E+01 -0.26898612689E+02  0.12662137788E+02  0.30120596286E+02  0.00000000000E+00 0.  1.
<scales pt_clust_5="13000.00000" pt_clust_6="13000.00000" pt_clust_7="13000.00000" pt_clust_8="13000.00000" pt_clust_9="27.32985"></scales>
<clustering>
<clus scale="   27.330">  1  9  2 -1</clus>
<clus scale="   81.283">  5  6 -1 -1</clus>
<clus scale="   89.533">  2  5  1 -1</clus>
<clus scale="   90.629">  7  8 -1 -1</clus>
<clus scale="   27.330">  1  5  2 -1</clus>
</clustering>
</event>
<event>
 9    2  0.1302972E-004  0.3569290E+03  0.7546771E-02  0.1110301E+00
         21   -1    0    0  501  502  0.00000000000E+00  0.00000000000E+00  0.22861719012E+03  0.22861719012E+03  0.00000000000E+00 0. -1.
          2   -1    0    0  502    0 -0.00000000000E+00 -0.00000000000E+00 -0.71766954703E+03  0.71766954703E+03  0.00000000000E+00 0. -1.
         24    2    1    2    0    0 -0.18283165793E+02 -0.43061182151E+02 -0.83763449492E+02  0.12494675651E+03  0.80042719419E+02 0.  0.
         23    2    1    2    0    0  0.84446460190E+02 -0.31837578188E+03 -0.14572488972E+03  0.37146473152E+03  0.90862314238E+02 0.  0.
        -11    1    3    3    0    0  0.21305458586E+02 -0.11911271761E+02 -0.67868086497E+02  0.72124046789E+02  0.00000000000E+00 0.  1.
         12    1    3    3    0    0 -0.39588624379E+02 -0.31149910390E+02 -0.15895362995E+02  0.52822709721E+02  0.00000000000E+00 0. -1.
        -11    1    4    4    0    0  0.19061769827E+01 -0.43220611184E+02  0.10423397469E+02  0.44500583778E+02  0.00000000000E+00 0.  1.
         11    1    4    4    0    0  0.82540283207E+02 -0.27515517070E+03 -0.15614828719E+03  0.32696414774E+03  0.00000000000E+00 0. -1.
          1    1    1    2  501    0 -0.66163294397E+02  0.36143696403E+03 -0.25956401769E+03  0.44987524912E+03  0.00000000000E+00 0. -1.
<scales pt_clust_5="13000.00000" pt_clust_6="13000.00000" pt_clust_7="13000.00000" pt_clust_8="13000.00000" pt_clust_9="345.17024"></scales>
<clustering>
<clus scale="   80.043">  5  6 -1 -1</clus>
<clus scale="   90.862">  7  8 -1 -1</clus>
<clus scale="   92.711">  2  5  1 -1</clus>
<clus scale="  345.170">  1  9  2 -1</clus>
<clus scale="  345.170">  1  5  2 -1</clus>
</clustering>
</event>
<event>
 9    2  0.1302972E-004  0.2695586E+03  0.7546771E-02  0.1101959E+00
         21   -1    0    0  501  502  0.00000000000E+00  0.00000000000E+00  0.35335958804E+03  0.35335958804E+03  0.00000000000E+00 0. -1.
          4   -1    0    0  502    0 -0.00000000000E+00 -0.00000000000E+00 -0.90890468542E+03  0.90890468542E+03  0.00000000000E+00 0. -1.
         24    2    1    2    0    0 -0.86724883155E+02 -0.25458419773E+03 -0.80402385899E+03  0.85173406117E+03  0.81622460364E+02 0.  0.
         23    2    1    2    0    0 -0.17902288944E+02  0.14134828845E+03  0.16038335829E+03  0.23296327737E+03  0.90825307000E+02 0.  0.
        -13    1    3    3    0    0 -0.63441565572E+02 -0.77592485236E+02 -0.34339756557E+03  0.35772519348E+03  0.00000000000E+00 0.  1.
         14    1    3    3    0    0 -0.23283317583E+02 -0.17699171249E+03 -0.46062629341E+03  0.49400886769E+03  0.00000000000E+00 0. -1.
        -11    1    4    4    0    0  0.21414357780E+02  0.35688562224E+01  0.41296833224E+02  0.46655545096E+02  0.00000000000E+00 0.  1.
         11    1    4    4    0    0 -0.39316646724E+02  0.13777943223E+03  0.11908652507E+03  0.18630773228E+03  0.00000000000E+00 0. -1.
          3    1    1    2  501    0  0.10462717210E+03  0.11323590928E+03  0.88095403324E+02  0.17756693492E+03  0.00000000000E+00 0. -1.
<scales pt_clust_5="13000.00000" pt_clust_6="13000.00000" pt_clust_7="13000.00000" pt_clust_8="13000.00000" pt_clust_9="154.17268"></scales>
<clustering>
<clus scale="   81.622">  5  6 -1 -1</clus>
<clus scale="   90.825">  7  8 -1 -1</clus>
<clus scale="  154.173">  1  9  2 -1</clus>
<clus scale="  266.599">  2  5  1 -1</clus>
<clus scale="  154.173">  1  5  2 -1</clus>
</clustering>
</event>
<event>
 9    2  0.1302972E-004  0.1167756E+03  0.7546771E-02  0.1252146E+00
         21   -1    0    0  501  502  0.00000000000E+00  0.00000000000E+00  0.74287205895E+02  0.74287205895E+02  0.00000000000E+00 0.  1.
          2   -1    0    0  502    0 -0.00000000000E+00 -0.00000000000E+00 -0.34002113526E+03  0.34002113526E+03  0.00000000000E+00 0. -1.
         23    2    1    2    0    0 -0.78192863613E+02 -0.40780352189E+02 -0.13141509719E+03  0.18260662175E+03  0.91093849918E+02 0.  0.
         24    2    1    2    0    0  0.50751228868E+02  0.13645609888E+01 -0.66305130872E+01  0.95279746305E+02  0.80353699938E+02 0.  0.
        -11    1    4    4    0    0  0.44366684395E+02 -0.32877239225E+02  0.10898443682E+02  0.56285802987E+02  0.00000000000E+00 0.  1.
         12    1    4    4    0    0  0.63845444730E+01  0.34241800214E+02 -0.17528956769E+02  0.38993943317E+02  0.00000000000E+00 0. -1.
        -13    1    3    3    0    0 -0.86121573220E+02 -0.60669881504E+02 -0.11070095098E+03  0.15281511850E+03  0.00000000000E+00 0.  1.
         13    1    3    3    0    0  0.79287096069E+01  0.19889529316E+02 -0.20714146215E+02  0.29791503249E+02  0.00000000000E+00 0. -1.
          1    1    1    2  501    0  0.27441634746E+02  0.39415791200E+02 -0.12768831909E+03  0.13642197310E+03  0.00000000000E+00 0. -1.
<scales pt_clust_5="13000.00000" pt_clust_6="13000.00000" pt_clust_7="13000.00000" pt_clust_8="13000.00000" pt_clust_9="48.02760"></scales>
<clustering>
<clus scale="   48.028">  1  9  2 -1</clus>
<clus scale="   80.354">  5  6 -1 -1</clus>
<clus scale="   91.094">  7  8 -1 -1</clus>
<clus scale="  108.606">  1  5  2 -1</clus>
<clus scale="   48.028">  1  5  2 -1</clus>
</clustering>
</event>
<event>
 9    2  0.1302972E-004  0.1198783E+03  0.7546771E-02  0.1246904E+00
         21   -1    0    0  501  502  0.00000000000E+00  0.00000000000E+00  0.13720222955E+03  0.13720222955E+03  0.00000000000E+00 0. -1.
          2   -1    0    0  502    0 -0.00000000000E+00 -0.00000000000E+00 -0.40509131271E+03  0.40509131271E+03  0.00000000000E+00 0. -1.
         24    2    1    2    0    0  0.24870194025E+02  0.66209816648E+02 -0.24771103829E+03  0.26965466636E+03  0.79690741162E+02 0.  0.
         23    2    1    2    0    0 -0.82853544274E+02 -0.12396088938E+03  0.29086823773E+02  0.17711776520E+03  0.91069465452E+02 0.  0.
        -11    1    3    3    0    0 -0.49972932272E+01  0.75033930632E+02 -0.18259873362E+03  0.19747749544E+03  0.00000000000E+00 0.  1.
         12    1    3    3    0    0  0.29867487252E+02 -0.88241139836E+01 -0.65112304664E+02  0.72177170913E+02  0.00000000000E+00 0. -1.
        -11    1    4    4    0    0  0.16564304904E+02 -0.34783205496E+02 -0.61019026128E+01  0.39006163578E+02  0.00000000000E+00 0. -1.
         11    1    4    4    0    0 -0.99417849178E+02 -0.89177683886E+02  0.35188726386E+02  0.13811160162E+03  0.00000000000E+00 0.  1.
          1    1    1    2  501    0  0.57983350249E+02  0.57751072734E+02 -0.49264868644E+02  0.95521110706E+02  0.00000000000E+00 0. -1.
<scales pt_clust_5="13000.00000" pt_clust_6="13000.00000" pt_clust_7="13000.00000" pt_clust_8="13000.00000" pt_clust_9="81.83680"></scales>
<clustering>
<clus scale="   79.691">  5  6 -1 -1</clus>
<clus scale="   81.837">  1  9  2 -1</clus>
<clus scale="   91.069">  7  8 -1 -1</clus>
<clus scale="  111.480">  2  5  1 -1</clus>
<clus scale="   81.837">  1  5  2 -1</clus>
</clustering>
</event>
<event>
 9    2  0.1302972E-004  0.1210465E+03  0.7546771E-02  0.1244603E+00
         21   -1    0    0  501  502  0.00000000000E+00  0.00000000000E+00  0.83286010848E+02  0.83286010848E+02  0.00000000000E+00 0. -1.
          2   -1    0    0  502    0 -0.00000000000E+00 -0.00000000000E+00 -0.51470128157E+03  0.51470128157E+03  0.00000000000E+00 0. -1.
         24    2    1    2    0    0  0.23710235838E+02  0.69806115355E+02 -0.30223839914E+03  0.32165353940E+03  0.81718299477E+02 0.  0.
         23    2    1    2    0    0 -0.50165888212E+02 -0.76171931462E+02 -0.17816675286E+03  0.22029418106E+03  0.92018231342E+02 0.  0.
        -13    1    3    3    0    0  0.42658098752E+02  0.54902897448E+01 -0.11825479260E+03  0.12583343214E+03  0.00000000000E+00 0.  1.
         14    1    3    3    0    0 -0.18947862914E+02  0.64315825610E+02 -0.18398360654E+03  0.19582010726E+03  0.00000000000E+00 0. -1.
        -13    1    4    4    0    0 -0.83125225469E+01 -0.61733349840E+02 -0.37233441676E+02  0.72570198378E+02  0.00000000000E+00 0.  1.
         13    1    4    4    0    0 -0.41853365665E+02 -0.14438581622E+02 -0.14093331118E+03  0.14772398268E+03  0.00000000000E+00 0. -1.
          1    1    1    2  501    0  0.26455652374E+02  0.63658161078E+01  0.48989881282E+02  0.56039571958E+02  0.00000000000E+00 0. -1.
<scales pt_clust_5="13000.00000" pt_clust_6="13000.00000" pt_clust_7="13000.00000" pt_clust_8="13000.00000" pt_clust_9="27.21075"></scales>
<clustering>
<clus scale="   27.211">  1  9  2 -1</clus>
<clus scale="   81.718">  5  6 -1 -1</clus>
<clus scale="   92.018">  7  8 -1 -1</clus>
<clus scale="  113.414">  2  5  1 -1</clus>
<clus scale="   27.211">  1  5  2 -1</clus>
</clustering>
</event>
<event>
 9    2  0.1302972E-004  0.1359822E+03  0.7546771E-02  0.1220614E+00
         21   -1    0    0  501  502  0.00000000000E+00  0.00000000000E+00  0.77397013525E+03  0.77397013525E+03  0.00000000000E+00 0.  1.
          2   -1    0    0  502    0 -0.00000000000E+00 -0.00000000000E+00 -0.37063320073E+02  0.37063320073E+02  0.00000000000E+00 0. -1.
         23    2    1    2    0    0 -0.94001459938E+02 -0.15191737551E+02  0.34058837294E+03  0.36452775377E+03  0.88391063618E+02 0.  0.
         24    2    1    2    0    0  0.10740968393E+03  0.36882796430E+02  0.39729975075E+03  0.42098618995E+03  0.80530114281E+02 0.  0.
        -11    1    4    4    0    0  0.49599189758E+02  0.50285272608E+02  0.13850388794E+03  0.15547351942E+03  0.00000000000E+00 0.  1.
         12    1    4    4    0    0  0.57810494175E+02 -0.13402476178E+02  0.25879586280E+03  0.26551267052E+03  0.00000000000E+00 0. -1.
        -11    1    3    3    0    0 -0.96534133389E+01 -0.36880482869E+02  0.15347199871E+03  0.15813605785E+03  0.00000000000E+00 0.  1.
         11    1    3    3    0    0 -0.84348046599E+02  0.21688745317E+02  0.18711637423E+03  0.20639169592E+03  0.00000000000E+00 0. -1.
          1    1    1    2  501    0 -0.13408223996E+02 -0.21691058878E+02 -0.98130851472E+00  0.25519511601E+02  0.00000000000E+00 0. -1.
<scales pt_clust_5="13000.00000" pt_clust_6="13000.00000" pt_clust_7="13000.00000" pt_clust_8="13000.00000" pt_clust_9="25.50065"></scales>
<clustering>
<clus scale="   25.501">  1  9  2 -1</clus>
<clus scale="   80.530">  5  6 -1 -1</clus>
<clus scale="   88.391">  7  8 -1 -1</clus>
<clus scale="  131.009">  1  5  2 -1</clus>
<clus scale="   25.501">  1  5  2 -1</clus>
</clustering>
</event>
<event>
 9    2  0.1302972E-004  0.1064886E+03  0.7546771E-02  0.1277035E+00
         -1   -1    0    0    0  501 -0.00000000000E+00  0.00000000000E+00  0.14334050373E+03  0.14334050373E+03  0.00000000000E+00 0.  1.
         21   -1    0    0  501  502  0.00000000000E+00 -0.00000000000E+00 -0.14216288957E+03  0.14216288957E+03  0.00000000000E+00 0.  1.
         23    2    1    2    0    0  0.12210303332E+02 -0.25661762636E+02 -0.37391357711E+01  0.10342785830E+03  0.99376673156E+02 0.  0.
         24    2    1    2    0    0  0.63298519911E+02  0.31098171604E+02 -0.34702161002E+00  0.10618848590E+03  0.79385610872E+02 0.  0.
        -13    1    4    4    0    0  0.76183183470E+02  0.96078203568E+01 -0.13381752136E+02  0.77943947461E+02  0.00000000000E+00 0.  1.
         14    1    4    4    0    0 -0.12884663558E+02  0.21490351247E+02  0.13034730526E+02  0.28244538439E+02  0.00000000000E+00 0. -1.
        -13    1    3    3    0    0  0.37736367906E+01 -0.60673626892E+02  0.15305990025E+02  0.62688138156E+02  0.00000000000E+00 0.  1.
         13    1    3    3    0    0  0.84366665410E+01  0.35011864256E+02 -0.19045125796E+02  0.40739720146E+02  0.00000000000E+00 0. -1.
         -2    1    1    2    0  502 -0.75508823243E+02 -0.54364089671E+01  0.52637715378E+01  0.75887049098E+02  0.00000000000E+00 0.  1.
<scales pt_clust_5="13000.00000" pt_clust_6="13000.00000" pt_clust_7="13000.00000" pt_clust_8="13000.00000" pt_clust_9="75.70431"></scales>
<clustering>
<clus scale="   75.704">  2  9  1 -1</clus>
<clus scale="   79.386">  5  6 -1 -1</clus>
<clus scale="   88.126">  2  5  1 -1</clus>
<clus scale="   99.377">  7  8 -1 -1</clus>
<clus scale="   75.704">  2  5  1 -1</clus>
</clustering>
</event>
<event>
 9    2  0.1302972E-004  0.9544470E+02  0.7546771E-02  0.1299578E+00
         21   -1    0    0  501  502  0.00000000000E+00  0.00000000000E+00  0.94952331525E+02  0.94952331525E+02  0.00000000000E+00 0. -1.
         -1   -1    0    0    0  501 -0.00000000000E+00 -0.00000000000E+00 -0.18489839919E+03  0.18489839919E+03  0.00000000000E+00 0.  1.
         24    2    1    2    0    0 -0.32499088515E+01 -0.13706500529E+02 -0.12845902830E+03  0.15118537389E+03  0.78465694821E+02 0.  0.
         23    2    1    2    0    0 -0.10841653270E+02  0.30659965757E+02  0.24272407237E+02  0.10242063417E+03  0.94038617626E+02 0.  0.
        -11    1    3    3    0    0 -0.39325380845E+02 -0.74460277407E+01 -0.46075920433E+02  0.61032117377E+02  0.00000000000E+00 0.  1.
         12    1    3    3    0    0  0.36075471994E+02 -0.62604727880E+01 -0.82383107862E+02  0.90153256514E+02  0.00000000000E+00 0. -1.
        -13    1    4    4    0    0  0.33156613084E+02 -0.14524702113E+02  0.54652580619E+01  0.36608701265E+02  0.00000000000E+00 0. -1.
         13    1    4    4    0    0 -0.43998266354E+02  0.45184667870E+02  0.18807149175E+02  0.65811932906E+02  0.00000000000E+00 0.  1.
         -2    1    1    2    0  502  0.14091562122E+02 -0.16953465228E+02  0.14240553393E+02  0.26244722655E+02  0.00000000000E+00 0.  1.
<scales pt_clust_5="13000.00000" pt_clust_6="13000.00000" pt_clust_7="13000.00000" pt_clust_8="13000.00000" pt_clust_9="22.04523"></scales>
<clustering>
<clus scale="   22.045">  1  9  2 -1</clus>
<clus scale="   78.466">  5  6 -1 -1</clus>
<clus scale="   80.145">  2  5  1 -1</clus>
<clus scale="   94.039">  7  8 -1 -1</clus>
<clus scale="   22.045">  1  5  2 -1</clus>
</clustering>
</event>
<event>
 9    2  0.1302972E-004  0.1852128E+03  0.7546771E-02  0.1163937E+00
         -3   -1    0    0    0  501 -0.00000000000E+00  0.00000000000E+00  0.12666002997E+03  0.12666002997E+03  0.00000000000E+00 0.  1.
         21   -1    0    0  501  502  0.00000000000E+00 -0.00000000000E+00 -0.45617283147E+03  0.45617283147E+03  0.00000000000E+00 0.  1.
         23    2    1    2    0    0  0.12215848769E+03 -0.82358816404E+02 -0.83814425370E+02  0.19204884739E+03  0.90289706665E+02 0.  0.
         24    2    1    2    0    0 -0.16819025254E+03  0.95861597298E+02 -0.26601112817E+03  0.33868932754E+03  0.80443355171E+02 0.  0.
        -11    1    4    4    0    0 -0.17616660513E+03  0.88899298262E+02 -0.26035992328E+03  0.32668799740E+03  0.00000000000E+00 0.  1.
         12    1    4    4    0    0  0.79763525839E+01  0.69622990365E+01 -0.56512048870E+01  0.12001330138E+02  0.00000000000E+00 0. -1.
        -11    1    3    3    0    0 -0.82567646636E+01 -0.23734692352E+02  0.21325261681E+01  0.25220179452E+02  0.00000000000E+00 0. -1.
         11    1    3    3    0    0  0.13041525235E+03 -0.58624124052E+02 -0.85946951539E+02  0.16682866794E+03  0.00000000000E+00 0.  1.
         -4    1    1    2    0  502  0.46031764853E+02 -0.13502780895E+02  0.20312752039E+02  0.52094686512E+02  0.00000000000E+00 0.  1.
<scales pt_clust_5="13000.00000" pt_clust_6="13000.00000" pt_clust_7="13000.00000" pt_clust_8="13000.00000" pt_clust_9="47.97135"></scales>
<clustering>
<clus scale="   47.971">  2  9  1 -1</clus>
<clus scale="   80.443">  5  6 -1 -1</clus>
<clus scale="   90.290">  7  8 -1 -1</clus>
<clus scale="  180.618">  2  5  1 -1</clus>
<clus scale="   47.971">  2  5  1 -1</clus>
</clustering>
</event>
<event>
 9    2  0.1302972E-004  0.9682547E+02  0.7546771E-02  0.1291215E+00
         -1   -1    0    0    0  501 -0.00000000000E+00  0.00000000000E+00  0.69630150158E+02  0.69630150158E+02  0.00000000000E+00 0.  1.
         21   -1    0    0  501  502  0.00000000000E+00 -0.00000000000E+00 -0.30735824991E+03  0.30735824991E+03  0.00000000000E+00 0.  1.
         24    2    1    2    0    0 -0.26371985284E+02  0.26697892142E+02  0.31227462250E+01  0.90141760551E+02  0.81899489612E+02 0.  0.
         23    2    1    2    0    0 -0.15252867427E+02 -0.51628737469E+02 -0.13835439462E+03  0.17344603126E+03  0.89685064268E+02 0.  0.
        -13    1    3    3    0    0 -0.42641475268E+02  0.38207868842E+02  0.23269822364E+02  0.61803084772E+02  0.00000000000E+00 0.  1.
         14    1    3    3    0    0  0.16269489984E+02 -0.11509976700E+02 -0.20147076139E+02  0.28338675779E+02  0.00000000000E+00 0. -1.
        -11    1    4    4    0    0 -0.52973065767E+02 -0.31517374279E+02 -0.76176022992E+02  0.97991209081E+02  0.00000000000E+00 0.  1.
         11    1    4    4    0    0  0.37720198340E+02 -0.20111363190E+02 -0.62178371628E+02  0.75454822182E+02  0.00000000000E+00 0. -1.
         -2    1    1    2    0  502  0.41624852711E+02  0.24930845328E+02 -0.10249645136E+03  0.11340060826E+03  0.00000000000E+00 0.  1.
<scales pt_clust_5="13000.00000" pt_clust_6="13000.00000" pt_clust_7="13000.00000" pt_clust_8="13000.00000" pt_clust_9="48.51985"></scales>
<clustering>
<clus scale="   48.520">  2  9  1 -1</clus>
<clus scale="   81.899">  5  6 -1 -1</clus>
<clus scale="   89.662">  1  5  2 -1</clus>
<clus scale="   89.685">  7  8 -1 -1</clus>
<clus scale="   48.520">  2  5  1 -1</clus>
</clustering>
</event>
<event>
 9    2  0.1302972E-004  0.1196329E+03  0.7546771E-02  0.1250542E+00
          2   -1    0    0  502    0 -0.00000000000E+00  0.00000000000E+00  0.58866296670E+03  0.58866296670E+03  0.00000000000E+00 0. -1.
         21   -1    0    0  501  502  0.00000000000E+00 -0.00000000000E+00 -0.62631252355E+02  0.62631252355E+02  0.00000000000E+00 0. -1.
         24    2    1    2    0    0  0.48100024542E+02 -0.20674277526E+02  0.16531886373E+03  0.19131819481E+03  0.80816377352E+02 0.  0.
         23    2    1    2    0    0 -0.72159503590E+02  0.97537105662E+02  0.97965941083E+02  0.18516210293E+03  0.99835854327E+02 0.  0.
        -11    1    3    3    0    0  0.36983367475E+02  0.27911261743E+02  0.74917995733E+02  0.88088104114E+02  0.00000000000E+00 0.  1.
         12    1    3    3    0    0  0.11116657068E+02 -0.48585539269E+02  0.90400867997E+02  0.10323009070E+03  0.00000000000E+00 0. -1.
        -13    1    4    4    0    0 -0.83693515777E+02  0.53287348203E+02  0.30764184071E+02  0.10387772178E+03  0.00000000000E+00 0. -1.
         13    1    4    4    0    0  0.11534012187E+02  0.44249757458E+02  0.67201757013E+02  0.81284381143E+02  0.00000000000E+00 0.  1.
          1    1    1    2  501    0  0.24059479048E+02 -0.76862828135E+02  0.26274690953E+03  0.27481392132E+03  0.00000000000E+00 0. -1.
<scales pt_clust_5="13000.00000" pt_clust_6="13000.00000" pt_clust_7="13000.00000" pt_clust_8="13000.00000" pt_clust_9="80.54042"></scales>
<clustering>
<clus scale="   80.540">  2  9  1 -1</clus>
<clus scale="   80.816">  5  6 -1 -1</clus>
<clus scale="   99.836">  7  8 -1 -1</clus>
<clus scale="  104.289">  1  5  2 -1</clus>
<clus scale="   80.540">  2  5  1 -1</clus>
</clustering>
</event>
<event>
 9    2  0.1302972E-004  0.9994095E+02  0.7546771E-02  0.1285015E+00
         -1   -1    0    0    0  501 -0.00000000000E+00  0.00000000000E+00  0.15256570052E+03  0.15256570052E+03  0.00000000000E+00 0.  1.
         21   -1    0    0  501  502  0.00000000000E+00 -0.00000000000E+00 -0.23111992838E+03  0.23111992838E+03  0.00000000000E+00 0.  1.
         24    2    1    2    0    0 -0.11231071809E+02  0.35241784310E+02  0.85373811384E+02  0.12375059990E+03  0.81592910043E+02 0.  0.
         23    2    1    2    0    0  0.42683899434E+02 -0.44649274328E+02 -0.19193575194E+02  0.11152395692E+03  0.90850022948E+02 0.  0.
        -13    1    3    3    0    0 -0.32764168051E+02  0.40101653971E+02  0.87393446828E+02  0.10158369903E+03  0.00000000000E+00 0.  1.
         14    1    3    3    0    0  0.21533096242E+02 -0.48598696615E+01 -0.20196354437E+01  0.22166900871E+02  0.00000000000E+00 0. -1.
        -13    1    4    4    0    0  0.26718388939E+02 -0.64809731083E+02  0.11974090792E+02  0.71116470672E+02  0.00000000000E+00 0. -1.
         13    1    4    4    0    0  0.15965510495E+02  0.20160456755E+02 -0.31167665986E+02  0.40407486249E+02  0.00000000000E+00 0.  1.
         -2    1    1    2    0  502 -0.31452827626E+02  0.94074900178E+01 -0.14473446405E+03  0.14841107208E+03  0.00000000000E+00 0.  1.
<scales pt_clust_5="13000.00000" pt_clust_6="13000.00000" pt_clust_7="13000.00000" pt_clust_8="13000.00000" pt_clust_9="32.82958"></scales>
<clustering>
<clus scale="   32.830">  2  9  1 -1</clus>
<clus scale="   81.593">  5  6 -1 -1</clus>
<clus scale="   90.850">  7  8 -1 -1</clus>
<clus scale="   91.607">  1  5  2 -1</clus>
<clus scale="   32.830">  2  5  1 -1</clus>
</clustering>
</event>
<event>
 9    2  0.1302972E-004  0.2414468E+03  0.7546771E-02  0.1137866E+00
         21   -1    0    0  501  502  0.00000000000E+00  0.00000000000E+00  0.19220189538E+03  0.19220189538E+03  0.00000000000E+00 0.  1.
         -1   -1    0    0    0  501 -0.00000000000E+00 -0.00000000000E+00 -0.65723588404E+03  0.65723588404E+03  0.00000000000E+00 0.  1.
         24    2    1    2    0    0 -0.43377640103E+02  0.11162684411E+03 -0.47897064729E+02  0.15848431739E+03  0.92092225843E+02 0.  0.
         23    2    1    2    0    0 -0.17647422606E+03 -0.14929832792E+03 -0.39270950012E+02  0.25216344620E+03  0.92795759090E+02 0.  0.
        -13    1    3    3    0    0  0.60927880875E+01  0.96336888155E+02 -0.45325570396E+02  0.10664110567E+03  0.00000000000E+00 0.  1.
         14    1    3    3    0    0 -0.49470428190E+02  0.15289955959E+02 -0.25714943327E+01  0.51843211722E+02  0.00000000000E+00 0. -1.
        -11    1    4    4    0    0 -0.39165864794E+02 -0.32435668432E+02 -0.50290505358E+02  0.71520434009E+02  0.00000000000E+00 0. -1.
         11    1    4    4    0    0 -0.13730836126E+03 -0.11686265948E+03  0.11019555346E+02  0.18064301219E+03  0.00000000000E+00 0.  1.
         -2    1    1    2    0  502  0.21985186616E+03  0.37671483802E+02 -0.37786597392E+03  0.43879001583E+03  0.00000000000E+00 0.  1.
<scales pt_clust_5="13000.00000" pt_clust_6="13000.00000" pt_clust_7="13000.00000" pt_clust_8="13000.00000" pt_clust_9="222.90257"></scales>
<clustering>
<clus scale="   92.092">  5  6 -1 -1</clus>
<clus scale="   92.796">  7  8 -1 -1</clus>
<clus scale="  151.073">  2  5  1 -1</clus>
<clus scale="  222.903">  1  9  2 -1</clus>
<clus scale="  222.903">  1  5  2 -1</clus>
</clustering>
</event>
<event>
 9    2  0.1302972E-004  0.1352635E+03  0.7546771E-02  0.1233191E+00
          2   -1    0    0  502    0 -0.00000000000E+00  0.00000000000E+00  0.35355615598E+03  0.35355615598E+03  0.00000000000E+00 0. -1.
         21   -1    0    0  501  502  0.00000000000E+00 -0.00000000000E+00 -0.11046403725E+03  0.11046403725E+03  0.00000000000E+00 0. -1.
         24    2    1    2    0    0  0.14535639525E+02 -0.63255207798E+02  0.68742268698E+02  0.12343789763E+03  0.79365665980E+02 0.  0.
         23    2    1    2    0    0  0.49479050723E+02 -0.27711279111E+02  0.19991258973E+03  0.22644975875E+03  0.89990878723E+02 0.  0.
        -11    1    3    3    0    0 -0.14018814354E+02 -0.31519473437E+02  0.72795001816E+02  0.80555053542E+02  0.00000000000E+00 0.  1.
         12    1    3    3    0    0  0.28554453878E+02 -0.31735734360E+02 -0.40527331179E+01  0.42882844092E+02  0.00000000000E+00 0. -1.
        -11    1    4    4    0    0  0.59369136872E+02 -0.17947440671E+01  0.18632131565E+03  0.19555957707E+03  0.00000000000E+00 0.  1.
         11    1    4    4    0    0 -0.98900861496E+01 -0.25916535044E+02  0.13591274081E+02  0.30890181675E+02  0.00000000000E+00 0. -1.
          1    1    1    2  501    0 -0.64014690247E+02  0.90966486909E+02 -0.25562739695E+02  0.11413253685E+03  0.00000000000E+00 0. -1.
<scales pt_clust_5="13000.00000" pt_clust_6="13000.00000" pt_clust_7="13000.00000" pt_clust_8="13000.00000" pt_clust_9="100.98450"></scales>
<clustering>
<clus scale="   79.366">  5  6 -1 -1</clus>
<clus scale="   89.991">  7  8 -1 -1</clus>
<clus scale="  102.525">  1  5  2 -1</clus>
<clus scale="  100.984">  2  9  1 -1</clus>
<clus scale="  100.984">  2  5  1 -1</clus>
</clustering>
</event>
<event>
 9    2  0.1302972E-004  0.3932725E+03  0.7546771E-02  0.1046290E+00
          2   -1    0    0  502    0 -0.00000000000E+00  0.00000000000E+00  0.23221029517E+03  0.23221029517E+03  0.00000000000E+00 0. -1.
         21   -1    0    0  501  502  0.00000000000E+00 -0.00000000000E+00 -0.77242439093E+03  0.77242439093E+03  0.00000000000E+00 0. -1.
         24    2    1    2    0    0 -0.32810311661E+03 -0.22017437192E+03 -0.16678822827E+03  0.43629257544E+03  0.80028052047E+02 0.  0.
         23    2    1    2    0    0  0.32639733027E+03  0.17035737577E+03 -0.33035678944E+03  0.50246655909E+03  0.88205339891E+02 0.  0.
        -11    1    3    3    0    0 -0.26585485735E+02  0.46288927628E+01 -0.13233911130E+02  0.30055799836E+02  0.00000000000E+00 0.  1.
         12    1    3    3    0    0 -0.30151763087E+03 -0.22480326468E+03 -0.15355431714E+03  0.40623677560E+03  0.00000000000E+00 0. -1.
        -13    1    4    4    0    0  0.24690809903E+03  0.88980643186E+02 -0.25555926593E+03  0.36632185661E+03  0.00000000000E+00 0. -1.
         13    1    4    4    0    0  0.79489231235E+02  0.81376732582E+02 -0.74797523513E+02  0.13614470247E+03  0.00000000000E+00 0.  1.
          1    1    1    2  501    0  0.17057863423E+01  0.49816996148E+02 -0.43069078047E+02  0.65875551581E+02  0.00000000000E+00 0. -1.
<scales pt_clust_5="13000.00000" pt_clust_6="13000.00000" pt_clust_7="13000.00000" pt_clust_8="13000.00000" pt_clust_9="49.84619"></scales>
<clustering>
<clus scale="   49.846">  2  9  1 -1</clus>
<clus scale="   80.028">  5  6 -1 -1</clus>
<clus scale="   88.205">  7  8 -1 -1</clus>
<clus scale="  391.520">  1  5  2 -1</clus>
<clus scale="   49.846">  2  5  1 -1</clus>
</clustering>
</event>
<event>
 9    2  0.1302972E-004  0.1089972E+03  0.7546771E-02  0.1268766E+00
          2   -1    0    0  502    0 -0.00000000000E+00  0.00000000000E+00  0.96239978522E+02  0.96239978522E+02  0.00000000000E+00 0. -1.
         21   -1    0    0  501  502  0.00000000000E+00 -0.00000000000E+00 -0.31535553768E+03  0.31535553768E+03  0.00000000000E+00 0. -1.
         23    2    1    2    0    0 -0.59527219740E+02 -0.46330275132E+01  0.22715040256E+01  0.10885158399E+03  0.90986552698E+02 0.  0.
         24    2    1    2    0    0  0.48673136376E+02  0.70446965965E+02 -0.20412787816E+03  0.23384425814E+03  0.75386319751E+02 0.  0.
        -11    1    4    4    0    0  0.41334656446E+02  0.72878202289E+02 -0.10460859918E+03  0.13402516635E+03  0.00000000000E+00 0.  1.
         12    1    4    4    0    0  0.73384799295E+01 -0.24312363237E+01 -0.99519278979E+02  0.99819091792E+02  0.00000000000E+00 0. -1.
        -13    1    3    3    0    0  0.77828975825E+01  0.31485911312E+02  0.11839997973E+01  0.32455168486E+02  0.00000000000E+00 0. -1.
         13    1    3    3    0    0 -0.67310117323E+02 -0.36118938825E+02  0.10875042283E+01  0.76396415500E+02  0.00000000000E+00 0.  1.
          1    1    1    2  501    0  0.10854083364E+02 -0.65813938452E+02 -0.17259185030E+02  0.68899674079E+02  0.00000000000E+00 0. -1.
<scales pt_clust_5="13000.00000" pt_clust_6="13000.00000" pt_clust_7="13000.00000" pt_clust_8="13000.00000" pt_clust_9="66.70300"></scales>
<clustering>
<clus scale="   66.703">  2  9  1 -1</clus>
<clus scale="   75.386">  5  6 -1 -1</clus>
<clus scale="   90.987">  7  8 -1 -1</clus>
<clus scale="   96.358">  2  5  1 -1</clus>
<clus scale="   66.703">  2  5  1 -1</clus>
</clustering>
</event>
<event>
 9    2  0.1302972E-004  0.1203400E+03  0.7546771E-02  0.1252261E+00
          2   -1    0    0  502    0 -0.00000000000E+00  0.00000000000E+00  0.76912451607E+03  0.76912451607E+03  0.00000000000E+00 0. -1.
         21   -1    0    0  501  502  0.00000000000E+00 -0.00000000000E+00 -0.34392641119E+02  0.34392641119E+02  0.00000000000E+00 0. -1.
         23    2    1    2    0    0  0.28551874641E+02 -0.27095562393E+02  0.14060594070E+03  0.17196831183E+03  0.90849824801E+02 0.  0.
         24    2    1    2    0    0  0.73277003512E+02  0.27491070440E+02  0.33450001768E+03  0.35266734112E+03  0.79741541652E+02 0.  0.
        -13    1    4    4    0    0  0.27333933838E+02  0.14015586403E+02  0.25336880954E+02  0.39818816378E+02  0.00000000000E+00 0.  1.
         14    1    4    4    0    0  0.45943069674E+02  0.13475484037E+02  0.30916313672E+03  0.31284852474E+03  0.00000000000E+00 0. -1.
        -11    1    3    3    0    0 -0.42811090743E+01  0.31486450818E+02  0.41997888751E+02  0.52664477018E+02  0.00000000000E+00 0.  1.
         11    1    3    3    0    0  0.32832983715E+02 -0.58582013211E+02  0.98608051948E+02  0.11930383481E+03  0.00000000000E+00 0. -1.
          1    1    1    2  501    0 -0.10182887815E+03 -0.39550804722E+00  0.25962591657E+03  0.27888150424E+03  0.00000000000E+00 0. -1.
<scales pt_clust_5="13000.00000" pt_clust_6="13000.00000" pt_clust_7="13000.00000" pt_clust_8="13000.00000" pt_clust_9="90.12776"></scales>
<clustering>
<clus scale="   79.742">  5  6 -1 -1</clus>
<clus scale="   90.850">  7  8 -1 -1</clus>
<clus scale="   99.011">  1  7  2 -1</clus>
<clus scale="   90.128">  2  9  1 -1</clus>
<clus scale="   90.128">  2  5  1 -1</clus>
</clustering>
</event>
<event>
 9    2  0.1302972E-004  0.1271575E+03  0.7546771E-02  0.1233710E+00
          2   -1    0    0  502    0 -0.00000000000E+00  0.00000000000E+00  0.68984126837E+03  0.68984126837E+03  0.00000000000E+00 0. -1.
         21   -1    0    0  501  502  0.00000000000E+00 -0.00000000000E+00 -0.32890679351E+02  0.32890679351E+02  0.00000000000E+00 0. -1.
         24    2    1    2    0    0  0.53126892190E+02  0.44244656088E+02  0.20607693272E+03  0.23270856018E+03  0.83099431500E+02 0.  0.
         23    2    1    2    0    0 -0.80526807241E+02 -0.80383505802E+02  0.31799465354E+03  0.34961825523E+03  0.90367306167E+02 0.  0.
        -11    1    3    3    0    0  0.65055181481E+02  0.54468602885E+02  0.13151438287E+03  0.15650890786E+03  0.00000000000E+00 0.  1.
         12    1    3    3    0    0 -0.11928289290E+02 -0.10223946797E+02  0.74562549852E+02  0.76199652322E+02  0.00000000000E+00 0. -1.
        -13    1    4    4    0    0 -0.40526447158E+02 -0.94096388256E+02  0.23857042616E+03  0.25963892513E+03  0.00000000000E+00 0. -1.
         13    1    4    4    0    0 -0.40000360082E+02  0.13712882454E+02  0.79424227371E+02  0.89979330101E+02  0.00000000000E+00 0.  1.
          1    1    1    2  501    0  0.27399915051E+02  0.36138849714E+02  0.13287900276E+03  0.14040513231E+03  0.00000000000E+00 0. -1.
<scales pt_clust_5="13000.00000" pt_clust_6="13000.00000" pt_clust_7="13000.00000" pt_clust_8="13000.00000" pt_clust_9="45.35167"></scales>
<clustering>
<clus scale="   45.352">  2  9  1 -1</clus>
<clus scale="   83.099">  5  6 -1 -1</clus>
<clus scale="   90.367">  7  8 -1 -1</clus>
<clus scale="  122.099">  1  5  2 -1</clus>
<clus scale="   45.352">  2  5  1 -1</clus>
</clustering>
</event>
<event>
 9    2  0.1302972E-004  0.9800071E+02  0.7546771E-02  0.1289549E+00
         21   -1    0    0  501  502  0.00000000000E+00  0.00000000000E+00  0.64465303884E+03  0.64465303884E+03  0.00000000000E+00 0.  1.
         -3   -1    0    0    0  501 -0.00000000000E+00 -0.00000000000E+00 -0.81902865464E+02  0.81902865464E+02  0.00000000000E+00 0.  1.
         23    2    1    2    0    0 -0.42465594236E+02  0.22400260852E+00 -0.27465000744E+02  0.10206845589E+03  0.88658144301E+02 0.  0.
         24    2    1    2    0    0  0.29132227445E+02  0.70485998111E+02  0.20394491997E+03  0.23157220041E+03  0.78836482777E+02 0.  0.
        -11    1    4    4    0    0 -0.17251894494E+02  0.40893692486E+02  0.14173792088E+03  0.14852461131E+03  0.00000000000E+00 0.  1.
         12    1    4    4    0    0  0.46384121939E+02  0.29592305625E+02  0.62206999089E+02  0.83047589103E+02  0.00000000000E+00 0. -1.
        -13    1    3    3    0    0  0.20427282966E+02 -0.48949538516E+01  0.15173128318E+02  0.25912512143E+02  0.00000000000E+00 0.  1.
         13    1    3    3    0    0 -0.62892877203E+02  0.51189564601E+01 -0.42638129062E+02  0.76155943747E+02  0.00000000000E+00 0. -1.
         -4    1    1    2    0  502  0.13333366791E+02 -0.70710000720E+02  0.38627025415E+03  0.39291524801E+03  0.00000000000E+00 0.  1.
<scales pt_clust_5="13000.00000" pt_clust_6="13000.00000" pt_clust_7="13000.00000" pt_clust_8="13000.00000" pt_clust_9="71.95612"></scales>
<clustering>
<clus scale="   71.956">  1  9  2 -1</clus>
<clus scale="   78.836">  5  6 -1 -1</clus>
<clus scale="   88.658">  7  8 -1 -1</clus>
<clus scale="   89.214">  1  5  2 -1</clus>
<clus scale="   71.956">  1  5  2 -1</clus>
</clustering>
</event>
<event>
 9    2  0.1302972E-004  0.1622050E+03  0.7546771E-02  0.1188101E+00
         21   -1    0    0  501  502  0.00000000000E+00  0.00000000000E+00  0.32822610209E+03  0.32822610209E+03  0.00000000000E+00 0. -1.
          2   -1    0    0  502    0 -0.00000000000E+00 -0.00000000000E+00 -0.37210014249E+03  0.37210014249E+03  0.00000000000E+00 0. -1.
         24    2    1    2    0    0  0.12072923568E+03 -0.98078478503E+02 -0.29715455749E+03  0.34441171214E+03  0.78253818618E+02 0.  0.
         23    2    1    2    0    0 -0.65081700182E+02  0.22307407453E+02  0.36343407439E+02  0.11948354260E+03  0.90676488476E+02 0.  0.
        -13    1    3    3    0    0  0.16373818131E+02 -0.60077822418E+02 -0.91364461794E+02  0.11056632193E+03  0.00000000000E+00 0.  1.
         14    1    3    3    0    0  0.10435541755E+03 -0.38000656085E+02 -0.20579009569E+03  0.23384539020E+03  0.00000000000E+00 0. -1.
        -11    1    4    4    0    0 -0.62032750240E+02 -0.89103718842E+01  0.54662806247E+02  0.83159360364E+02  0.00000000000E+00 0.  1.
         11    1    4    4    0    0 -0.30489499424E+01  0.31217779337E+02 -0.18319398808E+02  0.36324182237E+02  0.00000000000E+00 0. -1.
          1    1    1    2  501    0 -0.55647535498E+02  0.75771071050E+02  0.21693710965E+03  0.23643098985E+03  0.00000000000E+00 0. -1.
<scales pt_clust_5="13000.00000" pt_clust_6="13000.00000" pt_clust_7="13000.00000" pt_clust_8="13000.00000" pt_clust_9="94.01012"></scales>
<clustering>
<clus scale="   78.254">  5  6 -1 -1</clus>
<clus scale="   90.676">  7  8 -1 -1</clus>
<clus scale="   94.010">  1  9  2 -1</clus>
<clus scale="  155.602">  2  5  1 -1</clus>
<clus scale="   94.010">  1  5  2 -1</clus>
</clustering>
</event>
<event>
 9    2  0.1302972E-004  0.1414177E+03  0.7546771E-02  0.1221267E+00
         21   -1    0    0  501  502  0.00000000000E+00  0.00000000000E+00  0.11765285899E+03  0.11765285899E+03  0.00000000000E+00 0. -1.
          2   -1    0    0  502    0 -0.00000000000E+00 -0.00000000000E+00 -0.58230474421E+03  0.58230474421E+03  0.00000000000E+00 0. -1.
         23    2    1    2    0    0 -0.67915690926E+02  0.13586641805E+02 -0.40987807430E+03  0.42567568389E+03  0.91665774181E+02 0.  0.
         24    2    1    2    0    0 -0.37577986906E+02 -0.97591373965E+02 -0.19093884482E+02  0.13478723038E+03  0.82866396546E+02 0.  0.
        -11    1    4    4    0    0  0.19723824833E+02 -0.60689560092E+02  0.68995494308E+00  0.63817928578E+02  0.00000000000E+00 0.  1.
         12    1    4    4    0    0 -0.57301811740E+02 -0.36901813874E+02 -0.19783839425E+02  0.70969301802E+02  0.00000000000E+00 0. -1.
        -13    1    3    3    0    0 -0.21396475061E+02  0.50911036049E+02 -0.20139608369E+03  0.20883037438E+03  0.00000000000E+00 0.  1.
         13    1    3    3    0    0 -0.46519215864E+02 -0.37324394244E+02 -0.20848199061E+03  0.21684530951E+03  0.00000000000E+00 0. -1.
          1    1    1    2  501    0  0.10549367783E+03  0.84004732161E+02 -0.35679926440E+02  0.13949468893E+03  0.00000000000E+00 0. -1.
<scales pt_clust_5="13000.00000" pt_clust_6="13000.00000" pt_clust_7="13000.00000" pt_clust_8="13000.00000" pt_clust_9="114.59553"></scales>
<clustering>
<clus scale="   82.866">  5  6 -1 -1</clus>
<clus scale="   91.666">  7  8 -1 -1</clus>
<clus scale="  114.890">  2  7  1 -1</clus>
<clus scale="  114.596">  1  9  2 -1</clus>
<clus scale="  114.596">  1  5  2 -1</clus>
</clustering>
</event>
<event>
 9    2  0.1302972E-004  0.1482595E+03  0.7546771E-02  0.1204693E+00
         21   -1    0    0  501  502  0.00000000000E+00  0.00000000000E+00  0.35490922039E+03  0.35490922039E+03  0.00000000000E+00 0. -1.
          2   -1    0    0  502    0 -0.00000000000E+00 -0.00000000000E+00 -0.21579208295E+03  0.21579208295E+03  0.00000000000E+00 0. -1.
         24    2    1    2    0    0  0.12810571476E+03  0.38203635538E+02  0.12637094690E+03  0.20071907295E+03  0.80299054191E+02 0.  0.
         23    2    1    2    0    0 -0.10111777948E+03  0.56935917517E+01  0.16221456989E+03  0.21188064393E+03  0.91228385233E+02 0.  0.
        -11    1    3    3    0    0  0.34248109651E+02  0.48123779330E+02  0.66529931028E+02  0.88966639109E+02  0.00000000000E+00 0.  1.
         12    1    3    3    0    0  0.93857605105E+02 -0.99201437922E+01  0.59841015873E+02  0.11175243384E+03  0.00000000000E+00 0. -1.
        -11    1    4    4    0    0  0.60115803187E+01  0.22081996126E+02  0.54366058276E+02  0.58986625122E+02  0.00000000000E+00 0.  1.
         11    1    4    4    0    0 -0.10712935980E+03 -0.16388404375E+02  0.10784851162E+03  0.15289401881E+03  0.00000000000E+00 0. -1.
          1    1    1    2  501    0 -0.26987935275E+02 -0.43897227289E+02 -0.14946837935E+03  0.15810158645E+03  0.00000000000E+00 0. -1.
<scales pt_clust_5="13000.00000" pt_clust_6="13000.00000" pt_clust_7="13000.00000" pt_clust_8="13000.00000" pt_clust_9="51.52978"></scales>
<clustering>
<clus scale="   51.530">  1  9  2 -1</clus>
<clus scale="   80.299">  5  6 -1 -1</clus>
<clus scale="   91.228">  7  8 -1 -1</clus>
<clus scale="  141.796">  2  5  1 -1</clus>
<clus scale="   51.530">  1  5  2 -1</clus>
</clustering>
</event>
<event>
 9    2  0.1302972E-004  0.1003698E+03  0.7546771E-02  0.1284038E+00
         21   -1    0    0  501  502  0.00000000000E+00  0.00000000000E+00  0.19067084761E+03  0.19067084761E+03  0.00000000000E+00 0. -1.
          2   -1    0    0  502    0 -0.00000000000E+00 -0.00000000000E+00 -0.39798797764E+03  0.39798797764E+03  0.00000000000E+00 0. -1.
         24    2    1    2    0    0  0.50656166769E+02  0.17857531223E+02 -0.28916610385E+03  0.30501507534E+03  0.80822162275E+02 0.  0.
         23    2    1    2    0    0 -0.22313158717E+02  0.28384763056E+02 -0.71775654929E+02  0.12072597174E+03  0.90107956287E+02 0.  0.
        -11    1    3    3    0    0 -0.20205422138E+02  0.51686172650E+01 -0.10940435509E+03  0.11137453300E+03  0.00000000000E+00 0.  1.
         12    1    3    3    0    0  0.70861588908E+02  0.12688913958E+02 -0.17976174876E+03  0.19364054234E+03  0.00000000000E+00 0. -1.
        -13    1    4    4    0    0 -0.48384392679E+02 -0.10853191403E+02 -0.31495487833E+02  0.58743569626E+02  0.00000000000E+00 0.  1.
         13    1    4    4    0    0  0.26071233963E+02  0.39237954459E+02 -0.40280167096E+02  0.61982402113E+02  0.00000000000E+00 0. -1.
          1    1    1    2  501    0 -0.28343008053E+02 -0.46242294279E+02  0.15362462875E+03  0.16291777817E+03  0.00000000000E+00 0. -1.
<scales pt_clust_5="13000.00000" pt_clust_6="13000.00000" pt_clust_7="13000.00000" pt_clust_8="13000.00000" pt_clust_9="54.23722"></scales>
<clustering>
<clus scale="   54.237">  1  9  2 -1</clus>
<clus scale="   80.822">  5  6 -1 -1</clus>
<clus scale="   90.108">  7  8 -1 -1</clus>
<clus scale="   92.124">  2  5  1 -1</clus>
<clus scale="   54.237">  1  5  2 -1</clus>
</clustering>
</event>
<event>
 9    2  0.1302972E-004  0.1262325E+03  0.7546771E-02  0.1244473E+00
         21   -1    0    0  501  502  0.00000000000E+00  0.00000000000E+00  0.44666134655E+03  0.44666134655E+03  0.00000000000E+00 0.  1.
         -3   -1    0    0    0  501 -0.00000000000E+00 -0.00000000000E+00 -0.10111277990E+03  0.10111277990E+03  0.00000000000E+00 0.  1.
         23    2    1    2    0    0 -0.25845266894E+02 -0.32319284841E+02  0.16412805383E+03  0.19233056771E+03  0.91326421298E+02 0.  0.
         24    2    1    2    0    0  0.63750728338E+02 -0.65193078080E+02 -0.28204737618E+02  0.12116118520E+03  0.74633992141E+02 0.  0.
        -11    1    4    4    0    0  0.79878588187E+02 -0.58442734083E+02 -0.30403463286E+02  0.10353990824E+03  0.00000000000E+00 0.  1.
         12    1    4    4    0    0 -0.16127859849E+02 -0.67503439972E+01  0.21987256680E+01  0.17621276968E+02  0.00000000000E+00 0. -1.
        -11    1    3    3    0    0 -0.12934450419E+02 -0.61393074945E+02  0.13637204121E+03  0.15011243547E+03  0.00000000000E+00 0.  1.
         11    1    3    3    0    0 -0.12910816474E+02  0.29073790104E+02  0.27756012618E+02  0.42218132236E+02  0.00000000000E+00 0. -1.
         -4    1    1    2    0  502 -0.37905461444E+02  0.97512362921E+02  0.20962525043E+03  0.23428237353E+03  0.00000000000E+00 0.  1.
<scales pt_clust_5="13000.00000" pt_clust_6="13000.00000" pt_clust_7="13000.00000" pt_clust_8="13000.00000" pt_clust_9="101.80575"></scales>
<clustering>
<clus scale="   74.634">  5  6 -1 -1</clus>
<clus scale="   91.326">  7  8 -1 -1</clus>
<clus scale="  100.265">  2  7  1 -1</clus>
<clus scale="  101.806">  1  9  2 -1</clus>
<clus scale="  101.806">  1  5  2 -1</clus>
</clustering>
</event>
<event>
 9    2  0.1302972E-004  0.1380667E+03  0.7546771E-02  0.1227977E+00
          2   -1    0    0  502    0 -0.00000000000E+00  0.00000000000E+00  0.13291926755E+03  0.13291926755E+03  0.00000000000E+00 0. -1.
         21   -1    0    0  501  502  0.00000000000E+00 -0.00000000000E+00 -0.57471587298E+03  0.57471587298E+03  0.00000000000E+00 0. -1.
         24    2    1    2    0    0 -0.23362651328E+02 -0.66585619193E+02 -0.34581181454E+02  0.11278522306E+03  0.80902350209E+02 0.  0.
         23    2    1    2    0    0  0.67907952881E+02 -0.67862610940E+02 -0.43050259697E+03  0.45131280415E+03  0.95571633661E+02 0.  0.
        -13    1    3    3    0    0 -0.38724826341E+02 -0.94832214607E+00 -0.20844914463E+02  0.43988884380E+02  0.00000000000E+00 0.  1.
         14    1    3    3    0    0  0.15362175013E+02 -0.65637297047E+02 -0.13736266991E+02  0.68796338679E+02  0.00000000000E+00 0. -1.
        -11    1    4    4    0    0  0.41241747713E+02  0.15901885398E+02 -0.10026961145E+03  0.10957986446E+03  0.00000000000E+00 0.  1.
         11    1    4    4    0    0  0.26666205168E+02 -0.83764496339E+02 -0.33023298552E+03  0.34173293969E+03  0.00000000000E+00 0. -1.
          1    1    1    2  501    0 -0.44545301553E+02  0.13444823013E+03  0.23287172999E+02  0.14353711333E+03  0.00000000000E+00 0. -1.
<scales pt_clust_5="13000.00000" pt_clust_6="13000.00000" pt_clust_7="13000.00000" pt_clust_8="13000.00000" pt_clust_9="99.64179"></scales>
<clustering>
<clus scale="   80.902">  5  6 -1 -1</clus>
<clus scale="   95.572">  7  8 -1 -1</clus>
<clus scale="  107.353">  1  5  2 -1</clus>
<clus scale="   99.642">  2  9  1 -1</clus>
<clus scale="   99.642">  2  5  1 -1</clus>
</clustering>
</event>
<event>
 9    2  0.1302972E-004  0.1049767E+03  0.7546771E-02  0.1270787E+00
         21   -1    0    0  501  502  0.00000000000E+00  0.00000000000E+00  0.55484852850E+02  0.55484852850E+02  0.00000000000E+00 0. -1.
          2   -1    0    0  502    0 -0.00000000000E+00 -0.00000000000E+00 -0.36153262095E+03  0.36153262095E+03  0.00000000000E+00 0. -1.
         24    2    1    2    0    0  0.51489793042E+02 -0.32944906669E+02 -0.25046561786E+03  0.27141811095E+03  0.84842203882E+02 0.  0.
         23    2    1    2    0    0 -0.34395465068E+02  0.44930551282E+02 -0.21251273098E+02  0.10541875993E+03  0.86369530975E+02 0.  0.
        -11    1    3    3    0    0  0.37333512230E+02  0.15918017589E+02 -0.48982078921E+02  0.63611464964E+02  0.00000000000E+00 0.  1.
         12    1    3    3    0    0  0.14156280813E+02 -0.48862924258E+02 -0.20148353894E+03  0.20780664599E+03  0.00000000000E+00 0. -1.
        -11    1    4    4    0    0 -0.44584029325E+02  0.22698823865E+02 -0.47890491683E+02  0.69256562645E+02  0.00000000000E+00 0.  1.
         11    1    4    4    0    0  0.10188564258E+02  0.22231727417E+02  0.26639218585E+02  0.36162197284E+02  0.00000000000E+00 0. -1.
          1    1    1    2  501    0 -0.17094327975E+02 -0.11985644614E+02 -0.34330877146E+02  0.40180602923E+02  0.00000000000E+00 0. -1.
<scales pt_clust_5="13000.00000" pt_clust_6="13000.00000" pt_clust_7="13000.00000" pt_clust_8="13000.00000" pt_clust_9="20.87755"></scales>
<clustering>
<clus scale="   20.878">  1  9  2 -1</clus>
<clus scale="   84.842">  5  6 -1 -1</clus>
<clus scale="   86.370">  7  8 -1 -1</clus>
<clus scale="  103.724">  2  5  1 -1</clus>
<clus scale="   20.878">  1  5  2 -1</clus>
</clustering>
</event>
<event>
 9    2  0.1302972E-004  0.1124565E+03  0.7546771E-02  0.1259740E+00
         21   -1    0    0  501  502  0.00000000000E+00  0.00000000000E+00  0.28619730220E+03  0.28619730220E+03  0.00000000000E+00 0. -1.
          2   -1    0    0  502    0 -0.00000000000E+00 -0.00000000000E+00 -0.50482781776E+02  0.50482781776E+02  0.00000000000E+00 0. -1.
         24    2    1    2    0    0  0.70539430573E+02 -0.13152472982E+02  0.94155860971E+02  0.14369000230E+03  0.81441339590E+02 0.  0.
         23    2    1    2    0    0 -0.59107597690E+02 -0.40216475854E+01  0.12930111629E+03  0.16899248629E+03  0.91267737961E+02 0.  0.
        -13    1    3    3    0    0  0.46336644460E+02 -0.36581613766E+02  0.92788087222E+02  0.10997694402E+03  0.00000000000E+00 0.  1.
         14    1    3    3    0    0  0.24202786113E+02  0.23429140784E+02  0.13677737491E+01  0.33713058279E+02  0.00000000000E+00 0. -1.
        -13    1    4    4    0    0 -0.50030920592E+02  0.38975908184E+02  0.89568190282E+02  0.10974823527E+03  0.00000000000E+00 0.  1.
         13    1    4    4    0    0 -0.90766770979E+01 -0.42997555770E+02  0.39732926011E+02  0.59244251018E+02  0.00000000000E+00 0. -1.
          1    1    1    2  501    0 -0.11431832883E+02  0.17174120568E+02  0.12257543163E+02  0.23997595395E+02  0.00000000000E+00 0. -1.
<scales pt_clust_5="13000.00000" pt_clust_6="13000.00000" pt_clust_7="13000.00000" pt_clust_8="13000.00000" pt_clust_9="20.63099"></scales>
<clustering>
<clus scale="   20.631">  1  9  2 -1</clus>
<clus scale="   81.441">  5  6 -1 -1</clus>
<clus scale="   91.268">  7  8 -1 -1</clus>
<clus scale="  104.639">  2  5  1 -1</clus>
<clus scale="   20.631">  1  5  2 -1</clus>
</clustering>
</event>
<event>
 9    2  0.1302972E-004  0.1065922E+03  0.7546771E-02  0.1272311E+00
         21   -1    0    0  501  502  0.00000000000E+00  0.00000000000E+00  0.34475188684E+03  0.34475188684E+03  0.00000000000E+00 0. -1.
          2   -1    0    0  502    0 -0.00000000000E+00 -0.00000000000E+00 -0.23785835965E+03  0.23785835965E+03  0.00000000000E+00 0. -1.
         24    2    1    2    0    0 -0.29172684902E+02 -0.39214139432E+02 -0.15902134262E+03  0.18476128755E+03  0.80375068867E+02 0.  0.
         23    2    1    2    0    0  0.78801610162E+02  0.26158870623E+02 -0.27087918056E+01  0.12436743882E+03  0.92552374415E+02 0.  0.
        -13    1    3    3    0    0  0.20437192251E+02  0.33469875637E+00 -0.84278843754E+02  0.86722052299E+02  0.00000000000E+00 0.  1.
         14    1    3    3    0    0 -0.49609877154E+02 -0.39548838188E+02 -0.74742498862E+02  0.98039235255E+02  0.00000000000E+00 0. -1.
        -13    1    4    4    0    0  0.17021404419E+02 -0.13788811258E+02  0.35310848934E+02  0.41553767299E+02  0.00000000000E+00 0.  1.
         13    1    4    4    0    0  0.61780205743E+02  0.39947681880E+02 -0.38019640740E+02  0.82813671524E+02  0.00000000000E+00 0. -1.
          1    1    1    2  501    0 -0.49628925260E+02  0.13055268809E+02  0.26862366162E+03  0.27348152012E+03  0.00000000000E+00 0. -1.
<scales pt_clust_5="13000.00000" pt_clust_6="13000.00000" pt_clust_7="13000.00000" pt_clust_8="13000.00000" pt_clust_9="51.31735"></scales>
<clustering>
<clus scale="   51.317">  1  9  2 -1</clus>
<clus scale="   80.375">  5  6 -1 -1</clus>
<clus scale="   92.552">  7  8 -1 -1</clus>
<clus scale="   96.209">  2  5  1 -1</clus>
<clus scale="   51.317">  1  5  2 -1</clus>
</clustering>
</event>
<event>
 9    2  0.1302972E-004  0.9327062E+02  0.7546771E-02  0.1298320E+00
         21   -1    0    0  501  502  0.00000000000E+00  0.00000000000E+00  0.48125620129E+03  0.48125620129E+03  0.00000000000E+00 0. -1.
         -1   -1    0    0    0  501 -0.00000000000E+00 -0.00000000000E+00 -0.66082480358E+02  0.66082480358E+02  0.00000000000E+00 0.  1.
         23    2    1    2    0    0 -0.17538756596E+02 -0.20282659279E+02 -0.46637525755E+01  0.95648873560E+02  0.91694940836E+02 0.  0.
         24    2    1    2    0    0 -0.27641080362E+02 -0.32280811537E+02  0.26985872765E+03  0.28646946932E+03  0.86226120459E+02 0.  0.
        -13    1    4    4    0    0 -0.22336831829E+02 -0.46727920256E+02  0.75818111539E+02  0.91819489352E+02  0.00000000000E+00 0.  1.
         14    1    4    4    0    0 -0.53042485332E+01  0.14447108719E+02  0.19404061611E+03  0.19464997997E+03  0.00000000000E+00 0. -1.
        -13    1    3    3    0    0  0.28917803993E+02  0.18409126798E+02 -0.76233797848E+01  0.35117677266E+02  0.00000000000E+00 0. -1.
         13    1    3    3    0    0 -0.46456560589E+02 -0.38691786077E+02  0.29596272093E+01  0.60531196294E+02  0.00000000000E+00 0.  1.
         -2    1    1    2    0  502  0.45179836958E+02  0.52563470816E+02  0.14997874586E+03  0.16522033877E+03  0.00000000000E+00 0.  1.
<scales pt_clust_5="13000.00000" pt_clust_6="13000.00000" pt_clust_7="13000.00000" pt_clust_8="13000.00000" pt_clust_9="69.31188"></scales>
<clustering>
<clus scale="   69.312">  1  9  2 -1</clus>
<clus scale="   86.226">  5  6 -1 -1</clus>
<clus scale="   87.900">  1  5  2 -1</clus>
<clus scale="   91.695">  7  8 -1 -1</clus>
<clus scale="   69.312">  1  5  2 -1</clus>
</clustering>
</event>
<event>
 9    2  0.1302972E-004  0.1619045E+03  0.7546771E-02  0.1207237E+00
         21   -1    0    0  501  502  0.00000000000E+00  0.00000000000E+00  0.12166944649E+03  0.12166944649E+03  0.00000000000E+00 0. -1.
          2   -1    0    0  502    0 -0.00000000000E+00 -0.00000000000E+00 -0.41799815271E+03  0.41799815271E+03  0.00000000000E+00 0. -1.
         24    2    1    2    0    0 -0.63996190335E+02  0.10404614594E+02  0.70430145416E+01  0.10332642179E+03  0.80143477607E+02 0.  0.
         23    2    1    2    0    0 -0.26968078592E+02 -0.11855490788E+03 -0.23168200013E+03  0.27787856289E+03  0.93580997443E+02 0.  0.
        -11    1    3    3    0    0 -0.66580856719E+02  0.90782541120E+01 -0.24594075861E+02  0.71556227868E+02  0.00000000000E+00 0.  1.
         12    1    3    3    0    0  0.25846663846E+01  0.13263604820E+01  0.31637090402E+02  0.31770193918E+02  0.00000000000E+00 0. -1.
        -11    1    4    4    0    0  0.74450588910E+01 -0.52616086032E+02 -0.17902942972E+03  0.18674961343E+03  0.00000000000E+00 0.  1.
         11    1    4    4    0    0 -0.34413137483E+02 -0.65938821845E+02 -0.52652570412E+02  0.91128949454E+02  0.00000000000E+00 0. -1.
          1    1    1    2  501    0  0.90964268927E+02  0.10815029328E+03 -0.71689720634E+02  0.15846261453E+03  0.00000000000E+00 0. -1.
<scales pt_clust_5="13000.00000" pt_clust_6="13000.00000" pt_clust_7="13000.00000" pt_clust_8="13000.00000" pt_clust_9="132.11990"></scales>
<clustering>
<clus scale="   80.143">  5  6 -1 -1</clus>
<clus scale="   93.581">  7  8 -1 -1</clus>
<clus scale="  103.086">  2  5  1 -1</clus>
<clus scale="  132.120">  1  9  2 -1</clus>
<clus scale="  132.120">  1  5  2 -1</clus>
</clustering>
</event>
<event>
 9    2  0.1302972E-004  0.2062349E+03  0.7546771E-02  0.1145523E+00
          2   -1    0    0  502    0 -0.00000000000E+00  0.00000000000E+00  0.11450038634E+04  0.11450038634E+04  0.00000000000E+00 0. -1.
         21   -1    0    0  501  502  0.00000000000E+00 -0.00000000000E+00 -0.78962357880E+02  0.78962357880E+02  0.00000000000E+00 0. -1.
         23    2    1    2    0    0 -0.22986378497E+03 -0.63225487030E+01  0.81060027965E+03  0.84757047740E+03  0.91790884812E+02 0.  0.
         24    2    1    2    0    0  0.12729051453E+03  0.99975462053E+01  0.22171384611E+03  0.26835724350E+03  0.80967614289E+02 0.  0.
        -13    1    4    4    0    0  0.47973300453E+02  0.42273855935E+02  0.11448673638E+03  0.13113248742E+03  0.00000000000E+00 0.  1.
         14    1    4    4    0    0  0.79317214078E+02 -0.32276309730E+02  0.10722710973E+03  0.13722475608E+03  0.00000000000E+00 0. -1.
        -11    1    3    3    0    0 -0.39480270971E+02  0.32854327666E+02  0.13064178782E+03  0.14037583612E+03  0.00000000000E+00 0.  1.
         11    1    3    3    0    0 -0.19038351400E+03 -0.39176876369E+02  0.67995849183E+03  0.70719464128E+03  0.00000000000E+00 0. -1.
          1    1    1    2  501    0  0.10257327044E+03 -0.36749975022E+01  0.33727379742E+02  0.10803850036E+03  0.00000000000E+00 0. -1.
<scales pt_clust_5="13000.00000" pt_clust_6="13000.00000" pt_clust_7="13000.00000" pt_clust_8="13000.00000" pt_clust_9="102.63908"></scales>
<clustering>
<clus scale="   80.968">  5  6 -1 -1</clus>
<clus scale="   91.791">  7  8 -1 -1</clus>
<clus scale="  102.639">  2  9  1 -1</clus>
<clus scale="  201.651">  2  5  1 -1</clus>
<clus scale="  102.639">  2  5  1 -1</clus>
</clustering>
</event>
<event>
 9    2  0.1302972E-004  0.1000158E+03  0.7546771E-02  0.1285508E+00
         21   -1    0    0  501  502  0.00000000000E+00  0.00000000000E+00  0.19802594549E+03  0.19802594549E+03  0.00000000000E+00 0. -1.
          4   -1    0    0  502    0 -0.00000000000E+00 -0.00000000000E+00 -0.80579897675E+02  0.80579897675E+02  0.00000000000E+00 0. -1.
         23    2    1    2    0    0 -0.10915282643E+02 -0.32203976866E+02 -0.51353691595E+01  0.97283137203E+02  0.91002182647E+02 0.  0.
         24    2    1    2    0    0  0.62704750889E+01  0.62365917637E+02  0.10352813195E+03  0.14534570528E+03  0.80488964438E+02 0.  0.
        -13    1    4    4    0    0  0.41022547059E+02  0.15954973736E+02  0.43249848781E+02  0.61708670166E+02  0.00000000000E+00 0.  1.
         14    1    4    4    0    0 -0.34752071970E+02  0.46410943901E+02  0.60278283169E+02  0.83637035109E+02  0.00000000000E+00 0. -1.
        -11    1    3    3    0    0  0.34519702910E+02 -0.29532312581E+02  0.14540101344E+02  0.47698867099E+02  0.00000000000E+00 0.  1.
         11    1    3    3    0    0 -0.45434985553E+02 -0.26716642841E+01 -0.19675470503E+02  0.49584270105E+02  0.00000000000E+00 0. -1.
          3    1    1    2  501    0  0.46448075545E+01 -0.30161940772E+02  0.19053285029E+02  0.35977000691E+02  0.00000000000E+00 0. -1.
<scales pt_clust_5="13000.00000" pt_clust_6="13000.00000" pt_clust_7="13000.00000" pt_clust_8="13000.00000" pt_clust_9="30.51749"></scales>
<clustering>
<clus scale="   30.517">  1  9  2 -1</clus>
<clus scale="   80.489">  5  6 -1 -1</clus>
<clus scale="   90.555">  1  5  2 -1</clus>
<clus scale="   91.002">  7  8 -1 -1</clus>
<clus scale="   30.517">  1  5  2 -1</clus>
</clustering>
</event>
<event>
 9    2  0.1302972E-004  0.2162604E+03  0.7546771E-02  0.1169124E+00
         21   -1    0    0  501  502  0.00000000000E+00  0.00000000000E+00  0.19285699754E+03  0.19285699754E+03  0.00000000000E+00 0. -1.
          2   -1    0    0  502    0 -0.00000000000E+00 -0.00000000000E+00 -0.10944145293E+04  0.10944145293E+04  0.00000000000E+00 0. -1.
         23    2    1    2    0    0  0.41735733995E+02  0.67657706625E+01 -0.10295083904E+03  0.14400726090E+03  0.91386918030E+02 0.  0.
         24    2    1    2    0    0  0.44502451718E+02  0.17475935247E+03 -0.89752160270E+03  0.91927195704E+03  0.83633750388E+02 0.  0.
        -13    1    4    4    0    0 -0.19471905004E+02  0.18186447602E+02 -0.76437355305E+02  0.80947953939E+02  0.00000000000E+00 0.  1.
         14    1    4    4    0    0  0.63974356722E+02  0.15657290486E+03 -0.82108424740E+03  0.83832400310E+03  0.00000000000E+00 0. -1.
        -11    1    3    3    0    0  0.33181701906E+02  0.37697408608E+02 -0.18255928832E+02  0.53435932617E+02  0.00000000000E+00 0. -1.
         11    1    3    3    0    0  0.85540320893E+01 -0.30931637946E+02 -0.84694910210E+02  0.90571328281E+02  0.00000000000E+00 0.  1.
          1    1    1    2  501    0 -0.86238185714E+02 -0.18152512313E+03  0.98914910022E+02  0.22399230886E+03  0.00000000000E+00 0. -1.
<scales pt_clust_5="13000.00000" pt_clust_6="13000.00000" pt_clust_7="13000.00000" pt_clust_8="13000.00000" pt_clust_9="199.43405"></scales>
<clustering>
<clus scale="   83.634">  5  6 -1 -1</clus>
<clus scale="   91.387">  7  8 -1 -1</clus>
<clus scale="  100.694">  2  7  1 -1</clus>
<clus scale="  199.434">  1  9  2 -1</clus>
<clus scale="  199.434">  1  5  2 -1</clus>
</clustering>
</event>
<event>
 9    2  0.1302972E-004  0.9194686E+02  0.7546771E-02  0.1305587E+00
          2   -1    0    0  502    0 -0.00000000000E+00  0.00000000000E+00  0.36246709764E+03  0.36246709764E+03  0.00000000000E+00 0. -1.
         21   -1    0    0  501  502  0.00000000000E+00 -0.00000000000E+00 -0.10753822532E+03  0.10753822532E+03  0.00000000000E+00 0. -1.
         24    2    1    2    0    0 -0.67530653021E+01 -0.64281659097E+01  0.31223807174E+03  0.32240049280E+03  0.79765525815E+02 0.  0.
         23    2    1    2    0    0 -0.13468163693E+02  0.19488654748E+02 -0.10665674383E+02  0.95115851323E+02  0.91499013468E+02 0.  0.
        -13    1    3    3    0    0 -0.37201209556E+02  0.17654929370E+02  0.17481287587E+03  0.17959723855E+03  0.00000000000E+00 0.  1.
         14    1    3    3    0    0  0.30448144254E+02 -0.24083095279E+02  0.13742519587E+03  0.14280325426E+03  0.00000000000E+00 0. -1.
        -13    1    4    4    0    0  0.31992817558E+02  0.47862229036E+01  0.20289581856E+02  0.38185277751E+02  0.00000000000E+00 0. -1.
         13    1    4    4    0    0 -0.45460981252E+02  0.14702431844E+02 -0.30955256238E+02  0.56930573572E+02  0.00000000000E+00 0.  1.
          1    1    1    2  501    0  0.20221228996E+02 -0.13060488838E+02 -0.46643525039E+02  0.52488978832E+02  0.00000000000E+00 0. -1.
<scales pt_clust_5="13000.00000" pt_clust_6="13000.00000" pt_clust_7="13000.00000" pt_clust_8="13000.00000" pt_clust_9="24.07228"></scales>
<clustering>
<clus scale="   24.072">  2  9  1 -1</clus>
<clus scale="   79.766">  5  6 -1 -1</clus>
<clus scale="   80.279">  1  5  2 -1</clus>
<clus scale="   91.499">  7  8 -1 -1</clus>
<clus scale="   24.072">  2  5  1 -1</clus>
</clustering>
</event>
<event>
 9    2  0.1302972E-004  0.1587907E+03  0.7546771E-02  0.1192147E+00
          2   -1    0    0  502    0 -0.00000000000E+00  0.00000000000E+00  0.24630438183E+04  0.24630438183E+04  0.00000000000E+00 0. -1.
         21   -1    0    0  501  502  0.00000000000E+00 -0.00000000000E+00 -0.19282136287E+02  0.19282136287E+02  0.00000000000E+00 0. -1.
         24    2    1    2    0    0  0.41730874754E+02  0.11929743709E+03  0.17958901210E+04  0.18020679979E+04  0.79084751632E+02 0.  0.
         23    2    1    2    0    0 -0.76789037125E+02 -0.12310316278E+03  0.55142298289E+03  0.57756478983E+03  0.91993670901E+02 0.  0.
        -13    1    3    3    0    0 -0.12527429149E+02  0.27719950552E+02  0.17021423353E+03  0.17291101016E+03  0.00000000000E+00 0.  1.
         14    1    3    3    0    0  0.54258303904E+02  0.91577486540E+02  0.16256758875E+04  0.16291569878E+04  0.00000000000E+00 0. -1.
        -11    1    4    4    0    0 -0.21895682535E+02 -0.11282946488E+03  0.39941162482E+03  0.41561948354E+03  0.00000000000E+00 0.  1.
         11    1    4    4    0    0 -0.54893354591E+02 -0.10273697894E+02  0.15201135807E+03  0.16194530629E+03  0.00000000000E+00 0. -1.
          1    1    1    2  501    0  0.35058162371E+02  0.38057256830E+01  0.96448578098E+02  0.10269316683E+03  0.00000000000E+00 0. -1.
<scales pt_clust_5="13000.00000" pt_clust_6="13000.00000" pt_clust_7="13000.00000" pt_clust_8="13000.00000" pt_clust_9="35.26412"></scales>
<clustering>
<clus scale="   35.264">  2  9  1 -1</clus>
<clus scale="   79.085">  5  6 -1 -1</clus>
<clus scale="   91.994">  7  8 -1 -1</clus>
<clus scale="  151.677">  1  5  2 -1</clus>
<clus scale="   35.264">  2  5  1 -1</clus>
</clustering>
</event>
<event>
 9    2  0.1302972E-004  0.1219969E+03  0.7546771E-02  0.1244099E+00
          2   -1    0    0  502    0 -0.00000000000E+00  0.00000000000E+00  0.60403935633E+03  0.60403935633E+03  0.00000000000E+00 0. -1.
         21   -1    0    0  501  502  0.00000000000E+00 -0.00000000000E+00 -0.49246964038E+02  0.49246964038E+02  0.00000000000E+00 0. -1.
         23    2    1    2    0    0 -0.60268822600E+01 -0.54448435061E+02  0.20789960648E+03  0.23387603928E+03  0.92058676849E+02 0.  0.
         24    2    1    2    0    0  0.28296029092E+01  0.13254844118E+03  0.19357056007E+03  0.24731281319E+03  0.78211060167E+02 0.  0.
        -11    1    4    4    0    0  0.23135884334E+02  0.90239021603E+01  0.14285533480E+02  0.28649195816E+02  0.00000000000E+00 0.  1.
         12    1    4    4    0    0 -0.20306281425E+02  0.12352453902E+03  0.17928502659E+03  0.21866361738E+03  0.00000000000E+00 0. -1.
        -11    1    3    3    0    0  0.26342014248E+02 -0.32365137263E+02  0.18242892782E+03  0.18714090288E+03  0.00000000000E+00 0. -1.
         11    1    3    3    0    0 -0.32368896508E+02 -0.22083297798E+02  0.25470678660E+02  0.46735136399E+02  0.00000000000E+00 0.  1.
          1    1    1    2  501    0  0.31972793508E+01 -0.78100006116E+02  0.15332222574E+03  0.17209746789E+03  0.00000000000E+00 0. -1.
<scales pt_clust_5="13000.00000" pt_clust_6="13000.00000" pt_clust_7="13000.00000" pt_clust_8="13000.00000" pt_clust_9="78.16546"></scales>
<clustering>
<clus scale="   78.165">  2  9  1 -1</clus>
<clus scale="   78.211">  5  6 -1 -1</clus>
<clus scale="   92.059">  7  8 -1 -1</clus>
<clus scale="  111.917">  2  5  1 -1</clus>
<clus scale="   78.165">  2  5  1 -1</clus>
</clustering>
</event>
<event>
 9    2  0.1302972E-004  0.1166719E+03  0.7546771E-02  0.1258285E+00
         21   -1    0    0  501  502  0.00000000000E+00  0.00000000000E+00  0.41430280687E+03  0.41430280687E+03  0.00000000000E+00 0.  1.
         -1   -1    0    0    0  501 -0.00000000000E+00 -0.00000000000E+00 -0.48506276730E+02  0.48506276730E+02  0.00000000000E+00 0.  1.
         24    2    1    2    0    0  0.28585881289E+02 -0.25925644685E+02  0.12172750222E+03  0.16855655111E+03  0.11002015481E+03 0.  0.
         23    2    1    2    0    0 -0.50092003141E+02 -0.28110421571E+02  0.14214565975E+03  0.17690355417E+03  0.88261397631E+02 0.  0.
        -11    1    3    3    0    0 -0.39225359916E+02  0.90280954309E+01  0.44440152508E+02  0.59958840237E+02  0.00000000000E+00 0.  1.
         12    1    3    3    0    0  0.67811241205E+02 -0.34953740115E+02  0.77287349716E+02  0.10859771088E+03  0.00000000000E+00 0. -1.
        -11    1    4    4    0    0 -0.15983972293E+02  0.26856155893E+02  0.15936037736E+02  0.35081302404E+02  0.00000000000E+00 0. -1.
         11    1    4    4    0    0 -0.34108030848E+02 -0.54966577464E+02  0.12620962201E+03  0.14182225176E+03  0.00000000000E+00 0.  1.
         -2    1    1    2    0  502  0.21506121852E+02  0.54036066256E+02  0.10192336817E+03  0.11734897832E+03  0.00000000000E+00 0.  1.
<scales pt_clust_5="13000.00000" pt_clust_6="13000.00000" pt_clust_7="13000.00000" pt_clust_8="13000.00000" pt_clust_9="58.15849"></scales>
<clustering>
<clus scale="   58.158">  1  9  2 -1</clus>
<clus scale="   88.261">  7  8 -1 -1</clus>
<clus scale="   96.426">  1  7  2 -1</clus>
<clus scale="  110.020">  5  6 -1 -1</clus>
<clus scale="   58.158">  1  5  2 -1</clus>
</clustering>
</event>
<event>
 9    2  0.1302972E-004  0.2465874E+03  0.7546771E-02  0.1141127E+00
         21   -1    0    0  501  502  0.00000000000E+00  0.00000000000E+00  0.84547906895E+02  0.84547906895E+02  0.00000000000E+00 0.  1.
          2   -1    0    0  502    0 -0.00000000000E+00 -0.00000000000E+00 -0.15202509793E+04  0.15202509793E+04  0.00000000000E+00 0. -1.
         23    2    1    2    0    0  0.32637176370E+02  0.86818942771E+02 -0.30020845681E+03  0.32757929996E+03  0.92630265643E+02 0.  0.
         24    2    1    2    0    0  0.22484329291E+03 -0.35113184247E+02 -0.22687702580E+03  0.33141009062E+03  0.81068003877E+02 0.  0.
        -11    1    4    4    0    0  0.22145218727E+03 -0.20753294274E+02 -0.22526197435E+03  0.31656709804E+03  0.00000000000E+00 0.  1.
         12    1    4    4    0    0  0.33911056410E+01 -0.14359889973E+02 -0.16150514420E+01  0.14842992578E+02  0.00000000000E+00 0. -1.
        -13    1    3    3    0    0  0.26747966033E+02 -0.13761512972E+02 -0.77866630522E+02  0.83474817011E+02  0.00000000000E+00 0. -1.
         13    1    3    3    0    0  0.58892103368E+01  0.10058045574E+03 -0.22234182629E+03  0.24410448294E+03  0.00000000000E+00 0.  1.
          1    1    1    2  501    0 -0.25748046928E+03 -0.51705758524E+02 -0.90861758982E+03  0.94580949565E+03  0.00000000000E+00 0. -1.
<scales pt_clust_5="13000.00000" pt_clust_6="13000.00000" pt_clust_7="13000.00000" pt_clust_8="13000.00000" pt_clust_9="232.88057"></scales>
<clustering>
<clus scale="   81.068">  5  6 -1 -1</clus>
<clus scale="   92.630">  7  8 -1 -1</clus>
<clus scale="  131.084">  2  7  1 -1</clus>
<clus scale="  232.881">  1  9  2 -1</clus>
<clus scale="  232.881">  1  5  2 -1</clus>
</clustering>
</event>
<event>
 9    2  0.1302972E-004  0.2840596E+03  0.7546771E-02  0.1096802E+00
          2   -1    0    0  502    0 -0.00000000000E+00  0.00000000000E+00  0.84015411844E+03  0.84015411844E+03  0.00000000000E+00 0. -1.
         21   -1    0    0  501  502  0.00000000000E+00 -0.00000000000E+00 -0.64101149151E+03  0.64101149151E+03  0.00000000000E+00 0. -1.
         24    2    1    2    0    0  0.12428108397E+03 -0.20199764720E+03  0.53017818584E+02  0.26581768507E+03  0.10770011746E+03 0.  0.
         23    2    1    2    0    0 -0.29265530901E+03 -0.12574222838E+02  0.60670758514E+03  0.68006532535E+03  0.92679619713E+02 0.  0.
        -13    1    3    3    0    0  0.12628097970E+03 -0.11890612619E+03  0.57081038955E+02  0.18260284140E+03  0.00000000000E+00 0.  1.
         14    1    3    3    0    0 -0.19998957369E+01 -0.83091521006E+02 -0.40632203706E+01  0.83214843663E+02  0.00000000000E+00 0. -1.
        -13    1    4    4    0    0 -0.11739400942E+03  0.40064149774E+02  0.25721043019E+03  0.28555856658E+03  0.00000000000E+00 0.  1.
         13    1    4    4    0    0 -0.17526129959E+03 -0.52638372612E+02  0.34949715495E+03  0.39450675878E+03  0.00000000000E+00 0. -1.
          1    1    1    2  501    0  0.16837422505E+03  0.21457187004E+03 -0.46058277680E+03  0.53528259952E+03  0.00000000000E+00 0. -1.
<scales pt_clust_5="13000.00000" pt_clust_6="13000.00000" pt_clust_7="13000.00000" pt_clust_8="13000.00000" pt_clust_9="268.51511"></scales>
<clustering>
<clus scale="   92.680">  7  8 -1 -1</clus>
<clus scale="  107.700">  5  6 -1 -1</clus>
<clus scale="  260.477">  1  5  2 -1</clus>
<clus scale="  268.515">  2  9  1 -1</clus>
<clus scale="  268.515">  2  5  1 -1</clus>
</clustering>
</event>
<event>
 9    2  0.1302972E-004  0.1034375E+03  0.7546771E-02  0.1282395E+00
          2   -1    0    0  502    0 -0.00000000000E+00  0.00000000000E+00  0.36540402170E+02  0.36540402170E+02  0.00000000000E+00 0. -1.
         21   -1    0    0  501  502  0.00000000000E+00 -0.00000000000E+00 -0.70604209006E+03  0.70604209006E+03  0.00000000000E+00 0. -1.
         23    2    1    2    0    0 -0.10588675296E+02 -0.43742652234E+01 -0.10615784454E+03  0.14473470556E+03  0.97710760904E+02 0.  0.
         24    2    1    2    0    0  0.36506632351E+02  0.66568783088E+02 -0.20053243649E+03  0.22883286082E+03  0.79919228090E+02 0.  0.
        -13    1    4    4    0    0  0.15592586862E+01  0.73925162357E+02 -0.12388325506E+03  0.14427204095E+03  0.00000000000E+00 0.  1.
         14    1    4    4    0    0  0.34947373665E+02 -0.73563792698E+01 -0.76649181437E+02  0.84560819869E+02  0.00000000000E+00 0. -1.
        -13    1    3    3    0    0 -0.53956332786E+00 -0.36415885098E+02 -0.10499710152E+03  0.11113414932E+03  0.00000000000E+00 0.  1.
         13    1    3    3    0    0 -0.10049111968E+02  0.32041619875E+02 -0.11607430129E+01  0.33600556244E+02  0.00000000000E+00 0. -1.
          1    1    1    2  501    0 -0.25917957055E+02 -0.62194517864E+02 -0.36281140686E+03  0.36901492585E+03  0.00000000000E+00 0. -1.
<scales pt_clust_5="13000.00000" pt_clust_6="13000.00000" pt_clust_7="13000.00000" pt_clust_8="13000.00000" pt_clust_9="67.37877"></scales>
<clustering>
<clus scale="   67.379">  2  9  1 -1</clus>
<clus scale="   79.919">  5  6 -1 -1</clus>
<clus scale="   86.827">  2  5  1 -1</clus>
<clus scale="   97.711">  7  8 -1 -1</clus>
<clus scale="   67.379">  2  5  1 -1</clus>
</clustering>
</event>
<event>
 9    2  0.1302972E-004  0.1683192E+03  0.7546771E-02  0.1203274E+00
         21   -1    0    0  501  502  0.00000000000E+00  0.00000000000E+00  0.37291834716E+02  0.37291834716E+02  0.00000000000E+00 0. -1.
          2   -1    0    0  502    0 -0.00000000000E+00 -0.00000000000E+00 -0.13719930859E+04  0.13719930859E+04  0.00000000000E+00 0. -1.
         24    2    1    2    0    0 -0.49818793696E+02 -0.32580919347E+02 -0.46722843142E+03  0.47779208195E+03  0.80246108509E+02 0.  0.
         23    2    1    2    0    0  0.10414134042E+03 -0.96742290666E+02 -0.28591204316E+03  0.33325511952E+03  0.95439974188E+02 0.  0.
        -11    1    3    3    0    0 -0.50563547760E+02 -0.76201351769E+01 -0.13082749405E+03  0.14046555458E+03  0.00000000000E+00 0.  1.
         12    1    3    3    0    0  0.74475406315E+00 -0.24960784170E+02 -0.33640093737E+03  0.33732652737E+03  0.00000000000E+00 0. -1.
        -11    1    4    4    0    0 -0.13164199054E+02 -0.22600876830E+02 -0.18683997538E+02  0.32143234657E+02  0.00000000000E+00 0.  1.
         11    1    4    4    0    0  0.11730553948E+03 -0.74141413837E+02 -0.26722804562E+03  0.30111188486E+03  0.00000000000E+00 0. -1.
          1    1    1    2  501    0 -0.54322546728E+02  0.12932321001E+03 -0.58156077660E+03  0.59823771915E+03  0.00000000000E+00 0. -1.
<scales pt_clust_5="13000.00000" pt_clust_6="13000.00000" pt_clust_7="13000.00000" pt_clust_8="13000.00000" pt_clust_9="138.64557"></scales>
<clustering>
<clus scale="   80.246">  5  6 -1 -1</clus>
<clus scale="   95.440">  7  8 -1 -1</clus>
<clus scale="   99.914">  2  5  1 -1</clus>
<clus scale="  138.646">  1  9  2 -1</clus>
<clus scale="  138.646">  1  5  2 -1</clus>
</clustering>
</event>
<event>
 9    2  0.1302972E-004  0.2027830E+03  0.7546771E-02  0.1174838E+00
         21   -1    0    0  501  502  0.00000000000E+00  0.00000000000E+00  0.80201723125E+02  0.80201723125E+02  0.00000000000E+00 0.  1.
          2   -1    0    0  502    0 -0.00000000000E+00 -0.00000000000E+00 -0.81018502635E+03  0.81018502635E+03  0.00000000000E+00 0. -1.
         24    2    1    2    0    0 -0.51952419851E+02  0.48285842777E+02 -0.23351588502E+03  0.25695471263E+03  0.80408203831E+02 0.  0.
         23    2    1    2    0    0 -0.63666851014E+02 -0.18072595898E+03 -0.21941196970E+03  0.30530413233E+03  0.91398362144E+02 0.  0.
        -13    1    3    3    0    0  0.16179082295E+02  0.31028030864E+02 -0.10201935450E+03  0.10785383672E+03  0.00000000000E+00 0.  1.
         14    1    3    3    0    0 -0.68131502145E+02  0.17257811913E+02 -0.13149653052E+03  0.14910087591E+03  0.00000000000E+00 0. -1.
        -11    1    4    4    0    0 -0.34350921610E+02 -0.86022770975E+02 -0.41207566383E+02  0.10138030612E+03  0.00000000000E+00 0. -1.
         11    1    4    4    0    0 -0.29315929405E+02 -0.94703188009E+02 -0.17820440331E+03  0.20392382621E+03  0.00000000000E+00 0.  1.
          1    1    1    2  501    0  0.11561927086E+03  0.13244011621E+03 -0.27705544850E+03  0.32812790452E+03  0.00000000000E+00 0. -1.
<scales pt_clust_5="13000.00000" pt_clust_6="13000.00000" pt_clust_7="13000.00000" pt_clust_8="13000.00000" pt_clust_9="181.01745"></scales>
<clustering>
<clus scale="   80.408">  5  6 -1 -1</clus>
<clus scale="   91.398">  7  8 -1 -1</clus>
<clus scale="  107.220">  2  5  1 -1</clus>
<clus scale="  181.017">  1  9  2 -1</clus>
<clus scale="  181.017">  1  5  2 -1</clus>
</clustering>
</event>
<event>
 9    2  0.1302972E-004  0.1261477E+03  0.7546771E-02  0.1236072E+00
          2   -1    0    0  502    0 -0.00000000000E+00  0.00000000000E+00  0.43716865771E+03  0.43716865771E+03  0.00000000000E+00 0. -1.
         21   -1    0    0  501  502  0.00000000000E+00 -0.00000000000E+00 -0.67902752210E+02  0.67902752210E+02  0.00000000000E+00 0. -1.
         23    2    1    2    0    0  0.10717255290E+03 -0.43980930726E+02  0.25995104554E+03  0.29872055493E+03  0.90769738904E+02 0.  0.
         24    2    1    2    0    0 -0.36587480411E+02  0.46845475493E+02  0.85565411620E+02  0.13182237471E+03  0.80762345871E+02 0.  0.
        -11    1    4    4    0    0 -0.41841970703E+02 -0.10092112071E+02  0.34559928459E+02  0.55199546134E+02  0.00000000000E+00 0.  1.
         12    1    4    4    0    0  0.52544902924E+01  0.56937587565E+02  0.51005483162E+02  0.76622828573E+02  0.00000000000E+00 0. -1.
        -13    1    3    3    0    0  0.19782395848E+02 -0.36477576708E+02  0.26250803402E+02  0.49102560699E+02  0.00000000000E+00 0.  1.
         13    1    3    3    0    0  0.87390157057E+02 -0.75033540184E+01  0.23370024213E+03  0.24961799423E+03  0.00000000000E+00 0. -1.
          1    1    1    2  501    0 -0.70585072494E+02 -0.28645447672E+01  0.23749448340E+02  0.74528480275E+02  0.00000000000E+00 0. -1.
<scales pt_clust_5="13000.00000" pt_clust_6="13000.00000" pt_clust_7="13000.00000" pt_clust_8="13000.00000" pt_clust_9="70.64317"></scales>
<clustering>
<clus scale="   70.643">  2  9  1 -1</clus>
<clus scale="   80.762">  5  6 -1 -1</clus>
<clus scale="   90.770">  7  8 -1 -1</clus>
<clus scale="  119.150">  2  5  1 -1</clus>
<clus scale="   70.643">  2  5  1 -1</clus>
</clustering>
</event>
<event>
 9    2  0.1302972E-004  0.1029752E+03  0.7546771E-02  0.1279671E+00
         21   -1    0    0  501  502  0.00000000000E+00  0.00000000000E+00  0.33826653572E+02  0.33826653572E+02  0.00000000000E+00 0. -1.
          2   -1    0    0  502    0 -0.00000000000E+00 -0.00000000000E+00 -0.40302075261E+03  0.40302075261E+03  0.00000000000E+00 0. -1.
         24    2    1    2    0    0 -0.29823712021E+02  0.12320630922E+02 -0.13566357556E+03  0.16113592999E+03  0.80739893821E+02 0.  0.
         23    2    1    2    0    0  0.51760264844E+02 -0.37584005435E+02 -0.16764908934E+03  0.20182092331E+03  0.92378490181E+02 0.  0.
        -13    1    3    3    0    0 -0.29401957064E+02 -0.17271081042E+02 -0.12517676595E+03  0.12973815188E+03  0.00000000000E+00 0.  1.
         14    1    3    3    0    0 -0.42175495678E+00  0.29591711965E+02 -0.10486809609E+02  0.31397778106E+02  0.00000000000E+00 0. -1.
        -13    1    4    4    0    0  0.35421736732E+02  0.18456236742E+02 -0.11998888080E+03  0.12646210351E+03  0.00000000000E+00 0.  1.
         13    1    4    4    0    0  0.16338528112E+02 -0.56040242177E+02 -0.47660208542E+02  0.75358819805E+02  0.00000000000E+00 0. -1.
          1    1    1    2  501    0 -0.21936552823E+02  0.25263374513E+02 -0.65881434128E+02  0.73890552876E+02  0.00000000000E+00 0. -1.
<scales pt_clust_5="13000.00000" pt_clust_6="13000.00000" pt_clust_7="13000.00000" pt_clust_8="13000.00000" pt_clust_9="33.45821"></scales>
<clustering>
<clus scale="   33.458">  1  9  2 -1</clus>
<clus scale="   80.740">  5  6 -1 -1</clus>
<clus scale="   92.378">  7  8 -1 -1</clus>
<clus scale="   92.677">  2  5  1 -1</clus>
<clus scale="   33.458">  1  5  2 -1</clus>
</clustering>
</event>
<event>
 9    2  0.1302972E-004  0.1167585E+03  0.7546771E-02  0.1263661E+00
         21   -1    0    0  501  502  0.00000000000E+00  0.00000000000E+00  0.22318251013E+02  0.22318251013E+02  0.00000000000E+00 0.  1.
          2   -1    0    0  502    0 -0.00000000000E+00 -0.00000000000E+00 -0.93402549464E+03  0.93402549464E+03  0.00000000000E+00 0. -1.
         23    2    1    2    0    0 -0.23759511846E+02 -0.82746403716E+01 -0.67141988759E+03  0.68128439122E+03  0.11274206046E+03 0.  0.
         24    2    1    2    0    0  0.47523949074E+02  0.68602848437E+01 -0.12071372820E+03  0.15313888300E+03  0.81080972296E+02 0.  0.
        -13    1    4    4    0    0  0.54541232659E+02 -0.12416658255E+02 -0.37283039309E+02  0.67223094858E+02  0.00000000000E+00 0.  1.
         14    1    4    4    0    0 -0.70172835855E+01  0.19276943099E+02 -0.83430688888E+02  0.85915788145E+02  0.00000000000E+00 0. -1.
        -13    1    3    3    0    0 -0.30866828364E+02 -0.57763803232E+02 -0.37376835555E+03  0.37946304388E+03  0.00000000000E+00 0.  1.
         13    1    3    3    0    0  0.71073165186E+01  0.49489162860E+02 -0.29765153204E+03  0.30182134735E+03  0.00000000000E+00 0. -1.
          1    1    1    2  501    0 -0.23764437228E+02  0.14143555279E+01 -0.11957362784E+03  0.12192047143E+03  0.00000000000E+00 0. -1.
<scales pt_clust_5="13000.00000" pt_clust_6="13000.00000" pt_clust_7="13000.00000" pt_clust_8="13000.00000" pt_clust_9="23.80650"></scales>
<clustering>
<clus scale="   23.807">  1  9  2 -1</clus>
<clus scale="   81.081">  5  6 -1 -1</clus>
<clus scale="   86.579">  1  5  2 -1</clus>
<clus scale="  112.742">  7  8 -1 -1</clus>
<clus scale="   23.807">  1  5  2 -1</clus>
</clustering>
</event>
<event>
 9    2  0.1302972E-004  0.1006064E+03  0.7546771E-02  0.1284309E+00
         21   -1    0    0  501  502  0.00000000000E+00  0.00000000000E+00  0.19695866612E+02  0.19695866612E+02  0.00000000000E+00 0. -1.
          2   -1    0    0  502    0 -0.00000000000E+00 -0.00000000000E+00 -0.76325720795E+03  0.76325720795E+03  0.00000000000E+00 0. -1.
         23    2    1    2    0    0 -0.20728796516E+02  0.38716157307E+02 -0.54422000379E+03  0.55350275726E+03  0.90891506380E+02 0.  0.
         24    2    1    2    0    0  0.15450161217E+00 -0.44927814162E+02 -0.16736313649E+03  0.19092121616E+03  0.80137126027E+02 0.  0.
        -13    1    4    4    0    0 -0.21860752162E+00 -0.50372380136E+02 -0.17467730663E+03  0.18179545078E+03  0.00000000000E+00 0.  1.
         14    1    4    4    0    0  0.37310913379E+00  0.54445659734E+01  0.73141701402E+01  0.91257653873E+01  0.00000000000E+00 0. -1.
        -13    1    3    3    0    0 -0.46609344126E+02  0.52630638400E+02 -0.42086382079E+03  0.42669517306E+03  0.00000000000E+00 0. -1.
         13    1    3    3    0    0  0.25880547610E+02 -0.13914481092E+02 -0.12335618300E+03  0.12680758421E+03  0.00000000000E+00 0.  1.
          1    1    1    2  501    0  0.20574294903E+02  0.62116568550E+01 -0.31978201053E+02  0.38529101135E+02  0.00000000000E+00 0. -1.
<scales pt_clust_5="13000.00000" pt_clust_6="13000.00000" pt_clust_7="13000.00000" pt_clust_8="13000.00000" pt_clust_9="21.49154"></scales>
<clustering>
<clus scale="   21.492">  1  9  2 -1</clus>
<clus scale="   80.137">  5  6 -1 -1</clus>
<clus scale="   90.892">  7  8 -1 -1</clus>
<clus scale="   91.007">  1  5  2 -1</clus>
<clus scale="   21.492">  1  5  2 -1</clus>
</clustering>
</event>
<event>
 9    2  0.1302972E-004  0.2142602E+03  0.7546771E-02  0.1171187E+00
         21   -1    0    0  501  502  0.00000000000E+00  0.00000000000E+00  0.41561687167E+03  0.41561687167E+03  0.00000000000E+00 0. -1.
          2   -1    0    0  502    0 -0.00000000000E+00 -0.00000000000E+00 -0.20735024941E+03  0.20735024941E+03  0.00000000000E+00 0. -1.
         24    2    1    2    0    0  0.52638961955E+02  0.16859777246E+02 -0.71142560461E+02  0.12172366331E+03  0.81855200791E+02 0.  0.
         23    2    1    2    0    0 -0.93475220364E+02  0.17427333118E+03  0.18021439135E+03  0.28206528420E+03  0.89301662469E+02 0.  0.
        -11    1    3    3    0    0 -0.19936083356E+02 -0.46296332722E+01 -0.27739291512E+02  0.34472441419E+02  0.00000000000E+00 0.  1.
         12    1    3    3    0    0  0.72575045311E+02  0.21489410518E+02 -0.43403268949E+02  0.87251221892E+02  0.00000000000E+00 0. -1.
        -13    1    4    4    0    0 -0.12759184349E+01  0.79372444938E+02  0.98682883718E+02  0.12664882361E+03  0.00000000000E+00 0.  1.
         13    1    4    4    0    0 -0.92199301930E+02  0.94900886238E+02  0.81531507632E+02  0.15541646059E+03  0.00000000000E+00 0. -1.
          1    1    1    2  501    0  0.40836258410E+02 -0.19113310842E+03  0.99194791372E+02  0.21917817357E+03  0.00000000000E+00 0. -1.
<scales pt_clust_5="13000.00000" pt_clust_6="13000.00000" pt_clust_7="13000.00000" pt_clust_8="13000.00000" pt_clust_9="194.76310"></scales>
<clustering>
<clus scale="   81.855">  5  6 -1 -1</clus>
<clus scale="   89.302">  7  8 -1 -1</clus>
<clus scale="   98.769">  2  5  1 -1</clus>
<clus scale="  194.763">  1  9  2 -1</clus>
<clus scale="  194.763">  1  5  2 -1</clus>
</clustering>
</event>
<event>
 9    2  0.1302972E-004  0.1238625E+03  0.7546771E-02  0.1248604E+00
         21   -1    0    0  501  502  0.00000000000E+00  0.00000000000E+00  0.25183097268E+02  0.25183097268E+02  0.00000000000E+00 0.  1.
          2   -1    0    0  502    0 -0.00000000000E+00 -0.00000000000E+00 -0.11881029441E+04  0.11881029441E+04  0.00000000000E+00 0. -1.
         24    2    1    2    0    0  0.19181043197E+02  0.43940790030E+02 -0.34907936742E+03  0.36248780807E+03  0.85101708542E+02 0.  0.
         23    2    1    2    0    0  0.77604619854E+02 -0.25628037636E+02 -0.24733627711E+03  0.27579403096E+03  0.90597131327E+02 0.  0.
        -11    1    3    3    0    0  0.36497396544E+02  0.48542073023E+02 -0.33274642209E+03  0.33824336538E+03  0.00000000000E+00 0.  1.
         12    1    3    3    0    0 -0.17316353347E+02 -0.46012829921E+01 -0.16332945324E+02  0.24244442691E+02  0.00000000000E+00 0. -1.
        -11    1    4    4    0    0  0.90422808358E+02  0.13545107861E+01 -0.20414790291E+03  0.22328117975E+03  0.00000000000E+00 0. -1.
         11    1    4    4    0    0 -0.12818188504E+02 -0.26982548422E+02 -0.43188374197E+02  0.52512851205E+02  0.00000000000E+00 0.  1.
          1    1    1    2  501    0 -0.96785663051E+02 -0.18312752394E+02 -0.56650420234E+03  0.57500420237E+03  0.00000000000E+00 0. -1.
<scales pt_clust_5="13000.00000" pt_clust_6="13000.00000" pt_clust_7="13000.00000" pt_clust_8="13000.00000" pt_clust_9="84.46354"></scales>
<clustering>
<clus scale="   85.102">  5  6 -1 -1</clus>
<clus scale="   90.597">  7  8 -1 -1</clus>
<clus scale="   97.678">  2  5  1 -1</clus>
<clus scale="   84.464">  1  9  2 -1</clus>
<clus scale="   84.464">  1  5  2 -1</clus>
</clustering>
</event>
<event>
 9    2  0.1302972E-004  0.1684564E+03  0.7546771E-02  0.1197833E+00
          2   -1    0    0  502    0 -0.00000000000E+00  0.00000000000E+00  0.43921563840E+03  0.43921563840E+03  0.00000000000E+00 0. -1.
         21   -1    0    0  501  502  0.00000000000E+00 -0.00000000000E+00 -0.13659526618E+03  0.13659526618E+03  0.00000000000E+00 0.  1.
         23    2    1    2    0    0 -0.64054040308E+02  0.12390866770E+02  0.17660258909E+03  0.20920862029E+03  0.91232223863E+02 0.  0.
         24    2    1    2    0    0 -0.77824524936E+02 -0.11247956293E+03  0.13519186957E+02  0.15971292131E+03  0.81345805407E+02 0.  0.
        -13    1    4    4    0    0 -0.88814894214E+02 -0.74305283348E+02 -0.49499830908E+01  0.11590454219E+03  0.00000000000E+00 0.  1.
         14    1    4    4    0    0  0.10990369277E+02 -0.38174279583E+02  0.18469170048E+02  0.43808379116E+02  0.00000000000E+00 0. -1.
        -13    1    3    3    0    0 -0.27395315820E+02 -0.12493494566E+02  0.15851949917E+03  0.16135371813E+03  0.00000000000E+00 0. -1.
         13    1    3    3    0    0 -0.36658724488E+02  0.24884361335E+02  0.18083089921E+02  0.47854902166E+02  0.00000000000E+00 0.  1.
          1    1    1    2  501    0  0.14187856524E+03  0.10008869616E+03  0.11249859617E+03  0.20688936298E+03  0.00000000000E+00 0. -1.
<scales pt_clust_5="13000.00000" pt_clust_6="13000.00000" pt_clust_7="13000.00000" pt_clust_8="13000.00000" pt_clust_9="147.51424"></scales>
<clustering>
<clus scale="   81.346">  5  6 -1 -1</clus>
<clus scale="   91.232">  7  8 -1 -1</clus>
<clus scale="  112.160">  1  7  2 -1</clus>
<clus scale="  147.514">  2  9  1 -1</clus>
<clus scale="  147.514">  2  5  1 -1</clus>
</clustering>
</event>
<event>
 9    2  0.1302972E-004  0.1682313E+03  0.7546771E-02  0.1181903E+00
         21   -1    0    0  501  502  0.00000000000E+00  0.00000000000E+00  0.53546181595E+02  0.53546181595E+02  0.00000000000E+00 0. -1.
          2   -1    0    0  502    0 -0.00000000000E+00 -0.00000000000E+00 -0.91447224947E+03  0.91447224947E+03  0.00000000000E+00 0. -1.
         23    2    1    2    0    0  0.72821752212E+02  0.15046014553E+03 -0.59571677998E+03  0.62609301076E+03  0.95774282472E+02 0.  0.
         24    2    1    2    0    0 -0.78518595912E+02 -0.64773390970E+02 -0.16284904540E+03  0.20831294642E+03  0.80707558355E+02 0.  0.
        -11    1    4    4    0    0 -0.18910078830E+02  0.11994882317E+02 -0.71516964374E+02  0.74940939922E+02  0.00000000000E+00 0.  1.
         12    1    4    4    0    0 -0.59608517082E+02 -0.76768273287E+02 -0.91332081031E+02  0.13337200650E+03  0.00000000000E+00 0. -1.
        -11    1    3    3    0    0 -0.16220386308E+02  0.46330130429E+02 -0.94514065137E+02  0.10650112876E+03  0.00000000000E+00 0.  1.
         11    1    3    3    0    0  0.89042138520E+02  0.10413001510E+03 -0.50120271485E+03  0.51959188201E+03  0.00000000000E+00 0. -1.
          1    1    1    2  501    0  0.56968437000E+01 -0.85686754561E+02 -0.10236024249E+03  0.13361247389E+03  0.00000000000E+00 0. -1.
<scales pt_clust_5="13000.00000" pt_clust_6="13000.00000" pt_clust_7="13000.00000" pt_clust_8="13000.00000" pt_clust_9="85.87592"></scales>
<clustering>
<clus scale="   80.708">  5  6 -1 -1</clus>
<clus scale="   85.876">  1  9  2 -1</clus>
<clus scale="   95.774">  7  8 -1 -1</clus>
<clus scale="  160.134">  1  5  2 -1</clus>
<clus scale="   85.876">  1  5  2 -1</clus>
</clustering>
</event>
<event>
 9    2  0.1302972E-004  0.1880614E+03  0.7546771E-02  0.1170900E+00
          2   -1    0    0  502    0 -0.00000000000E+00  0.00000000000E+00  0.34725593061E+03  0.34725593061E+03  0.00000000000E+00 0. -1.
         21   -1    0    0  501  502  0.00000000000E+00 -0.00000000000E+00 -0.29240310323E+03  0.29240310323E+03  0.00000000000E+00 0. -1.
         23    2    1    2    0    0  0.96256049653E+02 -0.64579564005E+02 -0.23795916293E+02  0.14893729185E+03  0.90445144095E+02 0.  0.
         24    2    1    2    0    0 -0.11035657560E+03 -0.13061137021E+03 -0.11019966022E+03  0.21876210291E+03  0.80467314794E+02 0.  0.
        -11    1    4    4    0    0  0.47263826468E+01 -0.33520188486E+02 -0.40671067641E+02  0.52915758259E+02  0.00000000000E+00 0.  1.
         12    1    4    4    0    0 -0.11508295825E+03 -0.97091181721E+02 -0.69528592581E+02  0.16584634465E+03  0.00000000000E+00 0. -1.
        -13    1    3    3    0    0  0.69523461979E+02 -0.53772335837E+02  0.25772215333E+02  0.91592483043E+02  0.00000000000E+00 0.  1.
         13    1    3    3    0    0  0.26732587675E+02 -0.10807228168E+02 -0.49568131626E+02  0.57344808809E+02  0.00000000000E+00 0. -1.
          1    1    1    2  501    0  0.14100525952E+02  0.19519093421E+03  0.18884840390E+03  0.27195963908E+03  0.00000000000E+00 0. -1.
<scales pt_clust_5="13000.00000" pt_clust_6="13000.00000" pt_clust_7="13000.00000" pt_clust_8="13000.00000" pt_clust_9="169.97690"></scales>
<clustering>
<clus scale="   80.467">  5  6 -1 -1</clus>
<clus scale="   90.445">  7  8 -1 -1</clus>
<clus scale="  147.024">  1  7  2 -1</clus>
<clus scale="  169.977">  2  9  1 -1</clus>
<clus scale="  169.977">  2  5  1 -1</clus>
</clustering>
</event>
<event>
 9    2  0.1302972E-004  0.1912214E+03  0.7546771E-02  0.1165623E+00
          2   -1    0    0  502    0 -0.00000000000E+00  0.00000000000E+00  0.14973068068E+04  0.14973068068E+04  0.00000000000E+00 0. -1.
         21   -1    0    0  501  502  0.00000000000E+00 -0.00000000000E+00 -0.68121839301E+02  0.68121839301E+02  0.00000000000E+00 0. -1.
         23    2    1    2    0    0  0.11907448257E+03 -0.51511516510E+02  0.12413853165E+03  0.20082087854E+03  0.89924865782E+02 0.  0.
         24    2    1    2    0    0 -0.88442181059E+02 -0.15029357441E+03  0.52462905774E+03  0.55793874208E+03  0.75165243229E+02 0.  0.
        -11    1    4    4    0    0 -0.53331758293E+02 -0.41952257920E+02  0.12300877979E+03  0.14048283985E+03  0.00000000000E+00 0.  1.
         12    1    4    4    0    0 -0.35110422766E+02 -0.10834131649E+03  0.40162027795E+03  0.41745590223E+03  0.00000000000E+00 0. -1.
        -13    1    3    3    0    0  0.61147968034E+02 -0.68175487362E+02  0.10078661345E+03  0.13617970672E+03  0.00000000000E+00 0.  1.
         13    1    3    3    0    0  0.57926514531E+02  0.16663970852E+02  0.23351918194E+02  0.64641171815E+02  0.00000000000E+00 0. -1.
          1    1    1    2  501    0 -0.30632301507E+02  0.20180509092E+03  0.78041737815E+03  0.80666902552E+03  0.00000000000E+00 0. -1.
<scales pt_clust_5="13000.00000" pt_clust_6="13000.00000" pt_clust_7="13000.00000" pt_clust_8="13000.00000" pt_clust_9="175.82897"></scales>
<clustering>
<clus scale="   75.165">  5  6 -1 -1</clus>
<clus scale="   89.925">  7  8 -1 -1</clus>
<clus scale="  157.857">  1  7  2 -1</clus>
<clus scale="  175.829">  2  9  1 -1</clus>
<clus scale="  175.829">  2  5  1 -1</clus>
</clustering>
</event>
<event>
 9    2  0.1302972E-004  0.9625976E+02  0.7546771E-02  0.1294318E+00
          2   -1    0    0  502    0 -0.00000000000E+00  0.00000000000E+00  0.31983144318E+03  0.31983144318E+03  0.00000000000E+00 0. -1.
         21   -1    0    0  501  502  0.00000000000E+00 -0.00000000000E+00 -0.53194288006E+02  0.53194288006E+02  0.00000000000E+00 0. -1.
         24    2    1    2    0    0  0.16390594900E+02 -0.29516501731E+02  0.19619047437E+03  0.21442863076E+03  0.79680988819E+02 0.  0.
         23    2    1    2    0    0  0.10844660981E+02  0.36548164906E+02  0.82217202767E+02  0.12810532060E+03  0.90542419367E+02 0.  0.
        -13    1    3    3    0    0 -0.26875933916E+02 -0.33656289885E+02  0.96607721787E+02  0.10577387949E+03  0.00000000000E+00 0.  1.
         14    1    3    3    0    0  0.43266528816E+02  0.41397881538E+01  0.99582752584E+02  0.10865475127E+03  0.00000000000E+00 0. -1.
        -13    1    4    4    0    0 -0.26079661505E+02 -0.45759979857E+01 -0.28812662283E+01  0.26634379979E+02  0.00000000000E+00 0.  1.
         13    1    4    4    0    0  0.36924322486E+02  0.41124162892E+02  0.85098468995E+02  0.10147094062E+03  0.00000000000E+00 0. -1.
          1    1    1    2  501    0 -0.27235255881E+02 -0.70316631747E+01 -0.11770521965E+02  0.30491779830E+02  0.00000000000E+00 0. -1.
<scales pt_clust_5="13000.00000" pt_clust_6="13000.00000" pt_clust_7="13000.00000" pt_clust_8="13000.00000" pt_clust_9="28.12834"></scales>
<clustering>
<clus scale="   28.128">  2  9  1 -1</clus>
<clus scale="   79.681">  5  6 -1 -1</clus>
<clus scale="   86.122">  1  5  2 -1</clus>
<clus scale="   90.542">  7  8 -1 -1</clus>
<clus scale="   28.128">  2  5  1 -1</clus>
</clustering>
</event>
<event>
 9    2  0.1915530E-004  0.1731736E+03  0.7546771E-02  0.1176547E+00
          2   -1    0    0  502    0 -0.00000000000E+00  0.00000000000E+00  0.77551293108E+03  0.77551293108E+03  0.00000000000E+00 0. -1.
         21   -1    0    0  501  502  0.00000000000E+00 -0.00000000000E+00 -0.35980595715E+03  0.35980595715E+03  0.00000000000E+00 0.  1.
         24    2    1    2    0    0 -0.14580978996E+03  0.19720202241E+02  0.54805639994E+03  0.57269577994E+03  0.77235080219E+02 0.  0.
         23    2    1    2    0    0  0.14194677265E+03  0.93990833012E+02 -0.30175362951E+03  0.35855717139E+03  0.92330002034E+02 0.  0.
        -11    1    3    3    0    0 -0.24509983305E+02 -0.26748665509E+02  0.11905515823E+03  0.12446027916E+03  0.00000000000E+00 0.  1.
         12    1    3    3    0    0 -0.12129980666E+03  0.46468867750E+02  0.42900124171E+03  0.44823550078E+03  0.00000000000E+00 0. -1.
        -13    1    4    4    0    0  0.54390666444E+02  0.23048078894E+02 -0.19342075812E+03  0.20224032291E+03  0.00000000000E+00 0.  1.
         13    1    4    4    0    0  0.87556106211E+02  0.70942754118E+02 -0.10833287139E+03  0.15631684848E+03  0.00000000000E+00 0. -1.
          1    1    1    2  501    0  0.38630173086E+01 -0.11371103525E+03  0.16940420350E+03  0.20406593690E+03  0.00000000000E+00 0. -1.
<scales pt_clust_5="13000.00000" pt_clust_6="13000.00000" pt_clust_7="13000.00000" pt_clust_8="13000.00000" pt_clust_9="113.77669"></scales>
<clustering>
<clus scale="   77.235">  5  6 -1 -1</clus>
<clus scale="   92.330">  7  8 -1 -1</clus>
<clus scale="  113.777">  2  9  1 -1</clus>
<clus scale="  165.619">  1  5  2 -1</clus>
<clus scale="  113.777">  2  5  1 -1</clus>
</clustering>
</event>
<event>
 9    2  0.1302972E-004  0.1917889E+03  0.7546771E-02  0.1180499E+00
         21   -1    0    0  501  502  0.00000000000E+00  0.00000000000E+00  0.12567681962E+03  0.12567681962E+03  0.00000000000E+00 0. -1.
          2   -1    0    0  502    0 -0.00000000000E+00 -0.00000000000E+00 -0.88010600852E+03  0.88010600852E+03  0.00000000000E+00 0. -1.
         24    2    1    2    0    0  0.64246849828E+02  0.37248350470E+02 -0.96386068833E+02  0.14741041689E+03  0.83213336779E+02 0.  0.
         23    2    1    2    0    0 -0.21394882867E+03  0.30525249234E+01 -0.66164508369E+03  0.70329882496E+03  0.10522167653E+03 0.  0.
        -11    1    3    3    0    0  0.71898632507E+02  0.55947254034E+02 -0.82395171867E+02  0.12283514537E+03  0.00000000000E+00 0.  1.
         12    1    3    3    0    0 -0.76517826792E+01 -0.18698903564E+02 -0.13990896966E+02  0.24575271526E+02  0.00000000000E+00 0. -1.
        -11    1    4    4    0    0 -0.20005612048E+03  0.33308677830E+02 -0.59826538557E+03  0.63170672858E+03  0.00000000000E+00 0. -1.
         11    1    4    4    0    0 -0.13892708184E+02 -0.30256152906E+02 -0.63379698124E+02  0.71592096377E+02  0.00000000000E+00 0.  1.
          1    1    1    2  501    0  0.14970197884E+03 -0.40300875394E+02  0.36019636235E+01  0.15507358630E+03  0.00000000000E+00 0. -1.
<scales pt_clust_5="13000.00000" pt_clust_6="13000.00000" pt_clust_7="13000.00000" pt_clust_8="13000.00000" pt_clust_9="160.34774"></scales>
<clustering>
<clus scale="   83.213">  5  6 -1 -1</clus>
<clus scale="  105.222">  7  8 -1 -1</clus>
<clus scale="  111.533">  2  5  1 -1</clus>
<clus scale="  160.348">  1  9  2 -1</clus>
<clus scale="  160.348">  1  5  2 -1</clus>
</clustering>
</event>
<event>
 9    2  0.1302972E-004  0.1837393E+03  0.7546771E-02  0.1164259E+00
         21   -1    0    0  501  502  0.00000000000E+00  0.00000000000E+00  0.14962316333E+03  0.14962316333E+03  0.00000000000E+00 0.  1.
          2   -1    0    0  502    0 -0.00000000000E+00 -0.00000000000E+00 -0.33763494425E+03  0.33763494425E+03  0.00000000000E+00 0. -1.
         23    2    1    2    0    0 -0.10039241912E+03 -0.13108125371E+03 -0.21136904742E+03  0.28366538054E+03  0.92348475981E+02 0.  0.
         24    2    1    2    0    0  0.69479280986E+02  0.12531309747E+03  0.16305763903E+02  0.17136513909E+03  0.92571000190E+02 0.  0.
        -11    1    4    4    0    0  0.66867662286E+01  0.97315762505E+02 -0.93285992132E+01  0.97990271139E+02  0.00000000000E+00 0.  1.
         12    1    4    4    0    0  0.62792514758E+02  0.27997334960E+02  0.25634363116E+02  0.73374867951E+02  0.00000000000E+00 0. -1.
        -11    1    3    3    0    0 -0.96549926253E+02 -0.69071220021E+02 -0.17563967525E+03  0.21199532357E+03  0.00000000000E+00 0. -1.
         11    1    3    3    0    0 -0.38424928702E+01 -0.62010033690E+02 -0.35729372173E+02  0.71670056966E+02  0.00000000000E+00 0.  1.
          1    1    1    2  501    0  0.30913138137E+02  0.57681562455E+01  0.70515026056E+01  0.32227587948E+02  0.00000000000E+00 0. -1.
<scales pt_clust_5="13000.00000" pt_clust_6="13000.00000" pt_clust_7="13000.00000" pt_clust_8="13000.00000" pt_clust_9="31.44668"></scales>
<clustering>
<clus scale="   31.447">  1  9  2 -1</clus>
<clus scale="   92.348">  7  8 -1 -1</clus>
<clus scale="   92.571">  5  6 -1 -1</clus>
<clus scale="  183.627">  2  7  1 -1</clus>
<clus scale="   31.447">  1  5  2 -1</clus>
</clustering>
</event>
<event>
 9    2  0.1302972E-004  0.2458339E+03  0.7546771E-02  0.1115966E+00
          2   -1    0    0  502    0 -0.00000000000E+00  0.00000000000E+00  0.23862186341E+03  0.23862186341E+03  0.00000000000E+00 0. -1.
         21   -1    0    0  501  502  0.00000000000E+00 -0.00000000000E+00 -0.16738098895E+03  0.16738098895E+03  0.00000000000E+00 0.  1.
         24    2    1    2    0    0 -0.97510367501E+02 -0.67918911998E+02  0.56810531560E+02  0.15431603546E+03  0.80403681060E+02 0.  0.
         23    2    1    2    0    0 -0.24458616780E+02 -0.23137981654E+02  0.50873065778E+01  0.99190642080E+02  0.93162828736E+02 0.  0.
        -13    1    3    3    0    0 -0.65339604408E+02 -0.66122915149E+02  0.73055951607E+02  0.11823145046E+03  0.00000000000E+00 0.  1.
         14    1    3    3    0    0 -0.32170763092E+02 -0.17959968496E+01 -0.16245420046E+02  0.36084585007E+02  0.00000000000E+00 0. -1.
        -11    1    4    4    0    0 -0.40120843405E+02  0.25740051162E+02  0.42596159277E+01  0.47857879572E+02  0.00000000000E+00 0.  1.
         11    1    4    4    0    0  0.15662226624E+02 -0.48878032816E+02  0.82769065009E+00  0.51332762507E+02  0.00000000000E+00 0. -1.
          1    1    1    2  501    0  0.12196898428E+03  0.91056893652E+02  0.93430363218E+01  0.15249617482E+03  0.00000000000E+00 0. -1.
<scales pt_clust_5="13000.00000" pt_clust_6="13000.00000" pt_clust_7="13000.00000" pt_clust_8="13000.00000" pt_clust_9="152.20969"></scales>
<clustering>
<clus scale="   80.404">  5  6 -1 -1</clus>
<clus scale="   93.163">  7  8 -1 -1</clus>
<clus scale="   95.640">  5  7 -1 -1</clus>
<clus scale="  152.210">  2  9  1 -1</clus>
<clus scale="  152.210">  2  5  1 -1</clus>
</clustering>
</event>
<event>
 9    2  0.1302972E-004  0.1800960E+03  0.7546771E-02  0.1169072E+00
         -1   -1    0    0    0  501 -0.00000000000E+00  0.00000000000E+00  0.66845968452E+03  0.66845968452E+03  0.00000000000E+00 0.  1.
         21   -1    0    0  501  502  0.00000000000E+00 -0.00000000000E+00 -0.11493591675E+03  0.11493591675E+03  0.00000000000E+00 0.  1.
         23    2    1    2    0    0  0.10116777826E+03 -0.85747505171E+02  0.16935374500E+03  0.23337231368E+03  0.90522880241E+02 0.  0.
         24    2    1    2    0    0 -0.70116498097E+02  0.21087972142E+03  0.14094607620E+03  0.27474135625E+03  0.78933112341E+02 0.  0.
        -13    1    4    4    0    0  0.14060571076E+02  0.72437137406E+02  0.42517872749E+02  0.85162245377E+02  0.00000000000E+00 0.  1.
         14    1    4    4    0    0 -0.84177069173E+02  0.13844258401E+03  0.98428203455E+02  0.18957911087E+03  0.00000000000E+00 0. -1.
        -11    1    3    3    0    0 -0.12991936485E+02 -0.31572022085E+02  0.33351766888E+02  0.47727595233E+02  0.00000000000E+00 0.  1.
         11    1    3    3    0    0  0.11415971474E+03 -0.54175483086E+02  0.13600197811E+03  0.18564471845E+03  0.00000000000E+00 0. -1.
         -2    1    1    2    0  502 -0.31051280160E+02 -0.12513221625E+03  0.24322394656E+03  0.27528193134E+03  0.00000000000E+00 0.  1.
<scales pt_clust_5="13000.00000" pt_clust_6="13000.00000" pt_clust_7="13000.00000" pt_clust_8="13000.00000" pt_clust_9="128.92738"></scales>
<clustering>
<clus scale="   78.933">  5  6 -1 -1</clus>
<clus scale="   90.523">  7  8 -1 -1</clus>
<clus scale="  128.927">  2  9  1 -1</clus>
<clus scale="  174.558">  2  5  1 -1</clus>
<clus scale="  128.927">  2  5  1 -1</clus>
</clustering>
</event>
<event>
 9    2  0.1302972E-004  0.2194917E+03  0.7546771E-02  0.1134993E+00
          2   -1    0    0  502    0 -0.00000000000E+00  0.00000000000E+00  0.10496755648E+04  0.10496755648E+04  0.00000000000E+00 0. -1.
         21   -1    0    0  501  502  0.00000000000E+00 -0.00000000000E+00 -0.96366699177E+02  0.96366699177E+02  0.00000000000E+00 0.  1.
         23    2    1    2    0    0  0.19592570832E+03  0.25057779233E+02  0.83024644730E+03  0.85825079983E+03  0.90942271160E+02 0.  0.
         24    2    1    2    0    0 -0.21059289355E+03 -0.79706629903E+01  0.13417082558E+03  0.26268185286E+03  0.81160625345E+02 0.  0.
        -11    1    4    4    0    0 -0.91688835403E+02  0.69652497238E+01  0.10455605773E+03  0.13923837995E+03  0.00000000000E+00 0.  1.
         12    1    4    4    0    0 -0.11890405814E+03 -0.14935912714E+02  0.29614767849E+02  0.12344347292E+03  0.00000000000E+00 0. -1.
        -13    1    3    3    0    0  0.13356128849E+03  0.51382240184E+02  0.65349495175E+03  0.66898012254E+03  0.00000000000E+00 0. -1.
         13    1    3    3    0    0  0.62364419833E+02 -0.26324460951E+02  0.17675149555E+03  0.18927067730E+03  0.00000000000E+00 0.  1.
          1    1    1    2  501    0  0.14667185225E+02 -0.17087116243E+02 -0.11108407296E+02  0.25109611239E+02  0.00000000000E+00 0. -1.
<scales pt_clust_5="13000.00000" pt_clust_6="13000.00000" pt_clust_7="13000.00000" pt_clust_8="13000.00000" pt_clust_9="22.51879"></scales>
<clustering>
<clus scale="   22.519">  2  9  1 -1</clus>
<clus scale="   81.161">  5  6 -1 -1</clus>
<clus scale="   90.942">  7  8 -1 -1</clus>
<clus scale="  215.623">  2  5  1 -1</clus>
<clus scale="   22.519">  2  5  1 -1</clus>
</clustering>
</event>
<event>
 9    2  0.1302972E-004  0.3270751E+03  0.7546771E-02  0.1072438E+00
          2   -1    0    0  502    0 -0.00000000000E+00  0.00000000000E+00  0.73535820036E+03  0.73535820036E+03  0.00000000000E+00 0. -1.
         21   -1    0    0  501  502  0.00000000000E+00 -0.00000000000E+00 -0.16607236036E+03  0.16607236036E+03  0.00000000000E+00 0. -1.
         24    2    1    2    0    0 -0.12309781021E+02  0.49884014050E+02  0.12218675738E+03  0.15544374925E+03  0.81198583342E+02 0.  0.
         23    2    1    2    0    0 -0.10669386665E+03  0.17889285247E+03  0.43150688914E+03  0.48763852075E+03  0.90591929548E+02 0.  0.
        -13    1    3    3    0    0 -0.31914990986E+02  0.47938406311E+02  0.38035689318E+02  0.69017179826E+02  0.00000000000E+00 0.  1.
         14    1    3    3    0    0  0.19605209965E+02  0.19456077395E+01  0.84151068062E+02  0.86426569429E+02  0.00000000000E+00 0. -1.
        -11    1    4    4    0    0  0.10904477905E+02  0.17330553995E+02  0.14090831248E+02  0.24855729026E+02  0.00000000000E+00 0.  1.
         11    1    4    4    0    0 -0.11759834456E+03  0.16156229848E+03  0.41741605789E+03  0.46278279173E+03  0.00000000000E+00 0. -1.
          1    1    1    2  501    0  0.11900364767E+03 -0.22877686652E+03  0.15592193470E+02  0.25834829071E+03  0.00000000000E+00 0. -1.
<scales pt_clust_5="13000.00000" pt_clust_6="13000.00000" pt_clust_7="13000.00000" pt_clust_8="13000.00000" pt_clust_9="257.87734"></scales>
<clustering>
<clus scale="   81.199">  5  6 -1 -1</clus>
<clus scale="   90.592">  7  8 -1 -1</clus>
<clus scale="   92.106">  5  7 -1 -1</clus>
<clus scale="  257.877">  2  9  1 -1</clus>
<clus scale="  257.877">  2  5  1 -1</clus>
</clustering>
</event>
<event>
 9    2  0.1302972E-004  0.1131204E+03  0.7546771E-02  0.1258059E+00
         21   -1    0    0  501  502  0.00000000000E+00  0.00000000000E+00  0.85009940304E+02  0.85009940304E+02  0.00000000000E+00 0. -1.
          2   -1    0    0  502    0 -0.00000000000E+00 -0.00000000000E+00 -0.57742933515E+03  0.57742933515E+03  0.00000000000E+00 0. -1.
         24    2    1    2    0    0 -0.80889337114E+02 -0.31972169743E+02 -0.42533071398E+03  0.44154146049E+03  0.80544028831E+02 0.  0.
         23    2    1    2    0    0  0.34768288659E+02 -0.15350094935E+02 -0.10635182882E+03  0.14403337175E+03  0.89389268779E+02 0.  0.
        -13    1    3    3    0    0 -0.38825917619E+02  0.94381630766E+01 -0.64199907362E+02  0.75618509021E+02  0.00000000000E+00 0.  1.
         14    1    3    3    0    0 -0.42063419495E+02 -0.41410332820E+02 -0.36113080662E+03  0.36592295147E+03  0.00000000000E+00 0. -1.
        -13    1    4    4    0    0  0.94542228888E+01 -0.51285736419E+02 -0.68021823880E+02  0.85712178915E+02  0.00000000000E+00 0. -1.
         13    1    4    4    0    0  0.25314065770E+02  0.35935641484E+02 -0.38330004938E+02  0.58321192831E+02  0.00000000000E+00 0.  1.
          1    1    1    2  501    0  0.46121048455E+02  0.47322264678E+02  0.39263147949E+02  0.76864443221E+02  0.00000000000E+00 0. -1.
<scales pt_clust_5="13000.00000" pt_clust_6="13000.00000" pt_clust_7="13000.00000" pt_clust_8="13000.00000" pt_clust_9="66.07986"></scales>
<clustering>
<clus scale="   66.080">  1  9  2 -1</clus>
<clus scale="   80.544">  5  6 -1 -1</clus>
<clus scale="   89.389">  7  8 -1 -1</clus>
<clus scale="  106.269">  2  5  1 -1</clus>
<clus scale="   66.080">  1  5  2 -1</clus>
</clustering>
</event>
<event>
 9    2  0.1302972E-004  0.1282017E+03  0.7546771E-02  0.1230433E+00
         -1   -1    0    0    0  501 -0.00000000000E+00  0.00000000000E+00  0.21112948716E+03  0.21112948716E+03  0.00000000000E+00 0.  1.
         21   -1    0    0  501  502  0.00000000000E+00 -0.00000000000E+00 -0.16424031022E+03  0.16424031022E+03  0.00000000000E+00 0.  1.
         24    2    1    2    0    0  0.91101253094E+02  0.27261400115E+02  0.94351431607E+02  0.15668347161E+03  0.81270507424E+02 0.  0.
         23    2    1    2    0    0 -0.11859967379E+03 -0.32404282107E+01 -0.84871336459E+02  0.16641195698E+03  0.80083785336E+02 0.  0.
        -13    1    3    3    0    0  0.10479922347E+03  0.20475194469E+02  0.92520322906E+02  0.14128737020E+03  0.00000000000E+00 0.  1.
         14    1    3    3    0    0 -0.13697970373E+02  0.67862056461E+01  0.18311087013E+01  0.15396101406E+02  0.00000000000E+00 0. -1.
        -13    1    4    4    0    0 -0.10828154595E+03 -0.31735946979E+02 -0.66957735290E+02  0.13120747631E+03  0.00000000000E+00 0. -1.
         13    1    4    4    0    0 -0.10318127836E+02  0.28495518769E+02 -0.17913601169E+02  0.35204480664E+02  0.00000000000E+00 0.  1.
         -2    1    1    2    0  502  0.27498420697E+02 -0.24020971904E+02  0.37409081794E+02  0.52274368793E+02  0.00000000000E+00 0.  1.
<scales pt_clust_5="13000.00000" pt_clust_6="13000.00000" pt_clust_7="13000.00000" pt_clust_8="13000.00000" pt_clust_9="36.51262"></scales>
<clustering>
<clus scale="   36.513">  2  9  1 -1</clus>
<clus scale="   80.084">  7  8 -1 -1</clus>
<clus scale="   81.271">  5  6 -1 -1</clus>
<clus scale="  127.453">  2  7  1 -1</clus>
<clus scale="   36.513">  2  5  1 -1</clus>
</clustering>
</event>
<event>
 9    2  0.1302972E-004  0.1823178E+03  0.7546771E-02  0.1194159E+00
         -1   -1    0    0    0  501 -0.00000000000E+00  0.00000000000E+00  0.11276256280E+04  0.11276256280E+04  0.00000000000E+00 0.  1.
         21   -1    0    0  501  502  0.00000000000E+00 -0.00000000000E+00 -0.65303955124E+02  0.65303955124E+02  0.00000000000E+00 0. -1.
         24    2    1    2    0    0  0.45908720880E+02  0.18914904633E+02  0.19035565820E+03  0.21313748389E+03  0.82017840506E+02 0.  0.
         23    2    1    2    0    0  0.57534082614E+01  0.15430248599E+03  0.14291018175E+03  0.22866251819E+03  0.89559300383E+02 0.  0.
        -13    1    3    3    0    0  0.59362043804E+02 -0.99918416187E+01  0.15053562845E+03  0.16212545937E+03  0.00000000000E+00 0.  1.
         14    1    3    3    0    0 -0.13453322924E+02  0.28906746251E+02  0.39820029755E+02  0.51012024526E+02  0.00000000000E+00 0. -1.
        -13    1    4    4    0    0 -0.28548869804E+02  0.65153996165E+02  0.10291702216E+03  0.12510793194E+03  0.00000000000E+00 0.  1.
         13    1    4    4    0    0  0.34302278066E+02  0.89148489826E+02  0.39993159589E+02  0.10355458625E+03  0.00000000000E+00 0. -1.
         -2    1    1    2    0  502 -0.51662129141E+02 -0.17321739062E+03  0.72905583296E+03  0.75112958108E+03  0.00000000000E+00 0.  1.
<scales pt_clust_5="13000.00000" pt_clust_6="13000.00000" pt_clust_7="13000.00000" pt_clust_8="13000.00000" pt_clust_9="158.80475"></scales>
<clustering>
<clus scale="   82.018">  5  6 -1 -1</clus>
<clus scale="   89.559">  7  8 -1 -1</clus>
<clus scale="   95.877">  1  5  2 -1</clus>
<clus scale="  158.805">  2  9  1 -1</clus>
<clus scale="  158.805">  2  5  1 -1</clus>
</clustering>
</event>
<event>
 9    2  0.1302972E-004  0.1752443E+03  0.7546771E-02  0.1191176E+00
         21   -1    0    0  501  502  0.00000000000E+00  0.00000000000E+00  0.41752121713E+03  0.41752121713E+03  0.00000000000E+00 0. -1.
          2   -1    0    0  502    0 -0.00000000000E+00 -0.00000000000E+00 -0.28750175573E+03  0.28750175573E+03  0.00000000000E+00 0. -1.
         23    2    1    2    0    0  0.19599389586E+02 -0.62494399959E+02  0.77029265675E+02  0.13864677772E+03  0.94866933663E+02 0.  0.
         24    2    1    2    0    0  0.30275606443E+02 -0.91534818000E+02 -0.21767767899E+03  0.25098181723E+03  0.79454800971E+02 0.  0.
        -11    1    4    4    0    0  0.15403074383E+02 -0.90104254211E+02 -0.11347838662E+03  0.14571676484E+03  0.00000000000E+00 0.  1.
         12    1    4    4    0    0  0.14872532061E+02 -0.14305637895E+01 -0.10419929238E+03  0.10526505239E+03  0.00000000000E+00 0. -1.
        -13    1    3    3    0    0  0.12090403700E+02 -0.85288563400E+02  0.75590222523E+02  0.11460453154E+03  0.00000000000E+00 0. -1.
         13    1    3    3    0    0  0.75089858854E+01  0.22794163441E+02  0.14390431516E+01  0.24042246177E+02  0.00000000000E+00 0.  1.
          1    1    1    2  501    0 -0.49874996029E+02  0.15402921796E+03  0.27066787472E+03  0.31539437791E+03  0.00000000000E+00 0. -1.
<scales pt_clust_5="13000.00000" pt_clust_6="13000.00000" pt_clust_7="13000.00000" pt_clust_8="13000.00000" pt_clust_9="156.19702"></scales>
<clustering>
<clus scale="   79.455">  5  6 -1 -1</clus>
<clus scale="   94.867">  7  8 -1 -1</clus>
<clus scale="  115.280">  2  7  1 -1</clus>
<clus scale="  156.197">  1  9  2 -1</clus>
<clus scale="  156.197">  1  5  2 -1</clus>
</clustering>
</event>
<event>
 9    2  0.1302972E-004  0.1098229E+03  0.7546771E-02  0.1265290E+00
         21   -1    0    0  501  502  0.00000000000E+00  0.00000000000E+00  0.29868433342E+02  0.29868433342E+02  0.00000000000E+00 0. -1.
          2   -1    0    0  502    0 -0.00000000000E+00 -0.00000000000E+00 -0.14609278361E+04  0.14609278361E+04  0.00000000000E+00 0. -1.
         24    2    1    2    0    0  0.15385153827E+02  0.62550015189E+02 -0.11964282221E+04  0.12008205357E+04  0.79876534967E+02 0.  0.
         23    2    1    2    0    0  0.41367855587E+02 -0.44187884953E+02 -0.13323057130E+03  0.17233154362E+03  0.91015971917E+02 0.  0.
        -13    1    3    3    0    0  0.93303502252E+01  0.34681719240E+02 -0.15922142373E+03  0.16322174751E+03  0.00000000000E+00 0.  1.
         14    1    3    3    0    0  0.60548036020E+01  0.27868295948E+02 -0.10372067984E+04  0.10375987882E+04  0.00000000000E+00 0. -1.
        -13    1    4    4    0    0 -0.28726966459E+02 -0.14511878332E+02 -0.50752945874E+02  0.60097377061E+02  0.00000000000E+00 0.  1.
         13    1    4    4    0    0  0.70094822047E+02 -0.29676006621E+02 -0.82477625426E+02  0.11223416656E+03  0.00000000000E+00 0. -1.
          1    1    1    2  501    0 -0.56753009414E+02 -0.18362130236E+02 -0.10140060937E+03  0.11764419018E+03  0.00000000000E+00 0. -1.
<scales pt_clust_5="13000.00000" pt_clust_6="13000.00000" pt_clust_7="13000.00000" pt_clust_8="13000.00000" pt_clust_9="59.64958"></scales>
<clustering>
<clus scale="   59.650">  1  9  2 -1</clus>
<clus scale="   79.877">  5  6 -1 -1</clus>
<clus scale="   91.016">  7  8 -1 -1</clus>
<clus scale="  100.784">  2  5  1 -1</clus>
<clus scale="   59.650">  1  5  2 -1</clus>
</clustering>
</event>
<event>
 9    2  0.1302972E-004  0.1039685E+03  0.7546771E-02  0.1277231E+00
          2   -1    0    0  502    0 -0.00000000000E+00  0.00000000000E+00  0.14666546664E+03  0.14666546664E+03  0.00000000000E+00 0. -1.
         21   -1    0    0  501  502  0.00000000000E+00 -0.00000000000E+00 -0.29600379439E+03  0.29600379439E+03  0.00000000000E+00 0.  1.
         24    2    1    2    0    0  0.57766656698E+02 -0.10924790766E+02 -0.39629015818E+01  0.97334264575E+02  0.77472038776E+02 0.  0.
         23    2    1    2    0    0 -0.33957327420E+02 -0.24762244584E+02 -0.23016602129E+03  0.25030924377E+03  0.88949712306E+02 0.  0.
        -11    1    3    3    0    0  0.75363097234E+02 -0.30199435794E+01  0.59274848937E+01  0.75656140274E+02  0.00000000000E+00 0.  1.
         12    1    3    3    0    0 -0.17596440536E+02 -0.79048471870E+01 -0.98903864755E+01  0.21678124302E+02  0.00000000000E+00 0. -1.
        -13    1    4    4    0    0 -0.55267383591E+02  0.47431772482E+00 -0.19218646015E+03  0.19997585887E+03  0.00000000000E+00 0.  1.
         13    1    4    4    0    0  0.21310056171E+02 -0.25236562309E+02 -0.37979561136E+02  0.50333384898E+02  0.00000000000E+00 0. -1.
          1    1    1    2  501    0 -0.23809329277E+02  0.35687035351E+02  0.84790595116E+02  0.95025752682E+02  0.00000000000E+00 0. -1.
<scales pt_clust_5="13000.00000" pt_clust_6="13000.00000" pt_clust_7="13000.00000" pt_clust_8="13000.00000" pt_clust_9="42.90047"></scales>
<clustering>
<clus scale="   42.900">  2  9  1 -1</clus>
<clus scale="   77.472">  5  6 -1 -1</clus>
<clus scale="   88.950">  7  8 -1 -1</clus>
<clus scale="   94.336">  1  5  2 -1</clus>
<clus scale="   42.900">  2  5  1 -1</clus>
</clustering>
</event>
<event>
 9    2  0.1302972E-004  0.1011947E+03  0.7546771E-02  0.1284730E+00
         21   -1    0    0  501  502  0.00000000000E+00  0.00000000000E+00  0.10363698417E+03  0.10363698417E+03  0.00000000000E+00 0. -1.
         -1   -1    0    0    0  501 -0.00000000000E+00 -0.00000000000E+00 -0.20631305371E+03  0.20631305371E+03  0.00000000000E+00 0.  1.
         23    2    1    2    0    0 -0.44347335520E+02 -0.69737952291E+01 -0.12982085043E+03  0.16538143094E+03  0.92099101544E+02 0.  0.
         24    2    1    2    0    0  0.22366795014E+02  0.32693120329E+02  0.52608078498E+02  0.10222468920E+03  0.78186722164E+02 0.  0.
        -13    1    4    4    0    0 -0.20950770331E+02 -0.11599118211E+02  0.59733308298E+01  0.24681065656E+02  0.00000000000E+00 0.  1.
         14    1    4    4    0    0  0.43317565345E+02  0.44292238541E+02  0.46634747668E+02  0.77543623544E+02  0.00000000000E+00 0. -1.
        -11    1    3    3    0    0 -0.41404976130E+02 -0.45757726920E+02 -0.63844404805E+02  0.88793297305E+02  0.00000000000E+00 0.  1.
         11    1    3    3    0    0 -0.29423593894E+01  0.38783931691E+02 -0.65976445627E+02  0.76588133635E+02  0.00000000000E+00 0. -1.
         -2    1    1    2    0  502  0.21980540505E+02 -0.25719325100E+02 -0.25463297605E+02  0.42343917739E+02  0.00000000000E+00 0.  1.
<scales pt_clust_5="13000.00000" pt_clust_6="13000.00000" pt_clust_7="13000.00000" pt_clust_8="13000.00000" pt_clust_9="33.83237"></scales>
<clustering>
<clus scale="   33.832">  1  9  2 -1</clus>
<clus scale="   78.187">  5  6 -1 -1</clus>
<clus scale="   88.720">  1  5  2 -1</clus>
<clus scale="   92.099">  7  8 -1 -1</clus>
<clus scale="   33.832">  1  5  2 -1</clus>
</clustering>
</event>
<event>
 9    2  0.1302972E-004  0.1262447E+03  0.7546771E-02  0.1243882E+00
         21   -1    0    0  501  502  0.00000000000E+00  0.00000000000E+00  0.75177159128E+02  0.75177159128E+02  0.00000000000E+00 0.  1.
         -3   -1    0    0    0  501 -0.00000000000E+00 -0.00000000000E+00 -0.52929661105E+03  0.52929661105E+03  0.00000000000E+00 0.  1.
         24    2    1    2    0    0  0.59404060768E+02 -0.19467394294E+02 -0.16792520675E+03  0.19618476743E+03  0.79885956424E+02 0.  0.
         23    2    1    2    0    0  0.61324023632E+02  0.38144387741E+02 -0.29268610695E+02  0.12379843683E+03  0.96196523836E+02 0.  0.
        -11    1    3    3    0    0  0.51117657491E+02 -0.20627511803E+02 -0.17607661172E+03  0.18450333966E+03  0.00000000000E+00 0.  1.
         12    1    3    3    0    0  0.82864032765E+01  0.11601175085E+01  0.81514049679E+01  0.11681427774E+02  0.00000000000E+00 0. -1.
        -11    1    4    4    0    0  0.32335765137E+02  0.38579335531E+01  0.33437900557E+02  0.46675245601E+02  0.00000000000E+00 0.  1.
         11    1    4    4    0    0  0.28988258495E+02  0.34286454188E+02 -0.62706511252E+02  0.77123191225E+02  0.00000000000E+00 0. -1.
         -4    1    1    2    0  502 -0.12072808440E+03 -0.18676993447E+02 -0.25692563448E+03  0.28449056592E+03  0.00000000000E+00 0.  1.
<scales pt_clust_5="13000.00000" pt_clust_6="13000.00000" pt_clust_7="13000.00000" pt_clust_8="13000.00000" pt_clust_9="81.75548"></scales>
<clustering>
<clus scale="   79.886">  5  6 -1 -1</clus>
<clus scale="   96.197">  7  8 -1 -1</clus>
<clus scale="  101.438">  2  5  1 -1</clus>
<clus scale="   81.755">  1  9  2 -1</clus>
<clus scale="   81.755">  1  5  2 -1</clus>
</clustering>
</event>
<event>
 9    2  0.1302972E-004  0.1252228E+03  0.7546771E-02  0.1247346E+00
          2   -1    0    0  502    0 -0.00000000000E+00  0.00000000000E+00  0.37384006274E+03  0.37384006274E+03  0.00000000000E+00 0. -1.
         21   -1    0    0  501  502  0.00000000000E+00 -0.00000000000E+00 -0.75420093816E+02  0.75420093816E+02  0.00000000000E+00 0. -1.
         23    2    1    2    0    0 -0.19241009974E+02  0.22406799787E+02  0.15239436771E+03  0.18061574310E+03  0.92334837436E+02 0.  0.
         24    2    1    2    0    0 -0.84578784620E+02 -0.61996750770E+01  0.60966657473E+02  0.13345475205E+03  0.83073646493E+02 0.  0.
        -11    1    4    4    0    0 -0.39751795418E+00 -0.30600576097E+02  0.10716710159E+02  0.32425316569E+02  0.00000000000E+00 0.  1.
         12    1    4    4    0    0 -0.84181266666E+02  0.24400901020E+02  0.50249947313E+02  0.10102943548E+03  0.00000000000E+00 0. -1.
        -11    1    3    3    0    0 -0.19080527059E+02 -0.26865516612E+02  0.18161350562E+02  0.37625219599E+02  0.00000000000E+00 0.  1.
         11    1    3    3    0    0 -0.16048291478E+00  0.49272316399E+02  0.13423301715E+03  0.14299052350E+03  0.00000000000E+00 0. -1.
          1    1    1    2  501    0  0.10381979459E+03 -0.16207124710E+02  0.85058943737E+02  0.13518966140E+03  0.00000000000E+00 0. -1.
<scales pt_clust_5="13000.00000" pt_clust_6="13000.00000" pt_clust_7="13000.00000" pt_clust_8="13000.00000" pt_clust_9="93.69913"></scales>
<clustering>
<clus scale="   83.074">  5  6 -1 -1</clus>
<clus scale="   92.335">  7  8 -1 -1</clus>
<clus scale="   96.943">  1  7  2 -1</clus>
<clus scale="   93.699">  2  9  1 -1</clus>
<clus scale="   93.699">  2  5  1 -1</clus>
</clustering>
</event>
<event>
 9    2  0.1302972E-004  0.9790154E+02  0.7546771E-02  0.1294585E+00
          2   -1    0    0  502    0 -0.00000000000E+00  0.00000000000E+00  0.40665723223E+03  0.40665723223E+03  0.00000000000E+00 0. -1.
         21   -1    0    0  501  502  0.00000000000E+00 -0.00000000000E+00 -0.35090804876E+02  0.35090804876E+02  0.00000000000E+00 0. -1.
         24    2    1    2    0    0 -0.16217617249E+01 -0.23216126734E+02  0.19295310627E+03  0.21015698486E+03  0.79958979581E+02 0.  0.
         23    2    1    2    0    0  0.29019477428E+02 -0.12843578355E+02  0.13122361454E+03  0.16604167053E+03  0.96659773246E+02 0.  0.
        -11    1    3    3    0    0 -0.17986713684E+02  0.20964451057E+02  0.31147656297E+02  0.41631797584E+02  0.00000000000E+00 0.  1.
         12    1    3    3    0    0  0.16364951959E+02 -0.44180577791E+02  0.16180544997E+03  0.16852518727E+03  0.00000000000E+00 0. -1.
        -11    1    4    4    0    0  0.72217829766E+01  0.38583648495E+02  0.84678705320E+02  0.93334533883E+02  0.00000000000E+00 0.  1.
         11    1    4    4    0    0  0.21797694452E+02 -0.51427226850E+02  0.46544909216E+02  0.72707136642E+02  0.00000000000E+00 0. -1.
          1    1    1    2  501    0 -0.27397715703E+02  0.36059705089E+02  0.47389706552E+02  0.65549381721E+02  0.00000000000E+00 0. -1.
<scales pt_clust_5="13000.00000" pt_clust_6="13000.00000" pt_clust_7="13000.00000" pt_clust_8="13000.00000" pt_clust_9="45.28727"></scales>
<clustering>
<clus scale="   45.287">  2  9  1 -1</clus>
<clus scale="   79.959">  5  6 -1 -1</clus>
<clus scale="   81.456">  1  5  2 -1</clus>
<clus scale="   96.660">  7  8 -1 -1</clus>
<clus scale="   45.287">  2  5  1 -1</clus>
</clustering>
</event>
<event>
 9    2  0.1302972E-004  0.3627883E+03  0.7546771E-02  0.1057665E+00
         21   -1    0    0  501  502  0.00000000000E+00  0.00000000000E+00  0.39144199110E+03  0.39144199110E+03  0.00000000000E+00 0. -1.
          2   -1    0    0  502    0 -0.00000000000E+00 -0.00000000000E+00 -0.38712391223E+03  0.38712391223E+03  0.00000000000E+00 0. -1.
         23    2    1    2    0    0 -0.31759380790E+03  0.17884651187E+03 -0.21097024362E+02  0.37556681690E+03  0.88053664838E+02 0.  0.
         24    2    1    2    0    0  0.30284957142E+03 -0.14898485047E+03  0.63212969267E+02  0.35262260375E+03  0.80202697071E+02 0.  0.
        -11    1    4    4    0    0  0.14467275110E+03 -0.27332852847E+02  0.31631811414E+02  0.15059170378E+03  0.00000000000E+00 0.  1.
         12    1    4    4    0    0  0.15817682032E+03 -0.12165199762E+03  0.31581157853E+02  0.20203089997E+03  0.00000000000E+00 0. -1.
        -13    1    3    3    0    0 -0.37685560127E+02 -0.27810401625E+01 -0.18057018525E+02  0.41880682235E+02  0.00000000000E+00 0.  1.
         13    1    3    3    0    0 -0.27990824777E+03  0.18162755204E+03 -0.30400058369E+01  0.33368613466E+03  0.00000000000E+00 0. -1.
          1    1    1    2  501    0  0.14744236482E+02 -0.29861661407E+02 -0.37797866034E+02  0.50376482690E+02  0.00000000000E+00 0. -1.
<scales pt_clust_5="13000.00000" pt_clust_6="13000.00000" pt_clust_7="13000.00000" pt_clust_8="13000.00000" pt_clust_9="33.30334"></scales>
<clustering>
<clus scale="   33.303">  1  9  2 -1</clus>
<clus scale="   80.203">  5  6 -1 -1</clus>
<clus scale="   88.054">  7  8 -1 -1</clus>
<clus scale="  360.963">  1  5  2 -1</clus>
<clus scale="   33.303">  1  5  2 -1</clus>
</clustering>
</event>
<event>
 9    2  0.1302972E-004  0.8261604E+02  0.7546771E-02  0.1323849E+00
         21   -1    0    0  501  502  0.00000000000E+00  0.00000000000E+00  0.49428877926E+03  0.49428877926E+03  0.00000000000E+00 0. -1.
         -1   -1    0    0    0  501 -0.00000000000E+00 -0.00000000000E+00 -0.43355301690E+02  0.43355301690E+02  0.00000000000E+00 0.  1.
         23    2    1    2    0    0 -0.38384040784E+02 -0.64356013661E+01  0.47108054520E+02  0.97633544651E+02  0.76147151546E+02 0.  0.
         24    2    1    2    0    0 -0.40711523128E+02  0.19693223629E+02  0.25686251175E+03  0.27258900221E+03  0.79253788627E+02 0.  0.
        -11    1    4    4    0    0 -0.20486955755E+02  0.35086229689E+02  0.51200471514E+02  0.65362429218E+02  0.00000000000E+00 0.  1.
         12    1    4    4    0    0 -0.20224567373E+02 -0.15393006060E+02  0.20566204023E+03  0.20722657299E+03  0.00000000000E+00 0. -1.
        -11    1    3    3    0    0 -0.38564012426E+02 -0.37696841611E+02  0.33886147613E+02  0.63690705145E+02  0.00000000000E+00 0. -1.
         11    1    3    3    0    0  0.17997164178E+00  0.31261240245E+02  0.13221906907E+02  0.33942839506E+02  0.00000000000E+00 0.  1.
         -2    1    1    2    0  502  0.79095563912E+02 -0.13257622263E+02  0.14696291130E+03  0.16742153409E+03  0.00000000000E+00 0.  1.
<scales pt_clust_5="13000.00000" pt_clust_6="13000.00000" pt_clust_7="13000.00000" pt_clust_8="13000.00000" pt_clust_9="80.19896"></scales>
<clustering>
<clus scale="   76.147">  7  8 -1 -1</clus>
<clus scale="   79.254">  5  6 -1 -1</clus>
<clus scale="   80.199">  1  9  2 -1</clus>
<clus scale="   79.641">  2  7  1 -1</clus>
<clus scale="   80.199">  1  5  2 -1</clus>
</clustering>
</event>
<event>
 9    2  0.1302972E-004  0.4066130E+03  0.7546771E-02  0.1084056E+00
          2   -1    0    0  502    0 -0.00000000000E+00  0.00000000000E+00  0.18092735146E+04  0.18092735146E+04  0.00000000000E+00 0. -1.
         21   -1    0    0  501  502  0.00000000000E+00 -0.00000000000E+00 -0.16576861736E+03  0.16576861736E+03  0.00000000000E+00 0. -1.
         24    2    1    2    0    0 -0.59011276850E+02 -0.75391977593E+02  0.15829066522E+03  0.20129876660E+03  0.79366098911E+02 0.  0.
         23    2    1    2    0    0  0.44631173834E+02  0.45410146963E+03  0.12337012000E+04  0.13188956194E+04  0.96264830656E+02 0.  0.
        -13    1    3    3    0    0 -0.51342116473E+02 -0.43120084271E+02  0.39180567791E+02  0.77656110409E+02  0.00000000000E+00 0.  1.
         14    1    3    3    0    0 -0.76691603772E+01 -0.32271893322E+02  0.11911009743E+03  0.12364265619E+03  0.00000000000E+00 0. -1.
        -11    1    4    4    0    0 -0.57768574405E+01  0.35503909729E+03  0.92796257240E+03  0.99357972426E+03  0.00000000000E+00 0.  1.
         11    1    4    4    0    0  0.50408031275E+02  0.99062372340E+02  0.30573862761E+03  0.32531589516E+03  0.00000000000E+00 0. -1.
          1    1    1    2  501    0  0.14380103016E+02 -0.37870949203E+03  0.25151303201E+03  0.45484774594E+03  0.00000000000E+00 0. -1.
<scales pt_clust_5="13000.00000" pt_clust_6="13000.00000" pt_clust_7="13000.00000" pt_clust_8="13000.00000" pt_clust_9="395.05348"></scales>
<clustering>
<clus scale="   79.366">  5  6 -1 -1</clus>
<clus scale="   96.265">  7  8 -1 -1</clus>
<clus scale="  124.359">  1  5  2 -1</clus>
<clus scale="  395.053">  2  9  1 -1</clus>
<clus scale="  395.053">  2  5  1 -1</clus>
</clustering>
</event>
<event>
 9    2  0.1302972E-004  0.1580735E+03  0.7546771E-02  0.1215830E+00
         21   -1    0    0  501  502  0.00000000000E+00  0.00000000000E+00  0.27207829970E+02  0.27207829970E+02  0.00000000000E+00 0. -1.
          2   -1    0    0  502    0 -0.00000000000E+00 -0.00000000000E+00 -0.13721596341E+04  0.13721596341E+04  0.00000000000E+00 0. -1.
         24    2    1    2    0    0  0.24710027504E+02 -0.38346333813E+02 -0.26160291588E+03  0.27738805316E+03  0.80168695017E+02 0.  0.
         23    2    1    2    0    0 -0.12147947798E+03  0.87635200770E+02 -0.53844449329E+03  0.56635857024E+03  0.91664419157E+02 0.  0.
        -13    1    3    3    0    0 -0.69272324606E+01  0.22364578195E+02 -0.77954540893E+02  0.81394541299E+02  0.00000000000E+00 0.  1.
         14    1    3    3    0    0  0.31637259965E+02 -0.60710912008E+02 -0.18364837499E+03  0.19599351186E+03  0.00000000000E+00 0. -1.
        -11    1    4    4    0    0  0.11608101895E+02  0.18060363256E+02 -0.11707822963E+03  0.11903040201E+03  0.00000000000E+00 0.  1.
         11    1    4    4    0    0 -0.13308757987E+03  0.69574837515E+02 -0.42136626366E+03  0.44732816822E+03  0.00000000000E+00 0. -1.
          1    1    1    2  501    0  0.96769450474E+02 -0.49288866958E+02 -0.54490439494E+03  0.55562084066E+03  0.00000000000E+00 0. -1.
<scales pt_clust_5="13000.00000" pt_clust_6="13000.00000" pt_clust_7="13000.00000" pt_clust_8="13000.00000" pt_clust_9="128.78235"></scales>
<clustering>
<clus scale="   80.169">  5  6 -1 -1</clus>
<clus scale="   91.664">  7  8 -1 -1</clus>
<clus scale="   92.239">  2  5  1 -1</clus>
<clus scale="  128.782">  1  9  2 -1</clus>
<clus scale="  128.782">  1  5  2 -1</clus>
</clustering>
</event>
<event>
 9    2  0.1302972E-004  0.1691887E+03  0.7546771E-02  0.1180171E+00
          2   -1    0    0  502    0 -0.00000000000E+00  0.00000000000E+00  0.64652145192E+03  0.64652145192E+03  0.00000000000E+00 0. -1.
         21   -1    0    0  501  502  0.00000000000E+00 -0.00000000000E+00 -0.44857064092E+03  0.44857064092E+03  0.00000000000E+00 0. -1.
         24    2    1    2    0    0  0.67659229130E+02  0.13053805580E+03  0.59030211796E+03  0.61366015705E+03  0.80648884595E+02 0.  0.
         23    2    1    2    0    0 -0.11080608210E+03 -0.22402479377E+01 -0.19905709790E+03  0.24545602669E+03  0.91334146252E+02 0.  0.
        -13    1    3    3    0    0  0.38829638282E+02  0.65790609514E+02  0.45035945144E+03  0.45679292968E+03  0.00000000000E+00 0.  1.
         14    1    3    3    0    0  0.28829590848E+02  0.64747446285E+02  0.13994266652E+03  0.15686722737E+03  0.00000000000E+00 0. -1.
        -13    1    4    4    0    0  0.24680679035E+01 -0.22031509116E+02 -0.10332419582E+02  0.24458897103E+02  0.00000000000E+00 0.  1.
         13    1    4    4    0    0 -0.11327415001E+03  0.19791261178E+02 -0.18872467831E+03  0.22099712958E+03  0.00000000000E+00 0. -1.
          1    1    1    2  501    0  0.43146852974E+02 -0.12829780786E+03 -0.19329420905E+03  0.23597590910E+03  0.00000000000E+00 0. -1.
<scales pt_clust_5="13000.00000" pt_clust_6="13000.00000" pt_clust_7="13000.00000" pt_clust_8="13000.00000" pt_clust_9="135.35870"></scales>
<clustering>
<clus scale="   80.649">  5  6 -1 -1</clus>
<clus scale="   91.334">  7  8 -1 -1</clus>
<clus scale="  135.359">  2  9  1 -1</clus>
<clus scale="  163.668">  1  5  2 -1</clus>
<clus scale="  135.359">  2  5  1 -1</clus>
</clustering>
</event>
<event>
 9    2  0.1302972E-004  0.9740128E+02  0.7546771E-02  0.1290536E+00
          2   -1    0    0  502    0 -0.00000000000E+00  0.00000000000E+00  0.52246653246E+03  0.52246653246E+03  0.00000000000E+00 0. -1.
         21   -1    0    0  501  502  0.00000000000E+00 -0.00000000000E+00 -0.33838814757E+02  0.33838814757E+02  0.00000000000E+00 0.  1.
         24    2    1    2    0    0 -0.40368192584E+02 -0.14654962616E+02  0.23132697973E+03  0.24909116883E+03  0.81791686209E+02 0.  0.
         23    2    1    2    0    0  0.24523988994E+02 -0.35353418213E+02  0.10113604108E+03  0.14247411194E+03  0.90659161432E+02 0.  0.
        -11    1    3    3    0    0 -0.27097116671E+02  0.31712564663E+02  0.79360805096E+02  0.89655328201E+02  0.00000000000E+00 0.  1.
         12    1    3    3    0    0 -0.13271075914E+02 -0.46367527279E+02  0.15196617464E+03  0.15943584063E+03  0.00000000000E+00 0. -1.
        -13    1    4    4    0    0  0.14598140225E+02 -0.64920038653E+02  0.83057622084E+02  0.10642502386E+03  0.00000000000E+00 0.  1.
         13    1    4    4    0    0  0.99258487689E+01  0.29566620441E+02  0.18078419001E+02  0.36049088083E+02  0.00000000000E+00 0. -1.
          1    1    1    2  501    0  0.15844203590E+02  0.50008380829E+02  0.15616469688E+03  0.16474006645E+03  0.00000000000E+00 0. -1.
<scales pt_clust_5="13000.00000" pt_clust_6="13000.00000" pt_clust_7="13000.00000" pt_clust_8="13000.00000" pt_clust_9="52.45836"></scales>
<clustering>
<clus scale="   52.458">  2  9  1 -1</clus>
<clus scale="   81.792">  5  6 -1 -1</clus>
<clus scale="   89.207">  1  5  2 -1</clus>
<clus scale="   90.659">  7  8 -1 -1</clus>
<clus scale="   52.458">  2  5  1 -1</clus>
</clustering>
</event>
<event>
 9    2  0.1302972E-004  0.1254326E+03  0.7546771E-02  0.1237479E+00
          2   -1    0    0  502    0 -0.00000000000E+00  0.00000000000E+00  0.32396308562E+03  0.32396308562E+03  0.00000000000E+00 0. -1.
         21   -1    0    0  501  502  0.00000000000E+00 -0.00000000000E+00 -0.16103213558E+03  0.16103213558E+03  0.00000000000E+00 0.  1.
         23    2    1    2    0    0 -0.14194456639E+02 -0.86912885869E+02  0.28246237381E+03  0.30966464338E+03  0.91388546398E+02 0.  0.
         24    2    1    2    0    0  0.91382229012E+01  0.64859362518E+02 -0.10846955735E+03  0.15014549730E+03  0.80546765695E+02 0.  0.
        -11    1    4    4    0    0  0.25678836982E+02  0.10256232348E+02 -0.83331825471E+02  0.87799693092E+02  0.00000000000E+00 0.  1.
         12    1    4    4    0    0 -0.16540614081E+02  0.54603130169E+02 -0.25137731882E+02  0.62345804210E+02  0.00000000000E+00 0. -1.
        -11    1    3    3    0    0  0.52851661645E+01 -0.10175641711E+03  0.23820867088E+03  0.25908622558E+03  0.00000000000E+00 0.  1.
         11    1    3    3    0    0 -0.19479622803E+02  0.14843531237E+02  0.44253702937E+02  0.50578417806E+02  0.00000000000E+00 0. -1.
          1    1    1    2  501    0  0.50562337378E+01  0.22053523351E+02 -0.11061866413E+02  0.25185080512E+02  0.00000000000E+00 0. -1.
<scales pt_clust_5="13000.00000" pt_clust_6="13000.00000" pt_clust_7="13000.00000" pt_clust_8="13000.00000" pt_clust_9="22.62572"></scales>
<clustering>
<clus scale="   22.626">  2  9  1 -1</clus>
<clus scale="   80.547">  5  6 -1 -1</clus>
<clus scale="   91.389">  7  8 -1 -1</clus>
<clus scale="  117.768">  2  5  1 -1</clus>
<clus scale="   22.626">  2  5  1 -1</clus>
</clustering>
</event>
<event>
 9    2  0.1302972E-004  0.1098773E+03  0.7546771E-02  0.1266020E+00
          2   -1    0    0  502    0 -0.00000000000E+00  0.00000000000E+00  0.47309797658E+03  0.47309797658E+03  0.00000000000E+00 0. -1.
         21   -1    0    0  501  502  0.00000000000E+00 -0.00000000000E+00 -0.57655509613E+02  0.57655509613E+02  0.00000000000E+00 0. -1.
         24    2    1    2    0    0 -0.43010340785E+02  0.30991669851E+02  0.31952338183E+03  0.33376364926E+03  0.80576727551E+02 0.  0.
         23    2    1    2    0    0  0.59895131587E+02 -0.45678431627E+02  0.11602454700E+03  0.16690617477E+03  0.93391807814E+02 0.  0.
        -13    1    3    3    0    0 -0.22835939321E+01 -0.26020663292E+02  0.98210134265E+02  0.10162440746E+03  0.00000000000E+00 0.  1.
         14    1    3    3    0    0 -0.40726746853E+02  0.57012333143E+02  0.22131324756E+03  0.23213924180E+03  0.00000000000E+00 0. -1.
        -11    1    4    4    0    0  0.58685972361E+02 -0.67613853493E+02  0.11384124251E+03  0.14482922714E+03  0.00000000000E+00 0.  1.
         11    1    4    4    0    0  0.12091592257E+01  0.21935421865E+02  0.21833044878E+01  0.22076947636E+02  0.00000000000E+00 0. -1.
          1    1    1    2  501    0 -0.16884790801E+02  0.14686761777E+02 -0.20105461862E+02  0.30083662153E+02  0.00000000000E+00 0. -1.
<scales pt_clust_5="13000.00000" pt_clust_6="13000.00000" pt_clust_7="13000.00000" pt_clust_8="13000.00000" pt_clust_9="22.37850"></scales>
<clustering>
<clus scale="   22.378">  2  9  1 -1</clus>
<clus scale="   80.577">  5  6 -1 -1</clus>
<clus scale="   93.392">  7  8 -1 -1</clus>
<clus scale="   99.215">  1  5  2 -1</clus>
<clus scale="   22.378">  2  5  1 -1</clus>
</clustering>
</event>
<event>
 9    2  0.1302972E-004  0.9614968E+02  0.7546771E-02  0.1295283E+00
         21   -1    0    0  501  502  0.00000000000E+00  0.00000000000E+00  0.31560273628E+02  0.31560273628E+02  0.00000000000E+00 0.  1.
          2   -1    0    0  502    0 -0.00000000000E+00 -0.00000000000E+00 -0.74307587560E+03  0.74307587560E+03  0.00000000000E+00 0. -1.
         24    2    1    2    0    0  0.19149158786E+02  0.26967236654E+02 -0.61080524373E+03  0.61682108504E+03  0.79317608625E+02 0.  0.
         23    2    1    2    0    0 -0.68717896702E+00 -0.15282061278E+02 -0.99566759511E+02  0.13593594537E+03  0.91274465388E+02 0.  0.
        -13    1    3    3    0    0  0.17509523475E+02 -0.24494043248E+02 -0.13952635200E+03  0.14273802741E+03  0.00000000000E+00 0.  1.
         14    1    3    3    0    0  0.16396353113E+01  0.51461279902E+02 -0.47127889173E+03  0.47408305763E+03  0.00000000000E+00 0. -1.
        -13    1    4    4    0    0 -0.22891084492E+02  0.12239354925E+02 -0.97076183419E+02  0.10048676005E+03  0.00000000000E+00 0. -1.
         13    1    4    4    0    0  0.22203905525E+02 -0.27521416204E+02 -0.24905760914E+01  0.35449185318E+02  0.00000000000E+00 0.  1.
          1    1    1    2  501    0 -0.18461979819E+02 -0.11685175376E+02 -0.11435987263E+01  0.21879118823E+02  0.00000000000E+00 0. -1.
<scales pt_clust_5="13000.00000" pt_clust_6="13000.00000" pt_clust_7="13000.00000" pt_clust_8="13000.00000" pt_clust_9="21.84921"></scales>
<clustering>
<clus scale="   21.849">  1  9  2 -1</clus>
<clus scale="   79.318">  5  6 -1 -1</clus>
<clus scale="   84.882">  2  5  1 -1</clus>
<clus scale="   91.274">  7  8 -1 -1</clus>
<clus scale="   21.849">  1  5  2 -1</clus>
</clustering>
</event>
<event>
 9    2  0.1302972E-004  0.1591074E+03  0.7546771E-02  0.1212471E+00
          2   -1    0    0  502    0 -0.00000000000E+00  0.00000000000E+00  0.15058441563E+03  0.15058441563E+03  0.00000000000E+00 0. -1.
         21   -1    0    0  501  502  0.00000000000E+00 -0.00000000000E+00 -0.47035627990E+03  0.47035627990E+03  0.00000000000E+00 0.  1.
         23    2    1    2    0    0 -0.16490276528E+02  0.34175404934E+02 -0.15075724967E+03  0.17933776653E+03  0.89411401152E+02 0.  0.
         24    2    1    2    0    0 -0.10708672981E+03 -0.10129795348E+03  0.57869095193E+02  0.17467048289E+03  0.73702797320E+02 0.  0.
        -11    1    4    4    0    0 -0.74572324478E+02 -0.10618949117E+03  0.57139505745E+02  0.14178209594E+03  0.00000000000E+00 0.  1.
         12    1    4    4    0    0 -0.32514405333E+02  0.48915376900E+01  0.72958944832E+00  0.32888386946E+02  0.00000000000E+00 0. -1.
        -11    1    3    3    0    0  0.55106577413E+01  0.36852389041E+02 -0.15261383719E+03  0.15709694214E+03  0.00000000000E+00 0.  1.
         11    1    3    3    0    0 -0.22000934269E+02 -0.26769841069E+01  0.18565875236E+01  0.22240824397E+02  0.00000000000E+00 0. -1.
          1    1    1    2  501    0  0.12357700634E+03  0.67122548542E+02 -0.22688370979E+03  0.26693244611E+03  0.00000000000E+00 0. -1.
<scales pt_clust_5="13000.00000" pt_clust_6="13000.00000" pt_clust_7="13000.00000" pt_clust_8="13000.00000" pt_clust_9="141.00728"></scales>
<clustering>
<clus scale="   73.703">  5  6 -1 -1</clus>
<clus scale="   89.411">  7  8 -1 -1</clus>
<clus scale="   97.130">  1  7  2 -1</clus>
<clus scale="  141.007">  2  9  1 -1</clus>
<clus scale="  141.007">  2  5  1 -1</clus>
</clustering>
</event>
<event>
 9    2  0.1302972E-004  0.1084400E+03  0.7546771E-02  0.1267279E+00
         21   -1    0    0  501  502  0.00000000000E+00  0.00000000000E+00  0.89372807873E+02  0.89372807873E+02  0.00000000000E+00 0.  1.
         -1   -1    0    0    0  501 -0.00000000000E+00 -0.00000000000E+00 -0.39366265221E+03  0.39366265221E+03  0.00000000000E+00 0.  1.
         23    2    1    2    0    0 -0.76246475862E+01 -0.61822441860E+02 -0.30845100226E+03  0.32730017707E+03  0.90017973449E+02 0.  0.
         24    2    1    2    0    0  0.27067389133E+02  0.50283443798E+02 -0.39678494824E+02  0.10640898346E+03  0.80544525169E+02 0.  0.
        -13    1    4    4    0    0  0.49937838382E+02  0.38466614800E+02 -0.48135421983E+02  0.79312590463E+02  0.00000000000E+00 0.  1.
         14    1    4    4    0    0 -0.22870449250E+02  0.11816828998E+02  0.84569271585E+01  0.27096392997E+02  0.00000000000E+00 0. -1.
        -11    1    3    3    0    0  0.27407316193E+02 -0.22035302711E+02 -0.38296608517E+02  0.51993708950E+02  0.00000000000E+00 0. -1.
         11    1    3    3    0    0 -0.35031963779E+02 -0.39787139149E+02 -0.27015439375E+03  0.27530646812E+03  0.00000000000E+00 0.  1.
         -2    1    1    2    0  502 -0.19442741546E+02  0.11538998062E+02  0.43839652747E+02  0.49326299558E+02  0.00000000000E+00 0.  1.
<scales pt_clust_5="13000.00000" pt_clust_6="13000.00000" pt_clust_7="13000.00000" pt_clust_8="13000.00000" pt_clust_9="22.60904"></scales>
<clustering>
<clus scale="   22.609">  1  9  2 -1</clus>
<clus scale="   80.545">  5  6 -1 -1</clus>
<clus scale="   90.018">  7  8 -1 -1</clus>
<clus scale="  100.715">  1  5  2 -1</clus>
<clus scale="   22.609">  1  5  2 -1</clus>
</clustering>
</event>
<event>
 9    2  0.1302972E-004  0.9714972E+02  0.7546771E-02  0.1292986E+00
         21   -1    0    0  501  502  0.00000000000E+00  0.00000000000E+00  0.56283858192E+02  0.56283858192E+02  0.00000000000E+00 0. -1.
         -1   -1    0    0    0  501 -0.00000000000E+00 -0.00000000000E+00 -0.53367398399E+03  0.53367398399E+03  0.00000000000E+00 0.  1.
         24    2    1    2    0    0  0.13808779994E+02 -0.25293478815E+02 -0.43935538564E+03  0.44774137247E+03  0.81294152649E+02 0.  0.
         23    2    1    2    0    0  0.19824263411E+02  0.29853175548E+02 -0.41572610366E+02  0.10809186028E+03  0.93120109622E+02 0.  0.
        -11    1    3    3    0    0 -0.17202069186E+02 -0.45835822694E+02 -0.26003741062E+03  0.26460591216E+03  0.00000000000E+00 0.  1.
         12    1    3    3    0    0  0.31010849181E+02  0.20542343879E+02 -0.17931797502E+03  0.18313546031E+03  0.00000000000E+00 0. -1.
        -13    1    4    4    0    0  0.14337603709E+02 -0.18260168141E+02 -0.53412754273E+02  0.58240217545E+02  0.00000000000E+00 0.  1.
         13    1    4    4    0    0  0.54866597018E+01  0.48113343689E+02  0.11840143907E+02  0.49851642735E+02  0.00000000000E+00 0. -1.
         -2    1    1    2    0  502 -0.33633043405E+02 -0.45596967328E+01  0.35378702121E+01  0.34124609428E+02  0.00000000000E+00 0.  1.
<scales pt_clust_5="13000.00000" pt_clust_6="13000.00000" pt_clust_7="13000.00000" pt_clust_8="13000.00000" pt_clust_9="33.94072"></scales>
<clustering>
<clus scale="   33.941">  1  9  2 -1</clus>
<clus scale="   81.294">  5  6 -1 -1</clus>
<clus scale="   85.880">  2  5  1 -1</clus>
<clus scale="   93.120">  7  8 -1 -1</clus>
<clus scale="   33.941">  1  5  2 -1</clus>
</clustering>
</event>
<event>
 9    2  0.1302972E-004  0.1564835E+03  0.7546771E-02  0.1194490E+00
         21   -1    0    0  501  502  0.00000000000E+00  0.00000000000E+00  0.14277887271E+03  0.14277887271E+03  0.00000000000E+00 0.  1.
          2   -1    0    0  502    0 -0.00000000000E+00 -0.00000000000E+00 -0.32261902542E+03  0.32261902542E+03  0.00000000000E+00 0. -1.
         23    2    1    2    0    0 -0.50443946201E+02  0.98291439924E+02 -0.88668527993E+01  0.14339171518E+03  0.90976722474E+02 0.  0.
         24    2    1    2    0    0  0.62559503283E+02 -0.13162936671E+03 -0.20799229711E+02  0.16769981417E+03  0.80315864462E+02 0.  0.
        -11    1    4    4    0    0  0.34934210234E+02 -0.13312493971E+03 -0.24473073094E+02  0.13979120117E+03  0.00000000000E+00 0.  1.
         12    1    4    4    0    0  0.27625293049E+02  0.14955729956E+01  0.36738433834E+01  0.27908613004E+02  0.00000000000E+00 0. -1.
        -11    1    3    3    0    0 -0.39779639811E+02 -0.32583811285E+01 -0.10498209350E+02  0.41270439671E+02  0.00000000000E+00 0. -1.
         11    1    3    3    0    0 -0.10664306390E+02  0.10154982105E+03  0.16313565511E+01  0.10212127551E+03  0.00000000000E+00 0.  1.
          1    1    1    2  501    0 -0.12115557082E+02  0.33337926788E+02 -0.15017407020E+03  0.15430636878E+03  0.00000000000E+00 0. -1.
<scales pt_clust_5="13000.00000" pt_clust_6="13000.00000" pt_clust_7="13000.00000" pt_clust_8="13000.00000" pt_clust_9="35.47119"></scales>
<clustering>
<clus scale="   35.471">  1  9  2 -1</clus>
<clus scale="   80.316">  5  6 -1 -1</clus>
<clus scale="   90.977">  7  8 -1 -1</clus>
<clus scale="  150.536">  1  5  2 -1</clus>
<clus scale="   35.471">  1  5  2 -1</clus>
</clustering>
</event>
<event>
 9    2  0.2230842E-004  0.1656037E+03  0.7546771E-02  0.1183083E+00
         21   -1    0    0  501  502  0.00000000000E+00  0.00000000000E+00  0.92160826649E+02  0.92160826649E+02  0.00000000000E+00 0. -1.
         -1   -1    0    0    0  501 -0.00000000000E+00 -0.00000000000E+00 -0.92394177422E+03  0.92394177422E+03  0.00000000000E+00 0.  1.
         23    2    1    2    0    0  0.71500993570E+02 -0.11345406288E+03 -0.78794104710E+03  0.80503465345E+03  0.96153435116E+02 0.  0.
         24    2    1    2    0    0 -0.98487746744E+02  0.10474889667E+03 -0.16619038014E+02  0.17176094908E+03  0.92484937109E+02 0.  0.
        -13    1    4    4    0    0  0.49679857310E+01  0.41770854455E+02 -0.27341705680E+02  0.50170250484E+02  0.00000000000E+00 0.  1.
         14    1    4    4    0    0 -0.10345573248E+03  0.62978042212E+02  0.10722667666E+02  0.12159069859E+03  0.00000000000E+00 0. -1.
        -11    1    3    3    0    0  0.90520791555E+02 -0.75788333008E+02 -0.65510531729E+03  0.66565821701E+03  0.00000000000E+00 0.  1.
         11    1    3    3    0    0 -0.19019797985E+02 -0.37665729868E+02 -0.13283572981E+03  0.13937643644E+03  0.00000000000E+00 0. -1.
         -2    1    1    2    0  502  0.26986753174E+02  0.87051662095E+01 -0.27220862450E+02  0.39306998335E+02  0.00000000000E+00 0.  1.
<scales pt_clust_5="13000.00000" pt_clust_6="13000.00000" pt_clust_7="13000.00000" pt_clust_8="13000.00000" pt_clust_9="28.35604"></scales>
<clustering>
<clus scale="   28.356">  1  9  2 -1</clus>
<clus scale="   92.485">  5  6 -1 -1</clus>
<clus scale="   96.153">  7  8 -1 -1</clus>
<clus scale="  163.501">  1  5  2 -1</clus>
<clus scale="   28.356">  1  5  2 -1</clus>
</clustering>
</event>
<event>
 9    2  0.1302972E-004  0.9077770E+02  0.7546771E-02  0.1304940E+00
         21   -1    0    0  501  502  0.00000000000E+00  0.00000000000E+00  0.18393100428E+03  0.18393100428E+03  0.00000000000E+00 0. -1.
         -3   -1    0    0    0  501 -0.00000000000E+00 -0.00000000000E+00 -0.70271832239E+02  0.70271832239E+02  0.00000000000E+00 0.  1.
         23    2    1    2    0    0  0.14821749925E+02 -0.28923463584E+02 -0.37227743683E+01  0.93156790499E+02  0.87224294497E+02 0.  0.
         24    2    1    2    0    0  0.25284180645E+01  0.81130861945E+01  0.10060725628E+03  0.12917928646E+03  0.80580723294E+02 0.  0.
        -13    1    4    4    0    0 -0.12789480932E+02  0.21365241140E+02 -0.16309158139E+01  0.24954042516E+02  0.00000000000E+00 0.  1.
         14    1    4    4    0    0  0.15317898996E+02 -0.13252154946E+02  0.10223817210E+03  0.10422524394E+03  0.00000000000E+00 0. -1.
        -13    1    3    3    0    0  0.47880585289E+02 -0.41530107300E+01  0.10998411184E+02  0.49302768627E+02  0.00000000000E+00 0.  1.
         13    1    3    3    0    0 -0.33058835364E+02 -0.24770452854E+02 -0.14721185553E+02  0.43854021871E+02  0.00000000000E+00 0. -1.
         -4    1    1    2    0  502 -0.17350167990E+02  0.20810377390E+02  0.16774690127E+02  0.31866759566E+02  0.00000000000E+00 0.  1.
<scales pt_clust_5="13000.00000" pt_clust_6="13000.00000" pt_clust_7="13000.00000" pt_clust_8="13000.00000" pt_clust_9="27.09428"></scales>
<clustering>
<clus scale="   27.094">  1  9  2 -1</clus>
<clus scale="   80.581">  5  6 -1 -1</clus>
<clus scale="   84.414">  1  5  2 -1</clus>
<clus scale="   87.224">  7  8 -1 -1</clus>
<clus scale="   27.094">  1  5  2 -1</clus>
</clustering>
</event>
<event>
 9    2  0.1302972E-004  0.1349798E+03  0.7546771E-02  0.1223474E+00
         21   -1    0    0  501  502  0.00000000000E+00  0.00000000000E+00  0.41246519979E+02  0.41246519979E+02  0.00000000000E+00 0. -1.
          2   -1    0    0  502    0 -0.00000000000E+00 -0.00000000000E+00 -0.77435914279E+03  0.77435914279E+03  0.00000000000E+00 0. -1.
         23    2    1    2    0    0 -0.50635513204E+02 -0.72587482190E+02 -0.31857404625E+03  0.34359959017E+03  0.93479182987E+02 0.  0.
         24    2    1    2    0    0  0.81878404145E+02  0.84818770798E+02 -0.15622393084E+03  0.21152156471E+03  0.80231906538E+02 0.  0.
        -13    1    4    4    0    0  0.61376242650E+02  0.43993476472E+02 -0.14649523133E+03  0.16481299080E+03  0.00000000000E+00 0.  1.
         14    1    4    4    0    0  0.20502161496E+02  0.40825294327E+02 -0.97286995087E+01  0.46708573913E+02  0.00000000000E+00 0. -1.
        -13    1    3    3    0    0  0.20278103840E+02 -0.24673649815E+00 -0.10846970024E+03  0.11034916513E+03  0.00000000000E+00 0.  1.
         13    1    3    3    0    0 -0.70913617044E+02 -0.72340745692E+02 -0.21010434601E+03  0.23325042504E+03  0.00000000000E+00 0. -1.
          1    1    1    2  501    0 -0.31242890942E+02 -0.12231288608E+02 -0.25831464572E+03  0.26048450789E+03  0.00000000000E+00 0. -1.
<scales pt_clust_5="13000.00000" pt_clust_6="13000.00000" pt_clust_7="13000.00000" pt_clust_8="13000.00000" pt_clust_9="33.55181"></scales>
<clustering>
<clus scale="   33.552">  1  9  2 -1</clus>
<clus scale="   80.232">  5  6 -1 -1</clus>
<clus scale="   93.479">  7  8 -1 -1</clus>
<clus scale="  126.168">  1  5  2 -1</clus>
<clus scale="   33.552">  1  5  2 -1</clus>
</clustering>
</event>
<event>
 9    2  0.1302972E-004  0.1121330E+03  0.7546771E-02  0.1269983E+00
          2   -1    0    0  502    0 -0.00000000000E+00  0.00000000000E+00  0.13400876742E+03  0.13400876742E+03  0.00000000000E+00 0. -1.
         21   -1    0    0  501  502  0.00000000000E+00 -0.00000000000E+00 -0.25386759178E+03  0.25386759178E+03  0.00000000000E+00 0. -1.
         24    2    1    2    0    0  0.32348923750E+02 -0.37002532678E+02 -0.42673706349E+02  0.10312030082E+03  0.79981941301E+02 0.  0.
         23    2    1    2    0    0  0.58733536810E+02  0.23405728602E+02 -0.12884973978E+03  0.17916192576E+03  0.10723471324E+03 0.  0.
        -11    1    3    3    0    0  0.58240356672E+02 -0.16266722692E+02 -0.24033613293E+02  0.65070423237E+02  0.00000000000E+00 0.  1.
         12    1    3    3    0    0 -0.25891432922E+02 -0.20735809987E+02 -0.18640093056E+02  0.38049877578E+02  0.00000000000E+00 0. -1.
        -13    1    4    4    0    0  0.41371236731E+02 -0.29175682813E+02 -0.10927202787E+03  0.12042913174E+03  0.00000000000E+00 0. -1.
         13    1    4    4    0    0  0.17362300079E+02  0.52581411416E+02 -0.19577711909E+02  0.58732794026E+02  0.00000000000E+00 0.  1.
          1    1    1    2  501    0 -0.91082460560E+02  0.13596804076E+02  0.51664621768E+02  0.10559413263E+03  0.00000000000E+00 0. -1.
<scales pt_clust_5="13000.00000" pt_clust_6="13000.00000" pt_clust_7="13000.00000" pt_clust_8="13000.00000" pt_clust_9="92.09178"></scales>
<clustering>
<clus scale="   79.982">  5  6 -1 -1</clus>
<clus scale="   92.092">  2  9  1 -1</clus>
<clus scale="   86.439">  1  5  2 -1</clus>
<clus scale="  107.235">  7  8 -1 -1</clus>
<clus scale="   92.092">  2  5  1 -1</clus>
</clustering>
</event>
<event>
 9    2  0.1302972E-004  0.1216143E+03  0.7546771E-02  0.1243507E+00
         21   -1    0    0  501  502  0.00000000000E+00  0.00000000000E+00  0.81466613988E+03  0.81466613988E+03  0.00000000000E+00 0. -1.
          2   -1    0    0  502    0 -0.00000000000E+00 -0.00000000000E+00 -0.31325850597E+02  0.31325850597E+02  0.00000000000E+00 0. -1.
         24    2    1    2    0    0  0.55947854359E+01  0.72556283013E+02  0.18530806098E+03  0.21490144878E+03  0.80918720924E+02 0.  0.
         23    2    1    2    0    0 -0.64170040936E+02 -0.84535723224E+02  0.37533998830E+03  0.40051213572E+03  0.90916342791E+02 0.  0.
        -13    1    3    3    0    0  0.19200966121E+02  0.23051336888E+02  0.14907240929E+03  0.15206125227E+03  0.00000000000E+00 0.  1.
         14    1    3    3    0    0 -0.13606180685E+02  0.49504946125E+02  0.36235651691E+02  0.62840196508E+02  0.00000000000E+00 0. -1.
        -13    1    4    4    0    0 -0.67818086324E+02 -0.61530572034E+02  0.36255713168E+03  0.37394247934E+03  0.00000000000E+00 0. -1.
         13    1    4    4    0    0  0.36480453888E+01 -0.23005151190E+02  0.12782856621E+02  0.26569656374E+02  0.00000000000E+00 0.  1.
          1    1    1    2  501    0  0.58575255500E+02  0.11979440211E+02  0.22269224001E+03  0.23057840598E+03  0.00000000000E+00 0. -1.
<scales pt_clust_5="13000.00000" pt_clust_6="13000.00000" pt_clust_7="13000.00000" pt_clust_8="13000.00000" pt_clust_9="59.78769"></scales>
<clustering>
<clus scale="   59.788">  1  9  2 -1</clus>
<clus scale="   80.919">  5  6 -1 -1</clus>
<clus scale="   90.916">  7  8 -1 -1</clus>
<clus scale="  114.333">  2  5  1 -1</clus>
<clus scale="   59.788">  1  5  2 -1</clus>
</clustering>
</event>
<event>
 9    2  0.1302972E-004  0.1328443E+03  0.7546771E-02  0.1227637E+00
         -1   -1    0    0    0  501 -0.00000000000E+00  0.00000000000E+00  0.20422376160E+03  0.20422376160E+03  0.00000000000E+00 0.  1.
         21   -1    0    0  501  502  0.00000000000E+00 -0.00000000000E+00 -0.18172298733E+03  0.18172298733E+03  0.00000000000E+00 0. -1.
         23    2    1    2    0    0  0.26663371728E+02 -0.78313328731E+02  0.80018404955E+02  0.14924232994E+03  0.95007447426E+02 0.  0.
         24    2    1    2    0    0 -0.26908091518E+02  0.10435255296E+03  0.37397550379E+02  0.13828189777E+03  0.78165246615E+02 0.  0.
        -11    1    4    4    0    0 -0.22754378841E+02  0.34568989577E+02  0.52410921084E+02  0.66780846398E+02  0.00000000000E+00 0.  1.
         12    1    4    4    0    0 -0.41537126768E+01  0.69783563386E+02 -0.15013370704E+02  0.71501051375E+02  0.00000000000E+00 0. -1.
        -13    1    3    3    0    0  0.49215055235E+02 -0.82424230184E+01  0.18195423091E+02  0.53114335358E+02  0.00000000000E+00 0.  1.
         13    1    3    3    0    0 -0.22551683507E+02 -0.70070905712E+02  0.61822981864E+02  0.96127994585E+02  0.00000000000E+00 0. -1.
         -2    1    1    2    0  502  0.24471978986E+00 -0.26039224233E+02 -0.94915181065E+02  0.98422521219E+02  0.00000000000E+00 0.  1.
<scales pt_clust_5="13000.00000" pt_clust_6="13000.00000" pt_clust_7="13000.00000" pt_clust_8="13000.00000" pt_clust_9="26.04037"></scales>
<clustering>
<clus scale="   26.040">  2  9  1 -1</clus>
<clus scale="   78.165">  5  6 -1 -1</clus>
<clus scale="   95.007">  7  8 -1 -1</clus>
<clus scale="  121.371">  2  5  1 -1</clus>
<clus scale="   26.040">  2  5  1 -1</clus>
</clustering>
</event>
<event>
 9    2  0.1302972E-004  0.2068264E+03  0.7546771E-02  0.1180589E+00
          2   -1    0    0  502    0 -0.00000000000E+00  0.00000000000E+00  0.68193872880E+03  0.68193872880E+03  0.00000000000E+00 0. -1.
         21   -1    0    0  501  502  0.00000000000E+00 -0.00000000000E+00 -0.17098315388E+03  0.17098315388E+03  0.00000000000E+00 0.  1.
         24    2    1    2    0    0  0.88724754691E+01 -0.35840538261E+02  0.10954040484E+03  0.14098267988E+03  0.80707810835E+02 0.  0.
         23    2    1    2    0    0  0.18298698225E+03  0.31276215496E+02 -0.57696379862E+02  0.21433062184E+03  0.90256888287E+02 0.  0.
        -11    1    3    3    0    0  0.41390894931E+02 -0.16710248699E+02  0.84905670273E+02  0.95923987820E+02  0.00000000000E+00 0.  1.
         12    1    3    3    0    0 -0.32518419461E+02 -0.19130289563E+02  0.24634734569E+02  0.45058692062E+02  0.00000000000E+00 0. -1.
        -13    1    4    4    0    0  0.30687011196E+02  0.41473505772E+02 -0.28438549173E+02  0.58910910842E+02  0.00000000000E+00 0. -1.
         13    1    4    4    0    0  0.15229997105E+03 -0.10197290277E+02 -0.29257830689E+02  0.15541971100E+03  0.00000000000E+00 0.  1.
          1    1    1    2  501    0 -0.19185945772E+03  0.45643227658E+01  0.45911154993E+03  0.49760858095E+03  0.00000000000E+00 0. -1.
<scales pt_clust_5="13000.00000" pt_clust_6="13000.00000" pt_clust_7="13000.00000" pt_clust_8="13000.00000" pt_clust_9="186.09371"></scales>
<clustering>
<clus scale="   80.708">  5  6 -1 -1</clus>
<clus scale="   88.753">  1  5  2 -1</clus>
<clus scale="   90.257">  7  8 -1 -1</clus>
<clus scale="  186.094">  2  9  1 -1</clus>
<clus scale="  186.094">  2  5  1 -1</clus>
</clustering>
</event>
<event>
 9    2  0.1302972E-004  0.1090770E+03  0.7546771E-02  0.1274383E+00
         21   -1    0    0  501  502  0.00000000000E+00  0.00000000000E+00  0.25439006266E+02  0.25439006266E+02  0.00000000000E+00 0.  1.
          4   -1    0    0  502    0 -0.00000000000E+00 -0.00000000000E+00 -0.13336408337E+04  0.13336408337E+04  0.00000000000E+00 0. -1.
         24    2    1    2    0    0 -0.11261261692E+02  0.33242855966E+02 -0.62971881307E+03  0.63560138237E+03  0.78812627474E+02 0.  0.
         23    2    1    2    0    0 -0.43399903263E+02  0.35776572020E+02 -0.12758712682E+03  0.16559154853E+03  0.89322848734E+02 0.  0.
        -13    1    3    3    0    0  0.24527386700E+02  0.37865843521E+02 -0.23909343563E+03  0.24331273244E+03  0.00000000000E+00 0.  1.
         14    1    3    3    0    0 -0.35788648392E+02 -0.46229875547E+01 -0.39062537743E+03  0.39228864993E+03  0.00000000000E+00 0. -1.
        -13    1    4    4    0    0 -0.70131367118E+02  0.30520837757E+02 -0.79467349353E+02  0.11029501260E+03  0.00000000000E+00 0.  1.
         13    1    4    4    0    0  0.26731463855E+02  0.52557342621E+01 -0.48119777468E+02  0.55296535932E+02  0.00000000000E+00 0. -1.
          3    1    1    2  501    0  0.54661164955E+02 -0.69019427986E+02 -0.55089588758E+03  0.55788690910E+03  0.00000000000E+00 0. -1.
<scales pt_clust_5="13000.00000" pt_clust_6="13000.00000" pt_clust_7="13000.00000" pt_clust_8="13000.00000" pt_clust_9="62.60369"></scales>
<clustering>
<clus scale="   78.813">  5  6 -1 -1</clus>
<clus scale="   86.275">  2  5  1 -1</clus>
<clus scale="   62.604">  1  9  2 -1</clus>
<clus scale="   89.323">  7  8 -1 -1</clus>
<clus scale="   62.604">  1  5  2 -1</clus>
</clustering>
</event>
<event>
 9    2  0.1302972E-004  0.1376860E+03  0.7546771E-02  0.1234215E+00
         21   -1    0    0  501  502  0.00000000000E+00  0.00000000000E+00  0.65029471158E+03  0.65029471158E+03  0.00000000000E+00 0. -1.
         -1   -1    0    0    0  501 -0.00000000000E+00 -0.00000000000E+00 -0.63989612708E+02  0.63989612708E+02  0.00000000000E+00 0.  1.
         23    2    1    2    0    0 -0.13319826785E+02 -0.66405117155E+01  0.58671335342E+02  0.11181560611E+03  0.94015371065E+02 0.  0.
         24    2    1    2    0    0 -0.40555821758E+02  0.10582334059E+03  0.43531370969E+03  0.45665098472E+03  0.78668557336E+02 0.  0.
        -11    1    4    4    0    0 -0.55499226456E+02  0.46698551320E+02  0.17802736778E+03  0.19223595530E+03  0.00000000000E+00 0.  1.
         12    1    4    4    0    0  0.14943404698E+02  0.59124789274E+02  0.25728634191E+03  0.26441502942E+03  0.00000000000E+00 0. -1.
        -13    1    3    3    0    0 -0.43122831622E+02  0.26360214322E+02  0.27791787022E+02  0.57678617634E+02  0.00000000000E+00 0.  1.
         13    1    3    3    0    0  0.29803004838E+02 -0.33000726038E+02  0.30879548319E+02  0.54136988472E+02  0.00000000000E+00 0. -1.
         -2    1    1    2    0  502  0.53875648543E+02 -0.99182828878E+02  0.92320053844E+02  0.14581773346E+03  0.00000000000E+00 0.  1.
<scales pt_clust_5="13000.00000" pt_clust_6="13000.00000" pt_clust_7="13000.00000" pt_clust_8="13000.00000" pt_clust_9="112.99865"></scales>
<clustering>
<clus scale="   78.669">  5  6 -1 -1</clus>
<clus scale="   94.015">  7  8 -1 -1</clus>
<clus scale="   95.186">  2  7  1 -1</clus>
<clus scale="  112.999">  1  9  2 -1</clus>
<clus scale="  112.999">  1  5  2 -1</clus>
</clustering>
</event>
<event>
 9    2  0.1302972E-004  0.9133201E+02  0.7546771E-02  0.1301602E+00
         21   -1    0    0  501  502  0.00000000000E+00  0.00000000000E+00  0.38676114970E+03  0.38676114970E+03  0.00000000000E+00 0. -1.
         -1   -1    0    0    0  501 -0.00000000000E+00 -0.00000000000E+00 -0.47120247770E+02  0.47120247770E+02  0.00000000000E+00 0.  1.
         24    2    1    2    0    0  0.12832435248E+02 -0.16443391554E+02  0.45326331675E+02  0.95530438770E+02  0.81464911884E+02 0.  0.
         23    2    1    2    0    0 -0.63322599247E+02  0.25052889592E+02  0.15092669112E+03  0.18608978834E+03  0.84930232420E+02 0.  0.
        -11    1    3    3    0    0 -0.47378428623E+01 -0.35515138583E+02  0.56813841737E+02  0.67168332095E+02  0.00000000000E+00 0.  1.
         12    1    3    3    0    0  0.17570278111E+02  0.19071747029E+02 -0.11487510062E+02  0.28362106675E+02  0.00000000000E+00 0. -1.
        -11    1    4    4    0    0 -0.26497366724E+02  0.53890793317E+02  0.66726552175E+02  0.89770601049E+02  0.00000000000E+00 0.  1.
         11    1    4    4    0    0 -0.36825232524E+02 -0.28837903725E+02  0.84200138943E+02  0.96319187287E+02  0.00000000000E+00 0. -1.
         -2    1    1    2    0  502  0.50490163999E+02 -0.86094980376E+01  0.14338787914E+03  0.15226117037E+03  0.00000000000E+00 0.  1.
<scales pt_clust_5="13000.00000" pt_clust_6="13000.00000" pt_clust_7="13000.00000" pt_clust_8="13000.00000" pt_clust_9="51.21894"></scales>
<clustering>
<clus scale="   51.219">  1  9  2 -1</clus>
<clus scale="   81.465">  5  6 -1 -1</clus>
<clus scale="   84.930">  7  8 -1 -1</clus>
<clus scale="   88.119">  2  5  1 -1</clus>
<clus scale="   51.219">  1  5  2 -1</clus>
</clustering>
</event>
<event>
 9    2  0.1302972E-004  0.1134787E+03  0.7546771E-02  0.1264390E+00
          2   -1    0    0  502    0 -0.00000000000E+00  0.00000000000E+00  0.55414473904E+02  0.55414473904E+02  0.00000000000E+00 0. -1.
         21   -1    0    0  501  502  0.00000000000E+00 -0.00000000000E+00 -0.26318759895E+03  0.26318759895E+03  0.00000000000E+00 0.  1.
         23    2    1    2    0    0  0.11719023280E+02 -0.48138822834E+02 -0.80069183499E+02  0.13961800868E+03  0.10308943899E+03 0.  0.
         24    2    1    2    0    0  0.13626180754E+02  0.46753794440E+02 -0.73143565374E+02  0.11880821919E+03  0.79961376269E+02 0.  0.
        -11    1    4    4    0    0 -0.33542269509E+02  0.16428895135E+02 -0.25482711972E+02  0.45214611008E+02  0.00000000000E+00 0.  1.
         12    1    4    4    0    0  0.47168450263E+02  0.30324899304E+02 -0.47660853402E+02  0.73593608181E+02  0.00000000000E+00 0. -1.
        -11    1    3    3    0    0 -0.10146205086E+02 -0.43852585708E+02  0.10607374501E+02  0.46244039018E+02  0.00000000000E+00 0. -1.
         11    1    3    3    0    0  0.21865228366E+02 -0.42862371265E+01 -0.90676558000E+02  0.93373969665E+02  0.00000000000E+00 0.  1.
          1    1    1    2  501    0 -0.25345204034E+02  0.13850283944E+01 -0.54560376178E+02  0.60175844986E+02  0.00000000000E+00 0. -1.
<scales pt_clust_5="13000.00000" pt_clust_6="13000.00000" pt_clust_7="13000.00000" pt_clust_8="13000.00000" pt_clust_9="25.38302"></scales>
<clustering>
<clus scale="   25.383">  2  9  1 -1</clus>
<clus scale="   79.961">  5  6 -1 -1</clus>
<clus scale="   92.972">  2  5  1 -1</clus>
<clus scale="  103.089">  7  8 -1 -1</clus>
<clus scale="   25.383">  2  5  1 -1</clus>
</clustering>
</event>
<event>
 9    2  0.1302972E-004  0.9639686E+02  0.7546771E-02  0.1298375E+00
         21   -1    0    0  501  502  0.00000000000E+00  0.00000000000E+00  0.10394679483E+03  0.10394679483E+03  0.00000000000E+00 0. -1.
          2   -1    0    0  502    0 -0.00000000000E+00 -0.00000000000E+00 -0.43918350509E+03  0.43918350509E+03  0.00000000000E+00 0. -1.
         24    2    1    2    0    0 -0.20470622142E+02 -0.17023697073E+02 -0.33082910344E+03  0.33998398820E+03  0.73704571900E+02 0.  0.
         23    2    1    2    0    0  0.36183598850E+02  0.32846592718E+02 -0.75654876514E+02  0.12849086917E+03  0.91641102359E+02 0.  0.
        -11    1    3    3    0    0 -0.26538843059E+02 -0.14570780786E+02 -0.45936318154E+02  0.55016026475E+02  0.00000000000E+00 0.  1.
         12    1    3    3    0    0  0.60682209169E+01 -0.24529162877E+01 -0.28489278528E+03  0.28496796173E+03  0.00000000000E+00 0. -1.
        -13    1    4    4    0    0 -0.25736692907E+01 -0.28870149745E+02 -0.33505462157E+02  0.44302655837E+02  0.00000000000E+00 0. -1.
         13    1    4    4    0    0  0.38757268140E+02  0.61716742463E+02 -0.42149414357E+02  0.84188213335E+02  0.00000000000E+00 0.  1.
          1    1    1    2  501    0 -0.15712976708E+02 -0.15822895644E+02  0.71247269686E+02  0.74655442543E+02  0.00000000000E+00 0. -1.
<scales pt_clust_5="13000.00000" pt_clust_6="13000.00000" pt_clust_7="13000.00000" pt_clust_8="13000.00000" pt_clust_9="22.29936"></scales>
<clustering>
<clus scale="   22.299">  1  9  2 -1</clus>
<clus scale="   73.705">  5  6 -1 -1</clus>
<clus scale="   79.540">  2  5  1 -1</clus>
<clus scale="   91.641">  7  8 -1 -1</clus>
<clus scale="   22.299">  1  5  2 -1</clus>
</clustering>
</event>
<event>
 9    2  0.1302972E-004  0.1139985E+03  0.7546771E-02  0.1256285E+00
         21   -1    0    0  501  502  0.00000000000E+00  0.00000000000E+00  0.76596519347E+02  0.76596519347E+02  0.00000000000E+00 0. -1.
          2   -1    0    0  502    0 -0.00000000000E+00 -0.00000000000E+00 -0.31528498235E+03  0.31528498235E+03  0.00000000000E+00 0. -1.
         23    2    1    2    0    0  0.85102681980E+02  0.34246808343E+02 -0.10857625239E+03  0.16731613657E+03  0.88264243111E+02 0.  0.
         24    2    1    2    0    0 -0.24402237465E+02 -0.51524433483E+02 -0.23703258160E+02  0.10084824644E+03  0.79738873349E+02 0.  0.
        -13    1    4    4    0    0  0.64951316720E+01 -0.48136512865E+02 -0.42485503017E+02  0.64531609098E+02  0.00000000000E+00 0.  1.
         14    1    4    4    0    0 -0.30897369137E+02 -0.33879206182E+01  0.18782244857E+02  0.36316637339E+02  0.00000000000E+00 0. -1.
        -11    1    3    3    0    0  0.85099813542E+02  0.12656995934E+01 -0.46404239992E+02  0.96937782880E+02  0.00000000000E+00 0. -1.
         11    1    3    3    0    0  0.28684377583E-02  0.32981108749E+02 -0.62172012400E+02  0.70378353692E+02  0.00000000000E+00 0.  1.
          1    1    1    2  501    0 -0.60700444515E+02  0.17277625140E+02 -0.10640895245E+03  0.12371711869E+03  0.00000000000E+00 0. -1.
<scales pt_clust_5="13000.00000" pt_clust_6="13000.00000" pt_clust_7="13000.00000" pt_clust_8="13000.00000" pt_clust_9="63.11152"></scales>
<clustering>
<clus scale="   63.112">  1  9  2 -1</clus>
<clus scale="   79.739">  5  6 -1 -1</clus>
<clus scale="   88.264">  7  8 -1 -1</clus>
<clus scale="  107.533">  1  5  2 -1</clus>
<clus scale="   63.112">  1  5  2 -1</clus>
</clustering>
</event>
<event>
 9    2  0.1302972E-004  0.1459121E+03  0.7546771E-02  0.1222068E+00
         21   -1    0    0  501  502  0.00000000000E+00  0.00000000000E+00  0.49320657437E+03  0.49320657437E+03  0.00000000000E+00 0. -1.
          2   -1    0    0  502    0 -0.00000000000E+00 -0.00000000000E+00 -0.99148750192E+02  0.99148750192E+02  0.00000000000E+00 0. -1.
         24    2    1    2    0    0  0.32102537628E+02  0.29733900989E+02  0.79162652668E+01  0.10316196726E+03  0.93086231219E+02 0.  0.
         23    2    1    2    0    0 -0.49116494927E+02 -0.13238510947E+03  0.13400399101E+03  0.21642954282E+03  0.94585570322E+02 0.  0.
        -11    1    3    3    0    0 -0.34769507478E+01  0.19838673114E+02  0.45936890509E+02  0.50158349724E+02  0.00000000000E+00 0.  1.
         12    1    3    3    0    0  0.35579488375E+02  0.98952278748E+01 -0.38020625242E+02  0.53003617533E+02  0.00000000000E+00 0. -1.
        -11    1    4    4    0    0 -0.13658765144E+02 -0.12479220676E+03  0.72325683051E+02  0.14488154183E+03  0.00000000000E+00 0. -1.
         11    1    4    4    0    0 -0.35457729783E+02 -0.75929027124E+01  0.61678307958E+02  0.71548000989E+02  0.00000000000E+00 0.  1.
          1    1    1    2  501    0  0.17013957300E+02  0.10265120848E+03  0.25213756791E+03  0.27276381449E+03  0.00000000000E+00 0. -1.
<scales pt_clust_5="13000.00000" pt_clust_6="13000.00000" pt_clust_7="13000.00000" pt_clust_8="13000.00000" pt_clust_9="111.10322"></scales>
<clustering>
<clus scale="   93.086">  5  6 -1 -1</clus>
<clus scale="   94.586">  7  8 -1 -1</clus>
<clus scale="  102.858">  2  5  1 -1</clus>
<clus scale="  111.103">  1  9  2 -1</clus>
<clus scale="  111.103">  1  5  2 -1</clus>
</clustering>
</event>
<event>
 9    2  0.1302972E-004  0.1663993E+03  0.7546771E-02  0.1199074E+00
          2   -1    0    0  502    0 -0.00000000000E+00  0.00000000000E+00  0.13456134066E+04  0.13456134066E+04  0.00000000000E+00 0. -1.
         21   -1    0    0  501  502  0.00000000000E+00 -0.00000000000E+00 -0.87542915468E+02  0.87542915468E+02  0.00000000000E+00 0. -1.
         24    2    1    2    0    0 -0.78159257922E+02 -0.72135139881E+01  0.44945063413E+03  0.46350379840E+03  0.81663910205E+02 0.  0.
         23    2    1    2    0    0  0.14953979559E+03  0.12199994580E+03  0.80665815672E+03  0.83446763414E+03  0.91611753532E+02 0.  0.
        -13    1    3    3    0    0 -0.89606505453E+02 -0.54190955405E+01  0.28867132250E+03  0.30230750048E+03  0.00000000000E+00 0.  1.
         14    1    3    3    0    0  0.11447247530E+02 -0.17944184476E+01  0.16077931164E+03  0.16119629792E+03  0.00000000000E+00 0. -1.
        -13    1    4    4    0    0  0.26431900770E+02  0.77062261505E+02  0.26888491507E+03  0.28095610882E+03  0.00000000000E+00 0.  1.
         13    1    4    4    0    0  0.12310789482E+03  0.44937684295E+02  0.53777324165E+03  0.55351152533E+03  0.00000000000E+00 0. -1.
          1    1    1    2  501    0 -0.71380537671E+02 -0.11478643181E+03  0.19617002761E+01  0.13518488952E+03  0.00000000000E+00 0. -1.
<scales pt_clust_5="13000.00000" pt_clust_6="13000.00000" pt_clust_7="13000.00000" pt_clust_8="13000.00000" pt_clust_9="138.91012"></scales>
<clustering>
<clus scale="   81.664">  5  6 -1 -1</clus>
<clus scale="   91.612">  7  8 -1 -1</clus>
<clus scale="  113.269">  1  5  2 -1</clus>
<clus scale="  138.910">  2  9  1 -1</clus>
<clus scale="  138.910">  2  5  1 -1</clus>
</clustering>
</event>
<event>
 9    2  0.1302972E-004  0.1259840E+03  0.7546771E-02  0.1241106E+00
         -1   -1    0    0    0  501 -0.00000000000E+00  0.00000000000E+00  0.16047786628E+03  0.16047786628E+03  0.00000000000E+00 0.  1.
         21   -1    0    0  501  502  0.00000000000E+00 -0.00000000000E+00 -0.27811113833E+03  0.27811113833E+03  0.00000000000E+00 0.  1.
         23    2    1    2    0    0  0.56599535434E+02 -0.28273048859E+02  0.55299234070E+02  0.13358135882E+03  0.10384171335E+03 0.  0.
         24    2    1    2    0    0 -0.82312252316E+02  0.15400380109E+02  0.12643577077E+02  0.11721698558E+03  0.81040009123E+02 0.  0.
        -11    1    4    4    0    0 -0.19655623666E+02  0.34941388331E+02  0.29116642800E+02  0.49548189151E+02  0.00000000000E+00 0.  1.
         12    1    4    4    0    0 -0.62656628650E+02 -0.19541008222E+02 -0.16473065723E+02  0.67668796431E+02  0.00000000000E+00 0. -1.
        -13    1    3    3    0    0  0.15978183814E+02  0.35851120913E+02 -0.69312902450E+00  0.39256663849E+02  0.00000000000E+00 0. -1.
         13    1    3    3    0    0  0.40621351621E+02 -0.64124169772E+02  0.55992363095E+02  0.94324694971E+02  0.00000000000E+00 0.  1.
         -2    1    1    2    0  502  0.25712716882E+02  0.12872668750E+02 -0.18557608319E+03  0.18779066021E+03  0.00000000000E+00 0.  1.
<scales pt_clust_5="13000.00000" pt_clust_6="13000.00000" pt_clust_7="13000.00000" pt_clust_8="13000.00000" pt_clust_9="28.75499"></scales>
<clustering>
<clus scale="   28.755">  2  9  1 -1</clus>
<clus scale="   81.040">  5  6 -1 -1</clus>
<clus scale="  103.842">  7  8 -1 -1</clus>
<clus scale="  107.965">  2  5  1 -1</clus>
<clus scale="   28.755">  2  5  1 -1</clus>
</clustering>
</event>
<event>
 9    2  0.1302972E-004  0.1995040E+03  0.7546771E-02  0.1151392E+00
         21   -1    0    0  501  502  0.00000000000E+00  0.00000000000E+00  0.21289765707E+03  0.21289765707E+03  0.00000000000E+00 0.  1.
          2   -1    0    0  502    0 -0.00000000000E+00 -0.00000000000E+00 -0.36318055405E+03  0.36318055405E+03  0.00000000000E+00 0. -1.
         24    2    1    2    0    0  0.18057379795E+02 -0.21450520245E+03 -0.17855470039E+03  0.29016442162E+03  0.77298510344E+02 0.  0.
         23    2    1    2    0    0 -0.13727609137E+02  0.96620891960E+02  0.81813977300E+02  0.15636757396E+03  0.90737243118E+02 0.  0.
        -13    1    3    3    0    0 -0.24731217211E+02 -0.12576648136E+03 -0.11987775186E+03  0.17549790976E+03  0.00000000000E+00 0.  1.
         14    1    3    3    0    0  0.42788597007E+02 -0.88738721088E+02 -0.58676948525E+02  0.11466651186E+03  0.00000000000E+00 0. -1.
        -11    1    4    4    0    0 -0.15288961658E+02  0.38182475906E+02 -0.14575477494E+02  0.43635975514E+02  0.00000000000E+00 0. -1.
         11    1    4    4    0    0  0.15613525210E+01  0.58438416054E+02  0.96389454794E+02  0.11273159845E+03  0.00000000000E+00 0.  1.
          1    1    1    2  501    0 -0.43297706586E+01  0.11788431049E+03 -0.53542173903E+02  0.12954621554E+03  0.00000000000E+00 0. -1.
<scales pt_clust_5="13000.00000" pt_clust_6="13000.00000" pt_clust_7="13000.00000" pt_clust_8="13000.00000" pt_clust_9="117.96386"></scales>
<clustering>
<clus scale="   77.299">  5  6 -1 -1</clus>
<clus scale="   90.737">  7  8 -1 -1</clus>
<clus scale="  117.964">  1  9  2 -1</clus>
<clus scale="  193.762">  2  5  1 -1</clus>
<clus scale="  117.964">  1  5  2 -1</clus>
</clustering>
</event>
<event>
 9    2  0.1302972E-004  0.1474101E+03  0.7546771E-02  0.1224939E+00
         21   -1    0    0  501  502  0.00000000000E+00  0.00000000000E+00  0.37337821633E+03  0.37337821633E+03  0.00000000000E+00 0. -1.
          2   -1    0    0  502    0 -0.00000000000E+00 -0.00000000000E+00 -0.26946954950E+03  0.26946954950E+03  0.00000000000E+00 0. -1.
         24    2    1    2    0    0  0.16836073457E+01 -0.52795981288E+02 -0.12327974243E+03  0.15499980633E+03  0.77696813930E+02 0.  0.
         23    2    1    2    0    0  0.67377841464E+02 -0.46265052613E+02 -0.88282271172E+02  0.15005464642E+03  0.89679478671E+02 0.  0.
        -11    1    3    3    0    0 -0.63419817575E+00 -0.24425372881E+02  0.38386925213E+01  0.24733309685E+02  0.00000000000E+00 0.  1.
         12    1    3    3    0    0  0.23178055214E+01 -0.28370608407E+02 -0.12711843495E+03  0.13026649664E+03  0.00000000000E+00 0. -1.
        -13    1    4    4    0    0 -0.20964506863E+02 -0.97141739925E+00 -0.83055871244E+01  0.22570710606E+02  0.00000000000E+00 0.  1.
         13    1    4    4    0    0  0.88342348327E+02 -0.45293635214E+02 -0.79976684048E+02  0.12748393581E+03  0.00000000000E+00 0. -1.
          1    1    1    2  501    0 -0.69061448810E+02  0.99061033902E+02  0.31547068043E+03  0.33779331308E+03  0.00000000000E+00 0. -1.
<scales pt_clust_5="13000.00000" pt_clust_6="13000.00000" pt_clust_7="13000.00000" pt_clust_8="13000.00000" pt_clust_9="116.99287"></scales>
<clustering>
<clus scale="   77.697">  5  6 -1 -1</clus>
<clus scale="   89.679">  7  8 -1 -1</clus>
<clus scale="   93.952">  2  5  1 -1</clus>
<clus scale="  116.993">  1  9  2 -1</clus>
<clus scale="  116.993">  1  5  2 -1</clus>
</clustering>
</event>
<event>
 9    2  0.1302972E-004  0.3144470E+03  0.7546771E-02  0.1078234E+00
         21   -1    0    0  501  502  0.00000000000E+00  0.00000000000E+00  0.32128330078E+03  0.32128330078E+03  0.00000000000E+00 0.  1.
          2   -1    0    0  502    0 -0.00000000000E+00 -0.00000000000E+00 -0.67435475171E+03  0.67435475171E+03  0.00000000000E+00 0. -1.
         24    2    1    2    0    0 -0.59348599893E+02  0.12820968739E+03  0.81839904466E+02  0.18169171985E+03  0.79712802294E+02 0.  0.
         23    2    1    2    0    0 -0.72255397719E+02  0.94475094732E+02  0.12670514058E+03  0.19562504647E+03  0.89825275588E+02 0.  0.
        -11    1    3    3    0    0 -0.64792406070E+02  0.10335769520E+03  0.32600648784E+02  0.12626825152E+03  0.00000000000E+00 0.  1.
         12    1    3    3    0    0  0.54438061772E+01  0.24851992190E+02  0.49239255682E+02  0.55423468329E+02  0.00000000000E+00 0. -1.
        -13    1    4    4    0    0 -0.25880930510E+00  0.71257692176E+02  0.45001085265E+02  0.84278249575E+02  0.00000000000E+00 0.  1.
         13    1    4    4    0    0 -0.71996588414E+02  0.23217402556E+02  0.81704055314E+02  0.11134679690E+03  0.00000000000E+00 0. -1.
          1    1    1    2  501    0  0.13160399761E+03 -0.22268478212E+03 -0.56161649597E+03  0.61832128616E+03  0.00000000000E+00 0. -1.
<scales pt_clust_5="13000.00000" pt_clust_6="13000.00000" pt_clust_7="13000.00000" pt_clust_8="13000.00000" pt_clust_9="258.66618"></scales>
<clustering>
<clus scale="   79.713">  5  6 -1 -1</clus>
<clus scale="   89.825">  7  8 -1 -1</clus>
<clus scale="  103.841">  5  7 -1 -1</clus>
<clus scale="  258.666">  1  9  2 -1</clus>
<clus scale="  258.666">  1  5  2 -1</clus>
</clustering>
</event>
<event>
 9    2  0.1302972E-004  0.1401330E+03  0.7546771E-02  0.1215600E+00
         -1   -1    0    0    0  501 -0.00000000000E+00  0.00000000000E+00  0.16864919145E+03  0.16864919145E+03  0.00000000000E+00 0.  1.
         21   -1    0    0  501  502  0.00000000000E+00 -0.00000000000E+00 -0.33752055882E+03  0.33752055882E+03  0.00000000000E+00 0.  1.
         24    2    1    2    0    0  0.88804683915E+02 -0.75821705121E+01  0.18031410502E+01  0.11990545646E+03  0.80189188649E+02 0.  0.
         23    2    1    2    0    0 -0.17498199144E+03  0.35126440763E+02 -0.20750766746E+03  0.28858166096E+03  0.91473377631E+02 0.  0.
        -11    1    3    3    0    0  0.59833756472E+02 -0.41789433212E+02  0.11924335816E+02  0.73950151632E+02  0.00000000000E+00 0.  1.
         12    1    3    3    0    0  0.28970927442E+02  0.34207262700E+02 -0.10121194766E+02  0.45955304827E+02  0.00000000000E+00 0. -1.
        -11    1    4    4    0    0 -0.91250427031E+02  0.37066225971E+00 -0.43284833834E+02  0.10099680522E+03  0.00000000000E+00 0. -1.
         11    1    4    4    0    0 -0.83731564409E+02  0.34755778503E+02 -0.16422283363E+03  0.18758485574E+03  0.00000000000E+00 0.  1.
         -2    1    1    2    0  502  0.86177307525E+02 -0.27544270251E+02  0.36833159052E+02  0.97682632856E+02  0.00000000000E+00 0.  1.
<scales pt_clust_5="13000.00000" pt_clust_6="13000.00000" pt_clust_7="13000.00000" pt_clust_8="13000.00000" pt_clust_9="90.47222"></scales>
<clustering>
<clus scale="   80.189">  5  6 -1 -1</clus>
<clus scale="   90.472">  2  9  1 -1</clus>
<clus scale="   91.473">  7  8 -1 -1</clus>
<clus scale="  133.042">  1  5  2 -1</clus>
<clus scale="   90.472">  2  5  1 -1</clus>
</clustering>
</event>
<event>
 9    2  0.1302972E-004  0.1458732E+03  0.7546771E-02  0.1207680E+00
         -1   -1    0    0    0  501 -0.00000000000E+00  0.00000000000E+00  0.32747187571E+03  0.32747187571E+03  0.00000000000E+00 0.  1.
         21   -1    0    0  501  502  0.00000000000E+00 -0.00000000000E+00 -0.13328959980E+03  0.13328959980E+03  0.00000000000E+00 0.  1.
         24    2    1    2    0    0  0.12201064076E+03  0.44315112051E+02  0.14678668797E+03  0.21192213306E+03  0.80710799156E+02 0.  0.
         23    2    1    2    0    0 -0.74082255792E+02  0.22832537734E+01 -0.52491399972E+02  0.12864804435E+03  0.91112997829E+02 0.  0.
        -11    1    3    3    0    0  0.81353295229E+02 -0.12636627485E+02  0.70344026073E+02  0.10828815726E+03  0.00000000000E+00 0.  1.
         12    1    3    3    0    0  0.40657345529E+02  0.56951739536E+02  0.76442661896E+02  0.10363397580E+03  0.00000000000E+00 0. -1.
        -11    1    4    4    0    0 -0.47804648883E+02 -0.32607296084E+02 -0.61073553380E+02  0.84133816835E+02  0.00000000000E+00 0.  1.
         11    1    4    4    0    0 -0.26277606909E+02  0.34890549858E+02  0.85821534082E+01  0.44514227516E+02  0.00000000000E+00 0. -1.
         -2    1    1    2    0  502 -0.47928384966E+02 -0.46598365825E+02  0.99886987919E+02  0.12019129810E+03  0.00000000000E+00 0.  1.
<scales pt_clust_5="13000.00000" pt_clust_6="13000.00000" pt_clust_7="13000.00000" pt_clust_8="13000.00000" pt_clust_9="66.84716"></scales>
<clustering>
<clus scale="   66.847">  2  9  1 -1</clus>
<clus scale="   80.711">  5  6 -1 -1</clus>
<clus scale="   91.113">  7  8 -1 -1</clus>
<clus scale="  139.612">  1  5  2 -1</clus>
<clus scale="   66.847">  2  5  1 -1</clus>
</clustering>
</event>
<event>
 9    2  0.1302972E-004  0.2500693E+03  0.7546771E-02  0.1114266E+00
          2   -1    0    0  502    0 -0.00000000000E+00  0.00000000000E+00  0.12643598248E+03  0.12643598248E+03  0.00000000000E+00 0. -1.
         21   -1    0    0  501  502  0.00000000000E+00 -0.00000000000E+00 -0.98877899461E+03  0.98877899461E+03  0.00000000000E+00 0. -1.
         24    2    1    2    0    0 -0.10261149177E+03 -0.22978554047E+03 -0.70149309450E+02  0.27168091277E+03  0.74559237480E+02 0.  0.
         23    2    1    2    0    0  0.39848645442E+02  0.17286798215E+03 -0.48185311107E+03  0.52183534483E+03  0.93050806886E+02 0.  0.
        -13    1    3    3    0    0 -0.19272407745E+02 -0.67569511812E+02 -0.53957861249E+02  0.88591847353E+02  0.00000000000E+00 0.  1.
         14    1    3    3    0    0 -0.83339084025E+02 -0.16221602866E+03 -0.16191448201E+02  0.18308906542E+03  0.00000000000E+00 0. -1.
        -13    1    4    4    0    0  0.22311015934E+01  0.35801054941E+02 -0.25905286894E+02  0.44246776586E+02  0.00000000000E+00 0.  1.
         13    1    4    4    0    0  0.37617543849E+02  0.13706692721E+03 -0.45594782418E+03  0.47758856824E+03  0.00000000000E+00 0. -1.
          1    1    1    2  501    0  0.62762846327E+02  0.56917558316E+02 -0.31034059162E+03  0.32169871950E+03  0.00000000000E+00 0. -1.
<scales pt_clust_5="13000.00000" pt_clust_6="13000.00000" pt_clust_7="13000.00000" pt_clust_8="13000.00000" pt_clust_9="84.72770"></scales>
<clustering>
<clus scale="   74.559">  5  6 -1 -1</clus>
<clus scale="   84.728">  2  9  1 -1</clus>
<clus scale="   93.051">  7  8 -1 -1</clus>
<clus scale="  243.794">  1  5  2 -1</clus>
<clus scale="   84.728">  2  5  1 -1</clus>
</clustering>
</event>
<event>
 9    2  0.1302972E-004  0.1452204E+03  0.7546771E-02  0.1208711E+00
         -3   -1    0    0    0  501 -0.00000000000E+00  0.00000000000E+00  0.26294774584E+03  0.26294774584E+03  0.00000000000E+00 0.  1.
         21   -1    0    0  501  502  0.00000000000E+00 -0.00000000000E+00 -0.21856662411E+03  0.21856662411E+03  0.00000000000E+00 0. -1.
         24    2    1    2    0    0  0.19747299268E+02 -0.11266133818E+03  0.36567165661E+02  0.14316421084E+03  0.77950629955E+02 0.  0.
         23    2    1    2    0    0  0.10369886475E+03  0.25069267888E+01 -0.69575723897E+02  0.15569717577E+03  0.92957463148E+02 0.  0.
        -11    1    3    3    0    0 -0.29011565980E+02 -0.39845359461E+02  0.31949167562E+01  0.49391609857E+02  0.00000000000E+00 0.  1.
         12    1    3    3    0    0  0.48758865248E+02 -0.72815978721E+02  0.33372248905E+02  0.93772600978E+02  0.00000000000E+00 0. -1.
        -13    1    4    4    0    0  0.77615167975E+02 -0.25673521624E+02 -0.67025861179E+01  0.82025414800E+02  0.00000000000E+00 0.  1.
         13    1    4    4    0    0  0.26083696770E+02  0.28180448413E+02 -0.62873137780E+02  0.73671760968E+02  0.00000000000E+00 0. -1.
         -4    1    1    2    0  502 -0.12344616401E+03  0.11015441139E+03  0.77389679975E+02  0.18265298335E+03  0.00000000000E+00 0.  1.
<scales pt_clust_5="13000.00000" pt_clust_6="13000.00000" pt_clust_7="13000.00000" pt_clust_8="13000.00000" pt_clust_9="111.57012"></scales>
<clustering>
<clus scale="   77.951">  5  6 -1 -1</clus>
<clus scale="   92.957">  7  8 -1 -1</clus>
<clus scale="  138.415">  1  5  2 -1</clus>
<clus scale="  111.570">  2  9  1 -1</clus>
<clus scale="  111.570">  2  5  1 -1</clus>
</clustering>
</event>
<event>
 9    2  0.1302972E-004  0.1261509E+03  0.7546771E-02  0.1235739E+00
         21   -1    0    0  501  502  0.00000000000E+00  0.00000000000E+00  0.33836669435E+03  0.33836669435E+03  0.00000000000E+00 0.  1.
          2   -1    0    0  502    0 -0.00000000000E+00 -0.00000000000E+00 -0.21260053826E+03  0.21260053826E+03  0.00000000000E+00 0. -1.
         24    2    1    2    0    0 -0.56004476004E+02 -0.68329939282E+02 -0.17735401284E+03  0.21531289895E+03  0.84259816326E+02 0.  0.
         23    2    1    2    0    0  0.32912281355E+02  0.38827456051E+02  0.20765367513E+03  0.23309948292E+03  0.92868350565E+02 0.  0.
        -11    1    3    3    0    0 -0.52246885038E+02 -0.34051715750E+02 -0.40924111325E+02  0.74592487755E+02  0.00000000000E+00 0.  1.
         12    1    3    3    0    0 -0.37575909658E+01 -0.34278223532E+02 -0.13642990152E+03  0.14072041119E+03  0.00000000000E+00 0. -1.
        -11    1    4    4    0    0  0.59740859283E+02  0.11030741434E+02  0.84802662470E+02  0.10431749176E+03  0.00000000000E+00 0. -1.
         11    1    4    4    0    0 -0.26828577928E+02  0.27796714617E+02  0.12285101266E+03  0.12878199116E+03  0.00000000000E+00 0.  1.
          1    1    1    2  501    0  0.23092194649E+02  0.29502483230E+02  0.95466493805E+02  0.10255485074E+03  0.00000000000E+00 0. -1.
<scales pt_clust_5="13000.00000" pt_clust_6="13000.00000" pt_clust_7="13000.00000" pt_clust_8="13000.00000" pt_clust_9="37.46526"></scales>
<clustering>
<clus scale="   37.465">  1  9  2 -1</clus>
<clus scale="   84.260">  5  6 -1 -1</clus>
<clus scale="   92.868">  7  8 -1 -1</clus>
<clus scale="  119.955">  2  5  1 -1</clus>
<clus scale="   37.465">  1  5  2 -1</clus>
</clustering>
</event>
<event>
 9    2  0.1302972E-004  0.1898646E+03  0.7546771E-02  0.1159765E+00
          2   -1    0    0  502    0 -0.00000000000E+00  0.00000000000E+00  0.45568042717E+03  0.45568042717E+03  0.00000000000E+00 0. -1.
         21   -1    0    0  501  502  0.00000000000E+00 -0.00000000000E+00 -0.99083105481E+02  0.99083105481E+02  0.00000000000E+00 0. -1.
         23    2    1    2    0    0 -0.14750457786E+03 -0.10420756133E+02  0.14410425047E+03  0.22529946787E+03  0.90153328114E+02 0.  0.
         24    2    1    2    0    0  0.18891446203E+03 -0.85076260687E+01  0.18660121020E+03  0.27708610542E+03  0.78712416433E+02 0.  0.
        -11    1    4    4    0    0  0.36028045813E+02 -0.46244818688E+01  0.65940784910E+00  0.36329612390E+02  0.00000000000E+00 0.  1.
         12    1    4    4    0    0  0.15288641622E+03 -0.38831441999E+01  0.18594180235E+03  0.24075649303E+03  0.00000000000E+00 0. -1.
        -13    1    3    3    0    0 -0.20892994686E+02  0.26110059255E+02  0.60831411292E+02  0.69416950531E+02  0.00000000000E+00 0.  1.
         13    1    3    3    0    0 -0.12661158317E+03 -0.36530815388E+02  0.83272839183E+02  0.15588251734E+03  0.00000000000E+00 0. -1.
          1    1    1    2  501    0 -0.41409884175E+02  0.18928382202E+02  0.25891861014E+02  0.52377959362E+02  0.00000000000E+00 0. -1.
<scales pt_clust_5="13000.00000" pt_clust_6="13000.00000" pt_clust_7="13000.00000" pt_clust_8="13000.00000" pt_clust_9="45.53089"></scales>
<clustering>
<clus scale="   45.531">  2  9  1 -1</clus>
<clus scale="   78.712">  5  6 -1 -1</clus>
<clus scale="   90.153">  7  8 -1 -1</clus>
<clus scale="  184.707">  2  5  1 -1</clus>
<clus scale="   45.531">  2  5  1 -1</clus>
</clustering>
</event>
<event>
 9    2  0.1302972E-004  0.1176291E+03  0.7546771E-02  0.1251162E+00
         21   -1    0    0  501  502  0.00000000000E+00  0.00000000000E+00  0.88824902208E+02  0.88824902208E+02  0.00000000000E+00 0. -1.
          2   -1    0    0  502    0 -0.00000000000E+00 -0.00000000000E+00 -0.26768882795E+03  0.26768882795E+03  0.00000000000E+00 0. -1.
         23    2    1    2    0    0  0.22634402249E+02 -0.57739319325E+02 -0.91239413297E+02  0.14352108533E+03  0.91801558996E+02 0.  0.
         24    2    1    2    0    0 -0.56676702850E+02  0.82614822404E+02 -0.14743262547E+02  0.12879439383E+03  0.79581245063E+02 0.  0.
        -11    1    4    4    0    0 -0.64703758345E+02  0.30204063504E+02  0.64430321839E+01  0.71696404790E+02  0.00000000000E+00 0.  1.
         12    1    4    4    0    0  0.80270554948E+01  0.52410758900E+02 -0.21186294731E+02  0.57097989044E+02  0.00000000000E+00 0. -1.
        -13    1    3    3    0    0  0.48084038334E+02 -0.57579300610E+02 -0.91177188853E+02  0.11807087011E+03  0.00000000000E+00 0.  1.
         13    1    3    3    0    0 -0.25449636085E+02 -0.16001871524E+00 -0.62224443530E-01  0.25450215220E+02  0.00000000000E+00 0. -1.
          1    1    1    2  501    0  0.34042300602E+02 -0.24875503079E+02 -0.72881249899E+02  0.84198250995E+02  0.00000000000E+00 0. -1.
<scales pt_clust_5="13000.00000" pt_clust_6="13000.00000" pt_clust_7="13000.00000" pt_clust_8="13000.00000" pt_clust_9="42.16243"></scales>
<clustering>
<clus scale="   42.162">  1  9  2 -1</clus>
<clus scale="   79.581">  5  6 -1 -1</clus>
<clus scale="   91.802">  7  8 -1 -1</clus>
<clus scale="  108.362">  1  5  2 -1</clus>
<clus scale="   42.162">  1  5  2 -1</clus>
</clustering>
</event>
<event>
 9    2  0.1302972E-004  0.1205897E+03  0.7546771E-02  0.1244937E+00
          4   -1    0    0  502    0 -0.00000000000E+00  0.00000000000E+00  0.52917040576E+03  0.52917040576E+03  0.00000000000E+00 0. -1.
         21   -1    0    0  501  502  0.00000000000E+00 -0.00000000000E+00 -0.92632391338E+02  0.92632391338E+02  0.00000000000E+00 0.  1.
         23    2    1    2    0    0 -0.77280952722E+02 -0.21956353759E+02  0.43812551918E+03  0.45449431158E+03  0.90314348704E+02 0.  0.
         24    2    1    2    0    0  0.80093070428E+02  0.95907080345E+00  0.39796850652E+02  0.12081699414E+03  0.81222761611E+02 0.  0.
        -11    1    4    4    0    0  0.91877875753E+02 -0.10952241911E+02  0.45508804599E+02  0.10311424224E+03  0.00000000000E+00 0.  1.
         12    1    4    4    0    0 -0.11784805324E+02  0.11911312715E+02 -0.57119539468E+01  0.17702751905E+02  0.00000000000E+00 0. -1.
        -13    1    3    3    0    0 -0.68737539374E+01 -0.41095391037E+02  0.95621166374E+02  0.10430477993E+03  0.00000000000E+00 0.  1.
         13    1    3    3    0    0 -0.70407198785E+02  0.19139037278E+02  0.34250435280E+03  0.35018953165E+03  0.00000000000E+00 0. -1.
          3    1    1    2  501    0 -0.28121177065E+01  0.20997282956E+02 -0.41384355410E+02  0.46491491374E+02  0.00000000000E+00 0. -1.
<scales pt_clust_5="13000.00000" pt_clust_6="13000.00000" pt_clust_7="13000.00000" pt_clust_8="13000.00000" pt_clust_9="21.18476"></scales>
<clustering>
<clus scale="   21.185">  2  9  1 -1</clus>
<clus scale="   81.223">  5  6 -1 -1</clus>
<clus scale="   90.314">  7  8 -1 -1</clus>
<clus scale="  113.940">  2  5  1 -1</clus>
<clus scale="   21.185">  2  5  1 -1</clus>
</clustering>
</event>
<event>
 9    2  0.1302972E-004  0.1368602E+03  0.7546771E-02  0.1219878E+00
         21   -1    0    0  501  502  0.00000000000E+00  0.00000000000E+00  0.31590020428E+03  0.31590020428E+03  0.00000000000E+00 0.  1.
         -3   -1    0    0    0  501 -0.00000000000E+00 -0.00000000000E+00 -0.22724605134E+03  0.22724605134E+03  0.00000000000E+00 0.  1.
         23    2    1    2    0    0  0.68860380675E+02  0.77958490882E+02 -0.18430757008E+03  0.23026849266E+03  0.90747010946E+02 0.  0.
         24    2    1    2    0    0 -0.62048620821E+02 -0.56671470200E+02  0.26435012089E+03  0.28892578990E+03  0.80842060694E+02 0.  0.
        -11    1    4    4    0    0 -0.70311638275E+02 -0.16725485506E+02  0.20079722395E+03  0.21340804457E+03  0.00000000000E+00 0.  1.
         12    1    4    4    0    0  0.82630174545E+01 -0.39945984694E+02  0.63552896941E+02  0.75517745333E+02  0.00000000000E+00 0. -1.
        -13    1    3    3    0    0  0.38828753767E+02  0.71170141234E+02 -0.18218075010E+03  0.19940583450E+03  0.00000000000E+00 0.  1.
         13    1    3    3    0    0  0.30031626908E+02  0.67883496487E+01 -0.21268199749E+01  0.30862658163E+02  0.00000000000E+00 0. -1.
         -4    1    1    2    0  502 -0.68117598548E+01 -0.21287020682E+02  0.86116021276E+01  0.23951973051E+02  0.00000000000E+00 0.  1.
<scales pt_clust_5="13000.00000" pt_clust_6="13000.00000" pt_clust_7="13000.00000" pt_clust_8="13000.00000" pt_clust_9="22.35033"></scales>
<clustering>
<clus scale="   22.350">  1  9  2 -1</clus>
<clus scale="   80.842">  5  6 -1 -1</clus>
<clus scale="   90.747">  7  8 -1 -1</clus>
<clus scale="  130.503">  1  5  2 -1</clus>
<clus scale="   22.350">  1  5  2 -1</clus>
</clustering>
</event>
<event>
 9    2  0.1302972E-004  0.1119642E+03  0.7546771E-02  0.1261457E+00
          2   -1    0    0  502    0 -0.00000000000E+00  0.00000000000E+00  0.98786014544E+03  0.98786014544E+03  0.00000000000E+00 0. -1.
         21   -1    0    0  501  502  0.00000000000E+00 -0.00000000000E+00 -0.18605409951E+02  0.18605409951E+02  0.00000000000E+00 0.  1.
         24    2    1    2    0    0 -0.38565310784E+02  0.49390062958E+02  0.61440564268E+03  0.62286446976E+03  0.80865273216E+02 0.  0.
         23    2    1    2    0    0  0.55473541567E+02 -0.36118471997E+02  0.33689811385E+03  0.35559642458E+03  0.92556038309E+02 0.  0.
        -11    1    3    3    0    0 -0.34927998418E+02 -0.33191227703E+01  0.10458039784E+03  0.11030884489E+03  0.00000000000E+00 0.  1.
         12    1    3    3    0    0 -0.36373123660E+01  0.52709185729E+02  0.50982524485E+03  0.51255562487E+03  0.00000000000E+00 0. -1.
        -11    1    4    4    0    0 -0.12095415500E+02  0.17530021516E+02  0.12509587875E+03  0.12689594009E+03  0.00000000000E+00 0. -1.
         11    1    4    4    0    0  0.67568957067E+02 -0.53648493513E+02  0.21180223510E+03  0.22870048450E+03  0.00000000000E+00 0.  1.
          1    1    1    2  501    0 -0.16908230783E+02 -0.13271590962E+02  0.17950978950E+02  0.28004661043E+02  0.00000000000E+00 0. -1.
<scales pt_clust_5="13000.00000" pt_clust_6="13000.00000" pt_clust_7="13000.00000" pt_clust_8="13000.00000" pt_clust_9="21.49473"></scales>
<clustering>
<clus scale="   21.495">  2  9  1 -1</clus>
<clus scale="   80.865">  5  6 -1 -1</clus>
<clus scale="   92.556">  7  8 -1 -1</clus>
<clus scale="  102.511">  1  5  2 -1</clus>
<clus scale="   21.495">  2  5  1 -1</clus>
</clustering>
</event>
<event>
 9    2  0.1302972E-004  0.9155952E+02  0.7546771E-02  0.1306674E+00
         -3   -1    0    0    0  501 -0.00000000000E+00  0.00000000000E+00  0.39076645245E+03  0.39076645245E+03  0.00000000000E+00 0.  1.
         21   -1    0    0  501  502  0.00000000000E+00 -0.00000000000E+00 -0.25349494025E+03  0.25349494025E+03  0.00000000000E+00 0.  1.
         23    2    1    2    0    0 -0.10725641069E+02 -0.85030469068E+01  0.30853219796E+03  0.32178049109E+03  0.90350573257E+02 0.  0.
         24    2    1    2    0    0 -0.17416757588E+02  0.35368695126E+02  0.47889709621E+02  0.99903603914E+02  0.78313585970E+02 0.  0.
        -11    1    4    4    0    0 -0.10443281952E+01  0.57207750965E+02  0.44323895484E+02  0.72376965277E+02  0.00000000000E+00 0.  1.
         12    1    4    4    0    0 -0.16372429393E+02 -0.21839055839E+02  0.35658141366E+01  0.27526638636E+02  0.00000000000E+00 0. -1.
        -11    1    3    3    0    0 -0.33010024849E+02 -0.37753465855E+02  0.12663356872E+03  0.13620222704E+03  0.00000000000E+00 0. -1.
         11    1    3    3    0    0  0.22284383780E+02  0.29250418948E+02  0.18189862924E+03  0.18557826405E+03  0.00000000000E+00 0.  1.
         -4    1    1    2    0  502  0.28142398658E+02 -0.26865648220E+02 -0.21915039538E+03  0.22257729770E+03  0.00000000000E+00 0.  1.
<scales pt_clust_5="13000.00000" pt_clust_6="13000.00000" pt_clust_7="13000.00000" pt_clust_8="13000.00000" pt_clust_9="38.90704"></scales>
<clustering>
<clus scale="   38.907">  2  9  1 -1</clus>
<clus scale="   78.314">  5  6 -1 -1</clus>
<clus scale="   79.705">  2  5  1 -1</clus>
<clus scale="   90.351">  7  8 -1 -1</clus>
<clus scale="   38.907">  2  5  1 -1</clus>
</clustering>
</event>
<event>
 9    2  0.1302972E-004  0.1335763E+03  0.7546771E-02  0.1224041E+00
          2   -1    0    0  502    0 -0.00000000000E+00  0.00000000000E+00  0.76259396723E+03  0.76259396723E+03  0.00000000000E+00 0. -1.
         21   -1    0    0  501  502  0.00000000000E+00 -0.00000000000E+00 -0.57066941298E+02  0.57066941298E+02  0.00000000000E+00 0. -1.
         24    2    1    2    0    0  0.64313094523E+02  0.65336646554E+02  0.39975037007E+03  0.41786908113E+03  0.80057223793E+02 0.  0.
         23    2    1    2    0    0 -0.54027277716E+02 -0.13902162298E+03  0.14939603868E+03  0.22861512224E+03  0.87748158670E+02 0.  0.
        -13    1    3    3    0    0  0.47379531222E+02  0.83975050385E+02  0.32403482955E+03  0.33807573091E+03  0.00000000000E+00 0.  1.
         14    1    3    3    0    0  0.16933563301E+02 -0.18638403831E+02  0.75715540522E+02  0.79793350224E+02  0.00000000000E+00 0. -1.
        -11    1    4    4    0    0 -0.11739353905E+02 -0.26854395840E+02 -0.83644959700E+01  0.30478448105E+02  0.00000000000E+00 0.  1.
         11    1    4    4    0    0 -0.42287923812E+02 -0.11216722714E+03  0.15776053465E+03  0.19813667414E+03  0.00000000000E+00 0. -1.
          1    1    1    2  501    0 -0.10285816807E+02  0.73684976430E+02  0.15638061718E+03  0.17317670516E+03  0.00000000000E+00 0. -1.
<scales pt_clust_5="13000.00000" pt_clust_6="13000.00000" pt_clust_7="13000.00000" pt_clust_8="13000.00000" pt_clust_9="74.39946"></scales>
<clustering>
<clus scale="   74.399">  2  9  1 -1</clus>
<clus scale="   80.057">  5  6 -1 -1</clus>
<clus scale="   87.748">  7  8 -1 -1</clus>
<clus scale="  128.655">  1  5  2 -1</clus>
<clus scale="   74.399">  2  5  1 -1</clus>
</clustering>
</event>
<event>
 9    2  0.1302972E-004  0.1346421E+03  0.7546771E-02  0.1224007E+00
         21   -1    0    0  501  502  0.00000000000E+00  0.00000000000E+00  0.10176602041E+03  0.10176602041E+03  0.00000000000E+00 0.  1.
          2   -1    0    0  502    0 -0.00000000000E+00 -0.00000000000E+00 -0.24654592403E+03  0.24654592403E+03  0.00000000000E+00 0. -1.
         23    2    1    2    0    0  0.75778443679E+02  0.72934678070E+02 -0.15322860450E+03  0.20696766421E+03  0.91075622431E+02 0.  0.
         24    2    1    2    0    0 -0.58823657633E+02 -0.59652361473E+02  0.21756249106E+02  0.11602678540E+03  0.77267416352E+02 0.  0.
        -13    1    4    4    0    0 -0.50573617351E+02 -0.11522013472E+02  0.38289905488E+02  0.64471423349E+02  0.00000000000E+00 0.  1.
         14    1    4    4    0    0 -0.82500402814E+01 -0.48130348001E+02 -0.16533656381E+02  0.51555362055E+02  0.00000000000E+00 0. -1.
        -11    1    3    3    0    0  0.95432676784E+02  0.52478624369E+02 -0.10666223388E+03  0.15244091954E+03  0.00000000000E+00 0.  1.
         11    1    3    3    0    0 -0.19654233105E+02  0.20456053701E+02 -0.46566370615E+02  0.54526744670E+02  0.00000000000E+00 0. -1.
          1    1    1    2  501    0 -0.16954786046E+02 -0.13282316597E+02 -0.13307548240E+02  0.25317494826E+02  0.00000000000E+00 0. -1.
<scales pt_clust_5="13000.00000" pt_clust_6="13000.00000" pt_clust_7="13000.00000" pt_clust_8="13000.00000" pt_clust_9="21.53799"></scales>
<clustering>
<clus scale="   21.538">  1  9  2 -1</clus>
<clus scale="   77.267">  5  6 -1 -1</clus>
<clus scale="   91.076">  7  8 -1 -1</clus>
<clus scale="  125.714">  1  5  2 -1</clus>
<clus scale="   21.538">  1  5  2 -1</clus>
</clustering>
</event>
<event>
 9    2  0.1302972E-004  0.1164251E+03  0.7546771E-02  0.1250092E+00
          2   -1    0    0  502    0 -0.00000000000E+00  0.00000000000E+00  0.38901527442E+03  0.38901527442E+03  0.00000000000E+00 0. -1.
         21   -1    0    0  501  502  0.00000000000E+00 -0.00000000000E+00 -0.73673698631E+02  0.73673698631E+02  0.00000000000E+00 0. -1.
         23    2    1    2    0    0  0.26448936746E+02 -0.58516188564E+02  0.13852145392E+03  0.17642660222E+03  0.88399446819E+02 0.  0.
         24    2    1    2    0    0  0.35293917607E+02  0.10968284495E+03  0.97190004345E+02  0.17325280306E+03  0.85408721618E+02 0.  0.
        -13    1    4    4    0    0  0.30594390102E+02  0.21528953194E+01  0.40892921401E+01  0.30941460440E+02  0.00000000000E+00 0.  1.
         14    1    4    4    0    0  0.46995275059E+01  0.10752994963E+03  0.93100712205E+02  0.14231134262E+03  0.00000000000E+00 0. -1.
        -13    1    3    3    0    0 -0.27738049087E+02  0.10316725371E+01  0.25734136188E+02  0.37851149001E+02  0.00000000000E+00 0.  1.
         13    1    3    3    0    0  0.54186985833E+02 -0.59547861101E+02  0.11278731773E+03  0.13857545322E+03  0.00000000000E+00 0. -1.
          1    1    1    2  501    0 -0.61742854354E+02 -0.51166656383E+02  0.79630117532E+02  0.11300956777E+03  0.00000000000E+00 0. -1.
<scales pt_clust_5="13000.00000" pt_clust_6="13000.00000" pt_clust_7="13000.00000" pt_clust_8="13000.00000" pt_clust_9="80.18861"></scales>
<clustering>
<clus scale="   80.189">  2  9  1 -1</clus>
<clus scale="   85.409">  5  6 -1 -1</clus>
<clus scale="   88.399">  7  8 -1 -1</clus>
<clus scale="  114.171">  2  5  1 -1</clus>
<clus scale="   80.189">  2  5  1 -1</clus>
</clustering>
</event>
<event>
 9    2  0.1302972E-004  0.1144753E+03  0.7546771E-02  0.1259094E+00
         -1   -1    0    0    0  501 -0.00000000000E+00  0.00000000000E+00  0.27697646366E+03  0.27697646366E+03  0.00000000000E+00 0.  1.
         21   -1    0    0  501  502  0.00000000000E+00 -0.00000000000E+00 -0.71339398492E+02  0.71339398492E+02  0.00000000000E+00 0. -1.
         24    2    1    2    0    0  0.44066457478E+02  0.78979276320E+02  0.98507561260E+02  0.15228434777E+03  0.72850560653E+02 0.  0.
         23    2    1    2    0    0 -0.17528469916E+02 -0.36033385896E+02  0.30340664568E+02  0.10413407081E+03  0.91201406896E+02 0.  0.
        -11    1    3    3    0    0  0.45343886819E+02  0.18054994563E+02  0.69161891845E+02  0.84648793164E+02  0.00000000000E+00 0.  1.
         12    1    3    3    0    0 -0.12774293412E+01  0.60924281757E+02  0.29345669415E+02  0.67635554606E+02  0.00000000000E+00 0. -1.
        -11    1    4    4    0    0 -0.48427918591E+02 -0.41299543645E+02  0.34693471554E+02  0.72488292661E+02  0.00000000000E+00 0.  1.
         11    1    4    4    0    0  0.30899448675E+02  0.52661577495E+01 -0.43528069861E+01  0.31645778147E+02  0.00000000000E+00 0. -1.
         -2    1    1    2    0  502 -0.26537987562E+02 -0.42945890424E+02  0.76788839338E+02  0.91897443572E+02  0.00000000000E+00 0.  1.
<scales pt_clust_5="13000.00000" pt_clust_6="13000.00000" pt_clust_7="13000.00000" pt_clust_8="13000.00000" pt_clust_9="50.48383"></scales>
<clustering>
<clus scale="   50.484">  2  9  1 -1</clus>
<clus scale="   72.851">  5  6 -1 -1</clus>
<clus scale="   91.201">  7  8 -1 -1</clus>
<clus scale="  100.469">  1  5  2 -1</clus>
<clus scale="   50.484">  2  5  1 -1</clus>
</clustering>
</event>
<event>
 9    2  0.1302972E-004  0.1103953E+03  0.7546771E-02  0.1264031E+00
         21   -1    0    0  501  502  0.00000000000E+00  0.00000000000E+00  0.22044455898E+03  0.22044455898E+03  0.00000000000E+00 0.  1.
         -3   -1    0    0    0  501 -0.00000000000E+00 -0.00000000000E+00 -0.28227371088E+03  0.28227371088E+03  0.00000000000E+00 0.  1.
         24    2    1    2    0    0  0.86733045396E+00 -0.71968515955E+02 -0.17819580627E+03  0.20820555066E+03  0.80097355773E+02 0.  0.
         23    2    1    2    0    0  0.85708952441E+02  0.16374812155E+02 -0.15836584274E+02  0.12699015662E+03  0.90893033156E+02 0.  0.
        -13    1    3    3    0    0 -0.39491182865E+00 -0.89732178212E+02 -0.14454781851E+03  0.17013550952E+03  0.00000000000E+00 0.  1.
         14    1    3    3    0    0  0.12622422826E+01  0.17763662257E+02 -0.33647987758E+02  0.38070041141E+02  0.00000000000E+00 0. -1.
        -13    1    4    4    0    0  0.61992819090E+02  0.52914681428E+02 -0.17636416775E+02  0.83391344431E+02  0.00000000000E+00 0.  1.
         13    1    4    4    0    0  0.23716133351E+02 -0.36539869273E+02  0.17998325012E+01  0.43598812193E+02  0.00000000000E+00 0. -1.
         -4    1    1    2    0  502 -0.86576282895E+02  0.55593703800E+02  0.13220323865E+03  0.16752256257E+03  0.00000000000E+00 0.  1.
<scales pt_clust_5="13000.00000" pt_clust_6="13000.00000" pt_clust_7="13000.00000" pt_clust_8="13000.00000" pt_clust_9="102.88884"></scales>
<clustering>
<clus scale="   80.097">  5  6 -1 -1</clus>
<clus scale="   90.893">  7  8 -1 -1</clus>
<clus scale="  102.889">  1  9  2 -1</clus>
<clus scale="  101.692">  2  5  1 -1</clus>
<clus scale="  102.889">  1  5  2 -1</clus>
</clustering>
</event>
<event>
 9    2  0.1302972E-004  0.2149996E+03  0.7546771E-02  0.1164108E+00
         21   -1    0    0  501  502  0.00000000000E+00  0.00000000000E+00  0.16390650125E+03  0.16390650125E+03  0.00000000000E+00 0. -1.
          2   -1    0    0  502    0 -0.00000000000E+00 -0.00000000000E+00 -0.99007806611E+03  0.99007806611E+03  0.00000000000E+00 0. -1.
         23    2    1    2    0    0 -0.67369590393E+02  0.20454492651E+02 -0.39398435738E+02  0.12157343851E+03  0.90944028020E+02 0.  0.
         24    2    1    2    0    0 -0.98317284672E+02  0.75070509690E+02 -0.82161513375E+03  0.83801171546E+03  0.10913449205E+03 0.  0.
        -13    1    4    4    0    0 -0.87528784674E+02  0.67766957887E+02 -0.36989054638E+03  0.38609929426E+03  0.00000000000E+00 0.  1.
         14    1    4    4    0    0 -0.10788499998E+02  0.73035518029E+01 -0.45172458737E+03  0.45191242120E+03  0.00000000000E+00 0. -1.
        -13    1    3    3    0    0 -0.21563267403E+02 -0.35183205571E+02 -0.24471763147E+02  0.47976032004E+02  0.00000000000E+00 0.  1.
         13    1    3    3    0    0 -0.45806322990E+02  0.55637698221E+02 -0.14926672590E+02  0.73597406502E+02  0.00000000000E+00 0. -1.
          1    1    1    2  501    0  0.16568687506E+03 -0.95525002340E+02  0.34842004626E+02  0.19439941339E+03  0.00000000000E+00 0. -1.
<scales pt_clust_5="13000.00000" pt_clust_6="13000.00000" pt_clust_7="13000.00000" pt_clust_8="13000.00000" pt_clust_9="185.24175"></scales>
<clustering>
<clus scale="   90.944">  7  8 -1 -1</clus>
<clus scale="  109.134">  5  6 -1 -1</clus>
<clus scale="  115.013">  2  7  1 -1</clus>
<clus scale="  185.242">  1  9  2 -1</clus>
<clus scale="  185.242">  1  5  2 -1</clus>
</clustering>
</event>
<event>
 9    2  0.1302972E-004  0.1356692E+03  0.7546771E-02  0.1221495E+00
         -3   -1    0    0    0  501 -0.00000000000E+00  0.00000000000E+00  0.23035372896E+03  0.23035372896E+03  0.00000000000E+00 0.  1.
         21   -1    0    0  501  502  0.00000000000E+00 -0.00000000000E+00 -0.30947155631E+03  0.30947155631E+03  0.00000000000E+00 0. -1.
         24    2    1    2    0    0  0.45026178934E+02 -0.97442797143E+02  0.12198002558E+03  0.18117453512E+03  0.80141312894E+02 0.  0.
         23    2    1    2    0    0 -0.78686993167E+01  0.52398212460E+02 -0.25729555727E+03  0.27760832376E+03  0.89765742530E+02 0.  0.
        -11    1    3    3    0    0  0.40157691020E+02 -0.10117420220E+02  0.17603816691E+02  0.44998852231E+02  0.00000000000E+00 0.  1.
         12    1    3    3    0    0  0.48684879133E+01 -0.87325376923E+02  0.10437620889E+03  0.13617568289E+03  0.00000000000E+00 0. -1.
        -11    1    4    4    0    0  0.22825413752E+02  0.28025121889E+02 -0.30040789921E+02  0.46998468368E+02  0.00000000000E+00 0.  1.
         11    1    4    4    0    0 -0.30694113069E+02  0.24373090572E+02 -0.22725476735E+03  0.23060985540E+03  0.00000000000E+00 0. -1.
         -4    1    1    2    0  502 -0.37157479617E+02  0.45044584682E+02  0.56197704341E+02  0.81042426382E+02  0.00000000000E+00 0.  1.
<scales pt_clust_5="13000.00000" pt_clust_6="13000.00000" pt_clust_7="13000.00000" pt_clust_8="13000.00000" pt_clust_9="58.39260"></scales>
<clustering>
<clus scale="   58.393">  2  9  1 -1</clus>
<clus scale="   80.141">  5  6 -1 -1</clus>
<clus scale="   89.766">  7  8 -1 -1</clus>
<clus scale="  129.502">  1  5  2 -1</clus>
<clus scale="   58.393">  2  5  1 -1</clus>
</clustering>
</event>
<event>
 9    2  0.1302972E-004  0.1175352E+03  0.7546771E-02  0.1250113E+00
         21   -1    0    0  501  502  0.00000000000E+00  0.00000000000E+00  0.57196638047E+02  0.57196638047E+02  0.00000000000E+00 0.  1.
         -1   -1    0    0    0  501 -0.00000000000E+00 -0.00000000000E+00 -0.58116606172E+03  0.58116606172E+03  0.00000000000E+00 0.  1.
         24    2    1    2    0    0  0.23187813963E+02  0.70691908951E+02 -0.15512405239E+03  0.19029086863E+03  0.81314957693E+02 0.  0.
         23    2    1    2    0    0  0.72858999898E+02 -0.80791176189E+02 -0.13646829578E+03  0.19642507302E+03  0.90130824602E+02 0.  0.
        -11    1    3    3    0    0 -0.13091033930E+02  0.38703785754E+02 -0.17559792714E+02  0.44471389917E+02  0.00000000000E+00 0.  1.
         12    1    3    3    0    0  0.36278847893E+02  0.31988123197E+02 -0.13756425968E+03  0.14581947871E+03  0.00000000000E+00 0. -1.
        -13    1    4    4    0    0 -0.10403624980E+02 -0.50475877461E+02 -0.62437031652E+02  0.80959449971E+02  0.00000000000E+00 0. -1.
         13    1    4    4    0    0  0.83262624878E+02 -0.30315298729E+02 -0.74031264124E+02  0.11546562305E+03  0.00000000000E+00 0.  1.
         -2    1    1    2    0  502 -0.96046813861E+02  0.10099267239E+02 -0.23237707550E+03  0.25164675811E+03  0.00000000000E+00 0.  1.
<scales pt_clust_5="13000.00000" pt_clust_6="13000.00000" pt_clust_7="13000.00000" pt_clust_8="13000.00000" pt_clust_9="96.57637"></scales>
<clustering>
<clus scale="   81.315">  5  6 -1 -1</clus>
<clus scale="   90.131">  7  8 -1 -1</clus>
<clus scale="   96.576">  1  9  2 -1</clus>
<clus scale="  110.919">  2  5  1 -1</clus>
<clus scale="   96.576">  1  5  2 -1</clus>
</clustering>
</event>
<event>
 9    2  0.1302972E-004  0.9237284E+02  0.7546771E-02  0.1303818E+00
          2   -1    0    0  502    0 -0.00000000000E+00  0.00000000000E+00  0.53107339918E+03  0.53107339918E+03  0.00000000000E+00 0. -1.
         21   -1    0    0  501  502  0.00000000000E+00 -0.00000000000E+00 -0.23380600290E+02  0.23380600290E+02  0.00000000000E+00 0.  1.
         23    2    1    2    0    0 -0.12751715069E+02 -0.77707187461E+01  0.36767085999E+03  0.37927366799E+03  0.91889409795E+02 0.  0.
         24    2    1    2    0    0 -0.80456466746E+01  0.61460550081E+01  0.12521210091E+03  0.14959711259E+03  0.81232502478E+02 0.  0.
        -13    1    4    4    0    0  0.10777288888E+02  0.24761299019E+02  0.62418014427E+01  0.27716997856E+02  0.00000000000E+00 0.  1.
         14    1    4    4    0    0 -0.18822935563E+02 -0.18615244011E+02  0.11897029946E+03  0.12188011473E+03  0.00000000000E+00 0. -1.
        -13    1    3    3    0    0 -0.75858449566E+01 -0.49941489157E+02  0.20818525744E+03  0.21422604603E+03  0.00000000000E+00 0. -1.
         13    1    3    3    0    0 -0.51658701129E+01  0.42170770411E+02  0.15948560255E+03  0.16504762195E+03  0.00000000000E+00 0.  1.
          1    1    1    2  501    0  0.20797361744E+02  0.16246637381E+01  0.14809837994E+02  0.25583218898E+02  0.00000000000E+00 0. -1.
<scales pt_clust_5="13000.00000" pt_clust_6="13000.00000" pt_clust_7="13000.00000" pt_clust_8="13000.00000" pt_clust_9="20.86072"></scales>
<clustering>
<clus scale="   20.861">  2  9  1 -1</clus>
<clus scale="   81.233">  5  6 -1 -1</clus>
<clus scale="   81.779">  2  5  1 -1</clus>
<clus scale="   91.889">  7  8 -1 -1</clus>
<clus scale="   20.861">  2  5  1 -1</clus>
</clustering>
</event>
<event>
 9    2  0.1302972E-004  0.1514784E+03  0.7546771E-02  0.1208151E+00
         21   -1    0    0  501  502  0.00000000000E+00  0.00000000000E+00  0.51437218251E+03  0.51437218251E+03  0.00000000000E+00 0. -1.
          2   -1    0    0  502    0 -0.00000000000E+00 -0.00000000000E+00 -0.86915168243E+02  0.86915168243E+02  0.00000000000E+00 0. -1.
         23    2    1    2    0    0 -0.92737187454E+02  0.65444073402E+02  0.21848203626E+02  0.16487696733E+03  0.11757532765E+03 0.  0.
         24    2    1    2    0    0  0.39668284167E+02 -0.40864041411E+02  0.19271060128E+03  0.21562511667E+03  0.78188058189E+02 0.  0.
        -11    1    4    4    0    0  0.35230040393E+02 -0.45294842541E+02  0.60937227410E+02  0.83702593696E+02  0.00000000000E+00 0.  1.
         12    1    4    4    0    0  0.44382437744E+01  0.44308011298E+01  0.13177337387E+03  0.13192252297E+03  0.00000000000E+00 0. -1.
        -11    1    3    3    0    0 -0.12316781321E+02 -0.19570941981E+02 -0.29161628114E+02  0.37217273227E+02  0.00000000000E+00 0.  1.
         11    1    3    3    0    0 -0.80420406134E+02  0.85015015383E+02  0.51009831740E+02  0.12765969410E+03  0.00000000000E+00 0. -1.
          1    1    1    2  501    0  0.53068903287E+02 -0.24580031991E+02  0.21289820936E+03  0.22078526676E+03  0.00000000000E+00 0. -1.
<scales pt_clust_5="13000.00000" pt_clust_6="13000.00000" pt_clust_7="13000.00000" pt_clust_8="13000.00000" pt_clust_9="58.48493"></scales>
<clustering>
<clus scale="   58.485">  1  9  2 -1</clus>
<clus scale="   78.188">  5  6 -1 -1</clus>
<clus scale="  117.575">  7  8 -1 -1</clus>
<clus scale="  123.431">  1  5  2 -1</clus>
<clus scale="   58.485">  1  5  2 -1</clus>
</clustering>
</event>
<event>
 9    2  0.1302972E-004  0.1197804E+03  0.7546771E-02  0.1246872E+00
         -1   -1    0    0    0  501 -0.00000000000E+00  0.00000000000E+00  0.74590522313E+02  0.74590522313E+02  0.00000000000E+00 0.  1.
         21   -1    0    0  501  502  0.00000000000E+00 -0.00000000000E+00 -0.27574826570E+03  0.27574826570E+03  0.00000000000E+00 0. -1.
         24    2    1    2    0    0 -0.75206470787E+02  0.36644346241E+01 -0.58111911198E+02  0.12386562483E+03  0.79348960059E+02 0.  0.
         23    2    1    2    0    0  0.85521843391E+02  0.18294945659E+02 -0.15491536239E+03  0.19946377515E+03  0.90212733899E+02 0.  0.
        -11    1    3    3    0    0 -0.21553537144E+02 -0.35170891684E+02 -0.11331678482E+02  0.42777956035E+02  0.00000000000E+00 0.  1.
         12    1    3    3    0    0 -0.53652933643E+02  0.38835326308E+02 -0.46780232716E+02  0.81087668797E+02  0.00000000000E+00 0. -1.
        -13    1    4    4    0    0  0.26814281404E+02  0.44780531213E+02 -0.33490684930E+02  0.62015543535E+02  0.00000000000E+00 0.  1.
         13    1    4    4    0    0  0.58707561987E+02 -0.26485585554E+02 -0.12142467746E+03  0.13744823161E+03  0.00000000000E+00 0. -1.
         -2    1    1    2    0  502 -0.10315372604E+02 -0.21959380283E+02  0.11869530208E+02  0.27009388029E+02  0.00000000000E+00 0.  1.
<scales pt_clust_5="13000.00000" pt_clust_6="13000.00000" pt_clust_7="13000.00000" pt_clust_8="13000.00000" pt_clust_9="24.26153"></scales>
<clustering>
<clus scale="   24.262">  2  9  1 -1</clus>
<clus scale="   79.349">  5  6 -1 -1</clus>
<clus scale="   90.213">  7  8 -1 -1</clus>
<clus scale="  111.827">  1  5  2 -1</clus>
<clus scale="   24.262">  2  5  1 -1</clus>
</clustering>
</event>
<event>
 9    2  0.1302972E-004  0.1299959E+03  0.7546771E-02  0.1231171E+00
         21   -1    0    0  501  502  0.00000000000E+00  0.00000000000E+00  0.10093245552E+03  0.10093245552E+03  0.00000000000E+00 0.  1.
         -3   -1    0    0    0  501 -0.00000000000E+00 -0.00000000000E+00 -0.39202458207E+03  0.39202458207E+03  0.00000000000E+00 0.  1.
         23    2    1    2    0    0 -0.21008729067E+01 -0.10009596368E+03 -0.24953582871E+03  0.28479585133E+03  0.93898517084E+02 0.  0.
         24    2    1    2    0    0 -0.27083899656E+02  0.73280310946E+02 -0.91406625754E+02  0.14447535287E+03  0.80090041598E+02 0.  0.
        -11    1    4    4    0    0 -0.43898374403E+02  0.37597808883E+02 -0.87459816793E+02  0.10483263834E+03  0.00000000000E+00 0.  1.
         12    1    4    4    0    0  0.16814474747E+02  0.35682502063E+02 -0.39468089603E+01  0.39642714532E+02  0.00000000000E+00 0. -1.
        -13    1    3    3    0    0 -0.17046115919E+02 -0.82158905258E+02 -0.24752689645E+03  0.26136223952E+03  0.00000000000E+00 0.  1.
         13    1    3    3    0    0  0.14945243013E+02 -0.17937058423E+02 -0.20089322642E+01  0.23433611810E+02  0.00000000000E+00 0. -1.
         -4    1    1    2    0  502  0.29184772562E+02  0.26815652735E+02  0.49850327921E+02  0.63685833393E+02  0.00000000000E+00 0.  1.
<scales pt_clust_5="13000.00000" pt_clust_6="13000.00000" pt_clust_7="13000.00000" pt_clust_8="13000.00000" pt_clust_9="39.63370"></scales>
<clustering>
<clus scale="   39.634">  1  9  2 -1</clus>
<clus scale="   80.090">  5  6 -1 -1</clus>
<clus scale="   93.899">  7  8 -1 -1</clus>
<clus scale="  120.401">  1  5  2 -1</clus>
<clus scale="   39.634">  1  5  2 -1</clus>
</clustering>
</event>
<event>
 9    2  0.1302972E-004  0.9280016E+02  0.7546771E-02  0.1301984E+00
         -3   -1    0    0    0  501 -0.00000000000E+00  0.00000000000E+00  0.15370480530E+03  0.15370480530E+03  0.00000000000E+00 0.  1.
         21   -1    0    0  501  502  0.00000000000E+00 -0.00000000000E+00 -0.35102168049E+03  0.35102168049E+03  0.00000000000E+00 0. -1.
         24    2    1    2    0    0 -0.10751316331E+02 -0.21064439225E+02  0.11362296627E+03  0.14144303273E+03  0.80849561793E+02 0.  0.
         23    2    1    2    0    0 -0.34527373374E+02 -0.28005724028E+02 -0.26131241797E+03  0.28009137515E+03  0.90501594234E+02 0.  0.
        -11    1    3    3    0    0  0.30409866763E+02 -0.14113479123E+02  0.83460475039E+02  0.89942210242E+02  0.00000000000E+00 0.  1.
         12    1    3    3    0    0 -0.41161183094E+02 -0.69509601015E+01  0.30162491232E+02  0.51500822492E+02  0.00000000000E+00 0. -1.
        -11    1    4    4    0    0 -0.58944128878E+02  0.68244292344E+00 -0.19622314400E+03  0.20488630578E+03  0.00000000000E+00 0. -1.
         11    1    4    4    0    0  0.24416755504E+02 -0.28688166952E+02 -0.65089273970E+02  0.75205069366E+02  0.00000000000E+00 0.  1.
         -4    1    1    2    0  502  0.45278689706E+02  0.49070163253E+02 -0.49627423500E+02  0.83192077906E+02  0.00000000000E+00 0.  1.
<scales pt_clust_5="13000.00000" pt_clust_6="13000.00000" pt_clust_7="13000.00000" pt_clust_8="13000.00000" pt_clust_9="66.76856"></scales>
<clustering>
<clus scale="   66.769">  2  9  1 -1</clus>
<clus scale="   80.850">  5  6 -1 -1</clus>
<clus scale="   83.415">  1  5  2 -1</clus>
<clus scale="   90.502">  7  8 -1 -1</clus>
<clus scale="   66.769">  2  5  1 -1</clus>
</clustering>
</event>
<event>
 9    2  0.1302972E-004  0.1910431E+03  0.7546771E-02  0.1158754E+00
         21   -1    0    0  501  502  0.00000000000E+00  0.00000000000E+00  0.49547692245E+02  0.49547692245E+02  0.00000000000E+00 0. -1.
          2   -1    0    0  502    0 -0.00000000000E+00 -0.00000000000E+00 -0.14509109174E+04  0.14509109174E+04  0.00000000000E+00 0. -1.
         24    2    1    2    0    0  0.17933548861E+02  0.13477303297E+03 -0.41464476236E+03  0.44364268802E+03  0.80019829373E+02 0.  0.
         23    2    1    2    0    0 -0.42173814986E+02 -0.22966425079E+03 -0.48977117871E+03  0.55030971547E+03  0.91873155347E+02 0.  0.
        -13    1    3    3    0    0  0.36806722284E+02  0.28759124213E+02 -0.17097162800E+03  0.17723746673E+03  0.00000000000E+00 0.  1.
         14    1    3    3    0    0 -0.18873173423E+02  0.10601390875E+03 -0.24367313435E+03  0.26640522129E+03  0.00000000000E+00 0. -1.
        -13    1    4    4    0    0 -0.26147019916E+01 -0.11960467684E+03 -0.15566647198E+03  0.19632668154E+03  0.00000000000E+00 0. -1.
         13    1    4    4    0    0 -0.39559112994E+02 -0.11005957395E+03 -0.33410470674E+03  0.35398303392E+03  0.00000000000E+00 0.  1.
          1    1    1    2  501    0  0.24240266125E+02  0.94891217827E+02 -0.49694728413E+03  0.50650620621E+03  0.00000000000E+00 0. -1.
<scales pt_clust_5="13000.00000" pt_clust_6="13000.00000" pt_clust_7="13000.00000" pt_clust_8="13000.00000" pt_clust_9="97.93847"></scales>
<clustering>
<clus scale="   80.020">  5  6 -1 -1</clus>
<clus scale="   91.873">  7  8 -1 -1</clus>
<clus scale="   97.938">  1  9  2 -1</clus>
<clus scale="  185.634">  2  5  1 -1</clus>
<clus scale="   97.938">  1  5  2 -1</clus>
</clustering>
</event>
<event>
 9    2  0.1302972E-004  0.1199048E+03  0.7546771E-02  0.1247239E+00
          2   -1    0    0  502    0 -0.00000000000E+00  0.00000000000E+00  0.50103949722E+03  0.50103949722E+03  0.00000000000E+00 0. -1.
         21   -1    0    0  501  502  0.00000000000E+00 -0.00000000000E+00 -0.10593508193E+03  0.10593508193E+03  0.00000000000E+00 0. -1.
         24    2    1    2    0    0 -0.29868571522E+02  0.65416540912E+02  0.30064670312E+03  0.31910260228E+03  0.79161703492E+02 0.  0.
         23    2    1    2    0    0  0.10694617905E+03 -0.48300916523E+02  0.13333257900E+03  0.19986540069E+03  0.91641355400E+02 0.  0.
        -11    1    3    3    0    0 -0.50813051823E+02  0.42755535556E+02  0.13319915917E+03  0.14883554031E+03  0.00000000000E+00 0.  1.
         12    1    3    3    0    0  0.20944480302E+02  0.22661005356E+02  0.16744754395E+03  0.17026706197E+03  0.00000000000E+00 0. -1.
        -11    1    4    4    0    0  0.80788607319E+02 -0.52464836078E+02  0.42569105139E+02  0.10531612797E+03  0.00000000000E+00 0.  1.
         11    1    4    4    0    0  0.26157571728E+02  0.41639195554E+01  0.90763473865E+02  0.94549272725E+02  0.00000000000E+00 0. -1.
          1    1    1    2  501    0 -0.77077607525E+02 -0.17115624389E+02 -0.38874866823E+02  0.88006576178E+02  0.00000000000E+00 0. -1.
<scales pt_clust_5="13000.00000" pt_clust_6="13000.00000" pt_clust_7="13000.00000" pt_clust_8="13000.00000" pt_clust_9="78.95506"></scales>
<clustering>
<clus scale="   78.955">  2  9  1 -1</clus>
<clus scale="   79.162">  5  6 -1 -1</clus>
<clus scale="   91.641">  7  8 -1 -1</clus>
<clus scale="  110.660">  1  5  2 -1</clus>
<clus scale="   78.955">  2  5  1 -1</clus>
</clustering>
</event>
<event>
 9    2  0.1302972E-004  0.1357826E+03  0.7546771E-02  0.1220883E+00
         21   -1    0    0  501  502  0.00000000000E+00  0.00000000000E+00  0.55575590408E+02  0.55575590408E+02  0.00000000000E+00 0.  1.
          2   -1    0    0  502    0 -0.00000000000E+00 -0.00000000000E+00 -0.53901664934E+03  0.53901664934E+03  0.00000000000E+00 0. -1.
         24    2    1    2    0    0 -0.65376032378E+02  0.84266248749E+02 -0.36473605539E+03  0.38886792552E+03  0.82529068270E+02 0.  0.
         23    2    1    2    0    0  0.75959603518E+02 -0.48432789084E+02 -0.73667875363E+02  0.14720601176E+03  0.90150194738E+02 0.  0.
        -11    1    3    3    0    0 -0.18316280275E+02 -0.81103399473E+01 -0.17883212790E+02  0.26852803148E+02  0.00000000000E+00 0.  1.
         12    1    3    3    0    0 -0.47059752103E+02  0.92376588696E+02 -0.34685284260E+03  0.36201512238E+03  0.00000000000E+00 0. -1.
        -11    1    4    4    0    0  0.52577225402E+02 -0.30227564870E+02  0.72061413679E+01  0.61073715970E+02  0.00000000000E+00 0.  1.
         11    1    4    4    0    0  0.23382378115E+02 -0.18205224214E+02 -0.80874016731E+02  0.86132295785E+02  0.00000000000E+00 0. -1.
          1    1    1    2  501    0 -0.10583571139E+02 -0.35833459665E+02 -0.45037128177E+02  0.58518302471E+02  0.00000000000E+00 0. -1.
<scales pt_clust_5="13000.00000" pt_clust_6="13000.00000" pt_clust_7="13000.00000" pt_clust_8="13000.00000" pt_clust_9="37.36374"></scales>
<clustering>
<clus scale="   37.364">  1  9  2 -1</clus>
<clus scale="   82.529">  5  6 -1 -1</clus>
<clus scale="   90.150">  7  8 -1 -1</clus>
<clus scale="  130.847">  2  5  1 -1</clus>
<clus scale="   37.364">  1  5  2 -1</clus>
</clustering>
</event>
<event>
 9    2  0.1302972E-004  0.1091415E+03  0.7546771E-02  0.1270167E+00
         21   -1    0    0  501  502  0.00000000000E+00  0.00000000000E+00  0.77230649212E+02  0.77230649212E+02  0.00000000000E+00 0.  1.
         -1   -1    0    0    0  501 -0.00000000000E+00 -0.00000000000E+00 -0.22293640637E+03  0.22293640637E+03  0.00000000000E+00 0.  1.
         23    2    1    2    0    0  0.45372244542E+02 -0.10722753936E+02 -0.13638399120E+03  0.17468442617E+03  0.98693655639E+02 0.  0.
         24    2    1    2    0    0 -0.38768818553E+02  0.31024586443E+02 -0.25915103581E+02  0.98443611459E+02  0.80956814336E+02 0.  0.
        -13    1    4    4    0    0 -0.51314541588E+02  0.45358278767E+02 -0.35475776506E+02  0.77130320561E+02  0.00000000000E+00 0.  1.
         14    1    4    4    0    0  0.12545723035E+02 -0.14333692324E+02  0.95606729257E+01  0.21313290898E+02  0.00000000000E+00 0. -1.
        -11    1    3    3    0    0  0.25152232687E+02  0.44068695229E+02 -0.64379511576E+02  0.81971984355E+02  0.00000000000E+00 0.  1.
         11    1    3    3    0    0  0.20220011855E+02 -0.54791449165E+02 -0.72004479628E+02  0.92712441816E+02  0.00000000000E+00 0. -1.
         -2    1    1    2    0  502 -0.66034259890E+01 -0.20301832507E+02  0.16593337630E+02  0.27039017949E+02  0.00000000000E+00 0.  1.
<scales pt_clust_5="13000.00000" pt_clust_6="13000.00000" pt_clust_7="13000.00000" pt_clust_8="13000.00000" pt_clust_9="21.34876"></scales>
<clustering>
<clus scale="   21.349">  1  9  2 -1</clus>
<clus scale="   80.957">  5  6 -1 -1</clus>
<clus scale="   93.410">  1  5  2 -1</clus>
<clus scale="   98.694">  7  8 -1 -1</clus>
<clus scale="   21.349">  1  5  2 -1</clus>
</clustering>
</event>
<event>
 9    2  0.1302972E-004  0.1476143E+03  0.7546771E-02  0.1205741E+00
         21   -1    0    0  501  502  0.00000000000E+00  0.00000000000E+00  0.49498413825E+02  0.49498413825E+02  0.00000000000E+00 0.  1.
         -1   -1    0    0    0  501 -0.00000000000E+00 -0.00000000000E+00 -0.66325288499E+03  0.66325288499E+03  0.00000000000E+00 0.  1.
         24    2    1    2    0    0  0.40427217262E+02 -0.10750379311E+03 -0.46695994267E+03  0.48755409356E+03  0.80411321726E+02 0.  0.
         23    2    1    2    0    0 -0.21185501615E+02  0.11574945245E+03 -0.12446402675E+03  0.19458861451E+03  0.92339989830E+02 0.  0.
        -13    1    3    3    0    0  0.99646767807E+01 -0.46409143851E+02 -0.68809709394E+02  0.83593537568E+02  0.00000000000E+00 0.  1.
         14    1    3    3    0    0  0.30462540481E+02 -0.61094649263E+02 -0.39815023328E+03  0.40396055599E+03  0.00000000000E+00 0. -1.
        -11    1    4    4    0    0 -0.38418931806E+02  0.88686004598E+02 -0.13003956034E+03  0.16202317423E+03  0.00000000000E+00 0.  1.
         11    1    4    4    0    0  0.17233430191E+02  0.27063447854E+02  0.55755335970E+01  0.32565440282E+02  0.00000000000E+00 0. -1.
         -2    1    1    2    0  502 -0.19241715647E+02 -0.82456593380E+01 -0.22330501751E+02  0.30608590745E+02  0.00000000000E+00 0.  1.
<scales pt_clust_5="13000.00000" pt_clust_6="13000.00000" pt_clust_7="13000.00000" pt_clust_8="13000.00000" pt_clust_9="20.93405"></scales>
<clustering>
<clus scale="   20.934">  1  9  2 -1</clus>
<clus scale="   80.411">  5  6 -1 -1</clus>
<clus scale="   92.340">  7  8 -1 -1</clus>
<clus scale="  140.461">  2  5  1 -1</clus>
<clus scale="   20.934">  1  5  2 -1</clus>
</clustering>
</event>
<event>
 9    2  0.1302972E-004  0.1433294E+03  0.7546771E-02  0.1211223E+00
         21   -1    0    0  501  502  0.00000000000E+00  0.00000000000E+00  0.18426397267E+03  0.18426397267E+03  0.00000000000E+00 0.  1.
          4   -1    0    0  502    0 -0.00000000000E+00 -0.00000000000E+00 -0.18398939804E+03  0.18398939804E+03  0.00000000000E+00 0. -1.
         24    2    1    2    0    0  0.12241603333E+03 -0.81312135153E+01 -0.93492085917E+02  0.17405816788E+03  0.80645358371E+02 0.  0.
         23    2    1    2    0    0 -0.73959215274E+02  0.13675073193E+02  0.81279554605E+02  0.14384914628E+03  0.91810880278E+02 0.  0.
        -13    1    3    3    0    0  0.48033149543E+02  0.36017269744E+02 -0.43649390606E+02  0.74227329705E+02  0.00000000000E+00 0.  1.
         14    1    3    3    0    0  0.74382883789E+02 -0.44148483260E+02 -0.49842695311E+02  0.99830838175E+02  0.00000000000E+00 0. -1.
        -11    1    4    4    0    0 -0.59008703110E+02 -0.32495993888E+02  0.62242129533E+02  0.91717497515E+02  0.00000000000E+00 0. -1.
         11    1    4    4    0    0 -0.14950512165E+02  0.46171067082E+02  0.19037425071E+02  0.52131648763E+02  0.00000000000E+00 0.  1.
          3    1    1    2  501    0 -0.48456818058E+02 -0.55438596780E+01  0.12487105943E+02  0.50346056561E+02  0.00000000000E+00 0. -1.
<scales pt_clust_5="13000.00000" pt_clust_6="13000.00000" pt_clust_7="13000.00000" pt_clust_8="13000.00000" pt_clust_9="48.77292"></scales>
<clustering>
<clus scale="   48.773">  1  9  2 -1</clus>
<clus scale="   80.645">  5  6 -1 -1</clus>
<clus scale="   91.811">  7  8 -1 -1</clus>
<clus scale="  136.447">  2  5  1 -1</clus>
<clus scale="   48.773">  1  5  2 -1</clus>
</clustering>
</event>
<event>
 9    2  0.1302972E-004  0.2391618E+03  0.7546771E-02  0.1160890E+00
         21   -1    0    0  501  502  0.00000000000E+00  0.00000000000E+00  0.14506151062E+03  0.14506151062E+03  0.00000000000E+00 0. -1.
          2   -1    0    0  502    0 -0.00000000000E+00 -0.00000000000E+00 -0.52459479002E+03  0.52459479002E+03  0.00000000000E+00 0. -1.
         24    2    1    2    0    0 -0.12664396742E+01  0.40818550204E+02 -0.55361500913E+02  0.10568768333E+03  0.80232366995E+02 0.  0.
         23    2    1    2    0    0 -0.21458606691E+03 -0.65254427409E+02 -0.18638953878E+03  0.30672678115E+03  0.95052289271E+02 0.  0.
        -11    1    3    3    0    0  0.72439609523E+01 -0.21594283608E+02 -0.30273637352E+02  0.37885104901E+02  0.00000000000E+00 0.  1.
         12    1    3    3    0    0 -0.85104006265E+01  0.62412833812E+02 -0.25087863561E+02  0.67802578427E+02  0.00000000000E+00 0. -1.
        -13    1    4    4    0    0 -0.68534761911E+01 -0.30630151928E+02 -0.13153959904E+02  0.34032381700E+02  0.00000000000E+00 0.  1.
         13    1    4    4    0    0 -0.20773259072E+03 -0.34624275481E+02 -0.17323557888E+03  0.27269439945E+03  0.00000000000E+00 0. -1.
          1    1    1    2  501    0  0.21585250659E+03  0.24435877205E+02 -0.13778223971E+03  0.25724183617E+03  0.00000000000E+00 0. -1.
<scales pt_clust_5="13000.00000" pt_clust_6="13000.00000" pt_clust_7="13000.00000" pt_clust_8="13000.00000" pt_clust_9="219.46171"></scales>
<clustering>
<clus scale="   80.232">  5  6 -1 -1</clus>
<clus scale="   90.028">  2  5  1 -1</clus>
<clus scale="   95.052">  7  8 -1 -1</clus>
<clus scale="  219.462">  1  9  2 -1</clus>
<clus scale="  219.462">  1  5  2 -1</clus>
</clustering>
</event>
<event>
 9    2  0.1302972E-004  0.1050712E+03  0.7546771E-02  0.1273543E+00
         -3   -1    0    0    0  501 -0.00000000000E+00  0.00000000000E+00  0.43921558911E+03  0.43921558911E+03  0.00000000000E+00 0.  1.
         21   -1    0    0  501  502  0.00000000000E+00 -0.00000000000E+00 -0.61630099723E+02  0.61630099723E+02  0.00000000000E+00 0. -1.
         24    2    1    2    0    0 -0.48189180142E+02 -0.16616525908E+01  0.28989139508E+03  0.30537183960E+03  0.83005911287E+02 0.  0.
         23    2    1    2    0    0  0.72072156535E+02 -0.42328360566E+02  0.52864080367E+02  0.13449313351E+03  0.91146618765E+02 0.  0.
        -13    1    3    3    0    0 -0.63948055844E+02  0.10211410665E+02  0.26879754575E+03  0.27648824090E+03  0.00000000000E+00 0.  1.
         14    1    3    3    0    0  0.15758875702E+02 -0.11873063256E+02  0.21093849326E+02  0.28883598700E+02  0.00000000000E+00 0. -1.
        -11    1    4    4    0    0 -0.12398850185E+02 -0.15815196086E+02 -0.13185595520E+02  0.24035636924E+02  0.00000000000E+00 0.  1.
         11    1    4    4    0    0  0.84471006720E+02 -0.26513164480E+02  0.66049675887E+02  0.11045749659E+03  0.00000000000E+00 0. -1.
         -4    1    1    2    0  502 -0.23882976393E+02  0.43990013157E+02  0.34830013942E+02  0.60980715723E+02  0.00000000000E+00 0.  1.
<scales pt_clust_5="13000.00000" pt_clust_6="13000.00000" pt_clust_7="13000.00000" pt_clust_8="13000.00000" pt_clust_9="50.05515"></scales>
<clustering>
<clus scale="   50.055">  2  9  1 -1</clus>
<clus scale="   83.006">  5  6 -1 -1</clus>
<clus scale="   91.147">  7  8 -1 -1</clus>
<clus scale="   98.093">  1  5  2 -1</clus>
<clus scale="   50.055">  2  5  1 -1</clus>
</clustering>
</event>
<event>
 9    2  0.1302972E-004  0.1440059E+03  0.7546771E-02  0.1209594E+00
         21   -1    0    0  501  502  0.00000000000E+00  0.00000000000E+00  0.40258869999E+02  0.40258869999E+02  0.00000000000E+00 0. -1.
          4   -1    0    0  502    0 -0.00000000000E+00 -0.00000000000E+00 -0.78936341078E+03  0.78936341078E+03  0.00000000000E+00 0. -1.
         23    2    1    2    0    0  0.60735549914E+02 -0.11189804307E+03 -0.51517626352E+03  0.53831637138E+03  0.90376734471E+02 0.  0.
         24    2    1    2    0    0 -0.22483364290E+02  0.79949698796E+02 -0.12398455811E+03  0.17059324318E+03  0.82658502043E+02 0.  0.
        -13    1    4    4    0    0 -0.32178283149E+02  0.68443643851E+02 -0.13303837707E+03  0.15303327764E+03  0.00000000000E+00 0.  1.
         14    1    4    4    0    0  0.96949188583E+01  0.11506054945E+02  0.90538189596E+01  0.17559965542E+02  0.00000000000E+00 0. -1.
        -11    1    3    3    0    0  0.74961370310E+02 -0.45711726458E+02 -0.31470025581E+03  0.32671856388E+03  0.00000000000E+00 0.  1.
         11    1    3    3    0    0 -0.14225820396E+02 -0.66186316609E+02 -0.20047600771E+03  0.21159780751E+03  0.00000000000E+00 0. -1.
          3    1    1    2  501    0 -0.38252185623E+02  0.31948344270E+02 -0.10994371914E+03  0.12071266622E+03  0.00000000000E+00 0. -1.
<scales pt_clust_5="13000.00000" pt_clust_6="13000.00000" pt_clust_7="13000.00000" pt_clust_8="13000.00000" pt_clust_9="49.83903"></scales>
<clustering>
<clus scale="   49.839">  1  9  2 -1</clus>
<clus scale="   82.659">  5  6 -1 -1</clus>
<clus scale="   90.377">  7  8 -1 -1</clus>
<clus scale="  139.292">  1  5  2 -1</clus>
<clus scale="   49.839">  1  5  2 -1</clus>
</clustering>
</event>
<event>
 9    2  0.1302972E-004  0.9835391E+02  0.7546771E-02  0.1287720E+00
         21   -1    0    0  501  502  0.00000000000E+00  0.00000000000E+00  0.93098533940E+02  0.93098533940E+02  0.00000000000E+00 0. -1.
          4   -1    0    0  502    0 -0.00000000000E+00 -0.00000000000E+00 -0.24098466297E+03  0.24098466297E+03  0.00000000000E+00 0. -1.
         24    2    1    2    0    0  0.60126633600E+02  0.18696464974E+02 -0.43338931109E+02  0.11031678114E+03  0.79540928969E+02 0.  0.
         23    2    1    2    0    0 -0.10597449295E+02 -0.15633786801E+02  0.18213496013E+02  0.91355283038E+02  0.87506200241E+02 0.  0.
        -11    1    3    3    0    0  0.48058102981E+02 -0.17453618621E+02  0.18993391985E+01  0.51164612326E+02  0.00000000000E+00 0.  1.
         12    1    3    3    0    0  0.12068530619E+02  0.36150083595E+02 -0.45238270307E+02  0.59152168815E+02  0.00000000000E+00 0. -1.
        -11    1    4    4    0    0 -0.21683987885E+02  0.61754206675E+01 -0.29859130028E+02  0.37415221462E+02  0.00000000000E+00 0.  1.
         11    1    4    4    0    0  0.11086538590E+02 -0.21809207469E+02  0.48072626041E+02  0.53940061576E+02  0.00000000000E+00 0. -1.
          3    1    1    2  501    0 -0.49529184305E+02 -0.30626781722E+01 -0.12276069394E+03  0.13241113273E+03  0.00000000000E+00 0. -1.
<scales pt_clust_5="13000.00000" pt_clust_6="13000.00000" pt_clust_7="13000.00000" pt_clust_8="13000.00000" pt_clust_9="49.62381"></scales>
<clustering>
<clus scale="   49.624">  1  9  2 -1</clus>
<clus scale="   79.541">  5  6 -1 -1</clus>
<clus scale="   87.506">  7  8 -1 -1</clus>
<clus scale="   91.340">  2  5  1 -1</clus>
<clus scale="   49.624">  1  5  2 -1</clus>
</clustering>
</event>
<event>
 9    2  0.1302972E-004  0.1110431E+03  0.7546771E-02  0.1263400E+00
          2   -1    0    0  502    0 -0.00000000000E+00  0.00000000000E+00  0.94636591194E+03  0.94636591194E+03  0.00000000000E+00 0. -1.
         21   -1    0    0  501  502  0.00000000000E+00 -0.00000000000E+00 -0.20626604089E+02  0.20626604089E+02  0.00000000000E+00 0.  1.
         24    2    1    2    0    0 -0.60503904212E+02  0.30760406594E+02  0.66869176656E+03  0.67701088611E+03  0.81167334566E+02 0.  0.
         23    2    1    2    0    0  0.28928288463E+02 -0.22882216870E+02  0.17425845347E+03  0.20102591934E+03  0.93193186011E+02 0.  0.
        -13    1    3    3    0    0 -0.14160474120E+02  0.23637713934E+02  0.54862300512E+02  0.61393261558E+02  0.00000000000E+00 0.  1.
         14    1    3    3    0    0 -0.46343430092E+02  0.71226926603E+01  0.61382946605E+03  0.61561762455E+03  0.00000000000E+00 0. -1.
        -13    1    4    4    0    0 -0.83226278380E+00  0.25579692966E+02  0.10482210906E+02  0.27656646562E+02  0.00000000000E+00 0. -1.
         13    1    4    4    0    0  0.29760551247E+02 -0.48461909836E+02  0.16377624256E+03  0.17336927278E+03  0.00000000000E+00 0.  1.
          1    1    1    2  501    0  0.31575615749E+02 -0.78781897244E+01  0.82789087821E+02  0.88955710584E+02  0.00000000000E+00 0. -1.
<scales pt_clust_5="13000.00000" pt_clust_6="13000.00000" pt_clust_7="13000.00000" pt_clust_8="13000.00000" pt_clust_9="32.54359"></scales>
<clustering>
<clus scale="   32.544">  2  9  1 -1</clus>
<clus scale="   81.167">  5  6 -1 -1</clus>
<clus scale="   93.193">  7  8 -1 -1</clus>
<clus scale="  101.162">  1  5  2 -1</clus>
<clus scale="   32.544">  2  5  1 -1</clus>
</clustering>
</event>
<event>
 9    2  0.1302972E-004  0.2371788E+03  0.7546771E-02  0.1121858E+00
         -1   -1    0    0    0  501 -0.00000000000E+00  0.00000000000E+00  0.65788876234E+03  0.65788876234E+03  0.00000000000E+00 0.  1.
         21   -1    0    0  501  502  0.00000000000E+00 -0.00000000000E+00 -0.14801927476E+03  0.14801927476E+03  0.00000000000E+00 0.  1.
         23    2    1    2    0    0 -0.24838932967E+01 -0.24121131781E+03  0.47181880389E+03  0.53776505535E+03  0.91592584193E+02 0.  0.
         24    2    1    2    0    0  0.14973303856E+02  0.16390878193E+03  0.28849794702E+02  0.18929931500E+03  0.88947351747E+02 0.  0.
        -13    1    4    4    0    0  0.47949663586E+02  0.13232047907E+03  0.28687130434E+02  0.14363436522E+03  0.00000000000E+00 0.  1.
         14    1    4    4    0    0 -0.32976359730E+02  0.31588302852E+02  0.16266426785E+00  0.45664949774E+02  0.00000000000E+00 0. -1.
        -11    1    3    3    0    0  0.30238714940E+02 -0.14672430288E+03  0.21391362962E+03  0.26115405774E+03  0.00000000000E+00 0. -1.
         11    1    3    3    0    0 -0.32722608237E+02 -0.94487014934E+02  0.25790517428E+03  0.27661099761E+03  0.00000000000E+00 0.  1.
         -2    1    1    2    0  502 -0.12489410559E+02  0.77302535885E+02  0.92008889863E+01  0.78843666762E+02  0.00000000000E+00 0.  1.
<scales pt_clust_5="13000.00000" pt_clust_6="13000.00000" pt_clust_7="13000.00000" pt_clust_8="13000.00000" pt_clust_9="78.30496"></scales>
<clustering>
<clus scale="   78.305">  2  9  1 -1</clus>
<clus scale="   88.947">  5  6 -1 -1</clus>
<clus scale="   91.593">  7  8 -1 -1</clus>
<clus scale="  236.170">  2  5  1 -1</clus>
<clus scale="   78.305">  2  5  1 -1</clus>
</clustering>
</event>
<event>
 9    2  0.1302972E-004  0.1032726E+03  0.7546771E-02  0.1281126E+00
         -1   -1    0    0    0  501 -0.00000000000E+00  0.00000000000E+00  0.61511508151E+02  0.61511508151E+02  0.00000000000E+00 0.  1.
         21   -1    0    0  501  502  0.00000000000E+00 -0.00000000000E+00 -0.30356827404E+03  0.30356827404E+03  0.00000000000E+00 0. -1.
         24    2    1    2    0    0  0.72518785787E+01 -0.48324937456E+02  0.33898344402E+00  0.88262977506E+02  0.73500673231E+02 0.  0.
         23    2    1    2    0    0 -0.29604451269E+02  0.55452740019E+02 -0.18962692586E+03  0.21906741676E+03  0.89892892732E+02 0.  0.
        -11    1    3    3    0    0  0.52084891378E+01 -0.29024281439E+02  0.36680353499E+02  0.47063633572E+02  0.00000000000E+00 0.  1.
         12    1    3    3    0    0  0.20433894409E+01 -0.19300656017E+02 -0.36341370055E+02  0.41199343934E+02  0.00000000000E+00 0. -1.
        -11    1    4    4    0    0  0.30950557702E+02  0.24901721889E+02 -0.50179247897E+02  0.63999919489E+02  0.00000000000E+00 0.  1.
         11    1    4    4    0    0 -0.60555008970E+02  0.30551018130E+02 -0.13944767797E+03  0.15506749727E+03  0.00000000000E+00 0. -1.
         -2    1    1    2    0  502  0.22352572690E+02 -0.71278025631E+01 -0.52768823470E+02  0.57749387924E+02  0.00000000000E+00 0.  1.
<scales pt_clust_5="13000.00000" pt_clust_6="13000.00000" pt_clust_7="13000.00000" pt_clust_8="13000.00000" pt_clust_9="23.46152"></scales>
<clustering>
<clus scale="   23.462">  2  9  1 -1</clus>
<clus scale="   73.501">  5  6 -1 -1</clus>
<clus scale="   89.369">  1  5  2 -1</clus>
<clus scale="   89.893">  7  8 -1 -1</clus>
<clus scale="   23.462">  2  5  1 -1</clus>
</clustering>
</event>
<event>
 9    2  0.1302972E-004  0.9828899E+02  0.7546771E-02  0.1288898E+00
         21   -1    0    0  501  502  0.00000000000E+00  0.00000000000E+00  0.35574299118E+02  0.35574299118E+02  0.00000000000E+00 0.  1.
          2   -1    0    0  502    0 -0.00000000000E+00 -0.00000000000E+00 -0.66286988138E+03  0.66286988138E+03  0.00000000000E+00 0. -1.
         23    2    1    2    0    0 -0.29745413785E+02 -0.16915742015E+02 -0.36122724326E+03  0.37411900076E+03  0.91153570880E+02 0.  0.
         24    2    1    2    0    0  0.56533114722E+02 -0.10456145752E+02 -0.63839297700E+02  0.11850150203E+03  0.81620009852E+02 0.  0.
        -13    1    4    4    0    0  0.62844953024E+02  0.10706038063E+02 -0.15874397788E+02  0.65697061401E+02  0.00000000000E+00 0.  1.
         14    1    4    4    0    0 -0.63118383018E+01 -0.21162183815E+02 -0.47964899911E+02  0.52804440628E+02  0.00000000000E+00 0. -1.
        -11    1    3    3    0    0  0.64486742093E+00  0.32565090384E+02 -0.70653228601E+02  0.77799612322E+02  0.00000000000E+00 0.  1.
         11    1    3    3    0    0 -0.30390281206E+02 -0.49480832399E+02 -0.29057401466E+03  0.29631938843E+03  0.00000000000E+00 0. -1.
          1    1    1    2  501    0 -0.26787700937E+02  0.27371887766E+02 -0.20222904130E+03  0.20582367772E+03  0.00000000000E+00 0. -1.
<scales pt_clust_5="13000.00000" pt_clust_6="13000.00000" pt_clust_7="13000.00000" pt_clust_8="13000.00000" pt_clust_9="38.29886"></scales>
<clustering>
<clus scale="   38.299">  1  9  2 -1</clus>
<clus scale="   81.620">  5  6 -1 -1</clus>
<clus scale="   89.519">  1  5  2 -1</clus>
<clus scale="   91.154">  7  8 -1 -1</clus>
<clus scale="   38.299">  1  5  2 -1</clus>
</clustering>
</event>
<event>
 9    2  0.1302972E-004  0.2041221E+03  0.7546771E-02  0.1180369E+00
         21   -1    0    0  501  502  0.00000000000E+00  0.00000000000E+00  0.45552558201E+03  0.45552558201E+03  0.00000000000E+00 0.  1.
         -1   -1    0    0    0  501 -0.00000000000E+00 -0.00000000000E+00 -0.16708426520E+03  0.16708426520E+03  0.00000000000E+00 0.  1.
         24    2    1    2    0    0  0.66032625734E+01 -0.46450824563E+02  0.23806476180E+02  0.95788981448E+02  0.80046851777E+02 0.  0.
         23    2    1    2    0    0 -0.18490224120E+03  0.46730917427E+02  0.73160889061E+01  0.21376568816E+03  0.96278901293E+02 0.  0.
        -11    1    3    3    0    0  0.22902585505E+02 -0.20905378982E+02 -0.23983520383E+02  0.39201690565E+02  0.00000000000E+00 0.  1.
         12    1    3    3    0    0 -0.16299322931E+02 -0.25545445581E+02  0.47789996563E+02  0.56587290883E+02  0.00000000000E+00 0. -1.
        -13    1    4    4    0    0 -0.66561068955E+02  0.46750490894E+02  0.40494674307E+02  0.90861449177E+02  0.00000000000E+00 0. -1.
         13    1    4    4    0    0 -0.11834117224E+03 -0.19573466772E-01 -0.33178585401E+02  0.12290423898E+03  0.00000000000E+00 0.  1.
         -2    1    1    2    0  502  0.17829897862E+03 -0.28009286410E+00  0.25731875173E+03  0.31305517760E+03  0.00000000000E+00 0.  1.
<scales pt_clust_5="13000.00000" pt_clust_6="13000.00000" pt_clust_7="13000.00000" pt_clust_8="13000.00000" pt_clust_9="179.98941"></scales>
<clustering>
<clus scale="   80.047">  5  6 -1 -1</clus>
<clus scale="   92.784">  2  5  1 -1</clus>
<clus scale="   96.279">  7  8 -1 -1</clus>
<clus scale="  179.989">  1  9  2 -1</clus>
<clus scale="  179.989">  1  5  2 -1</clus>
</clustering>
</event>
<event>
 9    2  0.1302972E-004  0.1414391E+03  0.7546771E-02  0.1213408E+00
         -1   -1    0    0    0  501 -0.00000000000E+00  0.00000000000E+00  0.68577460221E+03  0.68577460221E+03  0.00000000000E+00 0.  1.
         21   -1    0    0  501  502  0.00000000000E+00 -0.00000000000E+00 -0.35311242017E+02  0.35311242017E+02  0.00000000000E+00 0. -1.
         24    2    1    2    0    0  0.87965458509E+02 -0.73946798808E+02  0.32664213010E+03  0.35580363965E+03  0.81823577799E+02 0.  0.
         23    2    1    2    0    0 -0.57942767550E+02  0.84388030819E+02  0.26776321512E+03  0.30083934352E+03  0.91260436032E+02 0.  0.
        -11    1    3    3    0    0  0.14868276283E+02 -0.48602161219E+02  0.20833779552E+03  0.21444783225E+03  0.00000000000E+00 0.  1.
         12    1    3    3    0    0  0.73097182226E+02 -0.25344637589E+02  0.11830433458E+03  0.14135580740E+03  0.00000000000E+00 0. -1.
        -13    1    4    4    0    0  0.21525696585E+02  0.29370639233E+02  0.10949528402E+03  0.11539153906E+03  0.00000000000E+00 0. -1.
         13    1    4    4    0    0 -0.79468464135E+02  0.55017391586E+02  0.15826793109E+03  0.18544780447E+03  0.00000000000E+00 0.  1.
         -2    1    1    2    0  502 -0.30022690959E+02 -0.10441232011E+02  0.56058014977E+02  0.64442861059E+02  0.00000000000E+00 0.  1.
<scales pt_clust_5="13000.00000" pt_clust_6="13000.00000" pt_clust_7="13000.00000" pt_clust_8="13000.00000" pt_clust_9="31.78650"></scales>
<clustering>
<clus scale="   31.786">  2  9  1 -1</clus>
<clus scale="   81.824">  5  6 -1 -1</clus>
<clus scale="   91.260">  7  8 -1 -1</clus>
<clus scale="  135.542">  1  5  2 -1</clus>
<clus scale="   31.786">  2  5  1 -1</clus>
</clustering>
</event>
<event>
 9    2  0.1302972E-004  0.2622763E+03  0.7546771E-02  0.1118684E+00
         -1   -1    0    0    0  501 -0.00000000000E+00  0.00000000000E+00  0.14772600125E+03  0.14772600125E+03  0.00000000000E+00 0.  1.
         21   -1    0    0  501  502  0.00000000000E+00 -0.00000000000E+00 -0.15668458113E+04  0.15668458113E+04  0.00000000000E+00 0.  1.
         24    2    1    2    0    0  0.30318745637E+02 -0.16857689854E+03 -0.35147254322E+03  0.39909940066E+03  0.80062387647E+02 0.  0.
         23    2    1    2    0    0 -0.25509984631E+03  0.56359548069E+02 -0.68108439059E+02  0.28484292211E+03  0.90798681497E+02 0.  0.
        -11    1    3    3    0    0  0.22342864010E+02 -0.48148949611E+01 -0.25686694180E+02  0.34383034240E+02  0.00000000000E+00 0.  1.
         12    1    3    3    0    0  0.79758816264E+01 -0.16376200358E+03 -0.32578584904E+03  0.36471636642E+03  0.00000000000E+00 0. -1.
        -13    1    4    4    0    0 -0.23267648782E+03  0.28872933545E+02 -0.36411133562E+02  0.23727150044E+03  0.00000000000E+00 0.  1.
         13    1    4    4    0    0 -0.22423358490E+02  0.27486614524E+02 -0.31697305497E+02  0.47571421670E+02  0.00000000000E+00 0. -1.
         -2    1    1    2    0  502  0.22478110067E+03  0.11221735047E+03 -0.99953882782E+03  0.10306294898E+04  0.00000000000E+00 0.  1.
<scales pt_clust_5="13000.00000" pt_clust_6="13000.00000" pt_clust_7="13000.00000" pt_clust_8="13000.00000" pt_clust_9="246.05787"></scales>
<clustering>
<clus scale="   80.062">  5  6 -1 -1</clus>
<clus scale="   90.799">  7  8 -1 -1</clus>
<clus scale="  189.070">  1  5  2 -1</clus>
<clus scale="  246.058">  2  9  1 -1</clus>
<clus scale="  246.058">  2  5  1 -1</clus>
</clustering>
</event>
<event>
 9    2  0.1302972E-004  0.2147625E+03  0.7546771E-02  0.1159570E+00
          2   -1    0    0  502    0 -0.00000000000E+00  0.00000000000E+00  0.58505218677E+03  0.58505218677E+03  0.00000000000E+00 0. -1.
         21   -1    0    0  501  502  0.00000000000E+00 -0.00000000000E+00 -0.13181387250E+03  0.13181387250E+03  0.00000000000E+00 0. -1.
         24    2    1    2    0    0  0.22443603589E+02  0.98028810881E+02  0.79913553597E+02  0.15107232795E+03  0.79519237409E+02 0.  0.
         23    2    1    2    0    0  0.86541229107E+01 -0.23787934415E+03  0.13724080490E+03  0.28964001612E+03  0.91623273180E+02 0.  0.
        -11    1    3    3    0    0  0.42479029501E+02  0.20231927353E+02  0.21416579081E+02  0.51695925287E+02  0.00000000000E+00 0.  1.
         12    1    3    3    0    0 -0.20035425911E+02  0.77796883528E+02  0.58496974516E+02  0.99376402660E+02  0.00000000000E+00 0. -1.
        -11    1    4    4    0    0 -0.26513275469E+02 -0.48292739766E+02  0.61260754222E+02  0.82389456231E+02  0.00000000000E+00 0.  1.
         11    1    4    4    0    0  0.35167398379E+02 -0.18958660439E+03  0.75980050679E+02  0.20725055989E+03  0.00000000000E+00 0. -1.
          1    1    1    2  501    0 -0.31097726500E+02  0.13985053327E+03  0.23608395577E+03  0.27615371521E+03  0.00000000000E+00 0. -1.
<scales pt_clust_5="13000.00000" pt_clust_6="13000.00000" pt_clust_7="13000.00000" pt_clust_8="13000.00000" pt_clust_9="194.23738"></scales>
<clustering>
<clus scale="   79.519">  5  6 -1 -1</clus>
<clus scale="   91.623">  7  8 -1 -1</clus>
<clus scale="  128.206">  1  5  2 -1</clus>
<clus scale="  194.237">  2  9  1 -1</clus>
<clus scale="  194.237">  2  5  1 -1</clus>
</clustering>
</event>
<event>
 9    2  0.1302972E-004  0.9454465E+02  0.7546771E-02  0.1299541E+00
          2   -1    0    0  502    0 -0.00000000000E+00  0.00000000000E+00  0.51805858410E+02  0.51805858410E+02  0.00000000000E+00 0. -1.
         21   -1    0    0  501  502  0.00000000000E+00 -0.00000000000E+00 -0.45466901298E+03  0.45466901298E+03  0.00000000000E+00 0. -1.
         24    2    1    2    0    0  0.33968620747E+01  0.48123858774E+01 -0.20675919226E+02  0.83336955942E+02  0.80516190049E+02 0.  0.
         23    2    1    2    0    0 -0.19415400813E+02 -0.60306456169E+02 -0.17435872298E+03  0.20743238475E+03  0.92808423763E+02 0.  0.
        -11    1    3    3    0    0 -0.65396452204E+01  0.34703412069E+02 -0.34105208059E+02  0.49094388535E+02  0.00000000000E+00 0.  1.
         12    1    3    3    0    0  0.99365072952E+01 -0.29891026192E+02  0.13429288833E+02  0.34242567407E+02  0.00000000000E+00 0. -1.
        -11    1    4    4    0    0  0.23340232225E+02 -0.59530149230E+02 -0.13471797330E+03  0.14912255844E+03  0.00000000000E+00 0. -1.
         11    1    4    4    0    0 -0.42755633038E+02 -0.77630693932E+00 -0.39640749684E+02  0.58309826311E+02  0.00000000000E+00 0.  1.
          1    1    1    2  501    0  0.16018538739E+02  0.55494070292E+02 -0.20782851237E+03  0.21570553070E+03  0.00000000000E+00 0. -1.
<scales pt_clust_5="13000.00000" pt_clust_6="13000.00000" pt_clust_7="13000.00000" pt_clust_8="13000.00000" pt_clust_9="57.75972"></scales>
<clustering>
<clus scale="   57.760">  2  9  1 -1</clus>
<clus scale="   80.516">  5  6 -1 -1</clus>
<clus scale="   82.511">  1  5  2 -1</clus>
<clus scale="   92.808">  7  8 -1 -1</clus>
<clus scale="   57.760">  2  5  1 -1</clus>
</clustering>
</event>
<event>
 9    2  0.1302972E-004  0.2205725E+03  0.7546771E-02  0.1134110E+00
         21   -1    0    0  501  502  0.00000000000E+00  0.00000000000E+00  0.56596612582E+02  0.56596612582E+02  0.00000000000E+00 0.  1.
          2   -1    0    0  502    0 -0.00000000000E+00 -0.00000000000E+00 -0.12570210469E+04  0.12570210469E+04  0.00000000000E+00 0. -1.
         23    2    1    2    0    0 -0.20285216315E+03 -0.38312123072E+02 -0.88409699633E+03  0.91244400417E+03  0.91157791563E+02 0.  0.
         24    2    1    2    0    0  0.17639828252E+03  0.63044689294E+02 -0.23173599644E+03  0.30915615906E+03  0.82370939746E+02 0.  0.
        -11    1    4    4    0    0  0.10669107348E+03  0.43406793547E+02 -0.77686521534E+02  0.13893282734E+03  0.00000000000E+00 0.  1.
         12    1    4    4    0    0  0.69707209046E+02  0.19637895747E+02 -0.15404947491E+03  0.17022333172E+03  0.00000000000E+00 0. -1.
        -11    1    3    3    0    0 -0.91505948288E+02 -0.47871068767E+02 -0.28786308022E+03  0.30582696210E+03  0.00000000000E+00 0.  1.
         11    1    3    3    0    0 -0.11134621486E+03  0.95589456948E+01 -0.59623391611E+03  0.60661704207E+03  0.00000000000E+00 0. -1.
          1    1    1    2  501    0  0.26453880629E+02 -0.24732566222E+02 -0.84591441527E+02  0.92017496227E+02  0.00000000000E+00 0. -1.
<scales pt_clust_5="13000.00000" pt_clust_6="13000.00000" pt_clust_7="13000.00000" pt_clust_8="13000.00000" pt_clust_9="36.21476"></scales>
<clustering>
<clus scale="   36.215">  1  9  2 -1</clus>
<clus scale="   82.371">  5  6 -1 -1</clus>
<clus scale="   91.158">  7  8 -1 -1</clus>
<clus scale="  217.089">  1  5  2 -1</clus>
<clus scale="   36.215">  1  5  2 -1</clus>
</clustering>
</event>
<event>
 9    2  0.1302972E-004  0.1346369E+03  0.7546771E-02  0.1221798E+00
         21   -1    0    0  501  502  0.00000000000E+00  0.00000000000E+00  0.30214669037E+03  0.30214669037E+03  0.00000000000E+00 0.  1.
          2   -1    0    0  502    0 -0.00000000000E+00 -0.00000000000E+00 -0.71032742859E+02  0.71032742859E+02  0.00000000000E+00 0. -1.
         23    2    1    2    0    0 -0.88189840503E+02  0.14812103034E+02  0.90613522634E+02  0.15649657649E+03  0.91013853907E+02 0.  0.
         24    2    1    2    0    0  0.11055177675E+03 -0.89352265788E+01  0.11103274162E+03  0.17922703976E+03  0.86559392627E+02 0.  0.
        -11    1    4    4    0    0  0.12493573819E+02 -0.15803361999E+02  0.69768603661E+02  0.72618824653E+02  0.00000000000E+00 0.  1.
         12    1    4    4    0    0  0.98058202933E+02  0.68681354202E+01  0.41264137963E+02  0.10660821511E+03  0.00000000000E+00 0. -1.
        -13    1    3    3    0    0 -0.59374638723E+02  0.16570186081E+02  0.10686369121E+03  0.12336842096E+03  0.00000000000E+00 0.  1.
         13    1    3    3    0    0 -0.28815201780E+02 -0.17580830471E+01 -0.16250168580E+02  0.33128155525E+02  0.00000000000E+00 0. -1.
          1    1    1    2  501    0 -0.22361936248E+02 -0.58768764553E+01  0.29467683258E+02  0.37455816988E+02  0.00000000000E+00 0. -1.
<scales pt_clust_5="13000.00000" pt_clust_6="13000.00000" pt_clust_7="13000.00000" pt_clust_8="13000.00000" pt_clust_9="23.12129"></scales>
<clustering>
<clus scale="   23.121">  1  9  2 -1</clus>
<clus scale="   86.559">  5  6 -1 -1</clus>
<clus scale="   91.014">  7  8 -1 -1</clus>
<clus scale="  131.667">  1  5  2 -1</clus>
<clus scale="   23.121">  1  5  2 -1</clus>
</clustering>
</event>
<event>
 9    2  0.1302972E-004  0.2206987E+03  0.7546771E-02  0.1134015E+00
         21   -1    0    0  501  502  0.00000000000E+00  0.00000000000E+00  0.48270416675E+02  0.48270416675E+02  0.00000000000E+00 0.  1.
          2   -1    0    0  502    0 -0.00000000000E+00 -0.00000000000E+00 -0.15304398784E+04  0.15304398784E+04  0.00000000000E+00 0. -1.
         24    2    1    2    0    0  0.17554938335E+03  0.12741201328E+03 -0.86055179656E+03  0.89116945395E+03  0.81130721508E+02 0.  0.
         23    2    1    2    0    0 -0.18241899400E+03 -0.69741932372E+02 -0.57993429005E+03  0.61605284534E+03  0.71110484221E+02 0.  0.
        -11    1    3    3    0    0  0.76637426673E+02  0.10528225929E+03 -0.47969919558E+03  0.49706032585E+03  0.00000000000E+00 0.  1.
         12    1    3    3    0    0  0.98911956674E+02  0.22129753993E+02 -0.38085260098E+03  0.39410912810E+03  0.00000000000E+00 0. -1.
        -11    1    4    4    0    0 -0.20675599781E+02 -0.31723379983E+02 -0.16054331867E+03  0.16494850843E+03  0.00000000000E+00 0. -1.
         11    1    4    4    0    0 -0.16174339421E+03 -0.38018552390E+02 -0.41939097139E+03  0.45110433691E+03  0.00000000000E+00 0.  1.
          1    1    1    2  501    0  0.68696106482E+01 -0.57670080908E+02 -0.41683375139E+02  0.71487995814E+02  0.00000000000E+00 0. -1.
<scales pt_clust_5="13000.00000" pt_clust_6="13000.00000" pt_clust_7="13000.00000" pt_clust_8="13000.00000" pt_clust_9="58.07779"></scales>
<clustering>
<clus scale="   58.078">  1  9  2 -1</clus>
<clus scale="   71.110">  7  8 -1 -1</clus>
<clus scale="   81.131">  5  6 -1 -1</clus>
<clus scale="  217.215">  1  7  2 -1</clus>
<clus scale="   58.078">  1  5  2 -1</clus>
</clustering>
</event>
<event>
 9    2  0.1302972E-004  0.1409933E+03  0.7546771E-02  0.1233508E+00
          2   -1    0    0  502    0 -0.00000000000E+00  0.00000000000E+00  0.10466514608E+04  0.10466514608E+04  0.00000000000E+00 0. -1.
         21   -1    0    0  501  502  0.00000000000E+00 -0.00000000000E+00 -0.32199851462E+02  0.32199851462E+02  0.00000000000E+00 0.  1.
         23    2    1    2    0    0 -0.31244192183E+02  0.16388422842E+02  0.16446588004E+03  0.18745124191E+03  0.82729453339E+02 0.  0.
         24    2    1    2    0    0 -0.72951755774E+02  0.53242888633E+02  0.59314656614E+03  0.60561751167E+03  0.82419401017E+02 0.  0.
        -13    1    4    4    0    0 -0.88432081063E+02  0.57876383957E+02  0.49585548729E+03  0.50699366175E+03  0.00000000000E+00 0.  1.
         14    1    4    4    0    0  0.15480325289E+02 -0.46334953245E+01  0.97291078846E+02  0.98623849920E+02  0.00000000000E+00 0. -1.
        -13    1    3    3    0    0 -0.55798313732E+02 -0.42450229786E+01  0.85104100231E+02  0.10185371820E+03  0.00000000000E+00 0.  1.
         13    1    3    3    0    0  0.24554121549E+02  0.20633445821E+02  0.79361779808E+02  0.85597523713E+02  0.00000000000E+00 0. -1.
          1    1    1    2  501    0  0.10419594796E+03 -0.69631311475E+02  0.25683916316E+03  0.28578255867E+03  0.00000000000E+00 0. -1.
<scales pt_clust_5="13000.00000" pt_clust_6="13000.00000" pt_clust_7="13000.00000" pt_clust_8="13000.00000" pt_clust_9="114.39470"></scales>
<clustering>
<clus scale="   82.419">  5  6 -1 -1</clus>
<clus scale="   82.729">  7  8 -1 -1</clus>
<clus scale="   89.939">  1  7  2 -1</clus>
<clus scale="  114.395">  2  9  1 -1</clus>
<clus scale="  114.395">  2  5  1 -1</clus>
</clustering>
</event>
<event>
 9    2  0.1302972E-004  0.1128935E+03  0.7546771E-02  0.1258085E+00
          2   -1    0    0  502    0 -0.00000000000E+00  0.00000000000E+00  0.66479003297E+03  0.66479003297E+03  0.00000000000E+00 0. -1.
         21   -1    0    0  501  502  0.00000000000E+00 -0.00000000000E+00 -0.41895315016E+02  0.41895315016E+02  0.00000000000E+00 0. -1.
         24    2    1    2    0    0  0.25836855218E+02 -0.44695143001E+02  0.25661089478E+03  0.27452759188E+03  0.82771060700E+02 0.  0.
         23    2    1    2    0    0 -0.43143275880E+01  0.11839009905E+03  0.20413832026E+03  0.25275505307E+03  0.90431377725E+02 0.  0.
        -13    1    3    3    0    0 -0.28688924628E+02 -0.22518805340E+02  0.12784460254E+03  0.13294507658E+03  0.00000000000E+00 0.  1.
         14    1    3    3    0    0  0.54525779847E+02 -0.22176337661E+02  0.12876629224E+03  0.14158251529E+03  0.00000000000E+00 0. -1.
        -11    1    4    4    0    0 -0.13812603632E+01  0.90956333441E+02  0.67281516551E+02  0.11314488474E+03  0.00000000000E+00 0. -1.
         11    1    4    4    0    0 -0.29330672249E+01  0.27433765604E+02  0.13685680371E+03  0.13961016833E+03  0.00000000000E+00 0.  1.
          1    1    1    2  501    0 -0.21522527630E+02 -0.73694956044E+02  0.16214550292E+03  0.17940270304E+03  0.00000000000E+00 0. -1.
<scales pt_clust_5="13000.00000" pt_clust_6="13000.00000" pt_clust_7="13000.00000" pt_clust_8="13000.00000" pt_clust_9="76.77351"></scales>
<clustering>
<clus scale="   76.774">  2  9  1 -1</clus>
<clus scale="   82.771">  5  6 -1 -1</clus>
<clus scale="   90.431">  7  8 -1 -1</clus>
<clus scale="  106.856">  1  5  2 -1</clus>
<clus scale="   76.774">  2  5  1 -1</clus>
</clustering>
</event>
<event>
 9    2  0.1302972E-004  0.2209080E+03  0.7546771E-02  0.1150780E+00
          2   -1    0    0  502    0 -0.00000000000E+00  0.00000000000E+00  0.70688940045E+03  0.70688940045E+03  0.00000000000E+00 0. -1.
         21   -1    0    0  501  502  0.00000000000E+00 -0.00000000000E+00 -0.15274508347E+03  0.15274508347E+03  0.00000000000E+00 0. -1.
         24    2    1    2    0    0  0.97621292453E+02 -0.71784753789E+02  0.29561777188E+03  0.32917822545E+03  0.79280952606E+02 0.  0.
         23    2    1    2    0    0  0.64585899187E+02 -0.14925353719E+03  0.78417618076E+02  0.20241918024E+03  0.91521827831E+02 0.  0.
        -13    1    3    3    0    0  0.93734514047E+02 -0.27580168806E+02  0.23075383374E+03  0.25058762264E+03  0.00000000000E+00 0.  1.
         14    1    3    3    0    0  0.38867784069E+01 -0.44204584983E+02  0.64863938141E+02  0.78590602816E+02  0.00000000000E+00 0. -1.
        -11    1    4    4    0    0  0.76147597386E+02 -0.10711325161E+03  0.25640337343E+02  0.13389970932E+03  0.00000000000E+00 0. -1.
         11    1    4    4    0    0 -0.11561698199E+02 -0.42140285583E+02  0.52777280733E+02  0.68519470924E+02  0.00000000000E+00 0.  1.
          1    1    1    2  501    0 -0.16220719164E+03  0.22103829098E+03  0.18010892703E+03  0.32803707823E+03  0.00000000000E+00 0. -1.
<scales pt_clust_5="13000.00000" pt_clust_6="13000.00000" pt_clust_7="13000.00000" pt_clust_8="13000.00000" pt_clust_9="201.05753"></scales>
<clustering>
<clus scale="   79.281">  5  6 -1 -1</clus>
<clus scale="   91.522">  7  8 -1 -1</clus>
<clus scale="  144.805">  1  5  2 -1</clus>
<clus scale="  201.058">  2  9  1 -1</clus>
<clus scale="  201.058">  2  5  1 -1</clus>
</clustering>
</event>
<event>
 9    2  0.1302972E-004  0.1370475E+03  0.7546771E-02  0.1219192E+00
         21   -1    0    0  501  502  0.00000000000E+00  0.00000000000E+00  0.87397961252E+02  0.87397961252E+02  0.00000000000E+00 0.  1.
          2   -1    0    0  502    0 -0.00000000000E+00 -0.00000000000E+00 -0.35769510249E+03  0.35769510249E+03  0.00000000000E+00 0. -1.
         23    2    1    2    0    0  0.17379724564E+02  0.12181438566E+03 -0.22943948597E+03  0.27521057198E+03  0.89205279140E+02 0.  0.
         24    2    1    2    0    0  0.23734618932E+01 -0.67029755357E+02 -0.15258886326E+02  0.10626770525E+03  0.81002284793E+02 0.  0.
        -13    1    4    4    0    0  0.12818770971E+02 -0.70612996254E+02  0.15642860614E+02  0.73452128746E+02  0.00000000000E+00 0.  1.
         14    1    4    4    0    0 -0.10445309078E+02  0.35832408967E+01 -0.30901746940E+02  0.32815576500E+02  0.00000000000E+00 0. -1.
        -13    1    3    3    0    0  0.40788229743E+02  0.32107887588E+02 -0.44659393421E+02  0.68476693493E+02  0.00000000000E+00 0.  1.
         13    1    3    3    0    0 -0.23408505179E+02  0.89706498072E+02 -0.18478009255E+03  0.20673387848E+03  0.00000000000E+00 0. -1.
          1    1    1    2  501    0 -0.19753186458E+02 -0.54784630303E+02 -0.25598768944E+02  0.63614786521E+02  0.00000000000E+00 0. -1.
<scales pt_clust_5="13000.00000" pt_clust_6="13000.00000" pt_clust_7="13000.00000" pt_clust_8="13000.00000" pt_clust_9="58.23697"></scales>
<clustering>
<clus scale="   58.237">  1  9  2 -1</clus>
<clus scale="   81.002">  5  6 -1 -1</clus>
<clus scale="   89.205">  7  8 -1 -1</clus>
<clus scale="  131.855">  1  5  2 -1</clus>
<clus scale="   58.237">  1  5  2 -1</clus>
</clustering>
</event>
<event>
 9    2  0.1302972E-004  0.1952580E+03  0.7546771E-02  0.1154926E+00
          4   -1    0    0  502    0 -0.00000000000E+00  0.00000000000E+00  0.12830568099E+04  0.12830568099E+04  0.00000000000E+00 0. -1.
         21   -1    0    0  501  502  0.00000000000E+00 -0.00000000000E+00 -0.41516727527E+02  0.41516727527E+02  0.00000000000E+00 0.  1.
         23    2    1    2    0    0  0.12977267357E+03 -0.12625691659E+03  0.74242295889E+03  0.76973329044E+03  0.92280727791E+02 0.  0.
         24    2    1    2    0    0 -0.10013836512E+03  0.11816106387E+03  0.25707492188E+03  0.31085630813E+03  0.80959246900E+02 0.  0.
        -13    1    4    4    0    0 -0.61269885223E+02  0.12026835160E+03  0.21175006747E+03  0.25111066545E+03  0.00000000000E+00 0.  1.
         14    1    4    4    0    0 -0.38868479896E+02 -0.21072877294E+01  0.45324854414E+02  0.59745642675E+02  0.00000000000E+00 0. -1.
        -13    1    3    3    0    0  0.94696906975E+02 -0.27866893648E+02  0.36929980006E+03  0.38226484311E+03  0.00000000000E+00 0.  1.
         13    1    3    3    0    0  0.35075766596E+02 -0.98390022947E+02  0.37312315883E+03  0.38746844733E+03  0.00000000000E+00 0. -1.
          3    1    1    2  501    0 -0.29634308453E+02  0.80958527280E+01  0.24204220161E+03  0.24398393888E+03  0.00000000000E+00 0. -1.
<scales pt_clust_5="13000.00000" pt_clust_6="13000.00000" pt_clust_7="13000.00000" pt_clust_8="13000.00000" pt_clust_9="30.72029"></scales>
<clustering>
<clus scale="   30.720">  2  9  1 -1</clus>
<clus scale="   80.959">  5  6 -1 -1</clus>
<clus scale="   92.281">  7  8 -1 -1</clus>
<clus scale="  190.169">  2  5  1 -1</clus>
<clus scale="   30.720">  2  5  1 -1</clus>
</clustering>
</event>
<event>
 9    2  0.1302972E-004  0.1263418E+03  0.7546771E-02  0.1254431E+00
          2   -1    0    0  502    0 -0.00000000000E+00  0.00000000000E+00  0.47931256832E+03  0.47931256832E+03  0.00000000000E+00 0. -1.
         21   -1    0    0  501  502  0.00000000000E+00 -0.00000000000E+00 -0.48555046432E+03  0.48555046432E+03  0.00000000000E+00 0. -1.
         24    2    1    2    0    0  0.11656526736E+02 -0.93788379472E+01  0.20103192151E+03  0.21709346006E+03  0.80572326005E+02 0.  0.
         23    2    1    2    0    0 -0.59506863099E+02  0.78375865082E+02  0.24900134579E+03  0.28383679845E+03  0.94222157517E+02 0.  0.
        -11    1    3    3    0    0  0.34356702771E+02 -0.23125512555E+02  0.55982240841E+02  0.69636080058E+02  0.00000000000E+00 0.  1.
         12    1    3    3    0    0 -0.22700176036E+02  0.13746674608E+02  0.14504968067E+03  0.14745738000E+03  0.00000000000E+00 0. -1.
        -11    1    4    4    0    0 -0.79874265697E+02  0.49828493147E+02  0.21624865016E+03  0.23585219046E+03  0.00000000000E+00 0. -1.
         11    1    4    4    0    0  0.20367402598E+02  0.28547371935E+02  0.32752695634E+02  0.47984607993E+02  0.00000000000E+00 0.  1.
          1    1    1    2  501    0  0.47850336364E+02 -0.68997027135E+02 -0.45627116330E+03  0.46393277412E+03  0.00000000000E+00 0. -1.
<scales pt_clust_5="13000.00000" pt_clust_6="13000.00000" pt_clust_7="13000.00000" pt_clust_8="13000.00000" pt_clust_9="84.16916"></scales>
<clustering>
<clus scale="   80.572">  5  6 -1 -1</clus>
<clus scale="   81.950">  1  5  2 -1</clus>
<clus scale="   84.169">  2  9  1 -1</clus>
<clus scale="   94.222">  7  8 -1 -1</clus>
<clus scale="   84.169">  2  5  1 -1</clus>
</clustering>
</event>
<event>
 9    2  0.1302972E-004  0.2006944E+03  0.7546771E-02  0.1150627E+00
         21   -1    0    0  501  502  0.00000000000E+00  0.00000000000E+00  0.36589662023E+03  0.36589662023E+03  0.00000000000E+00 0. -1.
          2   -1    0    0  502    0 -0.00000000000E+00 -0.00000000000E+00 -0.38060874218E+03  0.38060874218E+03  0.00000000000E+00 0. -1.
         24    2    1    2    0    0 -0.18247992820E+03 -0.66842713522E+02 -0.85478889835E+02  0.22561597342E+03  0.76348243631E+02 0.  0.
         23    2    1    2    0    0  0.10338524295E+03  0.42427762208E+02  0.26925740394E+03  0.30582988169E+03  0.92432372562E+02 0.  0.
        -13    1    3    3    0    0 -0.87445757544E+02 -0.54290667594E+01 -0.69595617487E+01  0.87890106258E+02  0.00000000000E+00 0.  1.
         14    1    3    3    0    0 -0.95034170657E+02 -0.61413646763E+02 -0.78519328086E+02  0.13772586716E+03  0.00000000000E+00 0. -1.
        -11    1    4    4    0    0 -0.28334464138E+01  0.20607053483E+02  0.68497463995E+01  0.21899728254E+02  0.00000000000E+00 0.  1.
         11    1    4    4    0    0  0.10621868936E+03  0.21820708724E+02  0.26240765754E+03  0.28393015344E+03  0.00000000000E+00 0. -1.
          1    1    1    2  501    0  0.79094685256E+02  0.24414951314E+02 -0.19849063605E+03  0.21505950730E+03  0.00000000000E+00 0. -1.
<scales pt_clust_5="13000.00000" pt_clust_6="13000.00000" pt_clust_7="13000.00000" pt_clust_8="13000.00000" pt_clust_9="82.77721"></scales>
<clustering>
<clus scale="   76.348">  5  6 -1 -1</clus>
<clus scale="   82.777">  1  9  2 -1</clus>
<clus scale="   92.432">  7  8 -1 -1</clus>
<clus scale="  193.813">  2  5  1 -1</clus>
<clus scale="   82.777">  1  5  2 -1</clus>
</clustering>
</event>
<event>
 9    2  0.1302972E-004  0.1760713E+03  0.7546771E-02  0.1172067E+00
          2   -1    0    0  502    0 -0.00000000000E+00  0.00000000000E+00  0.38619210902E+03  0.38619210902E+03  0.00000000000E+00 0. -1.
         21   -1    0    0  501  502  0.00000000000E+00 -0.00000000000E+00 -0.12887444631E+03  0.12887444631E+03  0.00000000000E+00 0. -1.
         23    2    1    2    0    0  0.11056475780E+03 -0.12422280885E+03  0.19015819239E+03  0.26774015783E+03  0.88706155791E+02 0.  0.
         24    2    1    2    0    0 -0.44067369477E+02  0.13273842726E+03  0.74218923998E+02  0.17991531313E+03  0.85437978052E+02 0.  0.
        -11    1    4    4    0    0 -0.34452140227E+02  0.10029455132E+03  0.89847483541E+01  0.10642684198E+03  0.00000000000E+00 0.  1.
         12    1    4    4    0    0 -0.96152292503E+01  0.32443875941E+02  0.65234175643E+02  0.73488471147E+02  0.00000000000E+00 0. -1.
        -13    1    3    3    0    0  0.90147097387E+02 -0.89396318519E+02  0.18858664906E+03  0.22733922921E+03  0.00000000000E+00 0.  1.
         13    1    3    3    0    0  0.20417660411E+02 -0.34826490328E+02  0.15715433341E+01  0.40400928624E+02  0.00000000000E+00 0. -1.
          1    1    1    2  501    0 -0.66497388320E+02 -0.85156184155E+01 -0.70594536767E+01  0.67411084375E+02  0.00000000000E+00 0. -1.
<scales pt_clust_5="13000.00000" pt_clust_6="13000.00000" pt_clust_7="13000.00000" pt_clust_8="13000.00000" pt_clust_9="67.04042"></scales>
<clustering>
<clus scale="   67.040">  2  9  1 -1</clus>
<clus scale="   85.438">  5  6 -1 -1</clus>
<clus scale="   88.706">  7  8 -1 -1</clus>
<clus scale="  174.448">  2  5  1 -1</clus>
<clus scale="   67.040">  2  5  1 -1</clus>
</clustering>
</event>
<event>
 9    2  0.1302972E-004  0.9887710E+02  0.7546771E-02  0.1289997E+00
         21   -1    0    0  501  502  0.00000000000E+00  0.00000000000E+00  0.12161354047E+03  0.12161354047E+03  0.00000000000E+00 0.  1.
          2   -1    0    0  502    0 -0.00000000000E+00 -0.00000000000E+00 -0.11359513731E+03  0.11359513731E+03  0.00000000000E+00 0. -1.
         24    2    1    2    0    0 -0.36591419304E+01  0.45937317829E+02 -0.62984930386E+01  0.90954076529E+02  0.78162308908E+02 0.  0.
         23    2    1    2    0    0 -0.20266643111E+02 -0.19219379392E+02  0.35614284315E+02  0.10254285033E+03  0.92013789943E+02 0.  0.
        -13    1    3    3    0    0 -0.40605423486E+02  0.22818629429E+02  0.18549195516E+01  0.46614707894E+02  0.00000000000E+00 0.  1.
         14    1    3    3    0    0  0.36946281556E+02  0.23118688400E+02 -0.81534125903E+01  0.44339368635E+02  0.00000000000E+00 0. -1.
        -13    1    4    4    0    0 -0.29514638665E+02  0.32272008818E+02  0.18673011443E+02  0.47552894812E+02  0.00000000000E+00 0.  1.
         13    1    4    4    0    0  0.92479955545E+01 -0.51491388210E+02  0.16941272873E+02  0.54989955520E+02  0.00000000000E+00 0. -1.
          1    1    1    2  501    0  0.23925785041E+02 -0.26717938437E+02 -0.21297388114E+02  0.41711750918E+02  0.00000000000E+00 0. -1.
<scales pt_clust_5="13000.00000" pt_clust_6="13000.00000" pt_clust_7="13000.00000" pt_clust_8="13000.00000" pt_clust_9="35.86492"></scales>
<clustering>
<clus scale="   35.865">  1  9  2 -1</clus>
<clus scale="   78.162">  5  6 -1 -1</clus>
<clus scale="   86.136">  2  5  1 -1</clus>
<clus scale="   92.014">  7  8 -1 -1</clus>
<clus scale="   35.865">  1  5  2 -1</clus>
</clustering>
</event>
<event>
 9    2  0.1302972E-004  0.1018193E+03  0.7546771E-02  0.1278864E+00
         21   -1    0    0  501  502  0.00000000000E+00  0.00000000000E+00  0.13040775458E+03  0.13040775458E+03  0.00000000000E+00 0.  1.
          4   -1    0    0  502    0 -0.00000000000E+00 -0.00000000000E+00 -0.13348793816E+03  0.13348793816E+03  0.00000000000E+00 0. -1.
         23    2    1    2    0    0 -0.53789609734E+02 -0.38300657245E+00 -0.48689337298E+02  0.11317742542E+03  0.86862012694E+02 0.  0.
         24    2    1    2    0    0  0.47992467572E+02  0.34935016483E+02  0.54362135217E+02  0.11460645581E+03  0.81582263066E+02 0.  0.
        -11    1    4    4    0    0  0.29827984646E+02  0.49807323393E+02  0.66418756020E+02  0.88215244050E+02  0.00000000000E+00 0.  1.
         12    1    4    4    0    0  0.18164482926E+02 -0.14872306909E+02 -0.12056620804E+02  0.26391211756E+02  0.00000000000E+00 0. -1.
        -13    1    3    3    0    0 -0.47869036993E+02 -0.21400707905E+02 -0.66720624349E+02  0.84859158109E+02  0.00000000000E+00 0. -1.
         13    1    3    3    0    0 -0.59205727411E+01  0.21017701333E+02  0.18031287051E+02  0.28318267313E+02  0.00000000000E+00 0.  1.
          3    1    1    2  501    0  0.57971421620E+01 -0.34552009911E+02 -0.87529814994E+01  0.36111811520E+02  0.00000000000E+00 0. -1.
<scales pt_clust_5="13000.00000" pt_clust_6="13000.00000" pt_clust_7="13000.00000" pt_clust_8="13000.00000" pt_clust_9="35.03498"></scales>
<clustering>
<clus scale="   35.035">  1  9  2 -1</clus>
<clus scale="   81.582">  5  6 -1 -1</clus>
<clus scale="   86.862">  7  8 -1 -1</clus>
<clus scale="   97.354">  1  5  2 -1</clus>
<clus scale="   35.035">  1  5  2 -1</clus>
</clustering>
</event>
<event>
 9    2  0.1302972E-004  0.1045946E+03  0.7546771E-02  0.1282530E+00
          4   -1    0    0  502    0 -0.00000000000E+00  0.00000000000E+00  0.57373634067E+02  0.57373634067E+02  0.00000000000E+00 0. -1.
         21   -1    0    0  501  502  0.00000000000E+00 -0.00000000000E+00 -0.38341526676E+03  0.38341526676E+03  0.00000000000E+00 0. -1.
         24    2    1    2    0    0 -0.21597365667E+02 -0.26122216110E+02 -0.15812972954E+02  0.88236637131E+02  0.79917692911E+02 0.  0.
         23    2    1    2    0    0  0.19129711253E+02 -0.26303679206E+02 -0.15064833817E+03  0.18456285079E+03  0.10154159101E+03 0.  0.
        -11    1    3    3    0    0 -0.27584079541E+01  0.27599293730E+02  0.38604668576E+01  0.28004160997E+02  0.00000000000E+00 0.  1.
         12    1    3    3    0    0 -0.18838957713E+02 -0.53721509840E+02 -0.19673439812E+02  0.60232476133E+02  0.00000000000E+00 0. -1.
        -13    1    4    4    0    0 -0.21743186472E+02 -0.25063439716E+02 -0.53362867727E+01  0.33606816643E+02  0.00000000000E+00 0. -1.
         13    1    4    4    0    0  0.40872897725E+02 -0.12402394896E+01 -0.14531205140E+03  0.15095603414E+03  0.00000000000E+00 0.  1.
          3    1    1    2  501    0  0.24676544139E+01  0.52425895316E+02 -0.15958032157E+03  0.16798941291E+03  0.00000000000E+00 0. -1.
<scales pt_clust_5="13000.00000" pt_clust_6="13000.00000" pt_clust_7="13000.00000" pt_clust_8="13000.00000" pt_clust_9="52.48394"></scales>
<clustering>
<clus scale="   52.484">  2  9  1 -1</clus>
<clus scale="   79.918">  5  6 -1 -1</clus>
<clus scale="   83.763">  1  5  2 -1</clus>
<clus scale="  101.542">  7  8 -1 -1</clus>
<clus scale="   52.484">  2  5  1 -1</clus>
</clustering>
</event>
<event>
 9    2  0.1302972E-004  0.9426435E+02  0.7546771E-02  0.1298191E+00
          2   -1    0    0  502    0 -0.00000000000E+00  0.00000000000E+00  0.54134434538E+03  0.54134434538E+03  0.00000000000E+00 0. -1.
         21   -1    0    0  501  502  0.00000000000E+00 -0.00000000000E+00 -0.30302908315E+02  0.30302908315E+02  0.00000000000E+00 0. -1.
         24    2    1    2    0    0 -0.17491745465E+02 -0.20799755975E+02  0.29391231227E+03  0.30588109113E+03  0.80250879115E+02 0.  0.
         23    2    1    2    0    0  0.34518997930E+02  0.95035390124E+01  0.22422886963E+03  0.24413428283E+03  0.89672089334E+02 0.  0.
        -11    1    3    3    0    0  0.17504008906E+02 -0.23080122163E+02  0.39069263982E+02  0.48636300795E+02  0.00000000000E+00 0.  1.
         12    1    3    3    0    0 -0.34995754371E+02  0.22803661883E+01  0.25484304829E+03  0.25724479034E+03  0.00000000000E+00 0. -1.
        -13    1    4    4    0    0  0.28000930351E+01 -0.28522434330E+02  0.22556154041E+02  0.36471219698E+02  0.00000000000E+00 0.  1.
         13    1    4    4    0    0  0.31718904895E+02  0.38025973342E+02  0.20167271559E+03  0.20766306313E+03  0.00000000000E+00 0. -1.
          1    1    1    2  501    0 -0.17027252465E+02  0.11296216962E+02 -0.70997448347E+01  0.21631879736E+02  0.00000000000E+00 0. -1.
<scales pt_clust_5="13000.00000" pt_clust_6="13000.00000" pt_clust_7="13000.00000" pt_clust_8="13000.00000" pt_clust_9="20.43360"></scales>
<clustering>
<clus scale="   20.434">  2  9  1 -1</clus>
<clus scale="   80.251">  5  6 -1 -1</clus>
<clus scale="   85.352">  1  5  2 -1</clus>
<clus scale="   89.672">  7  8 -1 -1</clus>
<clus scale="   20.434">  2  5  1 -1</clus>
</clustering>
</event>
<event>
 9    2  0.1302972E-004  0.1209691E+03  0.7546771E-02  0.1244907E+00
          2   -1    0    0  502    0 -0.00000000000E+00  0.00000000000E+00  0.11758183008E+03  0.11758183008E+03  0.00000000000E+00 0. -1.
         21   -1    0    0  501  502  0.00000000000E+00 -0.00000000000E+00 -0.23235276167E+03  0.23235276167E+03  0.00000000000E+00 0. -1.
         23    2    1    2    0    0  0.86678896511E+00  0.10883072376E+03 -0.16853267731E+02  0.14291759384E+03  0.91085280028E+02 0.  0.
         24    2    1    2    0    0  0.45300793492E+02 -0.42070478103E+02 -0.56259326691E+02  0.11578217382E+03  0.80114373960E+02 0.  0.
        -13    1    4    4    0    0  0.39518542902E+02 -0.60283626194E+02 -0.20015550552E+02  0.74809445153E+02  0.00000000000E+00 0.  1.
         14    1    4    4    0    0  0.57822505894E+01  0.18213148090E+02 -0.36243776139E+02  0.40972728663E+02  0.00000000000E+00 0. -1.
        -13    1    3    3    0    0 -0.38804477766E+02  0.43904326578E+02 -0.29799002117E+02  0.65737036092E+02  0.00000000000E+00 0.  1.
         13    1    3    3    0    0  0.39671266731E+02  0.64926397186E+02  0.12945734386E+02  0.77180557749E+02  0.00000000000E+00 0. -1.
          1    1    1    2  501    0 -0.46167582457E+02 -0.66760245661E+02 -0.41658337170E+02  0.91234824088E+02  0.00000000000E+00 0. -1.
<scales pt_clust_5="13000.00000" pt_clust_6="13000.00000" pt_clust_7="13000.00000" pt_clust_8="13000.00000" pt_clust_9="81.16881"></scales>
<clustering>
<clus scale="   80.114">  5  6 -1 -1</clus>
<clus scale="   81.169">  2  9  1 -1</clus>
<clus scale="   91.085">  7  8 -1 -1</clus>
<clus scale="  112.939">  2  5  1 -1</clus>
<clus scale="   81.169">  2  5  1 -1</clus>
</clustering>
</event>
<event>
 9    2  0.1302972E-004  0.2043048E+03  0.7546771E-02  0.1147126E+00
          2   -1    0    0  502    0 -0.00000000000E+00  0.00000000000E+00  0.16913341131E+04  0.16913341131E+04  0.00000000000E+00 0. -1.
         21   -1    0    0  501  502  0.00000000000E+00 -0.00000000000E+00 -0.31242065917E+02  0.31242065917E+02  0.00000000000E+00 0. -1.
         23    2    1    2    0    0 -0.10494114679E+03 -0.17625996880E+03  0.90955867787E+03  0.93693617860E+03  0.92044518574E+02 0.  0.
         24    2    1    2    0    0  0.60861270698E+02  0.14808273612E+03  0.56084791117E+03  0.58887220592E+03  0.81163442718E+02 0.  0.
        -11    1    4    4    0    0 -0.21917280444E+01  0.93255270155E+02  0.34583415855E+03  0.35819354308E+03  0.00000000000E+00 0.  1.
         12    1    4    4    0    0  0.63052998742E+02  0.54827465966E+02  0.21501375262E+03  0.23067866284E+03  0.00000000000E+00 0. -1.
        -11    1    3    3    0    0 -0.36702548533E+02 -0.80805872569E+02  0.21600641108E+03  0.23352823328E+03  0.00000000000E+00 0. -1.
         11    1    3    3    0    0 -0.68238598257E+02 -0.95454096232E+02  0.69355226679E+03  0.70340794532E+03  0.00000000000E+00 0.  1.
          1    1    1    2  501    0  0.44079876093E+02  0.28177232681E+02  0.18968545813E+03  0.19676779447E+03  0.00000000000E+00 0. -1.
<scales pt_clust_5="13000.00000" pt_clust_6="13000.00000" pt_clust_7="13000.00000" pt_clust_8="13000.00000" pt_clust_9="52.31629"></scales>
<clustering>
<clus scale="   52.316">  2  9  1 -1</clus>
<clus scale="   81.163">  5  6 -1 -1</clus>
<clus scale="   92.045">  7  8 -1 -1</clus>
<clus scale="  199.639">  2  5  1 -1</clus>
<clus scale="   52.316">  2  5  1 -1</clus>
</clustering>
</event>
<event>
 9    2  0.1302972E-004  0.1726995E+03  0.7546771E-02  0.1176239E+00
          2   -1    0    0  502    0 -0.00000000000E+00  0.00000000000E+00  0.27446918494E+03  0.27446918494E+03  0.00000000000E+00 0. -1.
         21   -1    0    0  501  502  0.00000000000E+00 -0.00000000000E+00 -0.15459105877E+03  0.15459105877E+03  0.00000000000E+00 0.  1.
         24    2    1    2    0    0 -0.14173903706E+03 -0.48937262096E+02  0.16414575063E+03  0.24280556790E+03  0.97600748473E+02 0.  0.
         23    2    1    2    0    0  0.11865621695E+03  0.39501626224E+02 -0.27279223346E+02  0.15608095246E+03  0.89316467678E+02 0.  0.
        -11    1    3    3    0    0 -0.54655433348E+02 -0.42026991956E+01  0.38174910862E+01  0.54949543339E+02  0.00000000000E+00 0.  1.
         12    1    3    3    0    0 -0.87083603714E+02 -0.44734562900E+02  0.16032825954E+03  0.18785602456E+03  0.00000000000E+00 0. -1.
        -13    1    4    4    0    0  0.21837978429E+02 -0.27839620054E+02 -0.18207725619E+01  0.35429605690E+02  0.00000000000E+00 0. -1.
         13    1    4    4    0    0  0.96818238525E+02  0.67341246278E+02 -0.25458450784E+02  0.12065134677E+03  0.00000000000E+00 0.  1.
          1    1    1    2  501    0  0.23082820108E+02  0.94356358715E+01 -0.16988401121E+02  0.30173723355E+02  0.00000000000E+00 0. -1.
<scales pt_clust_5="13000.00000" pt_clust_6="13000.00000" pt_clust_7="13000.00000" pt_clust_8="13000.00000" pt_clust_9="24.93688"></scales>
<clustering>
<clus scale="   24.937">  2  9  1 -1</clus>
<clus scale="   89.316">  7  8 -1 -1</clus>
<clus scale="   97.601">  5  6 -1 -1</clus>
<clus scale="  168.157">  2  7  1 -1</clus>
<clus scale="   24.937">  2  5  1 -1</clus>
</clustering>
</event>
<event>
 9    2  0.1302972E-004  0.1011908E+03  0.7546771E-02  0.1284357E+00
          2   -1    0    0  502    0 -0.00000000000E+00  0.00000000000E+00  0.66818861002E+02  0.66818861002E+02  0.00000000000E+00 0. -1.
         21   -1    0    0  501  502  0.00000000000E+00 -0.00000000000E+00 -0.37954761398E+03  0.37954761398E+03  0.00000000000E+00 0.  1.
         24    2    1    2    0    0  0.25511427914E+01 -0.40074538153E+02 -0.59611100851E+02  0.10779197950E+03  0.80331504169E+02 0.  0.
         23    2    1    2    0    0 -0.26567597052E+02  0.32257771923E+02 -0.28214350943E+03  0.30009862900E+03  0.93315733675E+02 0.  0.
        -13    1    3    3    0    0 -0.33677988960E+02 -0.38166002916E+02 -0.21743328136E+02  0.55350004855E+02  0.00000000000E+00 0.  1.
         14    1    3    3    0    0  0.36229131751E+02 -0.19085352363E+01 -0.37867772715E+02  0.52441974645E+02  0.00000000000E+00 0. -1.
        -11    1    4    4    0    0 -0.36589103536E+02  0.57513732903E+02 -0.24348168904E+03  0.25284367674E+03  0.00000000000E+00 0.  1.
         11    1    4    4    0    0  0.10021506483E+02 -0.25255960980E+02 -0.38661820397E+02  0.47254952265E+02  0.00000000000E+00 0. -1.
          1    1    1    2  501    0  0.24016454261E+02  0.78167662293E+01  0.29025857303E+02  0.38475866484E+02  0.00000000000E+00 0. -1.
<scales pt_clust_5="13000.00000" pt_clust_6="13000.00000" pt_clust_7="13000.00000" pt_clust_8="13000.00000" pt_clust_9="25.25653"></scales>
<clustering>
<clus scale="   25.257">  2  9  1 -1</clus>
<clus scale="   80.332">  5  6 -1 -1</clus>
<clus scale="   89.358">  1  5  2 -1</clus>
<clus scale="   93.316">  7  8 -1 -1</clus>
<clus scale="   25.257">  2  5  1 -1</clus>
</clustering>
</event>
<event>
 9    2  0.1302972E-004  0.1576002E+03  0.7546771E-02  0.1192751E+00
         -3   -1    0    0    0  501 -0.00000000000E+00  0.00000000000E+00  0.30886210397E+03  0.30886210397E+03  0.00000000000E+00 0.  1.
         21   -1    0    0  501  502  0.00000000000E+00 -0.00000000000E+00 -0.16080187699E+03  0.16080187699E+03  0.00000000000E+00 0.  1.
         24    2    1    2    0    0  0.38827558975E+02 -0.12448935253E+03  0.22279234653E+03  0.27003424359E+03  0.79226793527E+02 0.  0.
         23    2    1    2    0    0 -0.18836157461E+02  0.13401318306E+03 -0.56132041629E+02  0.17071049841E+03  0.87618115191E+02 0.  0.
        -11    1    3    3    0    0  0.51923119026E+02 -0.39804995311E+02  0.11526502035E+03  0.13253857121E+03  0.00000000000E+00 0.  1.
         12    1    3    3    0    0 -0.13095560051E+02 -0.84684357214E+02  0.10752732618E+03  0.13749567239E+03  0.00000000000E+00 0. -1.
        -13    1    4    4    0    0 -0.35363179072E+02  0.49574947625E+02  0.10617526997E+02  0.61813928411E+02  0.00000000000E+00 0. -1.
         13    1    4    4    0    0  0.16527021610E+02  0.84438235434E+02 -0.66749568626E+02  0.10889657000E+03  0.00000000000E+00 0.  1.
         -4    1    1    2    0  502 -0.19991401514E+02 -0.95238305332E+01 -0.18600077921E+02  0.28919238945E+02  0.00000000000E+00 0.  1.
<scales pt_clust_5="13000.00000" pt_clust_6="13000.00000" pt_clust_7="13000.00000" pt_clust_8="13000.00000" pt_clust_9="22.14406"></scales>
<clustering>
<clus scale="   22.144">  2  9  1 -1</clus>
<clus scale="   79.227">  5  6 -1 -1</clus>
<clus scale="   87.618">  7  8 -1 -1</clus>
<clus scale="  153.094">  1  5  2 -1</clus>
<clus scale="   22.144">  2  5  1 -1</clus>
</clustering>
</event>
<event>
 9    2  0.1302972E-004  0.1252074E+03  0.7546771E-02  0.1256126E+00
         21   -1    0    0  501  502  0.00000000000E+00  0.00000000000E+00  0.23678616308E+03  0.23678616308E+03  0.00000000000E+00 0.  1.
         -1   -1    0    0    0  501 -0.00000000000E+00 -0.00000000000E+00 -0.95834192070E+02  0.95834192070E+02  0.00000000000E+00 0.  1.
         24    2    1    2    0    0 -0.73679005596E+01 -0.92412358696E+01  0.81630521472E+01  0.81824571812E+02  0.80553949206E+02 0.  0.
         23    2    1    2    0    0 -0.44298115895E+02 -0.65651140841E+02  0.86050107190E+02  0.14850814058E+03  0.91529511659E+02 0.  0.
        -13    1    3    3    0    0  0.20177335943E+02 -0.11905427033E+02  0.35754362030E+02  0.42746210157E+02  0.00000000000E+00 0.  1.
         14    1    3    3    0    0 -0.27545236503E+02  0.26641911632E+01 -0.27591309883E+02  0.39078361655E+02  0.00000000000E+00 0. -1.
        -13    1    4    4    0    0 -0.34754676316E+02 -0.91867771867E+01 -0.94365705734E+01  0.37166292055E+02  0.00000000000E+00 0. -1.
         13    1    4    4    0    0 -0.95434395787E+01 -0.56464363654E+02  0.95486677763E+02  0.11134184852E+03  0.00000000000E+00 0.  1.
         -2    1    1    2    0  502  0.51666016455E+02  0.74892376710E+02  0.46738811676E+02  0.10228764277E+03  0.00000000000E+00 0.  1.
<scales pt_clust_5="13000.00000" pt_clust_6="13000.00000" pt_clust_7="13000.00000" pt_clust_8="13000.00000" pt_clust_9="85.43563"></scales>
<clustering>
<clus scale="   80.554">  5  6 -1 -1</clus>
<clus scale="   81.416">  2  5  1 -1</clus>
<clus scale="   85.436">  1  9  2 -1</clus>
<clus scale="   91.530">  7  8 -1 -1</clus>
<clus scale="   85.436">  1  5  2 -1</clus>
</clustering>
</event>
<event>
 9    2  0.1302972E-004  0.9905577E+02  0.7546771E-02  0.1290365E+00
         21   -1    0    0  501  502  0.00000000000E+00  0.00000000000E+00  0.14892763630E+03  0.14892763630E+03  0.00000000000E+00 0. -1.
          2   -1    0    0  502    0 -0.00000000000E+00 -0.00000000000E+00 -0.15665906139E+03  0.15665906139E+03  0.00000000000E+00 0. -1.
         24    2    1    2    0    0  0.25388679087E+02 -0.21442071658E+02 -0.81980320530E+02  0.11650931897E+03  0.75824145162E+02 0.  0.
         23    2    1    2    0    0 -0.64742516237E+02  0.38049034793E+02  0.84359850600E+02  0.14518265083E+03  0.91225518640E+02 0.  0.
        -11    1    3    3    0    0  0.16875854713E+02  0.19346683360E+02 -0.13012626260E+01  0.25705678628E+02  0.00000000000E+00 0.  1.
         12    1    3    3    0    0  0.85128243742E+01 -0.40788755018E+02 -0.80679057904E+02  0.90803640340E+02  0.00000000000E+00 0. -1.
        -11    1    4    4    0    0 -0.45771305967E+02  0.30804987361E+02  0.10349367251E+03  0.11728128557E+03  0.00000000000E+00 0. -1.
         11    1    4    4    0    0 -0.18971210270E+02  0.72440474318E+01 -0.19133821909E+02  0.27901365256E+02  0.00000000000E+00 0.  1.
          1    1    1    2  501    0  0.39353837150E+02 -0.16606963135E+02 -0.10110955157E+02  0.43894727897E+02  0.00000000000E+00 0. -1.
<scales pt_clust_5="13000.00000" pt_clust_6="13000.00000" pt_clust_7="13000.00000" pt_clust_8="13000.00000" pt_clust_9="42.71437"></scales>
<clustering>
<clus scale="   42.714">  1  9  2 -1</clus>
<clus scale="   75.824">  5  6 -1 -1</clus>
<clus scale="   85.084">  2  5  1 -1</clus>
<clus scale="   91.226">  7  8 -1 -1</clus>
<clus scale="   42.714">  1  5  2 -1</clus>
</clustering>
</event>
<event>
 9    2  0.1302972E-004  0.1088420E+03  0.7546771E-02  0.1266854E+00
          2   -1    0    0  502    0 -0.00000000000E+00  0.00000000000E+00  0.23070203613E+02  0.23070203613E+02  0.00000000000E+00 0. -1.
         21   -1    0    0  501  502  0.00000000000E+00 -0.00000000000E+00 -0.84322093377E+03  0.84322093377E+03  0.00000000000E+00 0. -1.
         23    2    1    2    0    0 -0.24619425654E+02 -0.66844374918E+02 -0.27207936973E+03  0.29546664437E+03  0.90548704720E+02 0.  0.
         24    2    1    2    0    0 -0.30061048699E+02  0.51113558395E+02 -0.39838377059E+03  0.41068771580E+03  0.80240318659E+02 0.  0.
        -13    1    4    4    0    0 -0.40995699367E+02  0.12126340427E+02 -0.89783356841E+02  0.99442177492E+02  0.00000000000E+00 0.  1.
         14    1    4    4    0    0  0.10934650668E+02  0.38987217968E+02 -0.30860041375E+03  0.31124553831E+03  0.00000000000E+00 0. -1.
        -13    1    3    3    0    0  0.50929412069E+00 -0.83685657012E+02 -0.17904193815E+03  0.19763492654E+03  0.00000000000E+00 0. -1.
         13    1    3    3    0    0 -0.25128719774E+02  0.16841282094E+02 -0.93037431579E+02  0.97831717837E+02  0.00000000000E+00 0.  1.
          1    1    1    2  501    0  0.54680474353E+02  0.15730816523E+02 -0.14968758983E+03  0.16013677721E+03  0.00000000000E+00 0. -1.
<scales pt_clust_5="13000.00000" pt_clust_6="13000.00000" pt_clust_7="13000.00000" pt_clust_8="13000.00000" pt_clust_9="56.89830"></scales>
<clustering>
<clus scale="   56.898">  2  9  1 -1</clus>
<clus scale="   80.240">  5  6 -1 -1</clus>
<clus scale="   90.549">  7  8 -1 -1</clus>
<clus scale="  100.429">  2  5  1 -1</clus>
<clus scale="   56.898">  2  5  1 -1</clus>
</clustering>
</event>
<event>
 9    2  0.1302972E-004  0.1070287E+03  0.7546771E-02  0.1268782E+00
         21   -1    0    0  501  502  0.00000000000E+00  0.00000000000E+00  0.25118881799E+02  0.25118881799E+02  0.00000000000E+00 0.  1.
         -3   -1    0    0    0  501 -0.00000000000E+00 -0.00000000000E+00 -0.74528331358E+03  0.74528331358E+03  0.00000000000E+00 0.  1.
         24    2    1    2    0    0 -0.51480432579E+02 -0.44931627783E+01 -0.31016026142E+03  0.32456392983E+03  0.80448327073E+02 0.  0.
         23    2    1    2    0    0  0.75146526395E+02 -0.39328559037E+02 -0.32923226061E+03  0.35094607038E+03  0.87037502875E+02 0.  0.
        -13    1    3    3    0    0 -0.35115115789E+02 -0.64500234957E+01 -0.38888573181E+02  0.52792000190E+02  0.00000000000E+00 0.  1.
         14    1    3    3    0    0 -0.16365316790E+02  0.19568607174E+01 -0.27127168824E+03  0.27177192964E+03  0.00000000000E+00 0. -1.
        -11    1    4    4    0    0 -0.10144936251E+02 -0.26846487150E+02 -0.14133837797E+03  0.14422271212E+03  0.00000000000E+00 0. -1.
         11    1    4    4    0    0  0.85291462646E+02 -0.12482071887E+02 -0.18789388264E+03  0.20672335826E+03  0.00000000000E+00 0.  1.
         -4    1    1    2    0  502 -0.23666093816E+02  0.43821721815E+02 -0.80771909751E+02  0.94892195170E+02  0.00000000000E+00 0.  1.
<scales pt_clust_5="13000.00000" pt_clust_6="13000.00000" pt_clust_7="13000.00000" pt_clust_8="13000.00000" pt_clust_9="49.80389"></scales>
<clustering>
<clus scale="   49.804">  1  9  2 -1</clus>
<clus scale="   80.448">  5  6 -1 -1</clus>
<clus scale="   87.038">  7  8 -1 -1</clus>
<clus scale="  101.743">  2  5  1 -1</clus>
<clus scale="   49.804">  1  5  2 -1</clus>
</clustering>
</event>
<event>
 9    2  0.1302972E-004  0.1445345E+03  0.7546771E-02  0.1209160E+00
         21   -1    0    0  501  502  0.00000000000E+00  0.00000000000E+00  0.79786480996E+03  0.79786480996E+03  0.00000000000E+00 0. -1.
          2   -1    0    0  502    0 -0.00000000000E+00 -0.00000000000E+00 -0.72371775663E+02  0.72371775663E+02  0.00000000000E+00 0. -1.
         24    2    1    2    0    0  0.10556967913E+03 -0.65326037954E+02  0.28788368363E+02  0.15089107064E+03  0.80789211277E+02 0.  0.
         23    2    1    2    0    0 -0.38411281760E+02  0.51456066207E+02  0.42715183287E+03  0.44120641981E+03  0.89895846627E+02 0.  0.
        -13    1    3    3    0    0  0.12752901370E+02 -0.51107418685E+02 -0.10378935633E-01  0.52674517993E+02  0.00000000000E+00 0.  1.
         14    1    3    3    0    0  0.92816777757E+02 -0.14218619268E+02  0.28798747299E+02  0.98216552643E+02  0.00000000000E+00 0. -1.
        -11    1    4    4    0    0 -0.55271687860E+02  0.81565104916E+01  0.14762277405E+03  0.15784160276E+03  0.00000000000E+00 0.  1.
         11    1    4    4    0    0  0.16860406100E+02  0.43299555715E+02  0.27952905882E+03  0.28336481706E+03  0.00000000000E+00 0. -1.
          1    1    1    2  501    0 -0.67158397367E+02  0.13869971747E+02  0.26955283307E+03  0.27813909518E+03  0.00000000000E+00 0. -1.
<scales pt_clust_5="13000.00000" pt_clust_6="13000.00000" pt_clust_7="13000.00000" pt_clust_8="13000.00000" pt_clust_9="68.57570"></scales>
<clustering>
<clus scale="   68.576">  1  9  2 -1</clus>
<clus scale="   80.789">  5  6 -1 -1</clus>
<clus scale="   89.896">  7  8 -1 -1</clus>
<clus scale="  139.053">  2  5  1 -1</clus>
<clus scale="   68.576">  1  5  2 -1</clus>
</clustering>
</event>
<event>
 9    2  0.1302972E-004  0.1205600E+03  0.7546771E-02  0.1246045E+00
          2   -1    0    0  502    0 -0.00000000000E+00  0.00000000000E+00  0.27343691379E+03  0.27343691379E+03  0.00000000000E+00 0. -1.
         21   -1    0    0  501  502  0.00000000000E+00 -0.00000000000E+00 -0.10588646475E+03  0.10588646475E+03  0.00000000000E+00 0.  1.
         24    2    1    2    0    0  0.80481920308E+02 -0.38942076765E+01  0.56384918761E+02  0.12665384400E+03  0.79808726260E+02 0.  0.
         23    2    1    2    0    0 -0.68370115946E+02 -0.52577781325E+02 -0.14146300630E+01  0.12613861401E+03  0.92032890436E+02 0.  0.
        -11    1    3    3    0    0  0.89267302430E+02  0.16361279687E+02  0.40098057196E+02  0.99217926541E+02  0.00000000000E+00 0.  1.
         12    1    3    3    0    0 -0.87853821222E+01 -0.20255487364E+02  0.16286861565E+02  0.27435917462E+02  0.00000000000E+00 0. -1.
        -11    1    4    4    0    0 -0.16989573705E+02 -0.49932589839E+02  0.34828900942E+02  0.63205707682E+02  0.00000000000E+00 0. -1.
         11    1    4    4    0    0 -0.51380542241E+02 -0.26451914854E+01 -0.36243531005E+02  0.62932906326E+02  0.00000000000E+00 0.  1.
          1    1    1    2  501    0 -0.12111804362E+02  0.56471989001E+02  0.11258016034E+03  0.12653092053E+03  0.00000000000E+00 0. -1.
<scales pt_clust_5="13000.00000" pt_clust_6="13000.00000" pt_clust_7="13000.00000" pt_clust_8="13000.00000" pt_clust_9="57.75625"></scales>
<clustering>
<clus scale="   57.756">  2  9  1 -1</clus>
<clus scale="   79.809">  5  6 -1 -1</clus>
<clus scale="   92.033">  7  8 -1 -1</clus>
<clus scale="  111.508">  1  5  2 -1</clus>
<clus scale="   57.756">  2  5  1 -1</clus>
</clustering>
</event>
<event>
 9    2  0.1302972E-004  0.9423325E+02  0.7546771E-02  0.1296248E+00
         21   -1    0    0  501  502  0.00000000000E+00  0.00000000000E+00  0.42620142108E+03  0.42620142108E+03  0.00000000000E+00 0. -1.
         -3   -1    0    0    0  501 -0.00000000000E+00 -0.00000000000E+00 -0.47717420253E+02  0.47717420253E+02  0.00000000000E+00 0.  1.
         23    2    1    2    0    0  0.40390376856E+02  0.19358160534E+02  0.29160127025E+02  0.10165279849E+03  0.86468823921E+02 0.  0.
         24    2    1    2    0    0 -0.96845874832E+01 -0.20587222580E+02  0.15975704227E+03  0.18022453766E+03  0.80255507313E+02 0.  0.
        -13    1    4    4    0    0  0.25582784398E+02  0.13867974517E+02  0.91546925921E+02  0.96060601811E+02  0.00000000000E+00 0.  1.
         14    1    4    4    0    0 -0.35267371881E+02 -0.34455197096E+02  0.68210116347E+02  0.84163935853E+02  0.00000000000E+00 0. -1.
        -11    1    3    3    0    0  0.30922248699E+02  0.50450670402E+02  0.18531427353E+01  0.59202109309E+02  0.00000000000E+00 0.  1.
         11    1    3    3    0    0  0.94681281569E+01 -0.31092509868E+02  0.27306984290E+02  0.42450689178E+02  0.00000000000E+00 0. -1.
         -4    1    1    2    0  502 -0.30705789373E+02  0.12290620460E+01  0.18956683153E+03  0.19204150518E+03  0.00000000000E+00 0.  1.
<scales pt_clust_5="13000.00000" pt_clust_6="13000.00000" pt_clust_7="13000.00000" pt_clust_8="13000.00000" pt_clust_9="30.73038"></scales>
<clustering>
<clus scale="   30.730">  1  9  2 -1</clus>
<clus scale="   80.256">  5  6 -1 -1</clus>
<clus scale="   86.469">  7  8 -1 -1</clus>
<clus scale="   88.566">  1  5  2 -1</clus>
<clus scale="   30.730">  1  5  2 -1</clus>
</clustering>
</event>
<event>
 9    2  0.1302972E-004  0.9299835E+02  0.7546771E-02  0.1303059E+00
          2   -1    0    0  502    0 -0.00000000000E+00  0.00000000000E+00  0.81362469028E+03  0.81362469028E+03  0.00000000000E+00 0. -1.
         21   -1    0    0  501  502  0.00000000000E+00 -0.00000000000E+00 -0.22381848837E+02  0.22381848837E+02  0.00000000000E+00 0.  1.
         24    2    1    2    0    0  0.16134712562E+02  0.89233669322E+01  0.59498715032E+03  0.60054146730E+03  0.79374992699E+02 0.  0.
         23    2    1    2    0    0 -0.20452591479E+02  0.17052172174E+02  0.18235600095E+03  0.20568967767E+03  0.91353419982E+02 0.  0.
        -11    1    3    3    0    0  0.37406998802E+02  0.25848312356E+02  0.22449144454E+03  0.22904983624E+03  0.00000000000E+00 0.  1.
         12    1    3    3    0    0 -0.21272286240E+02 -0.16924945424E+02  0.37049570578E+03  0.37149163106E+03  0.00000000000E+00 0. -1.
        -11    1    4    4    0    0  0.33238631462E+02  0.10731173815E+02  0.10970500442E+03  0.11513102409E+03  0.00000000000E+00 0.  1.
         11    1    4    4    0    0 -0.53691222941E+02  0.63209983595E+01  0.72650996526E+02  0.90558653576E+02  0.00000000000E+00 0. -1.
          1    1    1    2  501    0  0.43178789173E+01 -0.25975539107E+02  0.13899690174E+02  0.29775394156E+02  0.00000000000E+00 0. -1.
<scales pt_clust_5="13000.00000" pt_clust_6="13000.00000" pt_clust_7="13000.00000" pt_clust_8="13000.00000" pt_clust_9="26.33197"></scales>
<clustering>
<clus scale="   26.332">  2  9  1 -1</clus>
<clus scale="   79.375">  5  6 -1 -1</clus>
<clus scale="   81.263">  1  5  2 -1</clus>
<clus scale="   91.353">  7  8 -1 -1</clus>
<clus scale="   26.332">  2  5  1 -1</clus>
</clustering>
</event>
<event>
 9    2  0.1302972E-004  0.2450438E+03  0.7546771E-02  0.1117054E+00
         21   -1    0    0  501  502  0.00000000000E+00  0.00000000000E+00  0.12071745013E+03  0.12071745013E+03  0.00000000000E+00 0.  1.
          2   -1    0    0  502    0 -0.00000000000E+00 -0.00000000000E+00 -0.96538652284E+03  0.96538652284E+03  0.00000000000E+00 0. -1.
         24    2    1    2    0    0 -0.15210871769E+03  0.21078197464E+03 -0.55348684065E+03  0.61685846529E+03  0.81243957327E+02 0.  0.
         23    2    1    2    0    0  0.11693876786E+03 -0.98268687508E+02 -0.26974430118E+02  0.17993265320E+03  0.91196104281E+02 0.  0.
        -11    1    3    3    0    0 -0.14637361745E+03  0.15711420322E+03 -0.39741664222E+03  0.45171904571E+03  0.00000000000E+00 0.  1.
         12    1    3    3    0    0 -0.57351002325E+01  0.53667771421E+02 -0.15607019842E+03  0.16513941958E+03  0.00000000000E+00 0. -1.
        -11    1    4    4    0    0  0.39336489726E+02  0.13226135687E+02 -0.33063281192E+00  0.41501800048E+02  0.00000000000E+00 0.  1.
         11    1    4    4    0    0  0.77602278132E+02 -0.11149482319E+03 -0.26643797307E+02  0.13843085316E+03  0.00000000000E+00 0. -1.
          1    1    1    2  501    0  0.35169949828E+02 -0.11251328713E+03 -0.26420780195E+03  0.28931285448E+03  0.00000000000E+00 0. -1.
<scales pt_clust_5="13000.00000" pt_clust_6="13000.00000" pt_clust_7="13000.00000" pt_clust_8="13000.00000" pt_clust_9="117.88206"></scales>
<clustering>
<clus scale="   81.244">  5  6 -1 -1</clus>
<clus scale="   91.196">  7  8 -1 -1</clus>
<clus scale="  117.882">  1  9  2 -1</clus>
<clus scale="  241.517">  2  5  1 -1</clus>
<clus scale="  117.882">  1  5  2 -1</clus>
</clustering>
</event>
<event>
 9    2  0.1302972E-004  0.1129325E+03  0.7546771E-02  0.1257760E+00
         21   -1    0    0  501  502  0.00000000000E+00  0.00000000000E+00  0.21544245467E+03  0.21544245467E+03  0.00000000000E+00 0. -1.
          2   -1    0    0  502    0 -0.00000000000E+00 -0.00000000000E+00 -0.20793069377E+03  0.20793069377E+03  0.00000000000E+00 0. -1.
         24    2    1    2    0    0 -0.25361719238E+02 -0.91897095033E+02 -0.10032059852E+03  0.16174285869E+03  0.83715213501E+02 0.  0.
         23    2    1    2    0    0 -0.15610822902E+02  0.38021526015E+02 -0.33411362055E+02  0.10500616963E+03  0.90667757846E+02 0.  0.
        -13    1    3    3    0    0 -0.29136102154E+02 -0.10552187788E+03 -0.74855761674E+02  0.13261660611E+03  0.00000000000E+00 0.  1.
         14    1    3    3    0    0  0.37743829163E+01  0.13624782844E+02 -0.25464836846E+02  0.29126252583E+02  0.00000000000E+00 0. -1.
        -11    1    4    4    0    0 -0.43470564586E+02  0.51605479724E+02 -0.15587020708E+02  0.69251503503E+02  0.00000000000E+00 0. -1.
         11    1    4    4    0    0  0.27859741683E+02 -0.13583953709E+02 -0.17824341347E+02  0.35754666122E+02  0.00000000000E+00 0.  1.
          1    1    1    2  501    0  0.40972542140E+02  0.53875569018E+02  0.14124372148E+03  0.15662412012E+03  0.00000000000E+00 0. -1.
<scales pt_clust_5="13000.00000" pt_clust_6="13000.00000" pt_clust_7="13000.00000" pt_clust_8="13000.00000" pt_clust_9="67.68549"></scales>
<clustering>
<clus scale="   67.685">  1  9  2 -1</clus>
<clus scale="   83.715">  5  6 -1 -1</clus>
<clus scale="   90.668">  7  8 -1 -1</clus>
<clus scale="  107.431">  2  5  1 -1</clus>
<clus scale="   67.685">  1  5  2 -1</clus>
</clustering>
</event>
<event>
 9    2  0.1302972E-004  0.2115310E+03  0.7546771E-02  0.1170535E+00
          2   -1    0    0  502    0 -0.00000000000E+00  0.00000000000E+00  0.20636200348E+04  0.20636200348E+04  0.00000000000E+00 0. -1.
         21   -1    0    0  501  502  0.00000000000E+00 -0.00000000000E+00 -0.38263426802E+02  0.38263426802E+02  0.00000000000E+00 0.  1.
         24    2    1    2    0    0  0.19025325215E+02 -0.63491630441E+02  0.41536412594E+03  0.42823010322E+03  0.80377322990E+02 0.  0.
         23    2    1    2    0    0 -0.53184021851E+02  0.20306477191E+03  0.45164298247E+03  0.50642542795E+03  0.91768669444E+02 0.  0.
        -13    1    3    3    0    0 -0.23916559627E+02 -0.19637931805E+02  0.59041365510E+02  0.66659830718E+02  0.00000000000E+00 0.  1.
         14    1    3    3    0    0  0.42941884842E+02 -0.43853698636E+02  0.35632276043E+03  0.36157027250E+03  0.00000000000E+00 0. -1.
        -13    1    4    4    0    0 -0.31343663273E+02  0.19289296317E+03  0.33953464286E+03  0.39175744303E+03  0.00000000000E+00 0.  1.
         13    1    4    4    0    0 -0.21840358577E+02  0.10171808739E+02  0.11210833961E+03  0.11466798492E+03  0.00000000000E+00 0. -1.
          1    1    1    2  501    0  0.34158696636E+02 -0.13957314147E+03  0.11583494996E+04  0.11672279305E+04  0.00000000000E+00 0. -1.
<scales pt_clust_5="13000.00000" pt_clust_6="13000.00000" pt_clust_7="13000.00000" pt_clust_8="13000.00000" pt_clust_9="190.58828"></scales>
<clustering>
<clus scale="   80.377">  5  6 -1 -1</clus>
<clus scale="   91.769">  7  8 -1 -1</clus>
<clus scale="  104.181">  1  5  2 -1</clus>
<clus scale="  190.588">  2  9  1 -1</clus>
<clus scale="  190.588">  2  5  1 -1</clus>
</clustering>
</event>
<event>
 9    2  0.1302972E-004  0.8619331E+02  0.7546771E-02  0.1313569E+00
         -1   -1    0    0    0  501 -0.00000000000E+00  0.00000000000E+00  0.12356232118E+03  0.12356232118E+03  0.00000000000E+00 0.  1.
         21   -1    0    0  501  502  0.00000000000E+00 -0.00000000000E+00 -0.19418353343E+03  0.19418353343E+03  0.00000000000E+00 0.  1.
         23    2    1    2    0    0 -0.17654687491E+02  0.19195129268E+02  0.70827125209E+02  0.10859603373E+03  0.78079932756E+02 0.  0.
         24    2    1    2    0    0  0.48478713235E+02 -0.29233696014E+02 -0.46005426384E+02  0.10835179183E+03  0.80117519406E+02 0.  0.
        -11    1    4    4    0    0  0.27552801106E+02 -0.49792255377E+02 -0.39075360076E+01  0.57041163925E+02  0.00000000000E+00 0.  1.
         12    1    4    4    0    0  0.20925912129E+02  0.20558559363E+02 -0.42097890376E+02  0.51310627901E+02  0.00000000000E+00 0. -1.
        -11    1    3    3    0    0 -0.26687688042E+02 -0.13909051221E+02  0.22373996791E+00  0.30095588688E+02  0.00000000000E+00 0.  1.
         11    1    3    3    0    0  0.90330005517E+01  0.33104180489E+02  0.70603385241E+02  0.78500445046E+02  0.00000000000E+00 0. -1.
         -2    1    1    2    0  502 -0.30824025745E+02  0.10038566746E+02 -0.95442911078E+02  0.10079802905E+03  0.00000000000E+00 0.  1.
<scales pt_clust_5="13000.00000" pt_clust_6="13000.00000" pt_clust_7="13000.00000" pt_clust_8="13000.00000" pt_clust_9="32.41749"></scales>
<clustering>
<clus scale="   32.417">  2  9  1 -1</clus>
<clus scale="   78.080">  7  8 -1 -1</clus>
<clus scale="   80.118">  5  6 -1 -1</clus>
<clus scale="   84.303">  1  7  2 -1</clus>
<clus scale="   32.417">  2  5  1 -1</clus>
</clustering>
</event>
<event>
 9    2  0.1302972E-004  0.1010259E+03  0.7546771E-02  0.1281091E+00
          2   -1    0    0  502    0 -0.00000000000E+00  0.00000000000E+00  0.35434569531E+03  0.35434569531E+03  0.00000000000E+00 0. -1.
         21   -1    0    0  501  502  0.00000000000E+00 -0.00000000000E+00 -0.12779937438E+03  0.12779937438E+03  0.00000000000E+00 0.  1.
         23    2    1    2    0    0  0.52780328126E+01 -0.49561805622E+02  0.29401218600E+03  0.31085030735E+03  0.87752594598E+02 0.  0.
         24    2    1    2    0    0 -0.52391029101E+02  0.44105714131E+02 -0.29011885216E+02  0.11023649574E+03  0.81364989764E+02 0.  0.
        -13    1    4    4    0    0 -0.14686347609E+02  0.18490709771E+02 -0.53509419431E+02  0.58488059651E+02  0.00000000000E+00 0.  1.
         14    1    4    4    0    0 -0.37704681492E+02  0.25615004360E+02  0.24497534215E+02  0.51748436086E+02  0.00000000000E+00 0. -1.
        -13    1    3    3    0    0 -0.34396722242E+01  0.25011748257E+02  0.60234229317E+02  0.65311417664E+02  0.00000000000E+00 0.  1.
         13    1    3    3    0    0  0.87177050369E+01 -0.74573553879E+02  0.23377795668E+03  0.24553888969E+03  0.00000000000E+00 0. -1.
          1    1    1    2  501    0  0.47112996288E+02  0.54560914907E+01 -0.38453979859E+02  0.61058266603E+02  0.00000000000E+00 0. -1.
<scales pt_clust_5="13000.00000" pt_clust_6="13000.00000" pt_clust_7="13000.00000" pt_clust_8="13000.00000" pt_clust_9="47.42788"></scales>
<clustering>
<clus scale="   47.428">  2  9  1 -1</clus>
<clus scale="   81.365">  5  6 -1 -1</clus>
<clus scale="   87.753">  7  8 -1 -1</clus>
<clus scale="   95.530">  2  5  1 -1</clus>
<clus scale="   47.428">  2  5  1 -1</clus>
</clustering>
</event>
<event>
 9    2  0.1302972E-004  0.1011180E+03  0.7546771E-02  0.1282540E+00
          2   -1    0    0  502    0 -0.00000000000E+00  0.00000000000E+00  0.42021178976E+03  0.42021178976E+03  0.00000000000E+00 0. -1.
         21   -1    0    0  501  502  0.00000000000E+00 -0.00000000000E+00 -0.35164087634E+02  0.35164087634E+02  0.00000000000E+00 0. -1.
         23    2    1    2    0    0 -0.29911478165E+02 -0.29146719238E+02  0.16789375896E+03  0.19443825730E+03  0.88733837031E+02 0.  0.
         24    2    1    2    0    0  0.90805146922E+01  0.63081697241E+02  0.12846615683E+03  0.16372118519E+03  0.78989345832E+02 0.  0.
        -13    1    4    4    0    0  0.35956367847E+02  0.54041803094E+01  0.33713193356E+02  0.49584725066E+02  0.00000000000E+00 0.  1.
         14    1    4    4    0    0 -0.26875853155E+02  0.57677516931E+02  0.94752963472E+02  0.11413646012E+03  0.00000000000E+00 0. -1.
        -11    1    3    3    0    0 -0.18563821219E+02 -0.61244052676E+02  0.10724560166E+03  0.12488822412E+03  0.00000000000E+00 0. -1.
         11    1    3    3    0    0 -0.11347656945E+02  0.32097333438E+02  0.60648157296E+02  0.69550033180E+02  0.00000000000E+00 0.  1.
          1    1    1    2  501    0  0.20830963472E+02 -0.33934978003E+02  0.88687786335E+02  0.97216434908E+02  0.00000000000E+00 0. -1.
<scales pt_clust_5="13000.00000" pt_clust_6="13000.00000" pt_clust_7="13000.00000" pt_clust_8="13000.00000" pt_clust_9="39.81851"></scales>
<clustering>
<clus scale="   39.819">  2  9  1 -1</clus>
<clus scale="   78.989">  5  6 -1 -1</clus>
<clus scale="   88.734">  7  8 -1 -1</clus>
<clus scale="   92.685">  2  5  1 -1</clus>
<clus scale="   39.819">  2  5  1 -1</clus>
</clustering>
</event>
<event>
 9    2  0.1302972E-004  0.1757087E+03  0.7546771E-02  0.1187881E+00
          2   -1    0    0  502    0 -0.00000000000E+00  0.00000000000E+00  0.18954720681E+03  0.18954720681E+03  0.00000000000E+00 0. -1.
         21   -1    0    0  501  502  0.00000000000E+00 -0.00000000000E+00 -0.41394831366E+03  0.41394831366E+03  0.00000000000E+00 0. -1.
         24    2    1    2    0    0 -0.40931944928E+02  0.83613985590E+02  0.33577429704E+01  0.12305733573E+03  0.80405912327E+02 0.  0.
         23    2    1    2    0    0  0.18158807440E+03 -0.88506907064E+02 -0.12228814058E+02  0.22302551264E+03  0.93718376183E+02 0.  0.
        -11    1    3    3    0    0  0.22558616189E+02  0.75428636022E+01 -0.16691883046E+01  0.23844750895E+02  0.00000000000E+00 0.  1.
         12    1    3    3    0    0 -0.63490561117E+02  0.76071121988E+02  0.50269312750E+01  0.99212584834E+02  0.00000000000E+00 0. -1.
        -11    1    4    4    0    0  0.15493615214E+03 -0.97516171567E+02 -0.35541649446E+02  0.18648813314E+03  0.00000000000E+00 0. -1.
         11    1    4    4    0    0  0.26651922256E+02  0.90092645033E+01  0.23312835388E+02  0.36537379499E+02  0.00000000000E+00 0.  1.
          1    1    1    2  501    0 -0.14065612947E+03  0.48929214736E+01 -0.21553003577E+03  0.25741267209E+03  0.00000000000E+00 0. -1.
<scales pt_clust_5="13000.00000" pt_clust_6="13000.00000" pt_clust_7="13000.00000" pt_clust_8="13000.00000" pt_clust_9="148.62849"></scales>
<clustering>
<clus scale="   80.406">  5  6 -1 -1</clus>
<clus scale="   93.718">  7  8 -1 -1</clus>
<clus scale="  123.012">  1  5  2 -1</clus>
<clus scale="  148.628">  2  9  1 -1</clus>
<clus scale="  148.628">  2  5  1 -1</clus>
</clustering>
</event>
<event>
 9    2  0.1302972E-004  0.8824982E+02  0.7546771E-02  0.1311073E+00
         -1   -1    0    0    0  501 -0.00000000000E+00  0.00000000000E+00  0.91323541036E+02  0.91323541036E+02  0.00000000000E+00 0.  1.
         21   -1    0    0  501  502  0.00000000000E+00 -0.00000000000E+00 -0.24654096650E+03  0.24654096650E+03  0.00000000000E+00 0.  1.
         23    2    1    2    0    0 -0.76699863895E+01  0.44767325914E+01  0.38186015093E+02  0.96389608445E+02  0.88056317443E+02 0.  0.
         24    2    1    2    0    0 -0.17122276313E+02 -0.92166655609E+01 -0.54578568792E+02  0.10037398387E+03  0.81963389370E+02 0.  0.
        -13    1    4    4    0    0 -0.93045777499E+00  0.33916421266E+02 -0.39105847644E+02  0.51773127229E+02  0.00000000000E+00 0.  1.
         14    1    4    4    0    0 -0.16191818538E+02 -0.43133086827E+02 -0.15472721148E+02  0.48600856644E+02  0.00000000000E+00 0. -1.
        -13    1    3    3    0    0 -0.48112168528E+01  0.40636778627E+02  0.43508371760E+02  0.59728334967E+02  0.00000000000E+00 0.  1.
         13    1    3    3    0    0 -0.28587695367E+01 -0.36160046035E+02 -0.53223566663E+01  0.36661273478E+02  0.00000000000E+00 0. -1.
         -2    1    1    2    0  502  0.24792262702E+02  0.47399329696E+01 -0.13882487177E+03  0.14110091522E+03  0.00000000000E+00 0.  1.
<scales pt_clust_5="13000.00000" pt_clust_6="13000.00000" pt_clust_7="13000.00000" pt_clust_8="13000.00000" pt_clust_9="25.24130"></scales>
<clustering>
<clus scale="   25.241">  2  9  1 -1</clus>
<clus scale="   81.963">  5  6 -1 -1</clus>
<clus scale="   82.171">  2  5  1 -1</clus>
<clus scale="   88.056">  7  8 -1 -1</clus>
<clus scale="   25.241">  2  5  1 -1</clus>
</clustering>
</event>
<event>
 9    2  0.1302972E-004  0.2008828E+03  0.7546771E-02  0.1181651E+00
         21   -1    0    0  501  502  0.00000000000E+00  0.00000000000E+00  0.63290706217E+02  0.63290706217E+02  0.00000000000E+00 0. -1.
          2   -1    0    0  502    0 -0.00000000000E+00 -0.00000000000E+00 -0.17348385285E+04  0.17348385285E+04  0.00000000000E+00 0. -1.
         23    2    1    2    0    0 -0.17864064589E+02  0.27402271610E+02 -0.25238235860E+03  0.26952380572E+03  0.88748057032E+02 0.  0.
         24    2    1    2    0    0  0.13727679838E+03  0.11545934114E+03 -0.12832447273E+04  0.12980771488E+04  0.78175925256E+02 0.  0.
        -13    1    4    4    0    0  0.25104307295E+02 -0.81131357071E+01 -0.11604157833E+03  0.11900292902E+03  0.00000000000E+00 0.  1.
         14    1    4    4    0    0  0.11217249108E+03  0.12357247685E+03 -0.11672031490E+04  0.11790742198E+04  0.00000000000E+00 0. -1.
        -13    1    3    3    0    0 -0.52767064428E+02  0.78089452087E+01 -0.16505507646E+03  0.17346043059E+03  0.00000000000E+00 0.  1.
         13    1    3    3    0    0  0.34902999839E+02  0.19593326402E+02 -0.87327282133E+02  0.96063375133E+02  0.00000000000E+00 0. -1.
          1    1    1    2  501    0 -0.11941273379E+03 -0.14286161276E+03 -0.13592073641E+03  0.23052828021E+03  0.00000000000E+00 0. -1.
<scales pt_clust_5="13000.00000" pt_clust_6="13000.00000" pt_clust_7="13000.00000" pt_clust_8="13000.00000" pt_clust_9="185.04712"></scales>
<clustering>
<clus scale="   78.176">  5  6 -1 -1</clus>
<clus scale="   88.748">  7  8 -1 -1</clus>
<clus scale="   94.584">  2  7  1 -1</clus>
<clus scale="  185.047">  1  9  2 -1</clus>
<clus scale="  185.047">  1  5  2 -1</clus>
</clustering>
</event>
<event>
 9    2  0.1302972E-004  0.1761740E+03  0.7546771E-02  0.1173364E+00
         -3   -1    0    0    0  501 -0.00000000000E+00  0.00000000000E+00  0.51862134287E+03  0.51862134287E+03  0.00000000000E+00 0.  1.
         21   -1    0    0  501  502  0.00000000000E+00 -0.00000000000E+00 -0.10043449921E+03  0.10043449921E+03  0.00000000000E+00 0.  1.
         24    2    1    2    0    0 -0.20232565276E+02 -0.11478193312E+03  0.13967966550E+03  0.19838741399E+03  0.79138538063E+02 0.  0.
         23    2    1    2    0    0  0.45144340790E+02  0.18455229091E+03  0.27427320454E+03  0.34646313234E+03  0.93345336021E+02 0.  0.
        -11    1    3    3    0    0  0.13888495700E+02 -0.42123953761E+02  0.98815448493E+02  0.10831348325E+03  0.00000000000E+00 0.  1.
         12    1    3    3    0    0 -0.34121060975E+02 -0.72657979361E+02  0.40864217002E+02  0.90073930736E+02  0.00000000000E+00 0. -1.
        -13    1    4    4    0    0 -0.22170922420E+02  0.19291437819E+02  0.18971218392E+02  0.34980230150E+02  0.00000000000E+00 0. -1.
         13    1    4    4    0    0  0.67315263210E+02  0.16526085309E+03  0.25530198615E+03  0.31148290219E+03  0.00000000000E+00 0.  1.
         -4    1    1    2    0  502 -0.24911775514E+02 -0.69770357788E+02  0.42339736235E+01  0.74205295753E+02  0.00000000000E+00 0.  1.
<scales pt_clust_5="13000.00000" pt_clust_6="13000.00000" pt_clust_7="13000.00000" pt_clust_8="13000.00000" pt_clust_9="74.08441"></scales>
<clustering>
<clus scale="   74.084">  2  9  1 -1</clus>
<clus scale="   79.139">  5  6 -1 -1</clus>
<clus scale="   93.345">  7  8 -1 -1</clus>
<clus scale="  169.076">  1  5  2 -1</clus>
<clus scale="   74.084">  2  5  1 -1</clus>
</clustering>
</event>
<event>
 9    2  0.1302972E-004  0.2415099E+03  0.7546771E-02  0.1138016E+00
         21   -1    0    0  501  502  0.00000000000E+00  0.00000000000E+00  0.18060300033E+03  0.18060300033E+03  0.00000000000E+00 0.  1.
          2   -1    0    0  502    0 -0.00000000000E+00 -0.00000000000E+00 -0.81657722335E+03  0.81657722335E+03  0.00000000000E+00 0. -1.
         23    2    1    2    0    0  0.11480101276E+03 -0.32319301952E+02 -0.15269662075E+02  0.15118138400E+03  0.91645177067E+02 0.  0.
         24    2    1    2    0    0  0.10523950029E+03 -0.86964349897E+02 -0.56775878340E+03  0.59016750396E+03  0.85495590742E+02 0.  0.
        -11    1    4    4    0    0 -0.14411674535E+02 -0.17667770049E+02 -0.83037912293E+02  0.86111214946E+02  0.00000000000E+00 0.  1.
         12    1    4    4    0    0  0.11965117482E+03 -0.69296579847E+02 -0.48472087111E+03  0.50405628902E+03  0.00000000000E+00 0. -1.
        -11    1    3    3    0    0 -0.73978998441E+01 -0.24195266662E+02 -0.13549417040E+02  0.28700636806E+02  0.00000000000E+00 0. -1.
         11    1    3    3    0    0  0.12219891260E+03 -0.81240352898E+01 -0.17202450343E+01  0.12248074719E+03  0.00000000000E+00 0.  1.
          1    1    1    2  501    0 -0.22004051304E+03  0.11928365185E+03 -0.52945777545E+02  0.25583133572E+03  0.00000000000E+00 0. -1.
<scales pt_clust_5="13000.00000" pt_clust_6="13000.00000" pt_clust_7="13000.00000" pt_clust_8="13000.00000" pt_clust_9="225.87063"></scales>
<clustering>
<clus scale="   85.496">  5  6 -1 -1</clus>
<clus scale="   91.645">  7  8 -1 -1</clus>
<clus scale="  150.408">  2  7  1 -1</clus>
<clus scale="  225.871">  1  9  2 -1</clus>
<clus scale="  225.871">  1  5  2 -1</clus>
</clustering>
</event>
<event>
 9    2  0.1302972E-004  0.9792505E+02  0.7546771E-02  0.1289515E+00
          2   -1    0    0  502    0 -0.00000000000E+00  0.00000000000E+00  0.55869231629E+03  0.55869231629E+03  0.00000000000E+00 0. -1.
         21   -1    0    0  501  502  0.00000000000E+00 -0.00000000000E+00 -0.55179838603E+02  0.55179838603E+02  0.00000000000E+00 0. -1.
         24    2    1    2    0    0 -0.31215878625E+02  0.21256139616E+02  0.34732172895E+03  0.35847787629E+03  0.80297881878E+02 0.  0.
         23    2    1    2    0    0  0.13562831226E+02 -0.50035863664E+02  0.18434941888E+03  0.21143050597E+03  0.89613685171E+02 0.  0.
        -13    1    3    3    0    0  0.23341611756E+02  0.15886610995E+02  0.64764578477E+02  0.70651722368E+02  0.00000000000E+00 0.  1.
         14    1    3    3    0    0 -0.54557490380E+02  0.53695286210E+01  0.28255715048E+03  0.28782615392E+03  0.00000000000E+00 0. -1.
        -11    1    4    4    0    0  0.49850652531E+02 -0.12690047069E+02  0.89766444783E+02  0.10346081123E+03  0.00000000000E+00 0.  1.
         11    1    4    4    0    0 -0.36287821305E+02 -0.37345816595E+02  0.94582974101E+02  0.10796969474E+03  0.00000000000E+00 0. -1.
          1    1    1    2  501    0  0.17653047399E+02  0.28779724048E+02 -0.28158670156E+02  0.43963772628E+02  0.00000000000E+00 0. -1.
<scales pt_clust_5="13000.00000" pt_clust_6="13000.00000" pt_clust_7="13000.00000" pt_clust_8="13000.00000" pt_clust_9="33.76244"></scales>
<clustering>
<clus scale="   33.762">  2  9  1 -1</clus>
<clus scale="   80.298">  5  6 -1 -1</clus>
<clus scale="   89.479">  1  5  2 -1</clus>
<clus scale="   89.614">  7  8 -1 -1</clus>
<clus scale="   33.762">  2  5  1 -1</clus>
</clustering>
</event>
<event>
 9    2  0.1302972E-004  0.1017178E+03  0.7546771E-02  0.1282766E+00
         21   -1    0    0  501  502  0.00000000000E+00  0.00000000000E+00  0.37800312146E+02  0.37800312146E+02  0.00000000000E+00 0.  1.
         -3   -1    0    0    0  501 -0.00000000000E+00 -0.00000000000E+00 -0.51272189695E+03  0.51272189695E+03  0.00000000000E+00 0.  1.
         23    2    1    2    0    0 -0.42958165650E+02  0.40970989160E+02 -0.20648936042E+03  0.23393301772E+03  0.92535262814E+02 0.  0.
         24    2    1    2    0    0 -0.25061240901E+02 -0.39403471301E+02 -0.10853381650E+03  0.14281750892E+03  0.80228125891E+02 0.  0.
        -11    1    4    4    0    0 -0.38143199141E+02 -0.47381035670E+01 -0.13370313278E+02  0.40695436393E+02  0.00000000000E+00 0.  1.
         12    1    4    4    0    0  0.13081958240E+02 -0.34665367734E+02 -0.95163503227E+02  0.10212207253E+03  0.00000000000E+00 0. -1.
        -11    1    3    3    0    0 -0.68930388405E+02  0.44475950866E+02 -0.17250595301E+03  0.19101783287E+03  0.00000000000E+00 0.  1.
         11    1    3    3    0    0  0.25972222754E+02 -0.35049617057E+01 -0.33983407408E+02  0.42915184847E+02  0.00000000000E+00 0. -1.
         -4    1    1    2    0  502  0.68019406551E+02 -0.15675178585E+01 -0.15989840789E+03  0.17377168246E+03  0.00000000000E+00 0.  1.
<scales pt_clust_5="13000.00000" pt_clust_6="13000.00000" pt_clust_7="13000.00000" pt_clust_8="13000.00000" pt_clust_9="68.03750"></scales>
<clustering>
<clus scale="   68.038">  1  9  2 -1</clus>
<clus scale="   80.228">  5  6 -1 -1</clus>
<clus scale="   90.666">  1  5  2 -1</clus>
<clus scale="   92.535">  7  8 -1 -1</clus>
<clus scale="   68.038">  1  5  2 -1</clus>
</clustering>
</event>
<event>
 9    2  0.1302972E-004  0.1650208E+03  0.7546771E-02  0.1206416E+00
          2   -1    0    0  502    0 -0.00000000000E+00  0.00000000000E+00  0.96593944425E+02  0.96593944425E+02  0.00000000000E+00 0. -1.
         21   -1    0    0  501  502  0.00000000000E+00 -0.00000000000E+00 -0.72811250699E+03  0.72811250699E+03  0.00000000000E+00 0.  1.
         23    2    1    2    0    0 -0.37496877457E+02  0.25296783729E+02  0.21299286640E+02  0.10135055493E+03  0.88160831931E+02 0.  0.
         24    2    1    2    0    0 -0.85348694887E+02 -0.11029503036E+03 -0.32145710457E+03  0.35987868997E+03  0.82028092590E+02 0.  0.
        -13    1    4    4    0    0 -0.10090701250E+03 -0.84246035228E+02 -0.26197059947E+03  0.29310103140E+03  0.00000000000E+00 0.  1.
         14    1    4    4    0    0  0.15558317614E+02 -0.26048995130E+02 -0.59486505100E+02  0.66777658564E+02  0.00000000000E+00 0. -1.
        -11    1    3    3    0    0 -0.42102696844E+02 -0.24725052853E+02  0.92958101274E+01  0.49702891325E+02  0.00000000000E+00 0.  1.
         11    1    3    3    0    0  0.46058193867E+01  0.50021836582E+02  0.12003476513E+02  0.51647663603E+02  0.00000000000E+00 0. -1.
          1    1    1    2  501    0  0.12284557234E+03  0.84998246629E+02 -0.33136074464E+03  0.36347720652E+03  0.00000000000E+00 0. -1.
<scales pt_clust_5="13000.00000" pt_clust_6="13000.00000" pt_clust_7="13000.00000" pt_clust_8="13000.00000" pt_clust_9="143.18964"></scales>
<clustering>
<clus scale="   82.028">  5  6 -1 -1</clus>
<clus scale="   88.161">  7  8 -1 -1</clus>
<clus scale="   99.087">  1  7  2 -1</clus>
<clus scale="  143.190">  2  9  1 -1</clus>
<clus scale="  143.190">  2  5  1 -1</clus>
</clustering>
</event>
<event>
 9    2  0.1302972E-004  0.1097572E+03  0.7546771E-02  0.1265222E+00
         21   -1    0    0  501  502  0.00000000000E+00  0.00000000000E+00  0.29353173585E+03  0.29353173585E+03  0.00000000000E+00 0.  1.
         -1   -1    0    0    0  501 -0.00000000000E+00 -0.00000000000E+00 -0.10593747700E+03  0.10593747700E+03  0.00000000000E+00 0.  1.
         23    2    1    2    0    0  0.40821891639E+02 -0.56731334107E+02 -0.46297900435E+02  0.12532979016E+03  0.93162168343E+02 0.  0.
         24    2    1    2    0    0 -0.17556145838E+02  0.16535007575E+02  0.98024501259E+02  0.13055300240E+03  0.82786827800E+02 0.  0.
        -11    1    4    4    0    0  0.26550986806E+02 -0.13314156486E+02  0.53253772552E+02  0.60976929689E+02  0.00000000000E+00 0.  1.
         12    1    4    4    0    0 -0.44107132645E+02  0.29849164061E+02  0.44770728707E+02  0.69576072714E+02  0.00000000000E+00 0. -1.
        -13    1    3    3    0    0 -0.28936263462E+02 -0.28833962222E+02 -0.21825999284E+02  0.46314997197E+02  0.00000000000E+00 0.  1.
         13    1    3    3    0    0  0.69758155101E+02 -0.27897371885E+02 -0.24471901151E+02  0.79014792964E+02  0.00000000000E+00 0. -1.
         -2    1    1    2    0  502 -0.23265745800E+02  0.40196326532E+02  0.13586765803E+03  0.14358642029E+03  0.00000000000E+00 0.  1.
<scales pt_clust_5="13000.00000" pt_clust_6="13000.00000" pt_clust_7="13000.00000" pt_clust_8="13000.00000" pt_clust_9="46.44394"></scales>
<clustering>
<clus scale="   46.444">  1  9  2 -1</clus>
<clus scale="   82.787">  5  6 -1 -1</clus>
<clus scale="   93.162">  7  8 -1 -1</clus>
<clus scale="  101.100">  1  5  2 -1</clus>
<clus scale="   46.444">  1  5  2 -1</clus>
</clustering>
</event>
<event>
 9    2  0.1302972E-004  0.9346761E+02  0.7546771E-02  0.1303293E+00
          2   -1    0    0  502    0 -0.00000000000E+00  0.00000000000E+00  0.29547239503E+03  0.29547239503E+03  0.00000000000E+00 0. -1.
         21   -1    0    0  501  502  0.00000000000E+00 -0.00000000000E+00 -0.12751935073E+03  0.12751935073E+03  0.00000000000E+00 0.  1.
         24    2    1    2    0    0  0.17325845323E+02 -0.12342479571E+02  0.25470147374E+03  0.26691715701E+03  0.76937677801E+02 0.  0.
         23    2    1    2    0    0  0.13268335041E+01  0.26761463145E+02 -0.38715187085E+02  0.10256737535E+03  0.91122249629E+02 0.  0.
        -11    1    3    3    0    0  0.31965400638E+02  0.99285082947E+01  0.48078774377E+02  0.58582682258E+02  0.00000000000E+00 0.  1.
         12    1    3    3    0    0 -0.14639555315E+02 -0.22270987865E+02  0.20662269936E+03  0.20833447475E+03  0.00000000000E+00 0. -1.
        -13    1    4    4    0    0  0.17835418649E+02  0.55755829452E+02 -0.36805327077E+02  0.69148006317E+02  0.00000000000E+00 0.  1.
         13    1    4    4    0    0 -0.16508585145E+02 -0.28994366307E+02 -0.19098600080E+01  0.33419369029E+02  0.00000000000E+00 0. -1.
          1    1    1    2  501    0 -0.18652678827E+02 -0.14418983574E+02 -0.48033242357E+02  0.53507213402E+02  0.00000000000E+00 0. -1.
<scales pt_clust_5="13000.00000" pt_clust_6="13000.00000" pt_clust_7="13000.00000" pt_clust_8="13000.00000" pt_clust_9="23.57604"></scales>
<clustering>
<clus scale="   23.576">  2  9  1 -1</clus>
<clus scale="   76.938">  5  6 -1 -1</clus>
<clus scale="   79.702">  1  5  2 -1</clus>
<clus scale="   91.122">  7  8 -1 -1</clus>
<clus scale="   23.576">  2  5  1 -1</clus>
</clustering>
</event>
<event>
 9    2  0.1302972E-004  0.9345514E+02  0.7546771E-02  0.1299803E+00
          2   -1    0    0  502    0 -0.00000000000E+00  0.00000000000E+00  0.11482619522E+04  0.11482619522E+04  0.00000000000E+00 0. -1.
         21   -1    0    0  501  502  0.00000000000E+00 -0.00000000000E+00 -0.43992896393E+02  0.43992896393E+02  0.00000000000E+00 0. -1.
         24    2    1    2    0    0  0.30560792986E+02 -0.20834772313E+02  0.94787004929E+03  0.95191225653E+03  0.79443464037E+02 0.  0.
         23    2    1    2    0    0  0.14220513800E+01 -0.73156937555E+01  0.17315154469E+03  0.19456051464E+03  0.88412639489E+02 0.  0.
        -11    1    3    3    0    0  0.34973079184E+02 -0.79137248688E+00  0.16020295328E+03  0.16397783014E+03  0.00000000000E+00 0.  1.
         12    1    3    3    0    0 -0.44122861984E+01 -0.20043399827E+02  0.78766709601E+03  0.78793442639E+03  0.00000000000E+00 0. -1.
        -13    1    4    4    0    0  0.57080010655E+01  0.26758717159E+02  0.15152516594E+03  0.15397560239E+03  0.00000000000E+00 0.  1.
         13    1    4    4    0    0 -0.42859496855E+01 -0.34074410915E+02  0.21626378758E+02  0.40584912247E+02  0.00000000000E+00 0. -1.
          1    1    1    2  501    0 -0.31982844366E+02  0.28150466069E+02 -0.16752538214E+02  0.45782077391E+02  0.00000000000E+00 0. -1.
<scales pt_clust_5="13000.00000" pt_clust_6="13000.00000" pt_clust_7="13000.00000" pt_clust_8="13000.00000" pt_clust_9="42.60694"></scales>
<clustering>
<clus scale="   42.607">  2  9  1 -1</clus>
<clus scale="   79.443">  5  6 -1 -1</clus>
<clus scale="   85.020">  1  5  2 -1</clus>
<clus scale="   88.413">  7  8 -1 -1</clus>
<clus scale="   42.607">  2  5  1 -1</clus>
</clustering>
</event>
<event>
 9    2  0.1302972E-004  0.9530592E+02  0.7546771E-02  0.1297218E+00
          2   -1    0    0  502    0 -0.00000000000E+00  0.00000000000E+00  0.11870526730E+03  0.11870526730E+03  0.00000000000E+00 0. -1.
         21   -1    0    0  501  502  0.00000000000E+00 -0.00000000000E+00 -0.12244157733E+03  0.12244157733E+03  0.00000000000E+00 0. -1.
         24    2    1    2    0    0 -0.10844045277E+02 -0.36707627975E+02  0.39754651232E+02  0.97235197232E+02  0.80057529419E+02 0.  0.
         23    2    1    2    0    0 -0.13407144121E+02  0.48731372246E+01 -0.13390005105E+02  0.93835479905E+02  0.91773122822E+02 0.  0.
        -13    1    3    3    0    0  0.32055933293E+02 -0.47690903827E+01  0.27170077751E+02  0.42291136274E+02  0.00000000000E+00 0.  1.
         14    1    3    3    0    0 -0.42899978570E+02 -0.31938537593E+02  0.12584573481E+02  0.54944060958E+02  0.00000000000E+00 0. -1.
        -11    1    4    4    0    0 -0.24780321455E+02  0.39912765679E+02  0.12732519887E+02  0.48674533980E+02  0.00000000000E+00 0.  1.
         11    1    4    4    0    0  0.11373177334E+02 -0.35039628454E+02 -0.26122524993E+02  0.45160945925E+02  0.00000000000E+00 0. -1.
          1    1    1    2  501    0  0.24251189397E+02  0.31834490751E+02 -0.30100956164E+02  0.50076167490E+02  0.00000000000E+00 0. -1.
<scales pt_clust_5="13000.00000" pt_clust_6="13000.00000" pt_clust_7="13000.00000" pt_clust_8="13000.00000" pt_clust_9="40.01943"></scales>
<clustering>
<clus scale="   40.019">  2  9  1 -1</clus>
<clus scale="   80.058">  5  6 -1 -1</clus>
<clus scale="   84.084">  1  5  2 -1</clus>
<clus scale="   91.773">  7  8 -1 -1</clus>
<clus scale="   40.019">  2  5  1 -1</clus>
</clustering>
</event>
<event>
 9    2  0.1302972E-004  0.9886408E+02  0.7546771E-02  0.1288770E+00
         -3   -1    0    0    0  501 -0.00000000000E+00  0.00000000000E+00  0.60189568937E+02  0.60189568937E+02  0.00000000000E+00 0.  1.
         21   -1    0    0  501  502  0.00000000000E+00 -0.00000000000E+00 -0.58913761960E+03  0.58913761960E+03  0.00000000000E+00 0.  1.
         24    2    1    2    0    0 -0.28311579366E+02 -0.67900069483E+01 -0.73187381439E+01  0.84956206313E+02  0.79475426029E+02 0.  0.
         23    2    1    2    0    0  0.77768042075E+02  0.61379351406E+02 -0.26312333951E+03  0.29557500697E+03  0.91188814019E+02 0.  0.
        -13    1    3    3    0    0  0.25932560013E+02 -0.14543783834E+02 -0.48690913453E+00  0.29736448973E+02  0.00000000000E+00 0.  1.
         14    1    3    3    0    0 -0.54244139379E+02  0.77537768853E+01 -0.68318290094E+01  0.55219757339E+02  0.00000000000E+00 0. -1.
        -11    1    4    4    0    0  0.56776978284E+02  0.56479611828E+01 -0.20333030887E+03  0.21118413585E+03  0.00000000000E+00 0.  1.
         11    1    4    4    0    0  0.20991063791E+02  0.55731390224E+02 -0.59793030640E+02  0.84390871120E+02  0.00000000000E+00 0. -1.
         -4    1    1    2    0  502 -0.49456462709E+02 -0.54589344458E+02 -0.25850597301E+03  0.26879597525E+03  0.00000000000E+00 0.  1.
<scales pt_clust_5="13000.00000" pt_clust_6="13000.00000" pt_clust_7="13000.00000" pt_clust_8="13000.00000" pt_clust_9="73.66097"></scales>
<clustering>
<clus scale="   73.661">  2  9  1 -1</clus>
<clus scale="   79.475">  5  6 -1 -1</clus>
<clus scale="   88.176">  1  5  2 -1</clus>
<clus scale="   91.189">  7  8 -1 -1</clus>
<clus scale="   73.661">  2  5  1 -1</clus>
</clustering>
</event>
<event>
 9    2  0.1302972E-004  0.2898091E+03  0.7546771E-02  0.1121504E+00
         21   -1    0    0  501  502  0.00000000000E+00  0.00000000000E+00  0.15990497683E+03  0.15990497683E+03  0.00000000000E+00 0.  1.
         -1   -1    0    0    0  501 -0.00000000000E+00 -0.00000000000E+00 -0.82644866300E+03  0.82644866300E+03  0.00000000000E+00 0.  1.
         23    2    1    2    0    0 -0.87722007602E+01  0.94529797405E+02 -0.44253562480E+02  0.13789476862E+03  0.89686985209E+02 0.  0.
         24    2    1    2    0    0 -0.20014167226E+03 -0.23905444586E+03 -0.33133113649E+03  0.46220828858E+03  0.81562632179E+02 0.  0.
        -11    1    4    4    0    0 -0.16761017359E+03 -0.22835961276E+03 -0.26668818769E+03  0.38905510212E+03  0.00000000000E+00 0.  1.
         12    1    4    4    0    0 -0.32531498663E+02 -0.10694833102E+02 -0.64642948802E+02  0.73153186466E+02  0.00000000000E+00 0. -1.
        -11    1    3    3    0    0 -0.45797544399E+02  0.69410575591E+02 -0.15168428801E+02  0.84530020165E+02  0.00000000000E+00 0.  1.
         11    1    3    3    0    0  0.37025343639E+02  0.25119221813E+02 -0.29085133679E+02  0.53364748451E+02  0.00000000000E+00 0. -1.
         -2    1    1    2    0  502  0.20891387302E+03  0.14452464845E+03 -0.29095898719E+03  0.38625058262E+03  0.00000000000E+00 0.  1.
<scales pt_clust_5="13000.00000" pt_clust_6="13000.00000" pt_clust_7="13000.00000" pt_clust_8="13000.00000" pt_clust_9="278.09505"></scales>
<clustering>
<clus scale="   81.563">  5  6 -1 -1</clus>
<clus scale="   89.687">  7  8 -1 -1</clus>
<clus scale="  130.601">  2  7  1 -1</clus>
<clus scale="  278.095">  1  9  2 -1</clus>
<clus scale="  278.095">  1  5  2 -1</clus>
</clustering>
</event>
<event>
 9    2  0.1302972E-004  0.1092186E+03  0.7546771E-02  0.1268990E+00
         21   -1    0    0  501  502  0.00000000000E+00  0.00000000000E+00  0.22351574293E+03  0.22351574293E+03  0.00000000000E+00 0. -1.
         -1   -1    0    0    0  501 -0.00000000000E+00 -0.00000000000E+00 -0.14677576087E+03  0.14677576087E+03  0.00000000000E+00 0.  1.
         23    2    1    2    0    0  0.56709715770E+02 -0.12105562012E+02 -0.74037338952E+02  0.13543015976E+03  0.97453907668E+02 0.  0.
         24    2    1    2    0    0 -0.30283934864E+02  0.22446895633E+02  0.90933301518E+01  0.90363529714E+02  0.81620457085E+02 0.  0.
        -11    1    4    4    0    0 -0.17140698669E+02  0.49417901756E+02  0.23187108124E+02  0.57215160124E+02  0.00000000000E+00 0.  1.
         12    1    4    4    0    0 -0.13143236195E+02 -0.26971006123E+02 -0.14093777972E+02  0.33148369591E+02  0.00000000000E+00 0. -1.
        -13    1    3    3    0    0  0.23446146217E+02 -0.36961678781E+02 -0.82184572302E+02  0.93113862529E+02  0.00000000000E+00 0.  1.
         13    1    3    3    0    0  0.33263569553E+02  0.24856116768E+02  0.81472333501E+01  0.42316297233E+02  0.00000000000E+00 0. -1.
         -2    1    1    2    0  502 -0.26425780906E+02 -0.10341333620E+02  0.14168399086E+03  0.14449781432E+03  0.00000000000E+00 0.  1.
<scales pt_clust_5="13000.00000" pt_clust_6="13000.00000" pt_clust_7="13000.00000" pt_clust_8="13000.00000" pt_clust_9="28.37719"></scales>
<clustering>
<clus scale="   28.377">  1  9  2 -1</clus>
<clus scale="   81.620">  5  6 -1 -1</clus>
<clus scale="   95.359">  1  5  2 -1</clus>
<clus scale="   97.454">  7  8 -1 -1</clus>
<clus scale="   28.377">  1  5  2 -1</clus>
</clustering>
</event>
<event>
 9    2  0.1302972E-004  0.1530307E+03  0.7546771E-02  0.1199732E+00
         21   -1    0    0  501  502  0.00000000000E+00  0.00000000000E+00  0.20565166596E+03  0.20565166596E+03  0.00000000000E+00 0.  1.
          2   -1    0    0  502    0 -0.00000000000E+00 -0.00000000000E+00 -0.12784273502E+03  0.12784273502E+03  0.00000000000E+00 0. -1.
         23    2    1    2    0    0 -0.12002800179E+03  0.24582247359E+01  0.24461046552E+02  0.15269038457E+03  0.91122152406E+02 0.  0.
         24    2    1    2    0    0  0.12545659347E+03  0.17462354834E+02  0.30282432504E+02  0.14984736659E+03  0.74114215057E+02 0.  0.
        -11    1    4    4    0    0  0.10952589234E+03  0.34385948116E+02  0.43906083727E+02  0.12290670734E+03  0.00000000000E+00 0.  1.
         12    1    4    4    0    0  0.15930701129E+02 -0.16923593282E+02 -0.13623651224E+02  0.26940659247E+02  0.00000000000E+00 0. -1.
        -11    1    3    3    0    0 -0.74684894692E+02  0.12817434419E+02  0.57934407302E+02  0.95386139819E+02  0.00000000000E+00 0.  1.
         11    1    3    3    0    0 -0.45343107094E+02 -0.10359209683E+02 -0.33473360750E+02  0.57304244748E+02  0.00000000000E+00 0. -1.
          1    1    1    2  501    0 -0.54285916870E+01 -0.19920579570E+02  0.23065451880E+02  0.30956649828E+02  0.00000000000E+00 0. -1.
<scales pt_clust_5="13000.00000" pt_clust_6="13000.00000" pt_clust_7="13000.00000" pt_clust_8="13000.00000" pt_clust_9="20.64701"></scales>
<clustering>
<clus scale="   20.647">  1  9  2 -1</clus>
<clus scale="   74.114">  5  6 -1 -1</clus>
<clus scale="   91.122">  7  8 -1 -1</clus>
<clus scale="  143.555">  1  5  2 -1</clus>
<clus scale="   20.647">  1  5  2 -1</clus>
</clustering>
</event>
<event>
 9    2  0.1302972E-004  0.1458256E+03  0.7546771E-02  0.1209372E+00
         21   -1    0    0  501  502  0.00000000000E+00  0.00000000000E+00  0.28189658741E+03  0.28189658741E+03  0.00000000000E+00 0. -1.
          2   -1    0    0  502    0 -0.00000000000E+00 -0.00000000000E+00 -0.11668722933E+03  0.11668722933E+03  0.00000000000E+00 0. -1.
         23    2    1    2    0    0  0.11167225505E+03  0.78243952301E+02  0.31001227075E+02  0.17015744219E+03  0.96951897509E+02 0.  0.
         24    2    1    2    0    0 -0.79115168686E+02 -0.15572330088E+02  0.94425090605E+02  0.14736845448E+03  0.79370373934E+02 0.  0.
        -11    1    4    4    0    0 -0.13453635172E+02 -0.30961801361E+02  0.31839858400E+01  0.33908276404E+02  0.00000000000E+00 0.  1.
         12    1    4    4    0    0 -0.65661533514E+02  0.15389471273E+02  0.91241104765E+02  0.11346017807E+03  0.00000000000E+00 0. -1.
        -11    1    3    3    0    0 -0.10415079444E+02  0.37004927744E+02  0.75297894089E+01  0.39173157719E+02  0.00000000000E+00 0.  1.
         11    1    3    3    0    0  0.12208733450E+03  0.41239024558E+02  0.23471437666E+02  0.13098428447E+03  0.00000000000E+00 0. -1.
          1    1    1    2  501    0 -0.32557086367E+02 -0.62671622213E+02  0.39783040404E+02  0.81057920078E+02  0.00000000000E+00 0. -1.
<scales pt_clust_5="13000.00000" pt_clust_6="13000.00000" pt_clust_7="13000.00000" pt_clust_8="13000.00000" pt_clust_9="70.62362"></scales>
<clustering>
<clus scale="   70.624">  1  9  2 -1</clus>
<clus scale="   79.370">  5  6 -1 -1</clus>
<clus scale="   96.952">  7  8 -1 -1</clus>
<clus scale="  134.778">  1  5  2 -1</clus>
<clus scale="   70.624">  1  5  2 -1</clus>
</clustering>
</event>
<event>
 9    2  0.1302972E-004  0.2099431E+03  0.7546771E-02  0.1143484E+00
          2   -1    0    0  502    0 -0.00000000000E+00  0.00000000000E+00  0.30990885881E+03  0.30990885881E+03  0.00000000000E+00 0. -1.
         21   -1    0    0  501  502  0.00000000000E+00 -0.00000000000E+00 -0.24789055820E+03  0.24789055820E+03  0.00000000000E+00 0.  1.
         24    2    1    2    0    0  0.82802420140E+02 -0.16862602410E+03  0.21149612869E+03  0.29394996972E+03  0.79906166640E+02 0.  0.
         23    2    1    2    0    0 -0.72760145483E+02  0.14996521778E+03 -0.14304259698E+03  0.24170254746E+03  0.10087284859E+03 0.  0.
        -13    1    3    3    0    0  0.64813634668E+02 -0.46021005337E+02  0.70625010344E+02  0.10633264907E+03  0.00000000000E+00 0.  1.
         14    1    3    3    0    0  0.17988785472E+02 -0.12260501876E+03  0.14087111834E+03  0.18761732066E+03  0.00000000000E+00 0. -1.
        -13    1    4    4    0    0 -0.40853093848E+02  0.15526648472E+03 -0.13091109423E+03  0.20715784115E+03  0.00000000000E+00 0.  1.
         13    1    4    4    0    0 -0.31907051636E+02 -0.53012669408E+01 -0.12131502742E+02  0.34544706310E+02  0.00000000000E+00 0. -1.
          1    1    1    2  501    0 -0.10042274656E+02  0.18660806318E+02 -0.64352311082E+01  0.22146899831E+02  0.00000000000E+00 0. -1.
<scales pt_clust_5="13000.00000" pt_clust_6="13000.00000" pt_clust_7="13000.00000" pt_clust_8="13000.00000" pt_clust_9="21.19134"></scales>
<clustering>
<clus scale="   21.191">  2  9  1 -1</clus>
<clus scale="   79.906">  5  6 -1 -1</clus>
<clus scale="  100.873">  7  8 -1 -1</clus>
<clus scale="  200.713">  1  5  2 -1</clus>
<clus scale="   21.191">  2  5  1 -1</clus>
</clustering>
</event>
<event>
 9    2  0.1302972E-004  0.1762478E+03  0.7546771E-02  0.1175512E+00
          2   -1    0    0  502    0 -0.00000000000E+00  0.00000000000E+00  0.72473543362E+03  0.72473543362E+03  0.00000000000E+00 0. -1.
         21   -1    0    0  501  502  0.00000000000E+00 -0.00000000000E+00 -0.96899933253E+02  0.96899933253E+02  0.00000000000E+00 0.  1.
         24    2    1    2    0    0  0.13823496646E+03 -0.22784545030E+02  0.58781658832E+03  0.60947071072E+03  0.79360974570E+02 0.  0.
         23    2    1    2    0    0 -0.13145368196E+03  0.51493372927E+02  0.43284842118E+02  0.18248555715E+03  0.10721829626E+03 0.  0.
        -11    1    3    3    0    0  0.56526002175E+02 -0.58951422558E+01  0.10402975969E+03  0.11854169109E+03  0.00000000000E+00 0.  1.
         12    1    3    3    0    0  0.81708964283E+02 -0.16889402775E+02  0.48378682862E+03  0.49092901963E+03  0.00000000000E+00 0. -1.
        -11    1    4    4    0    0 -0.45734758538E+02 -0.31737856166E+02  0.27104492662E+02  0.61916178621E+02  0.00000000000E+00 0.  1.
         11    1    4    4    0    0 -0.85718923423E+02  0.83231229093E+02  0.16180349457E+02  0.12056937852E+03  0.00000000000E+00 0. -1.
          1    1    1    2  501    0 -0.67812844970E+01 -0.28708827896E+02 -0.32659300672E+01  0.29679099006E+02  0.00000000000E+00 0. -1.
<scales pt_clust_5="13000.00000" pt_clust_6="13000.00000" pt_clust_7="13000.00000" pt_clust_8="13000.00000" pt_clust_9="29.49886"></scales>
<clustering>
<clus scale="   29.499">  2  9  1 -1</clus>
<clus scale="   79.361">  5  6 -1 -1</clus>
<clus scale="  107.218">  7  8 -1 -1</clus>
<clus scale="  160.828">  1  5  2 -1</clus>
<clus scale="   29.499">  2  5  1 -1</clus>
</clustering>
</event>
<event>
 9    2  0.1302972E-004  0.1137613E+03  0.7546771E-02  0.1257713E+00
         21   -1    0    0  501  502  0.00000000000E+00  0.00000000000E+00  0.54262252311E+03  0.54262252311E+03  0.00000000000E+00 0.  1.
          2   -1    0    0  502    0 -0.00000000000E+00 -0.00000000000E+00 -0.32625489805E+02  0.32625489805E+02  0.00000000000E+00 0. -1.
         23    2    1    2    0    0  0.19494485706E+02 -0.74953508187E+02  0.17816348313E+03  0.21509528077E+03  0.92334661560E+02 0.  0.
         24    2    1    2    0    0 -0.39192267497E+02  0.42962775972E+02  0.21010451740E+03  0.23275819939E+03  0.81551438994E+02 0.  0.
        -11    1    4    4    0    0 -0.32385816659E+02  0.23926737184E+02  0.26861112380E+02  0.48402987834E+02  0.00000000000E+00 0.  1.
         12    1    4    4    0    0 -0.68064508373E+01  0.19036038788E+02  0.18324340502E+03  0.18435521156E+03  0.00000000000E+00 0. -1.
        -13    1    3    3    0    0  0.22989478837E+02 -0.66630328333E+01  0.12817812951E+03  0.13039380748E+03  0.00000000000E+00 0.  1.
         13    1    3    3    0    0 -0.34949931307E+01 -0.68290475354E+02  0.49985353617E+02  0.84701473289E+02  0.00000000000E+00 0. -1.
          1    1    1    2  501    0  0.19697781791E+02  0.31990732216E+02  0.12172903277E+03  0.12739453275E+03  0.00000000000E+00 0. -1.
<scales pt_clust_5="13000.00000" pt_clust_6="13000.00000" pt_clust_7="13000.00000" pt_clust_8="13000.00000" pt_clust_9="37.56873"></scales>
<clustering>
<clus scale="   37.569">  1  9  2 -1</clus>
<clus scale="   81.551">  5  6 -1 -1</clus>
<clus scale="   92.335">  7  8 -1 -1</clus>
<clus scale="  105.198">  1  5  2 -1</clus>
<clus scale="   37.569">  1  5  2 -1</clus>
</clustering>
</event>
<event>
 9    2  0.1302972E-004  0.1077348E+03  0.7546771E-02  0.1266973E+00
         -3   -1    0    0    0  501 -0.00000000000E+00  0.00000000000E+00  0.53372637147E+03  0.53372637147E+03  0.00000000000E+00 0.  1.
         21   -1    0    0  501  502  0.00000000000E+00 -0.00000000000E+00 -0.10386843699E+03  0.10386843699E+03  0.00000000000E+00 0.  1.
         23    2    1    2    0    0 -0.16775759150E+02 -0.65299399052E+02  0.42912847313E+03  0.44286321748E+03  0.86204091169E+02 0.  0.
         24    2    1    2    0    0 -0.60735257697E+02  0.55506557784E+02  0.11924345715E+02  0.11580641814E+03  0.80617535165E+02 0.  0.
        -13    1    4    4    0    0 -0.62705835666E+02  0.58863584152E+02  0.34669661400E+02  0.92730409184E+02  0.00000000000E+00 0.  1.
         14    1    4    4    0    0  0.19705779685E+01 -0.33570263674E+01 -0.22745315685E+02  0.23076008952E+02  0.00000000000E+00 0. -1.
        -13    1    3    3    0    0  0.68203140212E+01  0.19857217293E+02  0.89092316038E+02  0.91532871358E+02  0.00000000000E+00 0. -1.
         13    1    3    3    0    0 -0.23596073171E+02 -0.85156616346E+02  0.34003615709E+03  0.35133034612E+03  0.00000000000E+00 0.  1.
         -4    1    1    2    0  502  0.77511016847E+02  0.97928412680E+01 -0.11194884360E+02  0.78925172845E+02  0.00000000000E+00 0.  1.
<scales pt_clust_5="13000.00000" pt_clust_6="13000.00000" pt_clust_7="13000.00000" pt_clust_8="13000.00000" pt_clust_9="78.12719"></scales>
<clustering>
<clus scale="   78.127">  2  9  1 -1</clus>
<clus scale="   80.618">  5  6 -1 -1</clus>
<clus scale="   86.204">  7  8 -1 -1</clus>
<clus scale="  103.319">  2  5  1 -1</clus>
<clus scale="   78.127">  2  5  1 -1</clus>
</clustering>
</event>
<event>
 9    2  0.1302972E-004  0.9481897E+02  0.7546771E-02  0.1294458E+00
         -1   -1    0    0    0  501 -0.00000000000E+00  0.00000000000E+00  0.52849686297E+03  0.52849686297E+03  0.00000000000E+00 0.  1.
         21   -1    0    0  501  502  0.00000000000E+00 -0.00000000000E+00 -0.38001017081E+02  0.38001017081E+02  0.00000000000E+00 0.  1.
         23    2    1    2    0    0  0.51244167532E+02 -0.53877362792E+01  0.33971283269E+03  0.35470572097E+03  0.88070127659E+02 0.  0.
         24    2    1    2    0    0  0.81211521744E+01  0.23935771981E+02  0.90029328580E+02  0.12484803330E+03  0.82721684718E+02 0.  0.
        -11    1    4    4    0    0 -0.24061867760E+02 -0.20089257991E+02  0.40206435552E+02  0.50981459635E+02  0.00000000000E+00 0.  1.
         12    1    4    4    0    0  0.32183019934E+02  0.44025029972E+02  0.49822893028E+02  0.73866573670E+02  0.00000000000E+00 0. -1.
        -13    1    3    3    0    0 -0.13333487975E+02  0.16959622606E+02  0.26729743916E+02  0.34349525620E+02  0.00000000000E+00 0. -1.
         13    1    3    3    0    0  0.64577655507E+02 -0.22347358886E+02  0.31298308877E+03  0.32035619535E+03  0.00000000000E+00 0.  1.
         -2    1    1    2    0  502 -0.59365319706E+02 -0.18548035702E+02  0.60753684618E+02  0.86944125775E+02  0.00000000000E+00 0.  1.
<scales pt_clust_5="13000.00000" pt_clust_6="13000.00000" pt_clust_7="13000.00000" pt_clust_8="13000.00000" pt_clust_9="62.19542"></scales>
<clustering>
<clus scale="   62.195">  2  9  1 -1</clus>
<clus scale="   82.722">  5  6 -1 -1</clus>
<clus scale="   88.070">  7  8 -1 -1</clus>
<clus scale="   89.873">  2  5  1 -1</clus>
<clus scale="   62.195">  2  5  1 -1</clus>
</clustering>
</event>
<event>
 9    2  0.1302972E-004  0.3188362E+03  0.7546771E-02  0.1123686E+00
         21   -1    0    0  501  502  0.00000000000E+00  0.00000000000E+00  0.27536035314E+03  0.27536035314E+03  0.00000000000E+00 0.  1.
          2   -1    0    0  502    0 -0.00000000000E+00 -0.00000000000E+00 -0.69956657731E+03  0.69956657731E+03  0.00000000000E+00 0. -1.
         24    2    1    2    0    0 -0.43764871998E+02  0.20103111374E+01 -0.96200024746E+02  0.13373067271E+03  0.81914850239E+02 0.  0.
         23    2    1    2    0    0 -0.57842720313E+02  0.29700011344E+03  0.78726099255E+02  0.32625694130E+03  0.93225239939E+02 0.  0.
        -11    1    3    3    0    0 -0.85972079955E+01  0.40120018078E+02 -0.43329501523E+02  0.59673893272E+02  0.00000000000E+00 0.  1.
         12    1    3    3    0    0 -0.35167664003E+02 -0.38109706941E+02 -0.52870523223E+02  0.74056779436E+02  0.00000000000E+00 0. -1.
        -11    1    4    4    0    0 -0.71102201421E+02  0.25455829798E+03  0.40037980139E+02  0.26731720852E+03  0.00000000000E+00 0.  1.
         11    1    4    4    0    0  0.13259481108E+02  0.42441815468E+02  0.38688119117E+02  0.58939732780E+02  0.00000000000E+00 0. -1.
          1    1    1    2  501    0  0.10160759231E+03 -0.29901042458E+03 -0.40673229868E+03  0.51493931644E+03  0.00000000000E+00 0. -1.
<scales pt_clust_5="13000.00000" pt_clust_6="13000.00000" pt_clust_7="13000.00000" pt_clust_8="13000.00000" pt_clust_9="304.90269"></scales>
<clustering>
<clus scale="   81.915">  5  6 -1 -1</clus>
<clus scale="   92.895">  2  5  1 -1</clus>
<clus scale="   93.225">  7  8 -1 -1</clus>
<clus scale="  304.903">  1  9  2 -1</clus>
<clus scale="  304.903">  1  5  2 -1</clus>
</clustering>
</event>
<event>
 9    2  0.1302972E-004  0.1049343E+03  0.7546771E-02  0.1273219E+00
          4   -1    0    0  502    0 -0.00000000000E+00  0.00000000000E+00  0.59621680185E+02  0.59621680185E+02  0.00000000000E+00 0. -1.
         21   -1    0    0  501  502  0.00000000000E+00 -0.00000000000E+00 -0.43947035182E+03  0.43947035182E+03  0.00000000000E+00 0.  1.
         23    2    1    2    0    0 -0.69966170741E+02 -0.22413852916E+02 -0.75819908919E+02  0.13705503218E+03  0.87394378570E+02 0.  0.
         24    2    1    2    0    0  0.30937335173E+02 -0.50029529729E+02 -0.23287296540E+03  0.25325078201E+03  0.80287408869E+02 0.  0.
        -11    1    4    4    0    0  0.28302109263E+02 -0.64875894774E+02 -0.11957220376E+03  0.13895108141E+03  0.00000000000E+00 0.  1.
         12    1    4    4    0    0  0.26352259102E+01  0.14846365045E+02 -0.11330076164E+03  0.11429970061E+03  0.00000000000E+00 0. -1.
        -13    1    3    3    0    0 -0.84488186939E+02 -0.57174120570E+00 -0.71055186747E+02  0.11039664933E+03  0.00000000000E+00 0. -1.
         13    1    3    3    0    0  0.14522016198E+02 -0.21842111711E+02 -0.47647221726E+01  0.26658382844E+02  0.00000000000E+00 0.  1.
          3    1    1    2  501    0  0.39028835568E+02  0.72443382646E+02 -0.71155797312E+02  0.10878621781E+03  0.00000000000E+00 0. -1.
<scales pt_clust_5="13000.00000" pt_clust_6="13000.00000" pt_clust_7="13000.00000" pt_clust_8="13000.00000" pt_clust_9="82.28791"></scales>
<clustering>
<clus scale="   80.287">  5  6 -1 -1</clus>
<clus scale="   82.288">  2  9  1 -1</clus>
<clus scale="   87.394">  7  8 -1 -1</clus>
<clus scale="   99.093">  2  5  1 -1</clus>
<clus scale="   82.288">  2  5  1 -1</clus>
</clustering>
</event>
<event>
 9    2  0.1302972E-004  0.9862552E+02  0.7546771E-02  0.1288547E+00
         21   -1    0    0  501  502  0.00000000000E+00  0.00000000000E+00  0.22918126995E+03  0.22918126995E+03  0.00000000000E+00 0. -1.
          2   -1    0    0  502    0 -0.00000000000E+00 -0.00000000000E+00 -0.20207821812E+03  0.20207821812E+03  0.00000000000E+00 0. -1.
         23    2    1    2    0    0 -0.16730702961E+02  0.43418965589E+02 -0.15410539233E+03  0.18551393760E+03  0.92205347497E+02 0.  0.
         24    2    1    2    0    0 -0.42752586019E+01  0.24623855070E+02  0.58300696606E+02  0.10369840944E+03  0.82035216958E+02 0.  0.
        -11    1    4    4    0    0  0.19216071968E+02  0.37276468868E+02  0.63902103228E+02  0.76434752240E+02  0.00000000000E+00 0.  1.
         12    1    4    4    0    0 -0.23491330570E+02 -0.12652613797E+02 -0.56014066219E+01  0.27263657202E+02  0.00000000000E+00 0. -1.
        -13    1    3    3    0    0 -0.53246461235E+02  0.25916471289E+02 -0.11431134897E+03  0.12873979035E+03  0.00000000000E+00 0.  1.
         13    1    3    3    0    0  0.36515758273E+02  0.17502494300E+02 -0.39794043361E+02  0.56774147251E+02  0.00000000000E+00 0. -1.
          1    1    1    2  501    0  0.21005961563E+02 -0.68042820660E+02  0.12290774755E+03  0.14204714102E+03  0.00000000000E+00 0. -1.
<scales pt_clust_5="13000.00000" pt_clust_6="13000.00000" pt_clust_7="13000.00000" pt_clust_8="13000.00000" pt_clust_9="71.21149"></scales>
<clustering>
<clus scale="   71.211">  1  9  2 -1</clus>
<clus scale="   82.035">  5  6 -1 -1</clus>
<clus scale="   89.190">  1  5  2 -1</clus>
<clus scale="   92.205">  7  8 -1 -1</clus>
<clus scale="   71.211">  1  5  2 -1</clus>
</clustering>
</event>
<event>
 9    2  0.1302972E-004  0.1664128E+03  0.7546771E-02  0.1183068E+00
         21   -1    0    0  501  502  0.00000000000E+00  0.00000000000E+00  0.10362750547E+04  0.10362750547E+04  0.00000000000E+00 0. -1.
          4   -1    0    0  502    0 -0.00000000000E+00 -0.00000000000E+00 -0.46564401532E+02  0.46564401532E+02  0.00000000000E+00 0. -1.
         23    2    1    2    0    0 -0.63988404382E+02 -0.90812011077E+02  0.25286715748E+03  0.29067326171E+03  0.90596956305E+02 0.  0.
         24    2    1    2    0    0  0.11531043814E+03  0.15061575745E+03  0.45476939821E+03  0.49929039201E+03  0.80585894951E+02 0.  0.
        -11    1    4    4    0    0  0.46461645775E+02  0.74342421535E+02  0.11675805095E+03  0.14600658420E+03  0.00000000000E+00 0.  1.
         12    1    4    4    0    0  0.68848792361E+02  0.76273335915E+02  0.33801134726E+03  0.35328380781E+03  0.00000000000E+00 0. -1.
        -13    1    3    3    0    0 -0.53853045820E+02 -0.52170391642E+02  0.23543625586E+03  0.24708729405E+03  0.00000000000E+00 0.  1.
         13    1    3    3    0    0 -0.10135358562E+02 -0.38641619435E+02  0.17430901620E+02  0.43585967662E+02  0.00000000000E+00 0. -1.
          3    1    1    2  501    0 -0.51322033754E+02 -0.59803746373E+02  0.28207409745E+03  0.29287580249E+03  0.00000000000E+00 0. -1.
<scales pt_clust_5="13000.00000" pt_clust_6="13000.00000" pt_clust_7="13000.00000" pt_clust_8="13000.00000" pt_clust_9="78.80634"></scales>
<clustering>
<clus scale="   78.806">  1  9  2 -1</clus>
<clus scale="   80.586">  5  6 -1 -1</clus>
<clus scale="   90.597">  7  8 -1 -1</clus>
<clus scale="  161.182">  1  5  2 -1</clus>
<clus scale="   78.806">  1  5  2 -1</clus>
</clustering>
</event>
<event>
 9    2  0.1302972E-004  0.1448219E+03  0.7546771E-02  0.1209063E+00
          2   -1    0    0  502    0 -0.00000000000E+00  0.00000000000E+00  0.14714362744E+03  0.14714362744E+03  0.00000000000E+00 0. -1.
         21   -1    0    0  501  502  0.00000000000E+00 -0.00000000000E+00 -0.23307684036E+03  0.23307684036E+03  0.00000000000E+00 0.  1.
         24    2    1    2    0    0 -0.66588492954E+01 -0.10634450553E+03  0.53670540063E+02  0.14607818908E+03  0.84290072508E+02 0.  0.
         23    2    1    2    0    0 -0.21867540552E+02  0.12164329573E+03 -0.11202852243E+03  0.19161932915E+03  0.94298975294E+02 0.  0.
        -13    1    3    3    0    0  0.16108283677E+02 -0.10759896356E+03  0.57339773741E+02  0.12298318346E+03  0.00000000000E+00 0.  1.
         14    1    3    3    0    0 -0.22767132972E+02  0.12544580254E+01 -0.36692336775E+01  0.23095005618E+02  0.00000000000E+00 0. -1.
        -11    1    4    4    0    0 -0.49245549675E+02  0.34442760717E+02 -0.23958763801E+02  0.64695056160E+02  0.00000000000E+00 0. -1.
         11    1    4    4    0    0  0.27378009124E+02  0.87200535009E+02 -0.88069758625E+02  0.12692427299E+03  0.00000000000E+00 0.  1.
          1    1    1    2  501    0  0.28526389847E+02 -0.15298790192E+02 -0.27575230558E+02  0.42522949561E+02  0.00000000000E+00 0. -1.
<scales pt_clust_5="13000.00000" pt_clust_6="13000.00000" pt_clust_7="13000.00000" pt_clust_8="13000.00000" pt_clust_9="32.36986"></scales>
<clustering>
<clus scale="   32.370">  2  9  1 -1</clus>
<clus scale="   84.290">  5  6 -1 -1</clus>
<clus scale="   94.299">  7  8 -1 -1</clus>
<clus scale="  138.513">  1  5  2 -1</clus>
<clus scale="   32.370">  2  5  1 -1</clus>
</clustering>
</event>
<event>
 9    2  0.1302972E-004  0.1331323E+03  0.7546771E-02  0.1226893E+00
          2   -1    0    0  502    0 -0.00000000000E+00  0.00000000000E+00  0.79250958500E+03  0.79250958500E+03  0.00000000000E+00 0. -1.
         21   -1    0    0  501  502  0.00000000000E+00 -0.00000000000E+00 -0.46150034882E+02  0.46150034882E+02  0.00000000000E+00 0. -1.
         23    2    1    2    0    0  0.34079736359E+02  0.84713353658E+02  0.63620480642E+03  0.65045438033E+03  0.99982820838E+02 0.  0.
         24    2    1    2    0    0 -0.19095131068E+01 -0.79325302738E+02  0.10142077114E+03  0.15443784946E+03  0.85256827483E+02 0.  0.
        -11    1    4    4    0    0 -0.22716747862E+02 -0.70753814391E+02  0.10790589233E+03  0.13101845093E+03  0.00000000000E+00 0.  1.
         12    1    4    4    0    0  0.20807234755E+02 -0.85714883463E+01 -0.64851211921E+01  0.23419398530E+02  0.00000000000E+00 0. -1.
        -13    1    3    3    0    0  0.66858632716E+02  0.34862666419E+02  0.33210055680E+03  0.34055287711E+03  0.00000000000E+00 0. -1.
         13    1    3    3    0    0 -0.32778896356E+02  0.49850687239E+02  0.30410424962E+03  0.30990150322E+03  0.00000000000E+00 0.  1.
          1    1    1    2  501    0 -0.32170223253E+02 -0.53880509206E+01  0.87339725600E+01  0.33767390090E+02  0.00000000000E+00 0. -1.
<scales pt_clust_5="13000.00000" pt_clust_6="13000.00000" pt_clust_7="13000.00000" pt_clust_8="13000.00000" pt_clust_9="32.61831"></scales>
<clustering>
<clus scale="   32.618">  2  9  1 -1</clus>
<clus scale="   85.257">  5  6 -1 -1</clus>
<clus scale="   99.983">  7  8 -1 -1</clus>
<clus scale="  122.460">  2  5  1 -1</clus>
<clus scale="   32.618">  2  5  1 -1</clus>
</clustering>
</event>
<event>
 9    2  0.1302972E-004  0.1085715E+03  0.7546771E-02  0.1267308E+00
         21   -1    0    0  501  502  0.00000000000E+00  0.00000000000E+00  0.94813263866E+02  0.94813263866E+02  0.00000000000E+00 0.  1.
         -3   -1    0    0    0  501 -0.00000000000E+00 -0.00000000000E+00 -0.24554939232E+03  0.24554939232E+03  0.00000000000E+00 0.  1.
         23    2    1    2    0    0 -0.54200501811E+01 -0.63554833691E+02 -0.18108236597E+03  0.21253542565E+03  0.91169567625E+02 0.  0.
         24    2    1    2    0    0 -0.10498745636E+02  0.44288461654E+02  0.64562720244E+01  0.93253662544E+02  0.81134891594E+02 0.  0.
        -11    1    4    4    0    0 -0.63078247720E+01  0.22787038877E+02 -0.37390645198E+02  0.44239101963E+02  0.00000000000E+00 0.  1.
         12    1    4    4    0    0 -0.41909208641E+01  0.21501422777E+02  0.43846917222E+02  0.49014560582E+02  0.00000000000E+00 0. -1.
        -13    1    3    3    0    0 -0.32606040983E+02 -0.58363470109E+02 -0.17008714945E+03  0.18275417084E+03  0.00000000000E+00 0.  1.
         13    1    3    3    0    0  0.27185990801E+02 -0.51913635829E+01 -0.10995216523E+02  0.29781254811E+02  0.00000000000E+00 0. -1.
         -4    1    1    2    0  502  0.15918795817E+02  0.19266372038E+02  0.23889965499E+02  0.34573567986E+02  0.00000000000E+00 0.  1.
<scales pt_clust_5="13000.00000" pt_clust_6="13000.00000" pt_clust_7="13000.00000" pt_clust_8="13000.00000" pt_clust_9="24.99202"></scales>
<clustering>
<clus scale="   24.992">  1  9  2 -1</clus>
<clus scale="   81.135">  5  6 -1 -1</clus>
<clus scale="   91.170">  7  8 -1 -1</clus>
<clus scale="  100.293">  1  5  2 -1</clus>
<clus scale="   24.992">  1  5  2 -1</clus>
</clustering>
</event>
<event>
 9    2  0.1302972E-004  0.1639739E+03  0.7546771E-02  0.1187543E+00
          4   -1    0    0  502    0 -0.00000000000E+00  0.00000000000E+00  0.91456582142E+02  0.91456582142E+02  0.00000000000E+00 0. -1.
         21   -1    0    0  501  502  0.00000000000E+00 -0.00000000000E+00 -0.88773744148E+03  0.88773744148E+03  0.00000000000E+00 0. -1.
         23    2    1    2    0    0 -0.37523681841E+02  0.13169789260E+03  0.16306283422E+01  0.16568465728E+03  0.93254410591E+02 0.  0.
         24    2    1    2    0    0  0.27875910148E+02 -0.11325215226E+03 -0.72097188422E+03  0.73380348566E+03  0.71161656596E+02 0.  0.
        -11    1    4    4    0    0 -0.14672548333E+02 -0.51518730934E+02 -0.18454292152E+03  0.19216022792E+03  0.00000000000E+00 0.  1.
         12    1    4    4    0    0  0.42548458481E+02 -0.61733421326E+02 -0.53642896270E+03  0.54164325774E+03  0.00000000000E+00 0. -1.
        -11    1    3    3    0    0  0.26620268830E+02  0.61913196072E+02  0.17382044123E+02  0.69598980009E+02  0.00000000000E+00 0.  1.
         11    1    3    3    0    0 -0.64143950672E+02  0.69784696526E+02 -0.15751415781E+02  0.96085677269E+02  0.00000000000E+00 0. -1.
          3    1    1    2  501    0  0.96477716939E+01 -0.18445740338E+02 -0.76939603458E+02  0.79705880683E+02  0.00000000000E+00 0. -1.
<scales pt_clust_5="13000.00000" pt_clust_6="13000.00000" pt_clust_7="13000.00000" pt_clust_8="13000.00000" pt_clust_9="20.81646"></scales>
<clustering>
<clus scale="   20.816">  2  9  1 -1</clus>
<clus scale="   71.162">  5  6 -1 -1</clus>
<clus scale="   93.254">  7  8 -1 -1</clus>
<clus scale="  152.496">  2  5  1 -1</clus>
<clus scale="   20.816">  2  5  1 -1</clus>
</clustering>
</event>
<event>
 9    2  0.1302972E-004  0.1169479E+03  0.7546771E-02  0.1252530E+00
         21   -1    0    0  501  502  0.00000000000E+00  0.00000000000E+00  0.30396070332E+02  0.30396070332E+02  0.00000000000E+00 0. -1.
          2   -1    0    0  502    0 -0.00000000000E+00 -0.00000000000E+00 -0.86176586570E+03  0.86176586570E+03  0.00000000000E+00 0. -1.
         23    2    1    2    0    0 -0.52932366747E+02 -0.87554663352E+02 -0.41006820501E+03  0.43251624428E+03  0.91906007892E+02 0.  0.
         24    2    1    2    0    0  0.60051290065E+02  0.38460081189E+01 -0.21626931801E+03  0.23806940526E+03  0.79269632207E+02 0.  0.
        -11    1    4    4    0    0  0.36464013869E+02  0.27222650194E+02 -0.46419629137E+02  0.65003684205E+02  0.00000000000E+00 0.  1.
         12    1    4    4    0    0  0.23587276196E+02 -0.23376642075E+02 -0.16984968887E+03  0.17306572105E+03  0.00000000000E+00 0. -1.
        -11    1    3    3    0    0 -0.73024060253E+02 -0.43696831756E+02 -0.30934123120E+03  0.32083317129E+03  0.00000000000E+00 0.  1.
         11    1    3    3    0    0  0.20091693506E+02 -0.43857831596E+02 -0.10072697381E+03  0.11168307299E+03  0.00000000000E+00 0. -1.
          1    1    1    2  501    0 -0.71189233181E+01  0.83708655233E+02 -0.20503227235E+03  0.22157628649E+03  0.00000000000E+00 0. -1.
<scales pt_clust_5="13000.00000" pt_clust_6="13000.00000" pt_clust_7="13000.00000" pt_clust_8="13000.00000" pt_clust_9="84.01082"></scales>
<clustering>
<clus scale="   79.270">  5  6 -1 -1</clus>
<clus scale="   84.011">  1  9  2 -1</clus>
<clus scale="   91.906">  7  8 -1 -1</clus>
<clus scale="  107.302">  1  5  2 -1</clus>
<clus scale="   84.011">  1  5  2 -1</clus>
</clustering>
</event>
<event>
 9    2  0.1302972E-004  0.9996748E+02  0.7546771E-02  0.1288935E+00
         -1   -1    0    0    0  501 -0.00000000000E+00  0.00000000000E+00  0.32374537632E+03  0.32374537632E+03  0.00000000000E+00 0.  1.
         21   -1    0    0  501  502  0.00000000000E+00 -0.00000000000E+00 -0.14716911621E+03  0.14716911621E+03  0.00000000000E+00 0. -1.
         24    2    1    2    0    0  0.87286328874E+00 -0.17865794641E+02  0.22613795470E+03  0.24144996337E+03  0.82702852124E+02 0.  0.
         23    2    1    2    0    0  0.25657337889E+02  0.51876784048E+02 -0.10795378337E+03  0.15686814491E+03  0.98000488948E+02 0.  0.
        -11    1    3    3    0    0 -0.20633085084E+02 -0.35209821941E+02  0.57189317742E+02  0.70257197674E+02  0.00000000000E+00 0.  1.
         12    1    3    3    0    0  0.21505948373E+02  0.17344027300E+02  0.16894863696E+03  0.17119276570E+03  0.00000000000E+00 0. -1.
        -11    1    4    4    0    0  0.48407638688E+02  0.10092951311E+02 -0.13737935604E+02  0.51321516191E+02  0.00000000000E+00 0.  1.
         11    1    4    4    0    0 -0.22750300799E+02  0.41783832737E+02 -0.94215847762E+02  0.10554662872E+03  0.00000000000E+00 0. -1.
         -2    1    1    2    0  502 -0.26530201178E+02 -0.34010989406E+02  0.58392088775E+02  0.72596384252E+02  0.00000000000E+00 0.  1.
<scales pt_clust_5="13000.00000" pt_clust_6="13000.00000" pt_clust_7="13000.00000" pt_clust_8="13000.00000" pt_clust_9="43.13468"></scales>
<clustering>
<clus scale="   43.135">  2  9  1 -1</clus>
<clus scale="   82.703">  5  6 -1 -1</clus>
<clus scale="   85.024">  1  5  2 -1</clus>
<clus scale="   98.000">  7  8 -1 -1</clus>
<clus scale="   43.135">  2  5  1 -1</clus>
</clustering>
</event>
<event>
 9    2  0.1302972E-004  0.1105811E+03  0.7546771E-02  0.1264056E+00
         21   -1    0    0  501  502  0.00000000000E+00  0.00000000000E+00  0.50204533914E+02  0.50204533914E+02  0.00000000000E+00 0. -1.
          2   -1    0    0  502    0 -0.00000000000E+00 -0.00000000000E+00 -0.32702881092E+03  0.32702881092E+03  0.00000000000E+00 0. -1.
         24    2    1    2    0    0 -0.52785566419E+02 -0.46627616018E+02 -0.12960536106E+03  0.16806657316E+03  0.80550436375E+02 0.  0.
         23    2    1    2    0    0  0.13800574383E+02  0.53610456933E+02 -0.93757218689E+02  0.14263300021E+03  0.92136961899E+02 0.  0.
        -11    1    3    3    0    0 -0.58183772183E+02 -0.37646613959E+02 -0.44587678280E+02  0.82405581986E+02  0.00000000000E+00 0.  1.
         12    1    3    3    0    0  0.53982057646E+01 -0.89810020592E+01 -0.85017682780E+02  0.85660991173E+02  0.00000000000E+00 0. -1.
        -11    1    4    4    0    0 -0.98976203055E+01 -0.19697824022E+02 -0.10202333660E+01  0.22068258541E+02  0.00000000000E+00 0.  1.
         11    1    4    4    0    0  0.23698194689E+02  0.73308280955E+02 -0.92736985323E+02  0.12056474167E+03  0.00000000000E+00 0. -1.
          1    1    1    2  501    0  0.38984992035E+02 -0.69828409147E+01 -0.53461697261E+02  0.66533771464E+02  0.00000000000E+00 0. -1.
<scales pt_clust_5="13000.00000" pt_clust_6="13000.00000" pt_clust_7="13000.00000" pt_clust_8="13000.00000" pt_clust_9="39.60544"></scales>
<clustering>
<clus scale="   39.605">  1  9  2 -1</clus>
<clus scale="   80.550">  5  6 -1 -1</clus>
<clus scale="   92.137">  7  8 -1 -1</clus>
<clus scale="  101.130">  2  5  1 -1</clus>
<clus scale="   39.605">  1  5  2 -1</clus>
</clustering>
</event>
<event>
 9    2  0.1302972E-004  0.9260322E+02  0.7546771E-02  0.1308132E+00
         21   -1    0    0  501  502  0.00000000000E+00  0.00000000000E+00  0.28137073833E+03  0.28137073833E+03  0.00000000000E+00 0. -1.
         -3   -1    0    0    0  501 -0.00000000000E+00 -0.00000000000E+00 -0.38194051690E+02  0.38194051690E+02  0.00000000000E+00 0.  1.
         24    2    1    2    0    0  0.12936549217E+02  0.12340006882E+01  0.53462785037E+02  0.92519567073E+02  0.74382281789E+02 0.  0.
         23    2    1    2    0    0  0.19287174495E+01  0.18493412778E+02  0.17407985896E+03  0.19781218881E+03  0.92087667368E+02 0.  0.
        -11    1    3    3    0    0  0.33897636700E+02  0.16129603533E+02  0.55190008955E+02  0.66746917325E+02  0.00000000000E+00 0.  1.
         12    1    3    3    0    0 -0.20961087482E+02 -0.14895602845E+02 -0.17272239187E+01  0.25772649748E+02  0.00000000000E+00 0. -1.
        -13    1    4    4    0    0  0.23375585273E+02  0.17586249633E+02  0.17390229815E+03  0.17634540954E+03  0.00000000000E+00 0. -1.
         13    1    4    4    0    0 -0.21446867823E+02  0.90716314457E+00  0.17756080094E+00  0.21466779270E+02  0.00000000000E+00 0.  1.
         -4    1    1    2    0  502 -0.14865266667E+02 -0.19727413466E+02  0.15634042644E+02  0.29233034131E+02  0.00000000000E+00 0.  1.
<scales pt_clust_5="13000.00000" pt_clust_6="13000.00000" pt_clust_7="13000.00000" pt_clust_8="13000.00000" pt_clust_9="24.70117"></scales>
<clustering>
<clus scale="   24.701">  1  9  2 -1</clus>
<clus scale="   74.382">  5  6 -1 -1</clus>
<clus scale="   75.020">  2  5  1 -1</clus>
<clus scale="   92.088">  7  8 -1 -1</clus>
<clus scale="   24.701">  1  5  2 -1</clus>
</clustering>
</event>
<event>
 9    2  0.1302972E-004  0.1379551E+03  0.7546771E-02  0.1222824E+00
         21   -1    0    0  501  502  0.00000000000E+00  0.00000000000E+00  0.28891252792E+03  0.28891252792E+03  0.00000000000E+00 0.  1.
         -1   -1    0    0    0  501 -0.00000000000E+00 -0.00000000000E+00 -0.15814692351E+03  0.15814692351E+03  0.00000000000E+00 0.  1.
         23    2    1    2    0    0  0.39671598497E+02  0.10741453788E+03 -0.68730081543E+02  0.17095821426E+03  0.10672941599E+03 0.  0.
         24    2    1    2    0    0 -0.46607336955E+02 -0.21671475072E+02  0.65253952906E+02  0.11666215733E+03  0.81915101736E+02 0.  0.
        -13    1    4    4    0    0 -0.25274939976E+02 -0.27495859226E+02  0.81214698985E+02  0.89390559885E+02  0.00000000000E+00 0.  1.
         14    1    4    4    0    0 -0.21332396979E+02  0.58243841535E+01 -0.15960746079E+02  0.27271597442E+02  0.00000000000E+00 0. -1.
        -11    1    3    3    0    0  0.40574414871E+02  0.71649517869E+02  0.11474544004E+02  0.83136043405E+02  0.00000000000E+00 0. -1.
         11    1    3    3    0    0 -0.90281637442E+00  0.35765020014E+02 -0.80204625548E+02  0.87822170853E+02  0.00000000000E+00 0.  1.
         -2    1    1    2    0  502  0.69357384580E+01 -0.85743062811E+02  0.13424173305E+03  0.15943907984E+03  0.00000000000E+00 0.  1.
<scales pt_clust_5="13000.00000" pt_clust_6="13000.00000" pt_clust_7="13000.00000" pt_clust_8="13000.00000" pt_clust_9="86.02312"></scales>
<clustering>
<clus scale="   81.915">  5  6 -1 -1</clus>
<clus scale="   86.023">  1  9  2 -1</clus>
<clus scale="  106.729">  7  8 -1 -1</clus>
<clus scale="  119.794">  1  5  2 -1</clus>
<clus scale="   86.023">  1  5  2 -1</clus>
</clustering>
</event>
<event>
 9    2  0.1302972E-004  0.2715794E+03  0.7546771E-02  0.1140229E+00
         21   -1    0    0  501  502  0.00000000000E+00  0.00000000000E+00  0.22186162312E+03  0.22186162312E+03  0.00000000000E+00 0. -1.
          4   -1    0    0  502    0 -0.00000000000E+00 -0.00000000000E+00 -0.69748803196E+03  0.69748803196E+03  0.00000000000E+00 0. -1.
         23    2    1    2    0    0 -0.41166982942E+02 -0.34786145175E+01 -0.22968831829E+02  0.10286769240E+03  0.91363962589E+02 0.  0.
         24    2    1    2    0    0  0.82130200675E+02  0.25689614766E+03 -0.48157934384E+03  0.55815097362E+03  0.82902619934E+02 0.  0.
        -11    1    4    4    0    0 -0.13321080387E+02  0.71128160750E+02 -0.10479065397E+03  0.12734892066E+03  0.00000000000E+00 0.  1.
         12    1    4    4    0    0  0.95451281062E+02  0.18576798691E+03 -0.37678868987E+03  0.43080205296E+03  0.00000000000E+00 0. -1.
        -13    1    3    3    0    0  0.21844986914E+02 -0.24940992941E+02 -0.26120351757E+01  0.33257770670E+02  0.00000000000E+00 0.  1.
         13    1    3    3    0    0 -0.63011969856E+02  0.21462378424E+02 -0.20356796653E+02  0.69609921726E+02  0.00000000000E+00 0. -1.
          3    1    1    2  501    0 -0.40963217733E+02 -0.25341753315E+03  0.28921766827E+02  0.25833098906E+03  0.00000000000E+00 0. -1.
<scales pt_clust_5="13000.00000" pt_clust_6="13000.00000" pt_clust_7="13000.00000" pt_clust_8="13000.00000" pt_clust_9="258.61658"></scales>
<clustering>
<clus scale="   82.903">  5  6 -1 -1</clus>
<clus scale="   91.364">  7  8 -1 -1</clus>
<clus scale="  100.271">  2  7  1 -1</clus>
<clus scale="  258.617">  1  9  2 -1</clus>
<clus scale="  258.617">  1  5  2 -1</clus>
</clustering>
</event>
<event>
 9    2  0.1302972E-004  0.1296289E+03  0.7546771E-02  0.1230886E+00
         -3   -1    0    0    0  501 -0.00000000000E+00  0.00000000000E+00  0.34619868693E+03  0.34619868693E+03  0.00000000000E+00 0.  1.
         21   -1    0    0  501  502  0.00000000000E+00 -0.00000000000E+00 -0.91703822560E+02  0.91703822560E+02  0.00000000000E+00 0. -1.
         24    2    1    2    0    0  0.38413080856E+02 -0.47726520075E+02  0.40751335037E+02  0.10900126019E+03  0.80419014640E+02 0.  0.
         23    2    1    2    0    0 -0.11879890331E+03  0.63819846819E+02  0.10952180955E+03  0.19630018411E+03  0.91392468169E+02 0.  0.
        -11    1    3    3    0    0 -0.21918121682E+02 -0.17737423197E+00  0.19403945022E+02  0.29273684464E+02  0.00000000000E+00 0.  1.
         12    1    3    3    0    0  0.60331202538E+02 -0.47549145844E+02  0.21347390014E+02  0.79727575722E+02  0.00000000000E+00 0. -1.
        -11    1    4    4    0    0 -0.43425575471E+02 -0.12446350161E+02  0.31847572121E+01  0.45286144855E+02  0.00000000000E+00 0.  1.
         11    1    4    4    0    0 -0.75373327837E+02  0.76266196981E+02  0.10633705234E+03  0.15101403925E+03  0.00000000000E+00 0. -1.
         -4    1    1    2    0  502  0.80385822452E+02 -0.16093326744E+02  0.10422171978E+03  0.13260106520E+03  0.00000000000E+00 0.  1.
<scales pt_clust_5="13000.00000" pt_clust_6="13000.00000" pt_clust_7="13000.00000" pt_clust_8="13000.00000" pt_clust_9="81.98099"></scales>
<clustering>
<clus scale="   80.419">  5  6 -1 -1</clus>
<clus scale="   81.981">  2  9  1 -1</clus>
<clus scale="   91.392">  7  8 -1 -1</clus>
<clus scale="  122.140">  1  5  2 -1</clus>
<clus scale="   81.981">  2  5  1 -1</clus>
</clustering>
</event>
<event>
 9    2  0.1302972E-004  0.1759213E+03  0.7546771E-02  0.1200165E+00
         21   -1    0    0  501  502  0.00000000000E+00  0.00000000000E+00  0.97111428167E+02  0.97111428167E+02  0.00000000000E+00 0.  1.
         -3   -1    0    0    0  501 -0.00000000000E+00 -0.00000000000E+00 -0.51567864116E+03  0.51567864116E+03  0.00000000000E+00 0.  1.
         24    2    1    2    0    0 -0.47155366282E+01  0.49463689871E+02 -0.72164607020E+02  0.11819580916E+03  0.79332376080E+02 0.  0.
         23    2    1    2    0    0 -0.50742487185E+02 -0.15857280296E+03 -0.89213170712E+02  0.20976659899E+03  0.91229942329E+02 0.  0.
        -11    1    3    3    0    0 -0.17721575349E+02  0.37102885586E+02  0.27044511706E+01  0.41206703433E+02  0.00000000000E+00 0.  1.
         12    1    3    3    0    0  0.13006038720E+02  0.12360804284E+02 -0.74869058190E+02  0.76989105723E+02  0.00000000000E+00 0. -1.
        -11    1    4    4    0    0 -0.56334687226E+02 -0.38852048978E+02 -0.45565118685E+02  0.82214711186E+02  0.00000000000E+00 0. -1.
         11    1    4    4    0    0  0.55922000411E+01 -0.11972075399E+03 -0.43648052027E+02  0.12755188780E+03  0.00000000000E+00 0.  1.
         -4    1    1    2    0  502  0.55458023813E+02  0.10910911309E+03 -0.25718943526E+03  0.28482766119E+03  0.00000000000E+00 0.  1.
<scales pt_clust_5="13000.00000" pt_clust_6="13000.00000" pt_clust_7="13000.00000" pt_clust_8="13000.00000" pt_clust_9="150.41748"></scales>
<clustering>
<clus scale="   79.332">  5  6 -1 -1</clus>
<clus scale="   91.230">  7  8 -1 -1</clus>
<clus scale="   93.608">  2  5  1 -1</clus>
<clus scale="  150.417">  1  9  2 -1</clus>
<clus scale="  150.417">  1  5  2 -1</clus>
</clustering>
</event>
<event>
 9    2  0.1302972E-004  0.8885383E+02  0.7546771E-02  0.1311710E+00
         21   -1    0    0  501  502  0.00000000000E+00  0.00000000000E+00  0.15130234305E+03  0.15130234305E+03  0.00000000000E+00 0. -1.
         -1   -1    0    0    0  501 -0.00000000000E+00 -0.00000000000E+00 -0.11843806370E+03  0.11843806370E+03  0.00000000000E+00 0.  1.
         23    2    1    2    0    0 -0.32431837216E+02 -0.14637089189E+02 -0.59875247041E+02  0.10136963655E+03  0.73652491886E+02 0.  0.
         24    2    1    2    0    0  0.20658016652E+02 -0.95000711669E+01  0.17350418942E+02  0.88341132679E+02  0.83582974829E+02 0.  0.
        -13    1    4    4    0    0 -0.32624647374E+02 -0.56266911768E+01  0.46751381337E+01  0.33434775107E+02  0.00000000000E+00 0.  1.
         14    1    4    4    0    0  0.53282664026E+02 -0.38733799901E+01  0.12675280808E+02  0.54906357572E+02  0.00000000000E+00 0. -1.
        -11    1    3    3    0    0 -0.54963415007E+02 -0.38045062287E+01 -0.50286679937E+02  0.74593575032E+02  0.00000000000E+00 0.  1.
         11    1    3    3    0    0  0.22531577791E+02 -0.10832582961E+02 -0.95885671033E+01  0.26776061519E+02  0.00000000000E+00 0. -1.
         -2    1    1    2    0  502  0.11773820564E+02  0.24137160356E+02  0.75389107445E+02  0.80029637523E+02  0.00000000000E+00 0.  1.
<scales pt_clust_5="13000.00000" pt_clust_6="13000.00000" pt_clust_7="13000.00000" pt_clust_8="13000.00000" pt_clust_9="26.85564"></scales>
<clustering>
<clus scale="   26.856">  1  9  2 -1</clus>
<clus scale="   73.652">  7  8 -1 -1</clus>
<clus scale="   79.584">  2  7  1 -1</clus>
<clus scale="   83.583">  5  6 -1 -1</clus>
<clus scale="   26.856">  1  5  2 -1</clus>
</clustering>
</event>
<event>
 9    2  0.1302972E-004  0.1344246E+03  0.7546771E-02  0.1225206E+00
         21   -1    0    0  501  502  0.00000000000E+00  0.00000000000E+00  0.10113506124E+03  0.10113506124E+03  0.00000000000E+00 0. -1.
          2   -1    0    0  502    0 -0.00000000000E+00 -0.00000000000E+00 -0.29404813040E+03  0.29404813040E+03  0.00000000000E+00 0. -1.
         23    2    1    2    0    0  0.22732528910E+02  0.87859522480E+02 -0.20534160990E+03  0.24495071827E+03  0.97977620198E+02 0.  0.
         24    2    1    2    0    0 -0.44380833429E+01 -0.98251982811E+02  0.15647869096E+02  0.12894740713E+03  0.81911106007E+02 0.  0.
        -13    1    4    4    0    0  0.38171357704E+01 -0.82242697768E+02 -0.23698469066E+02  0.85674087668E+02  0.00000000000E+00 0.  1.
         14    1    4    4    0    0 -0.82552191134E+01 -0.16009285042E+02  0.39346338162E+02  0.43273319458E+02  0.00000000000E+00 0. -1.
        -11    1    3    3    0    0  0.37520933443E+01  0.32088574856E+02 -0.10391193061E+01  0.32323901524E+02  0.00000000000E+00 0.  1.
         11    1    3    3    0    0  0.18980435565E+02  0.55770947624E+02 -0.20430249060E+03  0.21262681674E+03  0.00000000000E+00 0. -1.
          1    1    1    2  501    0 -0.18294445567E+02  0.10392460331E+02 -0.32193283477E+01  0.21285066251E+02  0.00000000000E+00 0. -1.
<scales pt_clust_5="13000.00000" pt_clust_6="13000.00000" pt_clust_7="13000.00000" pt_clust_8="13000.00000" pt_clust_9="21.04020"></scales>
<clustering>
<clus scale="   21.040">  1  9  2 -1</clus>
<clus scale="   81.911">  5  6 -1 -1</clus>
<clus scale="   97.978">  7  8 -1 -1</clus>
<clus scale="  123.206">  1  5  2 -1</clus>
<clus scale="   21.040">  1  5  2 -1</clus>
</clustering>
</event>
<event>
 9    2  0.1302972E-004  0.1143961E+03  0.7546771E-02  0.1257277E+00
          2   -1    0    0  502    0 -0.00000000000E+00  0.00000000000E+00  0.11638309514E+04  0.11638309514E+04  0.00000000000E+00 0. -1.
         21   -1    0    0  501  502  0.00000000000E+00 -0.00000000000E+00 -0.25102234474E+02  0.25102234474E+02  0.00000000000E+00 0. -1.
         24    2    1    2    0    0 -0.41249925663E+02 -0.37760883965E+02  0.53117711606E+03  0.53993177187E+03  0.79055353532E+02 0.  0.
         23    2    1    2    0    0  0.10421430938E+03  0.55931952856E+02  0.30963791366E+03  0.34396491391E+03  0.91908752575E+02 0.  0.
        -11    1    3    3    0    0 -0.56301314225E+02 -0.13212567026E+02  0.22172160310E+03  0.22913943177E+03  0.00000000000E+00 0.  1.
         12    1    3    3    0    0  0.15051388562E+02 -0.24548316939E+02  0.30945551296E+03  0.31079234010E+03  0.00000000000E+00 0. -1.
        -13    1    4    4    0    0  0.46012076036E+02  0.56369210629E+02  0.25104167813E+03  0.26137429714E+03  0.00000000000E+00 0.  1.
         13    1    4    4    0    0  0.58202233348E+02 -0.43725777266E+00  0.58596235527E+02  0.82590616773E+02  0.00000000000E+00 0. -1.
          1    1    1    2  501    0 -0.62964383721E+02 -0.18171068892E+02  0.29791368724E+03  0.30503650012E+03  0.00000000000E+00 0. -1.
<scales pt_clust_5="13000.00000" pt_clust_6="13000.00000" pt_clust_7="13000.00000" pt_clust_8="13000.00000" pt_clust_9="65.53400"></scales>
<clustering>
<clus scale="   65.534">  2  9  1 -1</clus>
<clus scale="   79.055">  5  6 -1 -1</clus>
<clus scale="   91.909">  7  8 -1 -1</clus>
<clus scale="  104.350">  1  5  2 -1</clus>
<clus scale="   65.534">  2  5  1 -1</clus>
</clustering>
</event>
<event>
 9    2  0.1302972E-004  0.1017981E+03  0.7546771E-02  0.1281011E+00
         -3   -1    0    0    0  501 -0.00000000000E+00  0.00000000000E+00  0.76883378500E+02  0.76883378500E+02  0.00000000000E+00 0.  1.
         21   -1    0    0  501  502  0.00000000000E+00 -0.00000000000E+00 -0.41952458863E+03  0.41952458863E+03  0.00000000000E+00 0.  1.
         24    2    1    2    0    0 -0.32568429094E+02  0.79746243214E+02 -0.25980800615E+02  0.12038288091E+03  0.79980435960E+02 0.  0.
         23    2    1    2    0    0  0.94665823864E+01  0.15360891900E+01 -0.66374427262E+02  0.11185925611E+03  0.89526268944E+02 0.  0.
        -11    1    3    3    0    0  0.33117620843E+01  0.79689042698E+02 -0.77408955408E+01  0.80132594854E+02  0.00000000000E+00 0.  1.
         12    1    3    3    0    0 -0.35880191179E+02  0.57200516072E-01 -0.18239905074E+02  0.40250286061E+02  0.00000000000E+00 0. -1.
        -11    1    4    4    0    0 -0.10083034870E+02 -0.20492333626E+02  0.13636344243E+02  0.26599872442E+02  0.00000000000E+00 0. -1.
         11    1    4    4    0    0  0.19549617256E+02  0.22028422816E+02 -0.80010771505E+02  0.85259383668E+02  0.00000000000E+00 0.  1.
         -4    1    1    2    0  502  0.23101846708E+02 -0.81282332404E+02 -0.25028598225E+03  0.26416583010E+03  0.00000000000E+00 0.  1.
<scales pt_clust_5="13000.00000" pt_clust_6="13000.00000" pt_clust_7="13000.00000" pt_clust_8="13000.00000" pt_clust_9="84.50156"></scales>
<clustering>
<clus scale="   79.980">  5  6 -1 -1</clus>
<clus scale="   84.502">  2  9  1 -1</clus>
<clus scale="   89.526">  7  8 -1 -1</clus>
<clus scale="   93.513">  1  5  2 -1</clus>
<clus scale="   84.502">  2  5  1 -1</clus>
</clustering>
</event>
<event>
 9    2  0.1302972E-004  0.2184139E+03  0.7546771E-02  0.1147348E+00
         21   -1    0    0  501  502  0.00000000000E+00  0.00000000000E+00  0.33282591889E+03  0.33282591889E+03  0.00000000000E+00 0. -1.
          2   -1    0    0  502    0 -0.00000000000E+00 -0.00000000000E+00 -0.92716754475E+03  0.92716754475E+03  0.00000000000E+00 0. -1.
         24    2    1    2    0    0  0.13674042975E+03 -0.34627706054E+02 -0.14949255725E+03  0.22083045560E+03  0.80752970807E+02 0.  0.
         23    2    1    2    0    0 -0.83336284160E+02 -0.15862233106E+03 -0.69197905473E+03  0.72093225898E+03  0.93820731647E+02 0.  0.
        -11    1    3    3    0    0  0.83728743466E+02  0.13800017918E+02 -0.10985964685E+03  0.13881673164E+03  0.00000000000E+00 0.  1.
         12    1    3    3    0    0  0.53011686288E+02 -0.48427723972E+02 -0.39632910400E+02  0.82013723968E+02  0.00000000000E+00 0. -1.
        -11    1    4    4    0    0 -0.71570735117E+02 -0.41802457588E+02 -0.33686192829E+03  0.34690888475E+03  0.00000000000E+00 0. -1.
         11    1    4    4    0    0 -0.11765549043E+02 -0.11681987347E+03 -0.35511712644E+03  0.37402337423E+03  0.00000000000E+00 0.  1.
          1    1    1    2  501    0 -0.53404145594E+02  0.19325003711E+03  0.24712998611E+03  0.31823074906E+03  0.00000000000E+00 0. -1.
<scales pt_clust_5="13000.00000" pt_clust_6="13000.00000" pt_clust_7="13000.00000" pt_clust_8="13000.00000" pt_clust_9="197.23662"></scales>
<clustering>
<clus scale="   80.753">  5  6 -1 -1</clus>
<clus scale="   93.821">  7  8 -1 -1</clus>
<clus scale="  162.536">  2  5  1 -1</clus>
<clus scale="  197.237">  1  9  2 -1</clus>
<clus scale="  197.237">  1  5  2 -1</clus>
</clustering>
</event>
<event>
 9    2  0.1302972E-004  0.1684581E+03  0.7546771E-02  0.1180156E+00
         21   -1    0    0  501  502  0.00000000000E+00  0.00000000000E+00  0.79770741941E+02  0.79770741941E+02  0.00000000000E+00 0. -1.
          2   -1    0    0  502    0 -0.00000000000E+00 -0.00000000000E+00 -0.61741990389E+03  0.61741990389E+03  0.00000000000E+00 0. -1.
         23    2    1    2    0    0  0.12543498503E+03 -0.71976728876E+02 -0.37643207314E+03  0.41330170350E+03  0.90568247552E+02 0.  0.
         24    2    1    2    0    0 -0.10552871307E+03  0.90962291353E+02 -0.18542925983E+03  0.24724279013E+03  0.85641923967E+02 0.  0.
        -11    1    4    4    0    0 -0.42356224675E+02  0.17582212212E+01 -0.99661581507E+02  0.10830314833E+03  0.00000000000E+00 0.  1.
         12    1    4    4    0    0 -0.63172488392E+02  0.89204070132E+02 -0.85767678324E+02  0.13893964180E+03  0.00000000000E+00 0. -1.
        -13    1    3    3    0    0  0.19695128858E+02  0.21176356897E+02 -0.80318301849E+02  0.85366069395E+02  0.00000000000E+00 0.  1.
         13    1    3    3    0    0  0.10573985617E+03 -0.93153085773E+02 -0.29611377129E+03  0.32793563411E+03  0.00000000000E+00 0. -1.
          1    1    1    2  501    0 -0.19906271957E+02 -0.18985562477E+02  0.24212171015E+02  0.36646152200E+02  0.00000000000E+00 0. -1.
<scales pt_clust_5="13000.00000" pt_clust_6="13000.00000" pt_clust_7="13000.00000" pt_clust_8="13000.00000" pt_clust_9="27.50839"></scales>
<clustering>
<clus scale="   27.508">  1  9  2 -1</clus>
<clus scale="   85.642">  5  6 -1 -1</clus>
<clus scale="   90.568">  7  8 -1 -1</clus>
<clus scale="  165.862">  1  5  2 -1</clus>
<clus scale="   27.508">  1  5  2 -1</clus>
</clustering>
</event>
<event>
 9    2  0.1302972E-004  0.2810487E+03  0.7546771E-02  0.1127835E+00
          2   -1    0    0  502    0 -0.00000000000E+00  0.00000000000E+00  0.29926796169E+03  0.29926796169E+03  0.00000000000E+00 0. -1.
         21   -1    0    0  501  502  0.00000000000E+00 -0.00000000000E+00 -0.51772296087E+03  0.51772296087E+03  0.00000000000E+00 0.  1.
         23    2    1    2    0    0 -0.74494992332E+02 -0.27201313877E+02 -0.67225288994E+02  0.13964045893E+03  0.93224476031E+02 0.  0.
         24    2    1    2    0    0 -0.19007859021E+03  0.17759810536E+03 -0.23704761426E+03  0.36114943876E+03  0.81033253716E+02 0.  0.
        -13    1    4    4    0    0 -0.19334716018E+03  0.16281168311E+03 -0.20407335248E+03  0.32486412806E+03  0.00000000000E+00 0.  1.
         14    1    4    4    0    0  0.32685699777E+01  0.14786422254E+02 -0.32974261777E+02  0.36285310699E+02  0.00000000000E+00 0. -1.
        -13    1    3    3    0    0 -0.79354084166E+02 -0.50646805195E+02 -0.37165027287E+02  0.10120972682E+03  0.00000000000E+00 0.  1.
         13    1    3    3    0    0  0.48590918343E+01  0.23445491317E+02 -0.30060261707E+02  0.38430732109E+02  0.00000000000E+00 0. -1.
          1    1    1    2  501    0  0.26457358254E+03 -0.15039679149E+03  0.85817904071E+02  0.31620102487E+03  0.00000000000E+00 0. -1.
<scales pt_clust_5="13000.00000" pt_clust_6="13000.00000" pt_clust_7="13000.00000" pt_clust_8="13000.00000" pt_clust_9="269.11343"></scales>
<clustering>
<clus scale="   81.033">  5  6 -1 -1</clus>
<clus scale="   93.224">  7  8 -1 -1</clus>
<clus scale="  122.394">  1  7  2 -1</clus>
<clus scale="  269.113">  2  9  1 -1</clus>
<clus scale="  269.113">  2  5  1 -1</clus>
</clustering>
</event>
<event>
 9    2  0.1659602E-004  0.2056405E+03  0.7546771E-02  0.1147128E+00
         21   -1    0    0  501  502  0.00000000000E+00  0.00000000000E+00  0.14133550012E+03  0.14133550012E+03  0.00000000000E+00 0. -1.
          2   -1    0    0  502    0 -0.00000000000E+00 -0.00000000000E+00 -0.71205238173E+03  0.71205238173E+03  0.00000000000E+00 0. -1.
         23    2    1    2    0    0  0.75259807376E+02 -0.15544477749E+03 -0.14349565849E+03  0.24524521403E+03  0.98626028720E+02 0.  0.
         24    2    1    2    0    0 -0.13808027399E+03  0.14420027535E+03 -0.42020919730E+02  0.21769148832E+03  0.75920648801E+02 0.  0.
        -13    1    4    4    0    0 -0.28765958862E+01  0.41345919732E+02 -0.21162766403E+02  0.46536250002E+02  0.00000000000E+00 0.  1.
         14    1    4    4    0    0 -0.13520367810E+03  0.10285435562E+03 -0.20858153327E+02  0.17115523832E+03  0.00000000000E+00 0. -1.
        -13    1    3    3    0    0  0.36366337575E+02  0.21868525282E+01 -0.23462630963E+02  0.43333449947E+02  0.00000000000E+00 0. -1.
         13    1    3    3    0    0  0.38893469801E+02 -0.15763163002E+03 -0.12003302753E+03  0.20191176408E+03  0.00000000000E+00 0.  1.
          1    1    1    2  501    0  0.62820466614E+02  0.11244502139E+02 -0.38520030339E+03  0.39045117951E+03  0.00000000000E+00 0. -1.
<scales pt_clust_5="13000.00000" pt_clust_6="13000.00000" pt_clust_7="13000.00000" pt_clust_8="13000.00000" pt_clust_9="63.81892"></scales>
<clustering>
<clus scale="   63.819">  1  9  2 -1</clus>
<clus scale="   75.921">  5  6 -1 -1</clus>
<clus scale="   98.626">  7  8 -1 -1</clus>
<clus scale="  195.767">  1  5  2 -1</clus>
<clus scale="   63.819">  1  5  2 -1</clus>
</clustering>
</event>
<event>
 9    2  0.1302972E-004  0.9471740E+02  0.7546771E-02  0.1297114E+00
         21   -1    0    0  501  502  0.00000000000E+00  0.00000000000E+00  0.14374765465E+03  0.14374765465E+03  0.00000000000E+00 0. -1.
         -1   -1    0    0    0  501 -0.00000000000E+00 -0.00000000000E+00 -0.18923601025E+03  0.18923601025E+03  0.00000000000E+00 0.  1.
         23    2    1    2    0    0 -0.11517938964E+02 -0.31032786556E+02 -0.89571260816E+02  0.13073497260E+03  0.89291239981E+02 0.  0.
         24    2    1    2    0    0  0.35641147462E+02  0.89152646044E+01  0.10267976784E+03  0.13513158364E+03  0.79797473882E+02 0.  0.
        -11    1    4    4    0    0  0.77260443757E+01 -0.28664864193E+02  0.10047248420E+02  0.31341879359E+02  0.00000000000E+00 0.  1.
         12    1    4    4    0    0  0.27915103086E+02  0.37580128798E+02  0.92632519416E+02  0.10378970428E+03  0.00000000000E+00 0. -1.
        -11    1    3    3    0    0 -0.29914361762E+02 -0.55936635256E+02 -0.51806511109E+02  0.81900493262E+02  0.00000000000E+00 0. -1.
         11    1    3    3    0    0  0.18396422798E+02  0.24903848700E+02 -0.37764749707E+02  0.48834479338E+02  0.00000000000E+00 0.  1.
         -2    1    1    2    0  502 -0.24123208498E+02  0.22117521951E+02 -0.58596862621E+02  0.67117108658E+02  0.00000000000E+00 0.  1.
<scales pt_clust_5="13000.00000" pt_clust_6="13000.00000" pt_clust_7="13000.00000" pt_clust_8="13000.00000" pt_clust_9="32.72789"></scales>
<clustering>
<clus scale="   32.728">  1  9  2 -1</clus>
<clus scale="   79.797">  5  6 -1 -1</clus>
<clus scale="   85.826">  1  5  2 -1</clus>
<clus scale="   89.291">  7  8 -1 -1</clus>
<clus scale="   32.728">  1  5  2 -1</clus>
</clustering>
</event>
<event>
 9    2  0.1302972E-004  0.9742061E+02  0.7546771E-02  0.1294124E+00
         21   -1    0    0  501  502  0.00000000000E+00  0.00000000000E+00  0.12602311651E+02  0.12602311651E+02  0.00000000000E+00 0. -1.
          2   -1    0    0  502    0 -0.00000000000E+00 -0.00000000000E+00 -0.14635719195E+04  0.14635719195E+04  0.00000000000E+00 0. -1.
         24    2    1    2    0    0  0.24203933199E+02 -0.17875906929E+02 -0.53274167805E+03  0.53912440374E+03  0.77045757506E+02 0.  0.
         23    2    1    2    0    0  0.37697904259E+02  0.55389040853E+02 -0.59813767761E+03  0.60887785687E+03  0.92056968127E+02 0.  0.
        -13    1    3    3    0    0 -0.15219185580E+02 -0.18452859545E+02 -0.57865486545E+02  0.62614264893E+02  0.00000000000E+00 0.  1.
         14    1    3    3    0    0  0.39423118779E+02  0.57695261578E+00 -0.47487619151E+03  0.47651013885E+03  0.00000000000E+00 0. -1.
        -13    1    4    4    0    0  0.52415468282E+02  0.73631877409E+02 -0.46870575417E+03  0.47734067361E+03  0.00000000000E+00 0. -1.
         13    1    4    4    0    0 -0.14717564023E+02 -0.18242836556E+02 -0.12943192344E+03  0.13153718326E+03  0.00000000000E+00 0.  1.
          1    1    1    2  501    0 -0.61901837458E+02 -0.37513133924E+02 -0.32009025218E+03  0.32817197053E+03  0.00000000000E+00 0. -1.
<scales pt_clust_5="13000.00000" pt_clust_6="13000.00000" pt_clust_7="13000.00000" pt_clust_8="13000.00000" pt_clust_9="72.38144"></scales>
<clustering>
<clus scale="   72.381">  1  9  2 -1</clus>
<clus scale="   77.046">  5  6 -1 -1</clus>
<clus scale="   83.381">  2  5  1 -1</clus>
<clus scale="   92.057">  7  8 -1 -1</clus>
<clus scale="   72.381">  1  5  2 -1</clus>
</clustering>
</event>
<event>
 9    2  0.1302972E-004  0.9344557E+02  0.7546771E-02  0.1300466E+00
         21   -1    0    0  501  502  0.00000000000E+00  0.00000000000E+00  0.20296929394E+03  0.20296929394E+03  0.00000000000E+00 0.  1.
         -3   -1    0    0    0  501 -0.00000000000E+00 -0.00000000000E+00 -0.15589606997E+03  0.15589606997E+03  0.00000000000E+00 0.  1.
         23    2    1    2    0    0 -0.19387069993E+02 -0.17173541478E+02 -0.11831488200E+03  0.15111097440E+03  0.90362194915E+02 0.  0.
         24    2    1    2    0    0 -0.17991387084E+02  0.26446798958E+02  0.12308119489E+03  0.15054410125E+03  0.80569365762E+02 0.  0.
        -13    1    4    4    0    0 -0.37282046247E+02  0.43459798326E+02  0.10325379920E+03  0.11806799775E+03  0.00000000000E+00 0.  1.
         14    1    4    4    0    0  0.19290659163E+02 -0.17012999367E+02  0.19827395691E+02  0.32476103496E+02  0.00000000000E+00 0. -1.
        -13    1    3    3    0    0 -0.55017932155E+02 -0.19077910103E+02 -0.76492964073E+02  0.96135909343E+02  0.00000000000E+00 0.  1.
         13    1    3    3    0    0  0.35630862162E+02  0.19043686252E+01 -0.41821917929E+02  0.54975065053E+02  0.00000000000E+00 0. -1.
         -4    1    1    2    0  502  0.37378457078E+02 -0.92732574802E+01  0.42306911085E+02  0.57210288265E+02  0.00000000000E+00 0.  1.
<scales pt_clust_5="13000.00000" pt_clust_6="13000.00000" pt_clust_7="13000.00000" pt_clust_8="13000.00000" pt_clust_9="38.51159"></scales>
<clustering>
<clus scale="   38.512">  1  9  2 -1</clus>
<clus scale="   80.569">  5  6 -1 -1</clus>
<clus scale="   84.013">  1  5  2 -1</clus>
<clus scale="   90.362">  7  8 -1 -1</clus>
<clus scale="   38.512">  1  5  2 -1</clus>
</clustering>
</event>
<event>
 9    2  0.1302972E-004  0.1078110E+03  0.7546771E-02  0.1268332E+00
         21   -1    0    0  501  502  0.00000000000E+00  0.00000000000E+00  0.51347167749E+02  0.51347167749E+02  0.00000000000E+00 0.  1.
          2   -1    0    0  502    0 -0.00000000000E+00 -0.00000000000E+00 -0.98923367124E+03  0.98923367124E+03  0.00000000000E+00 0. -1.
         24    2    1    2    0    0  0.97610648230E+00  0.61552887517E+02 -0.86640221729E+03  0.87244522492E+03  0.81964367927E+02 0.  0.
         23    2    1    2    0    0 -0.17332775625E+02 -0.31626583487E+02 -0.86809019433E+02  0.13074615370E+03  0.90874005952E+02 0.  0.
        -13    1    3    3    0    0 -0.20064183885E+02  0.39542380067E+02 -0.18047139377E+03  0.18583889600E+03  0.00000000000E+00 0.  1.
         14    1    3    3    0    0  0.21040290368E+02  0.22010507450E+02 -0.68593082352E+03  0.68660632892E+03  0.00000000000E+00 0. -1.
        -11    1    4    4    0    0 -0.48179973650E+02 -0.37084682125E+01 -0.71739129669E+02  0.86496042239E+02  0.00000000000E+00 0.  1.
         11    1    4    4    0    0  0.30847198025E+02 -0.27918115275E+02 -0.15069889764E+02  0.44250111458E+02  0.00000000000E+00 0. -1.
          1    1    1    2  501    0  0.16356669143E+02 -0.29926304029E+02  0.15324733234E+02  0.37389460373E+02  0.00000000000E+00 0. -1.
<scales pt_clust_5="13000.00000" pt_clust_6="13000.00000" pt_clust_7="13000.00000" pt_clust_8="13000.00000" pt_clust_9="34.10461"></scales>
<clustering>
<clus scale="   34.105">  1  9  2 -1</clus>
<clus scale="   81.964">  5  6 -1 -1</clus>
<clus scale="   90.874">  7  8 -1 -1</clus>
<clus scale="  100.416">  2  5  1 -1</clus>
<clus scale="   34.105">  1  5  2 -1</clus>
</clustering>
</event>
<event>
 9    2  0.1302972E-004  0.3974429E+03  0.7546771E-02  0.1073698E+00
         21   -1    0    0  501  502  0.00000000000E+00  0.00000000000E+00  0.27478726303E+03  0.27478726303E+03  0.00000000000E+00 0. -1.
          2   -1    0    0  502    0 -0.00000000000E+00 -0.00000000000E+00 -0.99468494601E+03  0.99468494601E+03  0.00000000000E+00 0. -1.
         24    2    1    2    0    0 -0.12657883909E+03  0.92178375445E+02 -0.17684644147E+03  0.24959451602E+03  0.80645540232E+02 0.  0.
         23    2    1    2    0    0  0.26796669967E+03 -0.34231322132E+03 -0.46282555436E+02  0.44599870255E+03  0.88251198935E+02 0.  0.
        -13    1    3    3    0    0 -0.33922725071E+02  0.62497999715E+02 -0.39700402374E+02  0.81442453261E+02  0.00000000000E+00 0.  1.
         14    1    3    3    0    0 -0.92656114019E+02  0.29680375730E+02 -0.13714603910E+03  0.16815206275E+03  0.00000000000E+00 0. -1.
        -11    1    4    4    0    0  0.10104849064E+03 -0.66509096413E+02 -0.61391597955E+01  0.12112781122E+03  0.00000000000E+00 0.  1.
         11    1    4    4    0    0  0.16691820902E+03 -0.27580412491E+03 -0.40143395641E+02  0.32487089133E+03  0.00000000000E+00 0. -1.
          1    1    1    2  501    0 -0.14138786058E+03  0.25013484588E+03 -0.49676868607E+03  0.57387899047E+03  0.00000000000E+00 0. -1.
<scales pt_clust_5="13000.00000" pt_clust_6="13000.00000" pt_clust_7="13000.00000" pt_clust_8="13000.00000" pt_clust_9="387.52128"></scales>
<clustering>
<clus scale="   80.646">  5  6 -1 -1</clus>
<clus scale="   88.251">  7  8 -1 -1</clus>
<clus scale="  176.133">  2  5  1 -1</clus>
<clus scale="  387.521">  1  9  2 -1</clus>
<clus scale="  387.521">  1  5  2 -1</clus>
</clustering>
</event>
<event>
 9    2  0.1302972E-004  0.2321714E+03  0.7546771E-02  0.1126601E+00
         21   -1    0    0  501  502  0.00000000000E+00  0.00000000000E+00  0.61496663828E+03  0.61496663828E+03  0.00000000000E+00 0.  1.
         -3   -1    0    0    0  501 -0.00000000000E+00 -0.00000000000E+00 -0.18623810555E+03  0.18623810555E+03  0.00000000000E+00 0.  1.
         23    2    1    2    0    0  0.21273651731E+03  0.13375229718E+02 -0.70684800275E+02  0.24619637127E+03  0.10089890816E+03 0.  0.
         24    2    1    2    0    0 -0.18583713863E+03 -0.71497395922E+01  0.48094091405E+03  0.52178844537E+03  0.79827677198E+02 0.  0.
        -11    1    4    4    0    0 -0.14203316401E+03 -0.36026921803E+02  0.39244820989E+03  0.41891163295E+03  0.00000000000E+00 0.  1.
         12    1    4    4    0    0 -0.43803974626E+02  0.28877182211E+02  0.88492704154E+02  0.10287681242E+03  0.00000000000E+00 0. -1.
        -11    1    3    3    0    0  0.19432574836E+03 -0.15038289771E+02 -0.36904800850E+02  0.19836988421E+03  0.00000000000E+00 0.  1.
         11    1    3    3    0    0  0.18410768947E+02  0.28413519489E+02 -0.33779999425E+02  0.47826487056E+02  0.00000000000E+00 0. -1.
         -4    1    1    2    0  502 -0.26899378678E+02 -0.62254901258E+01  0.18472418960E+02  0.33219927195E+02  0.00000000000E+00 0.  1.
<scales pt_clust_5="13000.00000" pt_clust_6="13000.00000" pt_clust_7="13000.00000" pt_clust_8="13000.00000" pt_clust_9="27.61038"></scales>
<clustering>
<clus scale="   27.610">  1  9  2 -1</clus>
<clus scale="   79.828">  5  6 -1 -1</clus>
<clus scale="  100.899">  7  8 -1 -1</clus>
<clus scale="  223.820">  1  5  2 -1</clus>
<clus scale="   27.610">  1  5  2 -1</clus>
</clustering>
</event>
<event>
 9    2  0.1302972E-004  0.1218170E+03  0.7546771E-02  0.1244130E+00
         -1   -1    0    0    0  501 -0.00000000000E+00  0.00000000000E+00  0.16658978548E+03  0.16658978548E+03  0.00000000000E+00 0.  1.
         21   -1    0    0  501  502  0.00000000000E+00 -0.00000000000E+00 -0.13280357107E+03  0.13280357107E+03  0.00000000000E+00 0.  1.
         23    2    1    2    0    0  0.66988937282E+02  0.57922810328E+02  0.14346500680E+02  0.12922999027E+03  0.93016120259E+02 0.  0.
         24    2    1    2    0    0 -0.34515819839E+02 -0.59541370569E+02 -0.31011159868E+02  0.11014325514E+03  0.80208029449E+02 0.  0.
        -11    1    4    4    0    0 -0.13735007087E+02 -0.69353183351E+02 -0.44458824960E+02  0.83517073568E+02  0.00000000000E+00 0.  1.
         12    1    4    4    0    0 -0.20780812752E+02  0.98118127817E+01  0.13447665091E+02  0.26626181572E+02  0.00000000000E+00 0. -1.
        -11    1    3    3    0    0 -0.15827216877E+02  0.40522541350E+02  0.67929293847E+00  0.43509063313E+02  0.00000000000E+00 0.  1.
         11    1    3    3    0    0  0.82816154159E+02  0.17400268978E+02  0.13667207741E+02  0.85720926953E+02  0.00000000000E+00 0. -1.
         -2    1    1    2    0  502 -0.32473117443E+02  0.16185602416E+01  0.50450873598E+02  0.60020111134E+02  0.00000000000E+00 0.  1.
<scales pt_clust_5="13000.00000" pt_clust_6="13000.00000" pt_clust_7="13000.00000" pt_clust_8="13000.00000" pt_clust_9="32.51345"></scales>
<clustering>
<clus scale="   32.513">  2  9  1 -1</clus>
<clus scale="   80.208">  5  6 -1 -1</clus>
<clus scale="   93.016">  7  8 -1 -1</clus>
<clus scale="  112.342">  2  5  1 -1</clus>
<clus scale="   32.513">  2  5  1 -1</clus>
</clustering>
</event>
<event>
 9    2  0.1302972E-004  0.1608539E+03  0.7546771E-02  0.1207087E+00
         21   -1    0    0  501  502  0.00000000000E+00  0.00000000000E+00  0.43351015726E+02  0.43351015726E+02  0.00000000000E+00 0. -1.
          2   -1    0    0  502    0 -0.00000000000E+00 -0.00000000000E+00 -0.12069116927E+04  0.12069116927E+04  0.00000000000E+00 0. -1.
         23    2    1    2    0    0 -0.10202949393E+02 -0.47430179772E+02 -0.10468133455E+03  0.14859277667E+03  0.93637115209E+02 0.  0.
         24    2    1    2    0    0  0.58225223755E+01 -0.11264100327E+03 -0.59355469549E+03  0.60956323721E+03  0.80859546326E+02 0.  0.
        -13    1    4    4    0    0 -0.19525541993E+02 -0.56296300631E+02 -0.14488341747E+03  0.15665798707E+03  0.00000000000E+00 0.  1.
         14    1    4    4    0    0  0.25348064369E+02 -0.56344702637E+02 -0.44867127802E+03  0.45290525013E+03  0.00000000000E+00 0. -1.
        -11    1    3    3    0    0 -0.25376297341E+02  0.21548851542E+02 -0.45910506328E+02  0.56710528659E+02  0.00000000000E+00 0. -1.
         11    1    3    3    0    0  0.15173347948E+02 -0.68979031314E+02 -0.58770828226E+02  0.91882248009E+02  0.00000000000E+00 0.  1.
          1    1    1    2  501    0  0.43804270175E+01  0.16007118304E+03 -0.46532464694E+03  0.49210669456E+03  0.00000000000E+00 0. -1.
<scales pt_clust_5="13000.00000" pt_clust_6="13000.00000" pt_clust_7="13000.00000" pt_clust_8="13000.00000" pt_clust_9="139.05292"></scales>
<clustering>
<clus scale="   80.860">  5  6 -1 -1</clus>
<clus scale="   93.637">  7  8 -1 -1</clus>
<clus scale="  105.459">  2  7  1 -1</clus>
<clus scale="  139.053">  1  9  2 -1</clus>
<clus scale="  139.053">  1  5  2 -1</clus>
</clustering>
</event>
<event>
 9    2  0.1302972E-004  0.1778234E+03  0.7546771E-02  0.1202285E+00
         -3   -1    0    0    0  501 -0.00000000000E+00  0.00000000000E+00  0.27121563262E+03  0.27121563262E+03  0.00000000000E+00 0.  1.
         21   -1    0    0  501  502  0.00000000000E+00 -0.00000000000E+00 -0.16831756198E+03  0.16831756198E+03  0.00000000000E+00 0. -1.
         24    2    1    2    0    0  0.22102581893E+02 -0.23329716093E+02  0.54444073500E+02  0.10226423586E+03  0.80380451715E+02 0.  0.
         23    2    1    2    0    0  0.13371523896E+03 -0.39897215619E+02  0.31503877056E+02  0.16825965497E+03  0.88584785813E+02 0.  0.
        -11    1    3    3    0    0  0.17037226927E+02 -0.30082679911E+02  0.73608444105E+02  0.81323045783E+02  0.00000000000E+00 0.  1.
         12    1    3    3    0    0  0.50653549660E+01  0.67529638181E+01 -0.19164370604E+02  0.20941190079E+02  0.00000000000E+00 0. -1.
        -11    1    4    4    0    0  0.15461094813E+02  0.14231243856E+02  0.31907410561E+02  0.38205452532E+02  0.00000000000E+00 0.  1.
         11    1    4    4    0    0  0.11825414415E+03 -0.54128459475E+02 -0.40353350454E+00  0.13005420244E+03  0.00000000000E+00 0. -1.
         -4    1    1    2    0  502 -0.15581782085E+03  0.63226931712E+02  0.16950120088E+02  0.16900930377E+03  0.00000000000E+00 0.  1.
<scales pt_clust_5="13000.00000" pt_clust_6="13000.00000" pt_clust_7="13000.00000" pt_clust_8="13000.00000" pt_clust_9="154.18791"></scales>
<clustering>
<clus scale="   80.380">  5  6 -1 -1</clus>
<clus scale="   86.567">  1  5  2 -1</clus>
<clus scale="   88.585">  7  8 -1 -1</clus>
<clus scale="  154.188">  2  9  1 -1</clus>
<clus scale="  154.188">  2  5  1 -1</clus>
</clustering>
</event>
<event>
 9    2  0.1302972E-004  0.1459187E+03  0.7546771E-02  0.1228966E+00
         -1   -1    0    0    0  501 -0.00000000000E+00  0.00000000000E+00  0.32519132599E+03  0.32519132599E+03  0.00000000000E+00 0.  1.
         21   -1    0    0  501  502  0.00000000000E+00 -0.00000000000E+00 -0.24644408877E+03  0.24644408877E+03  0.00000000000E+00 0.  1.
         24    2    1    2    0    0 -0.15064886448E+02 -0.32293024964E+02  0.39970013826E+02  0.97651345465E+02  0.81660229003E+02 0.  0.
         23    2    1    2    0    0  0.12388152326E+03 -0.14188698404E+02  0.21437451163E+03  0.26223889535E+03  0.85234124807E+02 0.  0.
        -13    1    3    3    0    0 -0.39649874407E+02  0.39254800249E+01  0.35997952218E+02  0.53697062283E+02  0.00000000000E+00 0.  1.
         14    1    3    3    0    0  0.24584987959E+02 -0.36218504989E+02  0.39720616078E+01  0.43954283181E+02  0.00000000000E+00 0. -1.
        -11    1    4    4    0    0  0.89606429550E+02 -0.43631568038E+02  0.10961459813E+03  0.14814987705E+03  0.00000000000E+00 0.  1.
         11    1    4    4    0    0  0.34275093705E+02  0.29442869634E+02  0.10475991350E+03  0.11408901830E+03  0.00000000000E+00 0. -1.
         -2    1    1    2    0  502 -0.10881663681E+03  0.46481723368E+02 -0.17559728823E+03  0.21174517394E+03  0.00000000000E+00 0.  1.
<scales pt_clust_5="13000.00000" pt_clust_6="13000.00000" pt_clust_7="13000.00000" pt_clust_8="13000.00000" pt_clust_9="118.43740"></scales>
<clustering>
<clus scale="   81.660">  5  6 -1 -1</clus>
<clus scale="   85.234">  7  8 -1 -1</clus>
<clus scale="   89.096">  1  5  2 -1</clus>
<clus scale="  118.437">  2  9  1 -1</clus>
<clus scale="  118.437">  2  5  1 -1</clus>
</clustering>
</event>
<event>
 9    2  0.1302972E-004  0.9121990E+02  0.7546771E-02  0.1305940E+00
          2   -1    0    0  502    0 -0.00000000000E+00  0.00000000000E+00  0.38622235944E+03  0.38622235944E+03  0.00000000000E+00 0. -1.
         21   -1    0    0  501  502  0.00000000000E+00 -0.00000000000E+00 -0.11436743654E+03  0.11436743654E+03  0.00000000000E+00 0. -1.
         24    2    1    2    0    0 -0.72258318637E+01 -0.48262384820E+01  0.27150517324E+03  0.28357891620E+03  0.81402932315E+02 0.  0.
         23    2    1    2    0    0 -0.50738492382E+02  0.18041000714E+02 -0.68561745356E+02  0.12599831488E+03  0.90966972635E+02 0.  0.
        -11    1    3    3    0    0  0.14497381308E+02  0.19918392209E+02  0.25783732402E+02  0.35661145096E+02  0.00000000000E+00 0.  1.
         12    1    3    3    0    0 -0.21723213172E+02 -0.24744630691E+02  0.24572144084E+03  0.24791777110E+03  0.00000000000E+00 0. -1.
        -13    1    4    4    0    0 -0.79519477373E+01 -0.33514806877E+02 -0.41010573301E+02  0.53556912488E+02  0.00000000000E+00 0.  1.
         13    1    4    4    0    0 -0.42786544644E+02  0.51555807591E+02 -0.27551172056E+02  0.72441402392E+02  0.00000000000E+00 0. -1.
          1    1    1    2  501    0  0.57964324245E+02 -0.13214762232E+02  0.68911495012E+02  0.91012564906E+02  0.00000000000E+00 0. -1.
<scales pt_clust_5="13000.00000" pt_clust_6="13000.00000" pt_clust_7="13000.00000" pt_clust_8="13000.00000" pt_clust_9="59.45163"></scales>
<clustering>
<clus scale="   59.452">  2  9  1 -1</clus>
<clus scale="   81.403">  5  6 -1 -1</clus>
<clus scale="   81.685">  1  5  2 -1</clus>
<clus scale="   90.967">  7  8 -1 -1</clus>
<clus scale="   59.452">  2  5  1 -1</clus>
</clustering>
</event>
<event>
 9    2  0.1302972E-004  0.9059370E+02  0.7546771E-02  0.1305538E+00
         21   -1    0    0  501  502  0.00000000000E+00  0.00000000000E+00  0.58185270483E+02  0.58185270483E+02  0.00000000000E+00 0.  1.
         -1   -1    0    0    0  501 -0.00000000000E+00 -0.00000000000E+00 -0.51287907757E+03  0.51287907757E+03  0.00000000000E+00 0.  1.
         24    2    1    2    0    0 -0.17445433177E+02 -0.70556844177E+01 -0.40693300278E+03  0.41542892475E+03  0.81440757268E+02 0.  0.
         23    2    1    2    0    0  0.45981509918E+02 -0.68363697519E+01 -0.17431635188E+01  0.99734438443E+02  0.88220657369E+02 0.  0.
        -11    1    3    3    0    0  0.25231736345E+02 -0.26426424652E+02 -0.16480085801E+03  0.16880260436E+03  0.00000000000E+00 0.  1.
         12    1    3    3    0    0 -0.42677169522E+02  0.19370740234E+02 -0.24213214477E+03  0.24662632039E+03  0.00000000000E+00 0. -1.
        -11    1    4    4    0    0  0.68248429181E+02  0.10625377879E+02  0.86049158595E+01  0.69604535180E+02  0.00000000000E+00 0.  1.
         11    1    4    4    0    0 -0.22266919263E+02 -0.17461747630E+02 -0.10348079378E+02  0.30129903262E+02  0.00000000000E+00 0. -1.
         -2    1    1    2    0  502 -0.28536076741E+02  0.13892054170E+02 -0.46017640784E+02  0.55900984858E+02  0.00000000000E+00 0.  1.
<scales pt_clust_5="13000.00000" pt_clust_6="13000.00000" pt_clust_7="13000.00000" pt_clust_8="13000.00000" pt_clust_9="31.73796"></scales>
<clustering>
<clus scale="   31.738">  1  9  2 -1</clus>
<clus scale="   81.441">  5  6 -1 -1</clus>
<clus scale="   84.006">  2  5  1 -1</clus>
<clus scale="   88.221">  7  8 -1 -1</clus>
<clus scale="   31.738">  1  5  2 -1</clus>
</clustering>
</event>
<event>
 9    2  0.1302972E-004  0.2427276E+03  0.7546771E-02  0.1118864E+00
         21   -1    0    0  501  502  0.00000000000E+00  0.00000000000E+00  0.16931785446E+03  0.16931785446E+03  0.00000000000E+00 0. -1.
          2   -1    0    0  502    0 -0.00000000000E+00 -0.00000000000E+00 -0.38888541575E+03  0.38888541575E+03  0.00000000000E+00 0. -1.
         23    2    1    2    0    0 -0.16337142079E+03  0.16072568611E+03 -0.10782978829E+03  0.26924373794E+03  0.91334330185E+02 0.  0.
         24    2    1    2    0    0  0.17694593040E+03 -0.13332585907E+03 -0.88121968305E+02  0.25032374491E+03  0.76228924863E+02 0.  0.
        -13    1    4    4    0    0  0.99223342768E+02 -0.33081252414E+02 -0.20513139569E+02  0.10658531750E+03  0.00000000000E+00 0.  1.
         14    1    4    4    0    0  0.77722587636E+02 -0.10024460665E+03 -0.67608828736E+02  0.14373842741E+03  0.00000000000E+00 0. -1.
        -11    1    3    3    0    0 -0.58039703467E+02  0.60367586709E+02  0.68073904716E+01  0.84019005402E+02  0.00000000000E+00 0.  1.
         11    1    3    3    0    0 -0.10533171732E+03  0.10035809940E+03 -0.11463717876E+03  0.18522473254E+03  0.00000000000E+00 0. -1.
          1    1    1    2  501    0 -0.13574509612E+02 -0.27399827043E+02 -0.23615804699E+02  0.38635787358E+02  0.00000000000E+00 0. -1.
<scales pt_clust_5="13000.00000" pt_clust_6="13000.00000" pt_clust_7="13000.00000" pt_clust_8="13000.00000" pt_clust_9="30.57808"></scales>
<clustering>
<clus scale="   30.578">  1  9  2 -1</clus>
<clus scale="   76.229">  5  6 -1 -1</clus>
<clus scale="   91.334">  7  8 -1 -1</clus>
<clus scale="  237.456">  1  5  2 -1</clus>
<clus scale="   30.578">  1  5  2 -1</clus>
</clustering>
</event>
<event>
 9    2  0.1302972E-004  0.1328679E+03  0.7546771E-02  0.1239669E+00
          2   -1    0    0  502    0 -0.00000000000E+00  0.00000000000E+00  0.84702315542E+02  0.84702315542E+02  0.00000000000E+00 0. -1.
         21   -1    0    0  501  502  0.00000000000E+00 -0.00000000000E+00 -0.72202600255E+03  0.72202600255E+03  0.00000000000E+00 0. -1.
         24    2    1    2    0    0  0.16422830977E+02 -0.45834843458E+02 -0.51482700205E+03  0.52347552246E+03  0.81297222113E+02 0.  0.
         23    2    1    2    0    0  0.75859183658E+02  0.68843650359E+02 -0.14403855998E+02  0.13927559225E+03  0.93253180052E+02 0.  0.
        -13    1    3    3    0    0  0.38287223055E+02 -0.36515954895E+02 -0.17511964605E+03  0.18293774035E+03  0.00000000000E+00 0.  1.
         14    1    3    3    0    0 -0.21864392078E+02 -0.93188885630E+01 -0.33970735601E+03  0.34053778212E+03  0.00000000000E+00 0. -1.
        -11    1    4    4    0    0  0.31384798861E+02  0.83448506673E+02  0.33314890003E+01  0.89217474098E+02  0.00000000000E+00 0. -1.
         11    1    4    4    0    0  0.44474384798E+02 -0.14604856314E+02 -0.17735344998E+02  0.50058118156E+02  0.00000000000E+00 0.  1.
          1    1    1    2  501    0 -0.92282014636E+02 -0.23008806901E+02 -0.10809282896E+03  0.14397720338E+03  0.00000000000E+00 0. -1.
<scales pt_clust_5="13000.00000" pt_clust_6="13000.00000" pt_clust_7="13000.00000" pt_clust_8="13000.00000" pt_clust_9="94.64522"></scales>
<clustering>
<clus scale="   81.297">  5  6 -1 -1</clus>
<clus scale="   93.253">  7  8 -1 -1</clus>
<clus scale="   94.762">  1  5  2 -1</clus>
<clus scale="   94.645">  2  9  1 -1</clus>
<clus scale="   94.645">  2  5  1 -1</clus>
</clustering>
</event>
<event>
 9    2  0.1302972E-004  0.1561670E+03  0.7546771E-02  0.1221413E+00
          2   -1    0    0  502    0 -0.00000000000E+00  0.00000000000E+00  0.51009093477E+03  0.51009093477E+03  0.00000000000E+00 0. -1.
         21   -1    0    0  501  502  0.00000000000E+00 -0.00000000000E+00 -0.80739533869E+02  0.80739533869E+02  0.00000000000E+00 0.  1.
         24    2    1    2    0    0  0.27940469288E+02  0.17360949945E+01  0.14724755364E+03  0.17004787755E+03  0.80316590785E+02 0.  0.
         23    2    1    2    0    0 -0.14754337785E+03  0.18303799271E+02  0.23199647748E+03  0.28956825649E+03  0.89013101219E+02 0.  0.
        -13    1    3    3    0    0  0.37687279324E+02 -0.31620936002E+02  0.72483273714E+02  0.87601595789E+02  0.00000000000E+00 0.  1.
         14    1    3    3    0    0 -0.97468100360E+01  0.33357030997E+02  0.74764279927E+02  0.82446281758E+02  0.00000000000E+00 0. -1.
        -13    1    4    4    0    0 -0.31349390340E+02  0.23528820065E+02  0.12687496443E+03  0.13279174013E+03  0.00000000000E+00 0. -1.
         13    1    4    4    0    0 -0.11619398751E+03 -0.52250207942E+01  0.10512151305E+03  0.15677651636E+03  0.00000000000E+00 0.  1.
          1    1    1    2  501    0  0.11960290856E+03 -0.20039894265E+02  0.50107369772E+02  0.13121433460E+03  0.00000000000E+00 0. -1.
<scales pt_clust_5="13000.00000" pt_clust_6="13000.00000" pt_clust_7="13000.00000" pt_clust_8="13000.00000" pt_clust_9="128.31518"></scales>
<clustering>
<clus scale="   80.317">  5  6 -1 -1</clus>
<clus scale="   85.056">  1  5  2 -1</clus>
<clus scale="   89.013">  7  8 -1 -1</clus>
<clus scale="  128.315">  2  9  1 -1</clus>
<clus scale="  128.315">  2  5  1 -1</clus>
</clustering>
</event>
<event>
 9    2  0.1302972E-004  0.1660968E+03  0.7546771E-02  0.1202635E+00
          2   -1    0    0  502    0 -0.00000000000E+00  0.00000000000E+00  0.62386855807E+03  0.62386855807E+03  0.00000000000E+00 0. -1.
         21   -1    0    0  501  502  0.00000000000E+00 -0.00000000000E+00 -0.16430018019E+03  0.16430018019E+03  0.00000000000E+00 0. -1.
         24    2    1    2    0    0 -0.58467007167E+02 -0.41975070278E+02 -0.87252474118E+02  0.13684760829E+03  0.77032306231E+02 0.  0.
         23    2    1    2    0    0 -0.13121791003E+02 -0.93639015845E+02  0.45273048520E+03  0.47140689067E+03  0.91209197229E+02 0.  0.
        -13    1    3    3    0    0 -0.60500853508E+02 -0.26442936966E+00 -0.34780044247E+02  0.69785920327E+02  0.00000000000E+00 0.  1.
         14    1    3    3    0    0  0.20338463412E+01 -0.41710640908E+02 -0.52472429871E+02  0.67061687963E+02  0.00000000000E+00 0. -1.
        -11    1    4    4    0    0 -0.43032417471E+02 -0.28047700159E+02  0.27240467484E+03  0.27720528370E+03  0.00000000000E+00 0.  1.
         11    1    4    4    0    0  0.29910626468E+02 -0.65591315686E+02  0.18032581036E+03  0.19420160697E+03  0.00000000000E+00 0. -1.
          1    1    1    2  501    0  0.71588798171E+02  0.13561408612E+03  0.94090366800E+02  0.17991423930E+03  0.00000000000E+00 0. -1.
<scales pt_clust_5="13000.00000" pt_clust_6="13000.00000" pt_clust_7="13000.00000" pt_clust_8="13000.00000" pt_clust_9="138.81298"></scales>
<clustering>
<clus scale="   77.032">  5  6 -1 -1</clus>
<clus scale="   91.209">  7  8 -1 -1</clus>
<clus scale="  105.424">  1  5  2 -1</clus>
<clus scale="  138.813">  2  9  1 -1</clus>
<clus scale="  138.813">  2  5  1 -1</clus>
</clustering>
</event>
<event>
 9    2  0.1302972E-004  0.1479441E+03  0.7546771E-02  0.1206694E+00
         21   -1    0    0  501  502  0.00000000000E+00  0.00000000000E+00  0.88763746012E+02  0.88763746012E+02  0.00000000000E+00 0.  1.
         -3   -1    0    0    0  501 -0.00000000000E+00 -0.00000000000E+00 -0.89765817052E+03  0.89765817052E+03  0.00000000000E+00 0.  1.
         24    2    1    2    0    0  0.93328875865E+02 -0.53002485666E+02 -0.80701665266E+03  0.82105151208E+03  0.10644324904E+03 0.  0.
         23    2    1    2    0    0 -0.46202575173E+02  0.56936606375E+02 -0.12570842202E+02  0.11688631142E+03  0.90155025515E+02 0.  0.
        -11    1    3    3    0    0  0.75044843581E+02  0.17851640350E+02 -0.37064474906E+03  0.37858676629E+03  0.00000000000E+00 0.  1.
         12    1    3    3    0    0  0.18284032284E+02 -0.70854126016E+02 -0.43637190361E+03  0.44246474579E+03  0.00000000000E+00 0. -1.
        -11    1    4    4    0    0  0.79012288162E+01  0.25593848885E+02 -0.40378342682E+02  0.48454979881E+02  0.00000000000E+00 0.  1.
         11    1    4    4    0    0 -0.54103803989E+02  0.31342757490E+02  0.27807500480E+02  0.68431331538E+02  0.00000000000E+00 0. -1.
         -4    1    1    2    0  502 -0.47126300692E+02 -0.39341207085E+01  0.10693070358E+02  0.48484093024E+02  0.00000000000E+00 0.  1.
<scales pt_clust_5="13000.00000" pt_clust_6="13000.00000" pt_clust_7="13000.00000" pt_clust_8="13000.00000" pt_clust_9="47.29023"></scales>
<clustering>
<clus scale="   47.290">  1  9  2 -1</clus>
<clus scale="   90.155">  7  8 -1 -1</clus>
<clus scale="  106.443">  5  6 -1 -1</clus>
<clus scale="  136.694">  1  7  2 -1</clus>
<clus scale="   47.290">  1  5  2 -1</clus>
</clustering>
</event>
<event>
 9    2  0.1302972E-004  0.9230723E+02  0.7546771E-02  0.1302909E+00
         21   -1    0    0  501  502  0.00000000000E+00  0.00000000000E+00  0.11979069639E+03  0.11979069639E+03  0.00000000000E+00 0. -1.
         -1   -1    0    0    0  501 -0.00000000000E+00 -0.00000000000E+00 -0.18180710348E+03  0.18180710348E+03  0.00000000000E+00 0.  1.
         23    2    1    2    0    0  0.42894403531E+00 -0.22316328931E+02 -0.98830156161E+02  0.13520373348E+03  0.89523445256E+02 0.  0.
         24    2    1    2    0    0  0.37083392824E+02  0.18950194487E+02  0.71448891124E+02  0.11522670039E+03  0.80236902648E+02 0.  0.
        -11    1    4    4    0    0  0.31287585673E+02  0.39690522456E+02  0.11925515791E+02  0.51927531396E+02  0.00000000000E+00 0.  1.
         12    1    4    4    0    0  0.57958071513E+01 -0.20740327969E+02  0.59523375333E+02  0.63299168998E+02  0.00000000000E+00 0. -1.
        -11    1    3    3    0    0  0.22057028348E+02 -0.48843939926E+02 -0.79553060308E+02  0.95921490665E+02  0.00000000000E+00 0.  1.
         11    1    3    3    0    0 -0.21628084312E+02  0.26527610996E+02 -0.19277095853E+02  0.39282242816E+02  0.00000000000E+00 0. -1.
         -2    1    1    2    0  502 -0.37512336859E+02  0.33661344434E+01 -0.34635142053E+02  0.51167365994E+02  0.00000000000E+00 0.  1.
<scales pt_clust_5="13000.00000" pt_clust_6="13000.00000" pt_clust_7="13000.00000" pt_clust_8="13000.00000" pt_clust_9="37.66308"></scales>
<clustering>
<clus scale="   37.663">  1  9  2 -1</clus>
<clus scale="   80.237">  5  6 -1 -1</clus>
<clus scale="   83.331">  1  5  2 -1</clus>
<clus scale="   89.523">  7  8 -1 -1</clus>
<clus scale="   37.663">  1  5  2 -1</clus>
</clustering>
</event>
<event>
 9    2  0.1302972E-004  0.1652493E+03  0.7546771E-02  0.1184323E+00
         -1   -1    0    0    0  501 -0.00000000000E+00  0.00000000000E+00  0.33994541619E+03  0.33994541619E+03  0.00000000000E+00 0.  1.
         21   -1    0    0  501  502  0.00000000000E+00 -0.00000000000E+00 -0.13824872204E+03  0.13824872204E+03  0.00000000000E+00 0.  1.
         23    2    1    2    0    0  0.20470221812E+02 -0.13051456612E+03  0.15224134344E+03  0.22155289226E+03  0.91952028080E+02 0.  0.
         24    2    1    2    0    0 -0.23500677457E+02  0.15080798305E+03 -0.28783864652E+02  0.17575625816E+03  0.82258262964E+02 0.  0.
        -11    1    4    4    0    0 -0.37650914232E+02  0.10662111335E+03 -0.51320623771E+02  0.12417511658E+03  0.00000000000E+00 0.  1.
         12    1    4    4    0    0  0.14150236775E+02  0.44186869704E+02  0.22536759120E+02  0.51581141579E+02  0.00000000000E+00 0. -1.
        -13    1    3    3    0    0  0.28049059865E+02 -0.60364824352E+02  0.13250868127E+03  0.14828760026E+03  0.00000000000E+00 0.  1.
         13    1    3    3    0    0 -0.75788380525E+01 -0.70149741770E+02  0.19732662167E+02  0.73265292007E+02  0.00000000000E+00 0. -1.
         -2    1    1    2    0  502  0.30304556444E+01 -0.20293416930E+02  0.78239215359E+02  0.80884987804E+02  0.00000000000E+00 0.  1.
<scales pt_clust_5="13000.00000" pt_clust_6="13000.00000" pt_clust_7="13000.00000" pt_clust_8="13000.00000" pt_clust_9="20.51845"></scales>
<clustering>
<clus scale="   20.518">  2  9  1 -1</clus>
<clus scale="   82.258">  5  6 -1 -1</clus>
<clus scale="   91.952">  7  8 -1 -1</clus>
<clus scale="  160.058">  2  5  1 -1</clus>
<clus scale="   20.518">  2  5  1 -1</clus>
</clustering>
</event>
<event>
 9    2  0.1302972E-004  0.1501284E+03  0.7546771E-02  0.1221713E+00
         -1   -1    0    0    0  501 -0.00000000000E+00  0.00000000000E+00  0.68222456600E+02  0.68222456600E+02  0.00000000000E+00 0.  1.
         21   -1    0    0  501  502  0.00000000000E+00 -0.00000000000E+00 -0.18367012536E+04  0.18367012536E+04  0.00000000000E+00 0. -1.
         23    2    1    2    0    0 -0.12789314542E+02 -0.20232450674E+02  0.17788427103E+02  0.96786906550E+02  0.92078002335E+02 0.  0.
         24    2    1    2    0    0 -0.83037897193E+02 -0.82230875847E+02 -0.87008684517E+03  0.88127755084E+03  0.77083034136E+02 0.  0.
        -13    1    4    4    0    0 -0.48736715251E+02 -0.52650701510E+02 -0.26633577394E+03  0.27582985383E+03  0.00000000000E+00 0.  1.
         14    1    4    4    0    0 -0.34301181941E+02 -0.29580174337E+02 -0.60375107123E+03  0.60544769701E+03  0.00000000000E+00 0. -1.
        -11    1    3    3    0    0 -0.13819770206E+02  0.35610612102E+02  0.93377000343E-01  0.38198304440E+02  0.00000000000E+00 0.  1.
         11    1    3    3    0    0  0.10304556636E+01 -0.55843062776E+02  0.17695050103E+02  0.58588602110E+02  0.00000000000E+00 0. -1.
         -2    1    1    2    0  502  0.95827211735E+02  0.10246332652E+03 -0.91618037890E+03  0.92685925278E+03  0.00000000000E+00 0.  1.
<scales pt_clust_5="13000.00000" pt_clust_6="13000.00000" pt_clust_7="13000.00000" pt_clust_8="13000.00000" pt_clust_9="128.82842"></scales>
<clustering>
<clus scale="   77.083">  5  6 -1 -1</clus>
<clus scale="   92.078">  7  8 -1 -1</clus>
<clus scale="   95.138">  1  7  2 -1</clus>
<clus scale="  128.828">  2  9  1 -1</clus>
<clus scale="  128.828">  2  5  1 -1</clus>
</clustering>
</event>
<event>
 9    2  0.1302972E-004  0.2383682E+03  0.7546771E-02  0.1120971E+00
         21   -1    0    0  501  502  0.00000000000E+00  0.00000000000E+00  0.10397432531E+03  0.10397432531E+03  0.00000000000E+00 0. -1.
          2   -1    0    0  502    0 -0.00000000000E+00 -0.00000000000E+00 -0.10255457270E+04  0.10255457270E+04  0.00000000000E+00 0. -1.
         24    2    1    2    0    0  0.14525989160E+03 -0.23990557551E+03 -0.65940981595E+03  0.72116212358E+03  0.81230424402E+02 0.  0.
         23    2    1    2    0    0 -0.46877621465E+02  0.13509846403E+03 -0.10083352496E+03  0.19227844130E+03  0.79715072936E+02 0.  0.
        -13    1    3    3    0    0  0.19797924432E+02 -0.35508984138E+01 -0.86988899189E+02  0.89284014658E+02  0.00000000000E+00 0.  1.
         14    1    3    3    0    0  0.12546196717E+03 -0.23635467709E+03 -0.57242091676E+03  0.63187810892E+03  0.00000000000E+00 0. -1.
        -13    1    4    4    0    0 -0.62594062702E+02  0.64648797448E+02 -0.42725738778E+02  0.99614117730E+02  0.00000000000E+00 0.  1.
         13    1    4    4    0    0  0.15716441237E+02  0.70449666585E+02 -0.58107786183E+02  0.92664323567E+02  0.00000000000E+00 0. -1.
          1    1    1    2  501    0 -0.98382270140E+02  0.10480711147E+03 -0.16132806077E+03  0.21607948742E+03  0.00000000000E+00 0. -1.
<scales pt_clust_5="13000.00000" pt_clust_6="13000.00000" pt_clust_7="13000.00000" pt_clust_8="13000.00000" pt_clust_9="143.74840"></scales>
<clustering>
<clus scale="   79.715">  7  8 -1 -1</clus>
<clus scale="   81.230">  5  6 -1 -1</clus>
<clus scale="  143.748">  1  9  2 -1</clus>
<clus scale="  237.856">  1  7  2 -1</clus>
<clus scale="  143.748">  1  5  2 -1</clus>
</clustering>
</event>
<event>
 9    2  0.1302972E-004  0.1126593E+03  0.7546771E-02  0.1260547E+00
          2   -1    0    0  502    0 -0.00000000000E+00  0.00000000000E+00  0.16471978488E+03  0.16471978488E+03  0.00000000000E+00 0. -1.
         21   -1    0    0  501  502  0.00000000000E+00 -0.00000000000E+00 -0.14588590988E+03  0.14588590988E+03  0.00000000000E+00 0. -1.
         23    2    1    2    0    0  0.80153651818E+02  0.29576396568E+02  0.11010167642E+02  0.12625713757E+03  0.92305307883E+02 0.  0.
         24    2    1    2    0    0 -0.33460572263E+02 -0.12587802195E+02 -0.55886341601E+02  0.10355359227E+03  0.79511009510E+02 0.  0.
        -11    1    4    4    0    0 -0.36806723019E+02  0.15485603209E+02  0.10920394673E+01  0.39946605818E+02  0.00000000000E+00 0.  1.
         12    1    4    4    0    0  0.33461507557E+01 -0.28073405404E+02 -0.56978381068E+02  0.63606986448E+02  0.00000000000E+00 0. -1.
        -13    1    3    3    0    0  0.89468279094E+02  0.48572890870E+02  0.19148847656E+02  0.10358849868E+03  0.00000000000E+00 0. -1.
         13    1    3    3    0    0 -0.93146272763E+01 -0.18996494303E+02 -0.81386800144E+01  0.22668638897E+02  0.00000000000E+00 0.  1.
          1    1    1    2  501    0 -0.46693079554E+02 -0.16988594373E+02  0.63710048960E+02  0.80794964915E+02  0.00000000000E+00 0. -1.
<scales pt_clust_5="13000.00000" pt_clust_6="13000.00000" pt_clust_7="13000.00000" pt_clust_8="13000.00000" pt_clust_9="49.68761"></scales>
<clustering>
<clus scale="   49.688">  2  9  1 -1</clus>
<clus scale="   79.511">  5  6 -1 -1</clus>
<clus scale="   92.305">  7  8 -1 -1</clus>
<clus scale="  102.439">  2  5  1 -1</clus>
<clus scale="   49.688">  2  5  1 -1</clus>
</clustering>
</event>
<event>
 9    2  0.1302972E-004  0.1446903E+03  0.7546771E-02  0.1208631E+00
          2   -1    0    0  502    0 -0.00000000000E+00  0.00000000000E+00  0.81721467005E+03  0.81721467005E+03  0.00000000000E+00 0. -1.
         21   -1    0    0  501  502  0.00000000000E+00 -0.00000000000E+00 -0.34378892565E+02  0.34378892565E+02  0.00000000000E+00 0. -1.
         24    2    1    2    0    0 -0.18811110243E+02  0.10428949540E+03  0.30696082645E+03  0.33470488733E+03  0.81069451131E+02 0.  0.
         23    2    1    2    0    0  0.35776872546E+02 -0.12154667370E+03  0.28289761566E+03  0.32239986003E+03  0.88639891145E+02 0.  0.
        -11    1    3    3    0    0  0.28277283146E+02  0.63458921243E+02  0.18761533435E+03  0.20006537209E+03  0.00000000000E+00 0.  1.
         12    1    3    3    0    0 -0.47088393389E+02  0.40830574153E+02  0.11934549210E+03  0.13463951524E+03  0.00000000000E+00 0. -1.
        -13    1    4    4    0    0  0.55083606520E+02 -0.79791591567E+02  0.12654019162E+03  0.15941556351E+03  0.00000000000E+00 0. -1.
         13    1    4    4    0    0 -0.19306733975E+02 -0.41755082136E+02  0.15635742404E+03  0.16298429652E+03  0.00000000000E+00 0.  1.
          1    1    1    2  501    0 -0.16965762302E+02  0.17257178307E+02  0.19297733537E+03  0.19448881526E+03  0.00000000000E+00 0. -1.
<scales pt_clust_5="13000.00000" pt_clust_6="13000.00000" pt_clust_7="13000.00000" pt_clust_8="13000.00000" pt_clust_9="24.20016"></scales>
<clustering>
<clus scale="   24.200">  2  9  1 -1</clus>
<clus scale="   81.069">  5  6 -1 -1</clus>
<clus scale="   88.640">  7  8 -1 -1</clus>
<clus scale="  140.180">  1  5  2 -1</clus>
<clus scale="   24.200">  2  5  1 -1</clus>
</clustering>
</event>
<event>
 9    2  0.1302972E-004  0.1773949E+03  0.7546771E-02  0.1174902E+00
         21   -1    0    0  501  502  0.00000000000E+00  0.00000000000E+00  0.75810292948E+02  0.75810292948E+02  0.00000000000E+00 0. -1.
          2   -1    0    0  502    0 -0.00000000000E+00 -0.00000000000E+00 -0.13615229698E+04  0.13615229698E+04  0.00000000000E+00 0. -1.
         23    2    1    2    0    0 -0.12265501724E+03 -0.60959677434E+02 -0.87134988841E+02  0.18212226212E+03  0.82557110858E+02 0.  0.
         24    2    1    2    0    0 -0.97285061623E+01  0.17150377876E+03 -0.47539155867E+03  0.51174373620E+03  0.79851909927E+02 0.  0.
        -13    1    4    4    0    0  0.23489137427E+02  0.13082768939E+02 -0.53744325911E+02  0.60094517119E+02  0.00000000000E+00 0.  1.
         14    1    4    4    0    0 -0.33217643589E+02  0.15842100982E+03 -0.42164723276E+03  0.45164921908E+03  0.00000000000E+00 0. -1.
        -11    1    3    3    0    0 -0.94139826993E+02 -0.70406952145E+02 -0.36225718383E+02  0.12301117270E+03  0.00000000000E+00 0. -1.
         11    1    3    3    0    0 -0.28515190250E+02  0.94472747109E+01 -0.50909270457E+02  0.59111089425E+02  0.00000000000E+00 0.  1.
          1    1    1    2  501    0  0.13238352341E+03 -0.11054410132E+03 -0.72318612936E+03  0.74346726445E+03  0.00000000000E+00 0. -1.
<scales pt_clust_5="13000.00000" pt_clust_6="13000.00000" pt_clust_7="13000.00000" pt_clust_8="13000.00000" pt_clust_9="158.40665"></scales>
<clustering>
<clus scale="   79.852">  5  6 -1 -1</clus>
<clus scale="   82.557">  7  8 -1 -1</clus>
<clus scale="  159.925">  2  7  1 -1</clus>
<clus scale="  158.407">  1  9  2 -1</clus>
<clus scale="  158.407">  1  5  2 -1</clus>
</clustering>
</event>
<event>
 9    2  0.1302972E-004  0.1365046E+03  0.7546771E-02  0.1230366E+00
         -3   -1    0    0    0  501 -0.00000000000E+00  0.00000000000E+00  0.18775904285E+03  0.18775904285E+03  0.00000000000E+00 0.  1.
         21   -1    0    0  501  502  0.00000000000E+00 -0.00000000000E+00 -0.18643630066E+03  0.18643630066E+03  0.00000000000E+00 0.  1.
         23    2    1    2    0    0 -0.24623790791E+02 -0.48311685457E+02 -0.89789975183E+01  0.10610704241E+03  0.90761952536E+02 0.  0.
         24    2    1    2    0    0 -0.81439697151E+02 -0.16427572026E+02  0.65441732962E+02  0.13214326151E+03  0.79227089776E+02 0.  0.
        -13    1    4    4    0    0 -0.60682756563E+02 -0.47743263224E+02  0.45108487538E+02  0.89423664515E+02  0.00000000000E+00 0.  1.
         14    1    4    4    0    0 -0.20756940588E+02  0.31315691199E+02  0.20333245424E+02  0.42719596994E+02  0.00000000000E+00 0. -1.
        -13    1    3    3    0    0  0.58906860134E+00 -0.66787357321E+02 -0.24583853724E+02  0.71170667860E+02  0.00000000000E+00 0. -1.
         13    1    3    3    0    0 -0.25212859393E+02  0.18475671864E+02  0.15604856205E+02  0.34936374551E+02  0.00000000000E+00 0.  1.
         -4    1    1    2    0  502  0.10606348794E+03  0.64739257483E+02 -0.55139993254E+02  0.13594503959E+03  0.00000000000E+00 0.  1.
<scales pt_clust_5="13000.00000" pt_clust_6="13000.00000" pt_clust_7="13000.00000" pt_clust_8="13000.00000" pt_clust_9="111.16012"></scales>
<clustering>
<clus scale="   79.227">  5  6 -1 -1</clus>
<clus scale="   90.762">  7  8 -1 -1</clus>
<clus scale="  105.727">  1  7  2 -1</clus>
<clus scale="  111.160">  2  9  1 -1</clus>
<clus scale="  111.160">  2  5  1 -1</clus>
</clustering>
</event>
<event>
 9    2  0.1302972E-004  0.9313920E+02  0.7546771E-02  0.1302129E+00
         21   -1    0    0  501  502  0.00000000000E+00  0.00000000000E+00  0.33037139756E+03  0.33037139756E+03  0.00000000000E+00 0.  1.
         -1   -1    0    0    0  501 -0.00000000000E+00 -0.00000000000E+00 -0.99000084531E+02  0.99000084531E+02  0.00000000000E+00 0.  1.
         23    2    1    2    0    0  0.14638120353E+02  0.23639918807E+01 -0.50539422004E+02  0.10560092763E+03  0.91528463956E+02 0.  0.
         24    2    1    2    0    0 -0.28827967011E+02 -0.45117116956E+02  0.25147255594E+03  0.26940453384E+03  0.80459620538E+02 0.  0.
        -13    1    4    4    0    0 -0.53640819666E+02 -0.22085981934E+02  0.11509092871E+03  0.12888386246E+03  0.00000000000E+00 0.  1.
         14    1    4    4    0    0  0.24812852655E+02 -0.23031135021E+02  0.13638162724E+03  0.14052067138E+03  0.00000000000E+00 0. -1.
        -13    1    3    3    0    0 -0.23069639032E+02 -0.32863546744E+02 -0.29726887682E+02  0.49959071257E+02  0.00000000000E+00 0.  1.
         13    1    3    3    0    0  0.37707759384E+02  0.35227538625E+02 -0.20812534322E+02  0.55641856370E+02  0.00000000000E+00 0. -1.
         -2    1    1    2    0  502  0.14189846659E+02  0.42753125075E+02  0.30438179087E+02  0.54366020620E+02  0.00000000000E+00 0.  1.
<scales pt_clust_5="13000.00000" pt_clust_6="13000.00000" pt_clust_7="13000.00000" pt_clust_8="13000.00000" pt_clust_9="45.04644"></scales>
<clustering>
<clus scale="   45.046">  1  9  2 -1</clus>
<clus scale="   80.460">  5  6 -1 -1</clus>
<clus scale="   82.287">  1  5  2 -1</clus>
<clus scale="   91.528">  7  8 -1 -1</clus>
<clus scale="   45.046">  1  5  2 -1</clus>
</clustering>
</event>
<event>
 9    2  0.1302972E-004  0.2231158E+03  0.7546771E-02  0.1173667E+00
         21   -1    0    0  501  502  0.00000000000E+00  0.00000000000E+00  0.36799302686E+02  0.36799302686E+02  0.00000000000E+00 0. -1.
          2   -1    0    0  502    0 -0.00000000000E+00 -0.00000000000E+00 -0.21432405283E+04  0.21432405283E+04  0.00000000000E+00 0. -1.
         24    2    1    2    0    0 -0.12300730168E+02  0.19070500184E+02 -0.10911764575E+03  0.13689443501E+03  0.79488576432E+02 0.  0.
         23    2    1    2    0    0  0.20292570585E+03 -0.62651206539E+02 -0.93689813810E+03  0.96484150705E+03  0.89649298841E+02 0.  0.
        -13    1    3    3    0    0 -0.23638198760E+02 -0.23642760780E+02 -0.24557182890E+02  0.41482524145E+02  0.00000000000E+00 0.  1.
         14    1    3    3    0    0  0.11337468592E+02  0.42713260964E+02 -0.84560462860E+02  0.95411910867E+02  0.00000000000E+00 0. -1.
        -13    1    4    4    0    0  0.14732326043E+03 -0.10866716786E+01 -0.62022361323E+03  0.63748149332E+03  0.00000000000E+00 0.  1.
         13    1    4    4    0    0  0.55602445421E+02 -0.61564534860E+02 -0.31667452487E+03  0.32736001373E+03  0.00000000000E+00 0. -1.
          1    1    1    2  501    0 -0.19062497568E+03  0.43580706355E+02 -0.10604254417E+04  0.10783038889E+04  0.00000000000E+00 0. -1.
<scales pt_clust_5="13000.00000" pt_clust_6="13000.00000" pt_clust_7="13000.00000" pt_clust_8="13000.00000" pt_clust_9="204.31277"></scales>
<clustering>
<clus scale="   79.489">  5  6 -1 -1</clus>
<clus scale="   82.665">  2  5  1 -1</clus>
<clus scale="   89.649">  7  8 -1 -1</clus>
<clus scale="  204.313">  1  9  2 -1</clus>
<clus scale="  204.313">  1  5  2 -1</clus>
</clustering>
</event>
<event>
 9    2  0.1302972E-004  0.1286079E+03  0.7546771E-02  0.1232454E+00
          2   -1    0    0  502    0 -0.00000000000E+00  0.00000000000E+00  0.28036814943E+03  0.28036814943E+03  0.00000000000E+00 0. -1.
         21   -1    0    0  501  502  0.00000000000E+00 -0.00000000000E+00 -0.11833022395E+03  0.11833022395E+03  0.00000000000E+00 0. -1.
         23    2    1    2    0    0 -0.12994844557E+02 -0.80281264586E+02  0.70417030368E+02  0.14158215708E+03  0.92048908793E+02 0.  0.
         24    2    1    2    0    0  0.32883266252E+02  0.10472172474E+03 -0.22795890803E+02  0.13843982307E+03  0.81227970187E+02 0.  0.
        -13    1    4    4    0    0  0.39241072854E+02  0.48928383869E+02  0.22146257227E+02  0.66515451257E+02  0.00000000000E+00 0.  1.
         14    1    4    4    0    0 -0.63578066016E+01  0.55793340875E+02 -0.44942148030E+02  0.71924371810E+02  0.00000000000E+00 0. -1.
        -11    1    3    3    0    0  0.36735056130E+02 -0.25202809636E+02  0.94463696248E+01  0.45539871118E+02  0.00000000000E+00 0.  1.
         11    1    3    3    0    0 -0.49729900686E+02 -0.55078454950E+02  0.60970660743E+02  0.96042285965E+02  0.00000000000E+00 0. -1.
          1    1    1    2  501    0 -0.19888421696E+02 -0.24440460158E+02  0.11441678591E+03  0.11867639322E+03  0.00000000000E+00 0. -1.
<scales pt_clust_5="13000.00000" pt_clust_6="13000.00000" pt_clust_7="13000.00000" pt_clust_8="13000.00000" pt_clust_9="31.51010"></scales>
<clustering>
<clus scale="   31.510">  2  9  1 -1</clus>
<clus scale="   81.228">  5  6 -1 -1</clus>
<clus scale="   92.049">  7  8 -1 -1</clus>
<clus scale="  121.099">  2  5  1 -1</clus>
<clus scale="   31.510">  2  5  1 -1</clus>
</clustering>
</event>
<event>
 9    2  0.1302972E-004  0.1504190E+03  0.7546771E-02  0.1202031E+00
          2   -1    0    0  502    0 -0.00000000000E+00  0.00000000000E+00  0.74340475870E+03  0.74340475870E+03  0.00000000000E+00 0. -1.
         21   -1    0    0  501  502  0.00000000000E+00 -0.00000000000E+00 -0.12844623330E+03  0.12844623330E+03  0.00000000000E+00 0.  1.
         24    2    1    2    0    0  0.76470431331E+01  0.11344213661E+03  0.43637278715E+03  0.45810771011E+03  0.80708543986E+02 0.  0.
         23    2    1    2    0    0 -0.11908584658E+03 -0.11594044297E+03  0.22372270937E+03  0.29348441690E+03  0.91965358164E+02 0.  0.
        -11    1    3    3    0    0 -0.34459260406E+02  0.59356333721E+02  0.25935544097E+03  0.26828317081E+03  0.00000000000E+00 0.  1.
         12    1    3    3    0    0  0.42106303539E+02  0.54085802885E+02  0.17701734618E+03  0.18982453929E+03  0.00000000000E+00 0. -1.
        -11    1    4    4    0    0 -0.93407713054E+02 -0.10905938402E+03  0.12224070195E+03  0.18857820477E+03  0.00000000000E+00 0.  1.
         11    1    4    4    0    0 -0.25678133522E+02 -0.68810589545E+01  0.10148200741E+03  0.10490621212E+03  0.00000000000E+00 0. -1.
          1    1    1    2  501    0  0.11143880344E+03  0.24983063681E+01 -0.45136971112E+02  0.12025886499E+03  0.00000000000E+00 0. -1.
<scales pt_clust_5="13000.00000" pt_clust_6="13000.00000" pt_clust_7="13000.00000" pt_clust_8="13000.00000" pt_clust_9="111.46680"></scales>
<clustering>
<clus scale="   80.709">  5  6 -1 -1</clus>
<clus scale="   91.965">  7  8 -1 -1</clus>
<clus scale="  111.467">  2  9  1 -1</clus>
<clus scale="  143.813">  1  5  2 -1</clus>
<clus scale="  111.467">  2  5  1 -1</clus>
</clustering>
</event>
<event>
 9    2  0.1302972E-004  0.1258449E+03  0.7546771E-02  0.1237790E+00
         21   -1    0    0  501  502  0.00000000000E+00  0.00000000000E+00  0.28219989736E+03  0.28219989736E+03  0.00000000000E+00 0.  1.
         -3   -1    0    0    0  501 -0.00000000000E+00 -0.00000000000E+00 -0.82854968949E+02  0.82854968949E+02  0.00000000000E+00 0.  1.
         23    2    1    2    0    0 -0.15763979881E+02 -0.81836772937E+02  0.15493618003E+02  0.12691503411E+03  0.94454291691E+02 0.  0.
         24    2    1    2    0    0 -0.16638727750E+02  0.85500683027E+02  0.14315638158E+03  0.18599161141E+03  0.80696442721E+02 0.  0.
        -11    1    4    4    0    0 -0.32623807248E+02  0.88498584136E+02  0.14092362953E+03  0.16957529759E+03  0.00000000000E+00 0.  1.
         12    1    4    4    0    0  0.15985079498E+02 -0.29979011089E+01  0.22327520516E+01  0.16416313817E+02  0.00000000000E+00 0. -1.
        -11    1    3    3    0    0 -0.45935423811E+01 -0.10158363247E+03  0.20374636008E+02  0.10370853778E+03  0.00000000000E+00 0.  1.
         11    1    3    3    0    0 -0.11170437500E+02  0.19746859529E+02 -0.48810180049E+01  0.23206496331E+02  0.00000000000E+00 0. -1.
         -4    1    1    2    0  502  0.32402707631E+02 -0.36639100907E+01  0.40694928829E+02  0.52148220788E+02  0.00000000000E+00 0.  1.
<scales pt_clust_5="13000.00000" pt_clust_6="13000.00000" pt_clust_7="13000.00000" pt_clust_8="13000.00000" pt_clust_9="32.60920"></scales>
<clustering>
<clus scale="   32.609">  1  9  2 -1</clus>
<clus scale="   80.696">  5  6 -1 -1</clus>
<clus scale="   94.454">  7  8 -1 -1</clus>
<clus scale="  115.876">  1  5  2 -1</clus>
<clus scale="   32.609">  1  5  2 -1</clus>
</clustering>
</event>
<event>
 9    2  0.1302972E-004  0.1725378E+03  0.7546771E-02  0.1208940E+00
         21   -1    0    0  501  502  0.00000000000E+00  0.00000000000E+00  0.18298455729E+03  0.18298455729E+03  0.00000000000E+00 0.  1.
          2   -1    0    0  502    0 -0.00000000000E+00 -0.00000000000E+00 -0.33577827884E+03  0.33577827884E+03  0.00000000000E+00 0. -1.
         24    2    1    2    0    0  0.20402277709E+02  0.12848363595E+02 -0.17897247826E+03  0.19691594367E+03  0.78507372367E+02 0.  0.
         23    2    1    2    0    0  0.98440938450E+02  0.90292883202E+02  0.21516110789E+02  0.16441891818E+03  0.93419561714E+02 0.  0.
        -11    1    3    3    0    0 -0.15028687399E+02 -0.24828050425E+02 -0.47868175266E+02  0.55979065160E+02  0.00000000000E+00 0.  1.
         12    1    3    3    0    0  0.35430965108E+02  0.37676414021E+02 -0.13110430299E+03  0.14093687851E+03  0.00000000000E+00 0. -1.
        -11    1    4    4    0    0  0.11141278382E+03  0.52949516860E+02  0.18966213352E+02  0.12480455514E+03  0.00000000000E+00 0.  1.
         11    1    4    4    0    0 -0.12971845369E+02  0.37343366342E+02  0.25498974363E+01  0.39614363039E+02  0.00000000000E+00 0. -1.
          1    1    1    2  501    0 -0.11884321616E+03 -0.10314124680E+03  0.46626459172E+01  0.15742797428E+03  0.00000000000E+00 0. -1.
<scales pt_clust_5="13000.00000" pt_clust_6="13000.00000" pt_clust_7="13000.00000" pt_clust_8="13000.00000" pt_clust_9="145.05891"></scales>
<clustering>
<clus scale="   78.507">  5  6 -1 -1</clus>
<clus scale="   82.126">  2  5  1 -1</clus>
<clus scale="   93.420">  7  8 -1 -1</clus>
<clus scale="  145.059">  1  9  2 -1</clus>
<clus scale="  145.059">  1  5  2 -1</clus>
</clustering>
</event>
<event>
 9    2  0.1302972E-004  0.1141004E+03  0.7546771E-02  0.1256802E+00
         21   -1    0    0  501  502  0.00000000000E+00  0.00000000000E+00  0.84677627235E+02  0.84677627235E+02  0.00000000000E+00 0. -1.
         -1   -1    0    0    0  501 -0.00000000000E+00 -0.00000000000E+00 -0.49776055621E+03  0.49776055621E+03  0.00000000000E+00 0.  1.
         24    2    1    2    0    0  0.74318566027E+01 -0.57860175628E+02 -0.15087406519E+03  0.18107708716E+03  0.81381174294E+02 0.  0.
         23    2    1    2    0    0  0.58217199077E+02  0.10948772309E+03 -0.33264811698E+02  0.15765926791E+03  0.91504607998E+02 0.  0.
        -13    1    3    3    0    0 -0.22895074475E+02  0.65927609181E+01 -0.16469447275E+02  0.28963625900E+02  0.00000000000E+00 0.  1.
         14    1    3    3    0    0  0.30326931078E+02 -0.64452936546E+02 -0.13440461792E+03  0.15211346126E+03  0.00000000000E+00 0. -1.
        -13    1    4    4    0    0  0.38515645313E+02  0.48873183972E+02  0.28915735502E+02  0.68616053552E+02  0.00000000000E+00 0. -1.
         13    1    4    4    0    0  0.19701553764E+02  0.60614539120E+02 -0.62180547200E+02  0.89043214360E+02  0.00000000000E+00 0.  1.
         -2    1    1    2    0  502 -0.65649055680E+02 -0.51627547464E+02 -0.22894405209E+03  0.24370182838E+03  0.00000000000E+00 0.  1.
<scales pt_clust_5="13000.00000" pt_clust_6="13000.00000" pt_clust_7="13000.00000" pt_clust_8="13000.00000" pt_clust_9="83.51772"></scales>
<clustering>
<clus scale="   81.381">  5  6 -1 -1</clus>
<clus scale="   83.518">  1  9  2 -1</clus>
<clus scale="   91.505">  7  8 -1 -1</clus>
<clus scale="  106.154">  2  5  1 -1</clus>
<clus scale="   83.518">  1  5  2 -1</clus>
</clustering>
</event>
<event>
 9    2  0.1302972E-004  0.1101894E+03  0.7546771E-02  0.1265368E+00
          2   -1    0    0  502    0 -0.00000000000E+00  0.00000000000E+00  0.31539779823E+03  0.31539779823E+03  0.00000000000E+00 0. -1.
         21   -1    0    0  501  502  0.00000000000E+00 -0.00000000000E+00 -0.56615027223E+02  0.56615027223E+02  0.00000000000E+00 0. -1.
         23    2    1    2    0    0  0.60604013443E+02 -0.12266188516E+02  0.12337616787E+03  0.16679618480E+03  0.93680214760E+02 0.  0.
         24    2    1    2    0    0 -0.40001341221E+02  0.44400813860E+02  0.51572531051E+02  0.11310119195E+03  0.80997617806E+02 0.  0.
        -11    1    4    4    0    0 -0.15299876923E+02  0.25944410551E+02 -0.19326518789E+02  0.35787050747E+02  0.00000000000E+00 0.  1.
         12    1    4    4    0    0 -0.24701464298E+02  0.18456403310E+02  0.70899049839E+02  0.77314141202E+02  0.00000000000E+00 0. -1.
        -11    1    3    3    0    0 -0.20351573905E+02 -0.16652995687E+02  0.54112100537E+02  0.60163346402E+02  0.00000000000E+00 0.  1.
         11    1    3    3    0    0  0.80955587349E+02  0.43868071713E+01  0.69264067337E+02  0.10663283840E+03  0.00000000000E+00 0. -1.
          1    1    1    2  501    0 -0.20602672222E+02 -0.32134625344E+02  0.83834072085E+02  0.92115448711E+02  0.00000000000E+00 0. -1.
<scales pt_clust_5="13000.00000" pt_clust_6="13000.00000" pt_clust_7="13000.00000" pt_clust_8="13000.00000" pt_clust_9="38.17205"></scales>
<clustering>
<clus scale="   38.172">  2  9  1 -1</clus>
<clus scale="   80.998">  5  6 -1 -1</clus>
<clus scale="   93.680">  7  8 -1 -1</clus>
<clus scale="   99.631">  2  5  1 -1</clus>
<clus scale="   38.172">  2  5  1 -1</clus>
</clustering>
</event>
<event>
 9    2  0.1302972E-004  0.1114644E+03  0.7546771E-02  0.1260879E+00
         21   -1    0    0  501  502  0.00000000000E+00  0.00000000000E+00  0.80965528430E+03  0.80965528430E+03  0.00000000000E+00 0. -1.
         -1   -1    0    0    0  501 -0.00000000000E+00 -0.00000000000E+00 -0.48396981969E+02  0.48396981969E+02  0.00000000000E+00 0.  1.
         23    2    1    2    0    0 -0.14224501695E+02 -0.72324388280E+02  0.58307794417E+02  0.12979690362E+03  0.89522531861E+02 0.  0.
         24    2    1    2    0    0  0.52190250432E+02  0.10482999595E+02  0.55504554970E+03  0.56350818636E+03  0.81438309971E+02 0.  0.
        -11    1    4    4    0    0  0.44635910827E+02  0.14720246749E+02  0.12769822355E+03  0.13607309248E+03  0.00000000000E+00 0.  1.
         12    1    4    4    0    0  0.75543396049E+01 -0.42372471539E+01  0.42734732614E+03  0.42743509387E+03  0.00000000000E+00 0. -1.
        -11    1    3    3    0    0 -0.46494562650E+02 -0.21895542304E+02  0.88672006823E+01  0.52151571182E+02  0.00000000000E+00 0.  1.
         11    1    3    3    0    0  0.32270060955E+02 -0.50428845975E+02  0.49440593734E+02  0.77645332437E+02  0.00000000000E+00 0. -1.
         -2    1    1    2    0  502 -0.37965748737E+02  0.61841388684E+02  0.14790495821E+03  0.16474717629E+03  0.00000000000E+00 0.  1.
<scales pt_clust_5="13000.00000" pt_clust_6="13000.00000" pt_clust_7="13000.00000" pt_clust_8="13000.00000" pt_clust_9="72.56553"></scales>
<clustering>
<clus scale="   72.566">  1  9  2 -1</clus>
<clus scale="   81.438">  5  6 -1 -1</clus>
<clus scale="   89.523">  7  8 -1 -1</clus>
<clus scale="  105.082">  1  5  2 -1</clus>
<clus scale="   72.566">  1  5  2 -1</clus>
</clustering>
</event>
<event>
 9    2  0.1302972E-004  0.3272990E+03  0.7546771E-02  0.1072918E+00
         21   -1    0    0  501  502  0.00000000000E+00  0.00000000000E+00  0.60825157733E+02  0.60825157733E+02  0.00000000000E+00 0. -1.
          2   -1    0    0  502    0 -0.00000000000E+00 -0.00000000000E+00 -0.27761013542E+04  0.27761013542E+04  0.00000000000E+00 0. -1.
         23    2    1    2    0    0 -0.24701634863E+03 -0.26457408043E+03 -0.15120872271E+04  0.15579209511E+04  0.98455000831E+02 0.  0.
         24    2    1    2    0    0  0.23407653049E+03  0.11580498620E+03 -0.62888250055E+03  0.68560215463E+03  0.79715105106E+02 0.  0.
        -13    1    4    4    0    0  0.27089019382E+02  0.47875292385E+02 -0.13743336299E+03  0.14803306338E+03  0.00000000000E+00 0.  1.
         14    1    4    4    0    0  0.20698751111E+03  0.67929693819E+02 -0.49144913756E+03  0.53756909125E+03  0.00000000000E+00 0. -1.
        -11    1    3    3    0    0 -0.22865229578E+03 -0.21303473770E+03 -0.13801301684E+04  0.14150706532E+04  0.00000000000E+00 0. -1.
         11    1    3    3    0    0 -0.18364052856E+02 -0.51539342738E+02 -0.13195705872E+03  0.14285029798E+03  0.00000000000E+00 0.  1.
          1    1    1    2  501    0  0.12939818145E+02  0.14876909423E+03 -0.57430646889E+03  0.59340340621E+03  0.00000000000E+00 0. -1.
<scales pt_clust_5="13000.00000" pt_clust_6="13000.00000" pt_clust_7="13000.00000" pt_clust_8="13000.00000" pt_clust_9="149.33086"></scales>
<clustering>
<clus scale="   79.715">  5  6 -1 -1</clus>
<clus scale="   98.455">  7  8 -1 -1</clus>
<clus scale="  149.331">  1  9  2 -1</clus>
<clus scale="  322.158">  1  5  2 -1</clus>
<clus scale="  149.331">  1  5  2 -1</clus>
</clustering>
</event>
<event>
 9    2  0.1302972E-004  0.9853472E+02  0.7546771E-02  0.1287213E+00
          2   -1    0    0  502    0 -0.00000000000E+00  0.00000000000E+00  0.27129594024E+03  0.27129594024E+03  0.00000000000E+00 0. -1.
         21   -1    0    0  501  502  0.00000000000E+00 -0.00000000000E+00 -0.14848248859E+03  0.14848248859E+03  0.00000000000E+00 0.  1.
         24    2    1    2    0    0  0.40270805302E+02 -0.71324165357E+01  0.23795100265E+03  0.25516398179E+03  0.82555247037E+02 0.  0.
         23    2    1    2    0    0 -0.23487315886E+02  0.21486215959E+02 -0.94879158701E+02  0.13464580454E+03  0.90078446035E+02 0.  0.
        -13    1    3    3    0    0  0.23141945659E+02 -0.42522017673E+02  0.91384815036E+02  0.10341593714E+03  0.00000000000E+00 0.  1.
         14    1    3    3    0    0  0.17128859642E+02  0.35389601138E+02  0.14656618762E+03  0.15174804465E+03  0.00000000000E+00 0. -1.
        -13    1    4    4    0    0  0.22469400267E+02  0.17120446556E+02  0.96336967833E+00  0.28265026442E+02  0.00000000000E+00 0. -1.
         13    1    4    4    0    0 -0.45956716153E+02  0.43657694025E+01 -0.95842528379E+02  0.10638077810E+03  0.00000000000E+00 0.  1.
          1    1    1    2  501    0 -0.16783489415E+02 -0.14353799423E+02 -0.20258392296E+02  0.29968642500E+02  0.00000000000E+00 0. -1.
<scales pt_clust_5="13000.00000" pt_clust_6="13000.00000" pt_clust_7="13000.00000" pt_clust_8="13000.00000" pt_clust_9="22.08432"></scales>
<clustering>
<clus scale="   22.084">  2  9  1 -1</clus>
<clus scale="   82.555">  5  6 -1 -1</clus>
<clus scale="   90.078">  7  8 -1 -1</clus>
<clus scale="   91.708">  1  5  2 -1</clus>
<clus scale="   22.084">  2  5  1 -1</clus>
</clustering>
</event>
<event>
 9    2  0.1302972E-004  0.9160488E+02  0.7546771E-02  0.1303333E+00
          2   -1    0    0  502    0 -0.00000000000E+00  0.00000000000E+00  0.37433645027E+03  0.37433645027E+03  0.00000000000E+00 0. -1.
         21   -1    0    0  501  502  0.00000000000E+00 -0.00000000000E+00 -0.19990141217E+03  0.19990141217E+03  0.00000000000E+00 0. -1.
         24    2    1    2    0    0 -0.58940724083E+01 -0.15126114584E+02  0.29224435024E+03  0.30420953474E+03  0.82904410928E+02 0.  0.
         23    2    1    2    0    0 -0.22223088163E+02  0.25531169739E+02  0.43776978828E+02  0.10568426995E+03  0.90039073537E+02 0.  0.
        -13    1    3    3    0    0  0.33123408393E+02  0.13824621691E+02  0.12496538540E+03  0.13001779838E+03  0.00000000000E+00 0.  1.
         14    1    3    3    0    0 -0.39017480801E+02 -0.28950736275E+02  0.16727896484E+03  0.17419173636E+03  0.00000000000E+00 0. -1.
        -13    1    4    4    0    0 -0.53680823565E+02  0.32373964866E+02  0.20488615619E+02  0.65950646621E+02  0.00000000000E+00 0.  1.
         13    1    4    4    0    0  0.31457735402E+02 -0.68427951273E+01  0.23288363208E+02  0.39733623327E+02  0.00000000000E+00 0. -1.
          1    1    1    2  501    0  0.28117160572E+02 -0.10405055155E+02 -0.16158629096E+03  0.16434405775E+03  0.00000000000E+00 0. -1.
<scales pt_clust_5="13000.00000" pt_clust_6="13000.00000" pt_clust_7="13000.00000" pt_clust_8="13000.00000" pt_clust_9="29.98066"></scales>
<clustering>
<clus scale="   29.981">  2  9  1 -1</clus>
<clus scale="   82.904">  5  6 -1 -1</clus>
<clus scale="   84.602">  1  5  2 -1</clus>
<clus scale="   90.039">  7  8 -1 -1</clus>
<clus scale="   29.981">  2  5  1 -1</clus>
</clustering>
</event>
<event>
 9    2  0.1302972E-004  0.1014412E+03  0.7546771E-02  0.1282895E+00
          2   -1    0    0  502    0 -0.00000000000E+00  0.00000000000E+00  0.19677247529E+03  0.19677247529E+03  0.00000000000E+00 0. -1.
         21   -1    0    0  501  502  0.00000000000E+00 -0.00000000000E+00 -0.18497296391E+03  0.18497296391E+03  0.00000000000E+00 0.  1.
         24    2    1    2    0    0 -0.44345339952E+02 -0.97315484425E+01  0.13621629376E+03  0.16454302118E+03  0.80363641802E+02 0.  0.
         23    2    1    2    0    0  0.19075497467E+02 -0.10771038656E+02 -0.14901797323E+03  0.17640855074E+03  0.91835344778E+02 0.  0.
        -11    1    3    3    0    0 -0.30203097357E+02  0.17760130372E+01  0.33597547226E+01  0.30441242814E+02  0.00000000000E+00 0.  1.
         12    1    3    3    0    0 -0.14142242595E+02 -0.11507561480E+02  0.13285653903E+03  0.13410177836E+03  0.00000000000E+00 0. -1.
        -13    1    4    4    0    0  0.71207538843E+01  0.37189081701E+02 -0.99421625137E+02  0.10638793390E+03  0.00000000000E+00 0. -1.
         13    1    4    4    0    0  0.11954743583E+02 -0.47960120357E+02 -0.49596348091E+02  0.70020616840E+02  0.00000000000E+00 0.  1.
          1    1    1    2  501    0  0.25269842485E+02  0.20502587098E+02  0.24601190847E+02  0.40793867284E+02  0.00000000000E+00 0. -1.
<scales pt_clust_5="13000.00000" pt_clust_6="13000.00000" pt_clust_7="13000.00000" pt_clust_8="13000.00000" pt_clust_9="32.54108"></scales>
<clustering>
<clus scale="   32.541">  2  9  1 -1</clus>
<clus scale="   80.364">  5  6 -1 -1</clus>
<clus scale="   91.186">  1  5  2 -1</clus>
<clus scale="   91.835">  7  8 -1 -1</clus>
<clus scale="   32.541">  2  5  1 -1</clus>
</clustering>
</event>
<event>
 9    2  0.1302972E-004  0.9898118E+02  0.7546771E-02  0.1289856E+00
          2   -1    0    0  502    0 -0.00000000000E+00  0.00000000000E+00  0.64279004014E+03  0.64279004014E+03  0.00000000000E+00 0. -1.
         21   -1    0    0  501  502  0.00000000000E+00 -0.00000000000E+00 -0.52497234672E+02  0.52497234672E+02  0.00000000000E+00 0. -1.
         24    2    1    2    0    0  0.25390115951E+02 -0.26989976500E+02  0.27507333006E+03  0.28860613762E+03  0.79088867357E+02 0.  0.
         23    2    1    2    0    0  0.48864538390E+02  0.52581879701E+02  0.45819167860E+02  0.12606534130E+03  0.92954165847E+02 0.  0.
        -13    1    3    3    0    0  0.50587872104E+02 -0.91929069705E+01  0.12093788291E+03  0.13141390286E+03  0.00000000000E+00 0.  1.
         14    1    3    3    0    0 -0.25197756152E+02 -0.17797069530E+02  0.15413544715E+03  0.15719223476E+03  0.00000000000E+00 0. -1.
        -11    1    4    4    0    0  0.44553075742E+02  0.14243204863E+02  0.67261666096E+02  0.81926657254E+02  0.00000000000E+00 0.  1.
         11    1    4    4    0    0  0.43114626476E+01  0.38338674838E+02 -0.21442498236E+02  0.44138684044E+02  0.00000000000E+00 0. -1.
          1    1    1    2  501    0 -0.74254654342E+02 -0.25591903201E+02  0.26940030755E+03  0.28061579590E+03  0.00000000000E+00 0. -1.
<scales pt_clust_5="13000.00000" pt_clust_6="13000.00000" pt_clust_7="13000.00000" pt_clust_8="13000.00000" pt_clust_9="78.54111"></scales>
<clustering>
<clus scale="   78.541">  2  9  1 -1</clus>
<clus scale="   79.089">  5  6 -1 -1</clus>
<clus scale="   86.092">  1  5  2 -1</clus>
<clus scale="   92.954">  7  8 -1 -1</clus>
<clus scale="   78.541">  2  5  1 -1</clus>
</clustering>
</event>
<event>
 9    2  0.1302972E-004  0.1659315E+03  0.7546771E-02  0.1184099E+00
          2   -1    0    0  502    0 -0.00000000000E+00  0.00000000000E+00  0.14742254017E+04  0.14742254017E+04  0.00000000000E+00 0. -1.
         21   -1    0    0  501  502  0.00000000000E+00 -0.00000000000E+00 -0.24379068018E+02  0.24379068018E+02  0.00000000000E+00 0. -1.
         24    2    1    2    0    0 -0.14829196462E+03 -0.47163305332E+02  0.76999136924E+03  0.78927109092E+03  0.76467392538E+02 0.  0.
         23    2    1    2    0    0  0.10294855387E+03  0.63036055854E+02  0.45162563434E+03  0.47610259989E+03  0.90199905496E+02 0.  0.
        -11    1    3    3    0    0 -0.25084246303E+02 -0.42987572784E+02  0.19988405515E+03  0.20598734507E+03  0.00000000000E+00 0.  1.
         12    1    3    3    0    0 -0.12320771832E+03 -0.41757325481E+01  0.57010731409E+03  0.58328374585E+03  0.00000000000E+00 0. -1.
        -13    1    4    4    0    0  0.75873085628E+01  0.50808004545E+02  0.20657545522E+03  0.21286718694E+03  0.00000000000E+00 0. -1.
         13    1    4    4    0    0  0.95361245311E+02  0.12228051309E+02  0.24505017912E+03  0.26323541295E+03  0.00000000000E+00 0.  1.
          1    1    1    2  501    0  0.45343410748E+02 -0.15872750522E+02  0.22822933006E+03  0.23323077886E+03  0.00000000000E+00 0. -1.
<scales pt_clust_5="13000.00000" pt_clust_6="13000.00000" pt_clust_7="13000.00000" pt_clust_8="13000.00000" pt_clust_9="48.04135"></scales>
<clustering>
<clus scale="   48.041">  2  9  1 -1</clus>
<clus scale="   76.467">  5  6 -1 -1</clus>
<clus scale="   90.200">  7  8 -1 -1</clus>
<clus scale="  158.885">  1  5  2 -1</clus>
<clus scale="   48.041">  2  5  1 -1</clus>
</clustering>
</event>
<event>
 9    2  0.1302972E-004  0.1165640E+03  0.7546771E-02  0.1252890E+00
          2   -1    0    0  502    0 -0.00000000000E+00  0.00000000000E+00  0.54093045465E+03  0.54093045465E+03  0.00000000000E+00 0. -1.
         21   -1    0    0  501  502  0.00000000000E+00 -0.00000000000E+00 -0.42494113727E+02  0.42494113727E+02  0.00000000000E+00 0. -1.
         23    2    1    2    0    0  0.48820496961E+01  0.47695956888E+02  0.15578589808E+03  0.18720263799E+03  0.92069772001E+02 0.  0.
         24    2    1    2    0    0  0.49408673696E+02 -0.86610857882E+02  0.26091727730E+03  0.29066548807E+03  0.80411085184E+02 0.  0.
        -13    1    4    4    0    0  0.34889001943E+02 -0.14159472421E+02  0.29785370163E+02  0.48009388577E+02  0.00000000000E+00 0.  1.
         14    1    4    4    0    0  0.14519671753E+02 -0.72451385462E+02  0.23113190714E+03  0.24265609949E+03  0.00000000000E+00 0. -1.
        -13    1    3    3    0    0  0.29120528649E+02  0.62651242025E+02  0.77125168333E+02  0.10354455518E+03  0.00000000000E+00 0. -1.
         13    1    3    3    0    0 -0.24238478953E+02 -0.14955285138E+02  0.78660729746E+02  0.83658082812E+02  0.00000000000E+00 0.  1.
          1    1    1    2  501    0 -0.54290723392E+02  0.38914900995E+02  0.81733165542E+02  0.10555644232E+03  0.00000000000E+00 0. -1.
<scales pt_clust_5="13000.00000" pt_clust_6="13000.00000" pt_clust_7="13000.00000" pt_clust_8="13000.00000" pt_clust_9="66.79710"></scales>
<clustering>
<clus scale="   66.797">  2  9  1 -1</clus>
<clus scale="   80.411">  5  6 -1 -1</clus>
<clus scale="   92.070">  7  8 -1 -1</clus>
<clus scale="  107.593">  2  5  1 -1</clus>
<clus scale="   66.797">  2  5  1 -1</clus>
</clustering>
</event>
<event>
 9    2  0.1302972E-004  0.4586436E+03  0.7546771E-02  0.1091589E+00
         -3   -1    0    0    0  501 -0.00000000000E+00  0.00000000000E+00  0.11322512498E+04  0.11322512498E+04  0.00000000000E+00 0.  1.
         21   -1    0    0  501  502  0.00000000000E+00 -0.00000000000E+00 -0.27384249211E+03  0.27384249211E+03  0.00000000000E+00 0. -1.
         23    2    1    2    0    0  0.15449889844E+02  0.19680683961E+01  0.16139174393E+02  0.72763777136E+02  0.69220820015E+02 0.  0.
         24    2    1    2    0    0  0.29462659699E+03  0.33839946696E+03  0.11055869849E+03  0.46880795479E+03  0.78985073092E+02 0.  0.
        -11    1    4    4    0    0  0.15584707753E+01  0.24625123820E+02 -0.25533526045E+01  0.24806151734E+02  0.00000000000E+00 0.  1.
         12    1    4    4    0    0  0.29306812621E+03  0.31377434314E+03  0.11311205110E+03  0.44400180305E+03  0.00000000000E+00 0. -1.
        -11    1    3    3    0    0 -0.40029157798E+01 -0.31761673825E+02  0.70708099920E+01  0.32784502632E+02  0.00000000000E+00 0.  1.
         11    1    3    3    0    0  0.19452805624E+02  0.33729742221E+02  0.90683644012E+01  0.39979274504E+02  0.00000000000E+00 0. -1.
         -4    1    1    2    0  502 -0.31007648683E+03 -0.34036753535E+03  0.73171088477E+03  0.86452200995E+03  0.00000000000E+00 0.  1.
<scales pt_clust_5="13000.00000" pt_clust_6="13000.00000" pt_clust_7="13000.00000" pt_clust_8="13000.00000" pt_clust_9="451.79147"></scales>
<clustering>
<clus scale="   69.221">  7  8 -1 -1</clus>
<clus scale="   70.951">  1  7  2 -1</clus>
<clus scale="   78.985">  5  6 -1 -1</clus>
<clus scale="  451.791">  2  9  1 -1</clus>
<clus scale="  451.791">  2  5  1 -1</clus>
</clustering>
</event>
<event>
 9    2  0.1302972E-004  0.1005579E+03  0.7546771E-02  0.1281746E+00
          2   -1    0    0  502    0 -0.00000000000E+00  0.00000000000E+00  0.11819407054E+03  0.11819407054E+03  0.00000000000E+00 0. -1.
         21   -1    0    0  501  502  0.00000000000E+00 -0.00000000000E+00 -0.23153094519E+03  0.23153094519E+03  0.00000000000E+00 0. -1.
         23    2    1    2    0    0 -0.42595189461E+02 -0.33635154256E+02  0.17901851833E+02  0.10701093477E+03  0.90472040400E+02 0.  0.
         24    2    1    2    0    0  0.51950333420E+01 -0.73371035230E+00 -0.16221870637E+03  0.18321828542E+03  0.85008850802E+02 0.  0.
        -11    1    4    4    0    0  0.35315307020E+01 -0.30335931974E+02 -0.16898083587E+02  0.34903949729E+02  0.00000000000E+00 0.  1.
         12    1    4    4    0    0  0.16635026400E+01  0.29602221622E+02 -0.14532062279E+03  0.14831433570E+03  0.00000000000E+00 0. -1.
        -13    1    3    3    0    0  0.21139132391E+02 -0.41953174384E+00  0.27298519602E+02  0.34528945793E+02  0.00000000000E+00 0.  1.
         13    1    3    3    0    0 -0.63734321852E+02 -0.33215622512E+02 -0.93966677696E+01  0.72481988976E+02  0.00000000000E+00 0. -1.
          1    1    1    2  501    0  0.37400156119E+02  0.34368864608E+02  0.30979979889E+02  0.59495795533E+02  0.00000000000E+00 0. -1.
<scales pt_clust_5="13000.00000" pt_clust_6="13000.00000" pt_clust_7="13000.00000" pt_clust_8="13000.00000" pt_clust_9="50.79363"></scales>
<clustering>
<clus scale="   50.794">  2  9  1 -1</clus>
<clus scale="   85.009">  5  6 -1 -1</clus>
<clus scale="   90.472">  7  8 -1 -1</clus>
<clus scale="   95.672">  2  5  1 -1</clus>
<clus scale="   50.794">  2  5  1 -1</clus>
</clustering>
</event>
<event>
 9    2  0.1302972E-004  0.9311298E+02  0.7546771E-02  0.1302626E+00
         21   -1    0    0  501  502  0.00000000000E+00  0.00000000000E+00  0.13982221349E+03  0.13982221349E+03  0.00000000000E+00 0. -1.
         -3   -1    0    0    0  501 -0.00000000000E+00 -0.00000000000E+00 -0.12185672855E+03  0.12185672855E+03  0.00000000000E+00 0.  1.
         24    2    1    2    0    0 -0.36857530736E+01 -0.70217627628E+01  0.59361466259E-01  0.81620769462E+02  0.81234577341E+02 0.  0.
         23    2    1    2    0    0  0.10731855880E+02 -0.32506892877E+02  0.64866313863E+02  0.11827288579E+03  0.92784513916E+02 0.  0.
        -11    1    3    3    0    0  0.13937188971E+02 -0.40282277051E+02 -0.73593912651E+01  0.43255840307E+02  0.00000000000E+00 0.  1.
         12    1    3    3    0    0 -0.17622942045E+02  0.33260514288E+02  0.74187527313E+01  0.38364929156E+02  0.00000000000E+00 0. -1.
        -11    1    4    4    0    0  0.40132593956E+02  0.15107270938E+02  0.30124837170E+02  0.52405730101E+02  0.00000000000E+00 0.  1.
         11    1    4    4    0    0 -0.29400738076E+02 -0.47614163815E+02  0.34741476692E+02  0.65867155684E+02  0.00000000000E+00 0. -1.
         -4    1    1    2    0  502 -0.70461028068E+01  0.39528655640E+02 -0.46960190391E+02  0.61785286784E+02  0.00000000000E+00 0.  1.
<scales pt_clust_5="13000.00000" pt_clust_6="13000.00000" pt_clust_7="13000.00000" pt_clust_8="13000.00000" pt_clust_9="40.15176"></scales>
<clustering>
<clus scale="   40.152">  1  9  2 -1</clus>
<clus scale="   81.235">  5  6 -1 -1</clus>
<clus scale="   81.610">  2  5  1 -1</clus>
<clus scale="   92.785">  7  8 -1 -1</clus>
<clus scale="   40.152">  1  5  2 -1</clus>
</clustering>
</event>
<event>
 9    2  0.1302972E-004  0.3261679E+03  0.7546771E-02  0.1073174E+00
         21   -1    0    0  501  502  0.00000000000E+00  0.00000000000E+00  0.38576158793E+03  0.38576158793E+03  0.00000000000E+00 0.  1.
         -3   -1    0    0    0  501 -0.00000000000E+00 -0.00000000000E+00 -0.84486781048E+03  0.84486781048E+03  0.00000000000E+00 0.  1.
         23    2    1    2    0    0  0.35293431527E+03  0.34019774414E+02 -0.68938417137E+03  0.78056394158E+03  0.91156761725E+02 0.  0.
         24    2    1    2    0    0 -0.18532299577E+03  0.11656470308E+02  0.70887844503E+02  0.21430057583E+03  0.80119686963E+02 0.  0.
        -11    1    4    4    0    0 -0.11557183213E+03  0.46053822614E+02  0.46054090331E+02  0.13266040176E+03  0.00000000000E+00 0.  1.
         12    1    4    4    0    0 -0.69751163646E+02 -0.34397352306E+02  0.24833754172E+02  0.81640174068E+02  0.00000000000E+00 0. -1.
        -13    1    3    3    0    0  0.30203862475E+03  0.61056636012E+02 -0.56843577567E+03  0.64658678822E+03  0.00000000000E+00 0.  1.
         13    1    3    3    0    0  0.50895690521E+02 -0.27036861598E+02 -0.12094839570E+03  0.13397715336E+03  0.00000000000E+00 0. -1.
         -4    1    1    2    0  502 -0.16761131950E+03 -0.45676244722E+02  0.15939010432E+03  0.23576488100E+03  0.00000000000E+00 0.  1.
<scales pt_clust_5="13000.00000" pt_clust_6="13000.00000" pt_clust_7="13000.00000" pt_clust_8="13000.00000" pt_clust_9="173.72356"></scales>
<clustering>
<clus scale="   80.120">  5  6 -1 -1</clus>
<clus scale="   91.157">  7  8 -1 -1</clus>
<clus scale="  173.724">  1  9  2 -1</clus>
<clus scale="  323.257">  1  5  2 -1</clus>
<clus scale="  173.724">  1  5  2 -1</clus>
</clustering>
</event>
<event>
 9    2  0.1302972E-004  0.9246513E+02  0.7546771E-02  0.1301544E+00
          2   -1    0    0  502    0 -0.00000000000E+00  0.00000000000E+00  0.97072739002E+03  0.97072739002E+03  0.00000000000E+00 0. -1.
         21   -1    0    0  501  502  0.00000000000E+00 -0.00000000000E+00 -0.24495876889E+02  0.24495876889E+02  0.00000000000E+00 0.  1.
         24    2    1    2    0    0  0.32665385009E+00 -0.53930353664E+02  0.24285465528E+03  0.26386832117E+03  0.87974528005E+02 0.  0.
         23    2    1    2    0    0  0.40061018304E+02 -0.13911330843E+02  0.17466917765E+03  0.19678458617E+03  0.80102692976E+02 0.  0.
        -13    1    3    3    0    0 -0.39991139655E+02 -0.43277530679E+02  0.11238243173E+03  0.12689384096E+03  0.00000000000E+00 0.  1.
         14    1    3    3    0    0  0.40317793505E+02 -0.10652822985E+02  0.13047222355E+03  0.13697448021E+03  0.00000000000E+00 0. -1.
        -13    1    4    4    0    0 -0.30703621626E+01  0.28331431501E+02  0.39122878844E+02  0.48401413035E+02  0.00000000000E+00 0. -1.
         13    1    4    4    0    0  0.43131380467E+02 -0.42242762344E+02  0.13554629880E+03  0.14838317314E+03  0.00000000000E+00 0.  1.
          1    1    1    2  501    0 -0.40387672154E+02  0.67841684507E+02  0.52870768020E+03  0.53457035956E+03  0.00000000000E+00 0. -1.
<scales pt_clust_5="13000.00000" pt_clust_6="13000.00000" pt_clust_7="13000.00000" pt_clust_8="13000.00000" pt_clust_9="78.95356"></scales>
<clustering>
<clus scale="   78.954">  2  9  1 -1</clus>
<clus scale="   80.103">  7  8 -1 -1</clus>
<clus scale="   85.010">  2  7  1 -1</clus>
<clus scale="   87.975">  5  6 -1 -1</clus>
<clus scale="   78.954">  2  5  1 -1</clus>
</clustering>
</event>
<event>
 9    2  0.1302972E-004  0.1759720E+03  0.7546771E-02  0.1189749E+00
         21   -1    0    0  501  502  0.00000000000E+00  0.00000000000E+00  0.42426539290E+03  0.42426539290E+03  0.00000000000E+00 0. -1.
          2   -1    0    0  502    0 -0.00000000000E+00 -0.00000000000E+00 -0.16192166303E+03  0.16192166303E+03  0.00000000000E+00 0. -1.
         24    2    1    2    0    0  0.31348821610E+02  0.78721158161E+02  0.11940927013E+03  0.16752614128E+03  0.81404329484E+02 0.  0.
         23    2    1    2    0    0  0.13132112639E+03  0.34060508105E+02  0.14772792032E+03  0.22066042604E+03  0.91989829495E+02 0.  0.
        -13    1    3    3    0    0  0.45944801911E+02  0.76788072065E+02  0.63536938989E+02  0.10974641429E+03  0.00000000000E+00 0.  1.
         14    1    3    3    0    0 -0.14595980301E+02  0.19330860953E+01  0.55872331143E+02  0.57779726983E+02  0.00000000000E+00 0. -1.
        -11    1    4    4    0    0  0.12253310541E+03  0.13673946454E+02  0.74301947569E+02  0.14395179104E+03  0.00000000000E+00 0. -1.
         11    1    4    4    0    0  0.87880209814E+01  0.20386561652E+02  0.73425972750E+02  0.76708634997E+02  0.00000000000E+00 0.  1.
          1    1    1    2  501    0 -0.16266994800E+03 -0.11278166627E+03 -0.47934605840E+01  0.19800048862E+03  0.00000000000E+00 0. -1.
<scales pt_clust_5="13000.00000" pt_clust_6="13000.00000" pt_clust_7="13000.00000" pt_clust_8="13000.00000" pt_clust_9="150.01341"></scales>
<clustering>
<clus scale="   81.404">  5  6 -1 -1</clus>
<clus scale="   91.990">  7  8 -1 -1</clus>
<clus scale="  117.501">  2  5  1 -1</clus>
<clus scale="  150.013">  1  9  2 -1</clus>
<clus scale="  150.013">  1  5  2 -1</clus>
</clustering>
</event>
<event>
 9    2  0.1302972E-004  0.1406023E+03  0.7546771E-02  0.1214892E+00
         21   -1    0    0  501  502  0.00000000000E+00  0.00000000000E+00  0.47786020109E+02  0.47786020109E+02  0.00000000000E+00 0. -1.
          2   -1    0    0  502    0 -0.00000000000E+00 -0.00000000000E+00 -0.76286693836E+03  0.76286693836E+03  0.00000000000E+00 0. -1.
         23    2    1    2    0    0 -0.11898269140E+03  0.29467083302E+02 -0.49134245129E+03  0.51447326812E+03  0.90775268217E+02 0.  0.
         24    2    1    2    0    0  0.71959918261E+02  0.13051697309E+02 -0.67283874430E+02  0.12736906443E+03  0.79669204698E+02 0.  0.
        -13    1    4    4    0    0  0.32502882743E+01  0.27148296433E+02 -0.46965334587E+02  0.54344613588E+02  0.00000000000E+00 0.  1.
         14    1    4    4    0    0  0.68709629987E+02 -0.14096599124E+02 -0.20318539843E+02  0.73024450844E+02  0.00000000000E+00 0. -1.
        -11    1    3    3    0    0 -0.62653811663E+02  0.61280566573E+02 -0.29552838991E+03  0.30824963454E+03  0.00000000000E+00 0. -1.
         11    1    3    3    0    0 -0.56328879737E+02 -0.31813483271E+02 -0.19581406138E+03  0.20622363358E+03  0.00000000000E+00 0.  1.
          1    1    1    2  501    0  0.47022773139E+02 -0.42518780611E+02 -0.15645459254E+03  0.16881062592E+03  0.00000000000E+00 0. -1.
<scales pt_clust_5="13000.00000" pt_clust_6="13000.00000" pt_clust_7="13000.00000" pt_clust_8="13000.00000" pt_clust_9="63.39552"></scales>
<clustering>
<clus scale="   63.396">  1  9  2 -1</clus>
<clus scale="   79.669">  5  6 -1 -1</clus>
<clus scale="   90.775">  7  8 -1 -1</clus>
<clus scale="  133.701">  1  5  2 -1</clus>
<clus scale="   63.396">  1  5  2 -1</clus>
</clustering>
</event>
<event>
 9    2  0.1302972E-004  0.9319625E+02  0.7546771E-02  0.1301980E+00
          2   -1    0    0  502    0 -0.00000000000E+00  0.00000000000E+00  0.71904267889E+03  0.71904267889E+03  0.00000000000E+00 0. -1.
         21   -1    0    0  501  502  0.00000000000E+00 -0.00000000000E+00 -0.30197825434E+02  0.30197825434E+02  0.00000000000E+00 0.  1.
         24    2    1    2    0    0 -0.18787162561E+02 -0.11039268683E+01  0.55230071213E+03  0.55833749092E+03  0.79690030808E+02 0.  0.
         23    2    1    2    0    0  0.28120570220E+02  0.30195000311E+02  0.12033219062E+03  0.15631644957E+03  0.90843226455E+02 0.  0.
        -13    1    3    3    0    0 -0.13789070328E+02  0.36414972728E+02  0.18267525332E+03  0.18677911253E+03  0.00000000000E+00 0.  1.
         14    1    3    3    0    0 -0.49980922336E+01 -0.37518899596E+02  0.36962545881E+03  0.37155837839E+03  0.00000000000E+00 0. -1.
        -11    1    4    4    0    0  0.38293370568E+02 -0.16120164059E+02  0.92327260738E+02  0.10124507392E+03  0.00000000000E+00 0.  1.
         11    1    4    4    0    0 -0.10172800348E+02  0.46315164370E+02  0.28004929884E+02  0.55071375644E+02  0.00000000000E+00 0. -1.
          1    1    1    2  501    0 -0.93334076588E+01 -0.29091073443E+02  0.16211950702E+02  0.34586563838E+02  0.00000000000E+00 0. -1.
<scales pt_clust_5="13000.00000" pt_clust_6="13000.00000" pt_clust_7="13000.00000" pt_clust_8="13000.00000" pt_clust_9="30.55165"></scales>
<clustering>
<clus scale="   30.552">  2  9  1 -1</clus>
<clus scale="   79.690">  5  6 -1 -1</clus>
<clus scale="   82.362">  1  5  2 -1</clus>
<clus scale="   90.843">  7  8 -1 -1</clus>
<clus scale="   30.552">  2  5  1 -1</clus>
</clustering>
</event>
<event>
 9    2  0.1302972E-004  0.1021035E+03  0.7546771E-02  0.1283190E+00
         21   -1    0    0  501  502  0.00000000000E+00  0.00000000000E+00  0.10074495352E+03  0.10074495352E+03  0.00000000000E+00 0. -1.
          2   -1    0    0  502    0 -0.00000000000E+00 -0.00000000000E+00 -0.25289347871E+03  0.25289347871E+03  0.00000000000E+00 0. -1.
         23    2    1    2    0    0  0.39456139565E+02  0.77243477472E+01 -0.15372325281E+03  0.18346727867E+03  0.91722142313E+02 0.  0.
         24    2    1    2    0    0 -0.70540641304E+02  0.32000946783E+02  0.28862939439E+02  0.11282142140E+03  0.76782557808E+02 0.  0.
        -11    1    4    4    0    0 -0.63274695259E+02  0.34795337377E+00 -0.79014697372E+01  0.63767086775E+02  0.00000000000E+00 0.  1.
         12    1    4    4    0    0 -0.72659460447E+01  0.31652993409E+02  0.36764409176E+02  0.49054334627E+02  0.00000000000E+00 0. -1.
        -11    1    3    3    0    0  0.37013083144E+02  0.39603309045E+02 -0.45983372972E+02  0.71083479100E+02  0.00000000000E+00 0. -1.
         11    1    3    3    0    0  0.24430564207E+01 -0.31878961297E+02 -0.10773987984E+03  0.11238379957E+03  0.00000000000E+00 0.  1.
          1    1    1    2  501    0  0.31084501739E+02 -0.39725294530E+02 -0.27288211820E+02  0.57349732155E+02  0.00000000000E+00 0. -1.
<scales pt_clust_5="13000.00000" pt_clust_6="13000.00000" pt_clust_7="13000.00000" pt_clust_8="13000.00000" pt_clust_9="50.44153"></scales>
<clustering>
<clus scale="   50.442">  1  9  2 -1</clus>
<clus scale="   76.783">  5  6 -1 -1</clus>
<clus scale="   88.925">  1  5  2 -1</clus>
<clus scale="   91.722">  7  8 -1 -1</clus>
<clus scale="   50.442">  1  5  2 -1</clus>
</clustering>
</event>
<event>
 9    2  0.1302972E-004  0.1778120E+03  0.7546771E-02  0.1171478E+00
          2   -1    0    0  502    0 -0.00000000000E+00  0.00000000000E+00  0.55134552556E+02  0.55134552556E+02  0.00000000000E+00 0. -1.
         21   -1    0    0  501  502  0.00000000000E+00 -0.00000000000E+00 -0.79855387105E+03  0.79855387105E+03  0.00000000000E+00 0. -1.
         23    2    1    2    0    0  0.38088060315E+02  0.12660397483E+03 -0.26327589620E+03  0.30820811458E+03  0.90547101499E+02 0.  0.
         24    2    1    2    0    0 -0.64963028936E+02 -0.16311509887E+03 -0.27516122738E+03  0.33554454183E+03  0.77779868185E+02 0.  0.
        -11    1    4    4    0    0  0.13231388923E+02 -0.55927187316E+02 -0.62663297674E+02  0.85027106321E+02  0.00000000000E+00 0.  1.
         12    1    4    4    0    0 -0.78194417859E+02 -0.10718791155E+03 -0.21249792970E+03  0.25051743551E+03  0.00000000000E+00 0. -1.
        -13    1    3    3    0    0  0.28058646388E+02  0.97311643818E+02 -0.10109421840E+03  0.14309746557E+03  0.00000000000E+00 0.  1.
         13    1    3    3    0    0  0.10029413927E+02  0.29292331009E+02 -0.16218167781E+03  0.16511064901E+03  0.00000000000E+00 0. -1.
          1    1    1    2  501    0  0.26874968621E+02  0.36511124038E+02 -0.20498219491E+03  0.20993576719E+03  0.00000000000E+00 0. -1.
<scales pt_clust_5="13000.00000" pt_clust_6="13000.00000" pt_clust_7="13000.00000" pt_clust_8="13000.00000" pt_clust_9="45.33570"></scales>
<clustering>
<clus scale="   45.336">  2  9  1 -1</clus>
<clus scale="   77.780">  5  6 -1 -1</clus>
<clus scale="   90.547">  7  8 -1 -1</clus>
<clus scale="  171.663">  2  5  1 -1</clus>
<clus scale="   45.336">  2  5  1 -1</clus>
</clustering>
</event>
<event>
 9    2  0.1302972E-004  0.1041006E+03  0.7546771E-02  0.1276679E+00
          2   -1    0    0  502    0 -0.00000000000E+00  0.00000000000E+00  0.42565848814E+03  0.42565848814E+03  0.00000000000E+00 0. -1.
         21   -1    0    0  501  502  0.00000000000E+00 -0.00000000000E+00 -0.33686678653E+02  0.33686678653E+02  0.00000000000E+00 0. -1.
         23    2    1    2    0    0 -0.23321812662E+02  0.24951167455E+02  0.16651675044E+03  0.19292921300E+03  0.91254508663E+02 0.  0.
         24    2    1    2    0    0  0.33777808866E+02 -0.58030809091E+02  0.18829272795E+03  0.21557670320E+03  0.80688588969E+02 0.  0.
        -11    1    4    4    0    0  0.37628435211E+01 -0.63539711600E+02  0.16600046459E+03  0.17778528675E+03  0.00000000000E+00 0.  1.
         12    1    4    4    0    0  0.30014965345E+02  0.55089025093E+01  0.22292263353E+02  0.37791416445E+02  0.00000000000E+00 0. -1.
        -11    1    3    3    0    0  0.28969805495E+02 -0.83187263305E+01  0.87245041971E+02  0.92304648781E+02  0.00000000000E+00 0.  1.
         11    1    3    3    0    0 -0.52291618157E+02  0.33269893785E+02  0.79271708466E+02  0.10062456422E+03  0.00000000000E+00 0. -1.
          1    1    1    2  501    0 -0.10455996204E+02  0.33079641636E+02  0.37162331105E+02  0.50839250590E+02  0.00000000000E+00 0. -1.
<scales pt_clust_5="13000.00000" pt_clust_6="13000.00000" pt_clust_7="13000.00000" pt_clust_8="13000.00000" pt_clust_9="34.69280"></scales>
<clustering>
<clus scale="   34.693">  2  9  1 -1</clus>
<clus scale="   80.689">  5  6 -1 -1</clus>
<clus scale="   91.255">  7  8 -1 -1</clus>
<clus scale="   94.975">  2  5  1 -1</clus>
<clus scale="   34.693">  2  5  1 -1</clus>
</clustering>
</event>
<event>
 9    2  0.1302972E-004  0.9481466E+02  0.7546771E-02  0.1298026E+00
         21   -1    0    0  501  502  0.00000000000E+00  0.00000000000E+00  0.24552680353E+03  0.24552680353E+03  0.00000000000E+00 0.  1.
          2   -1    0    0  502    0 -0.00000000000E+00 -0.00000000000E+00 -0.73086478969E+02  0.73086478969E+02  0.00000000000E+00 0. -1.
         24    2    1    2    0    0 -0.33759469057E+02  0.78642549669E+01  0.30354477148E+02  0.92110295587E+02  0.79758159538E+02 0.  0.
         23    2    1    2    0    0  0.75017571689E+01  0.29147484856E+02  0.15235562608E+03  0.17997552543E+03  0.90956587016E+02 0.  0.
        -11    1    3    3    0    0 -0.35332829657E+02  0.35720527834E+02  0.38213401426E+02  0.63123917882E+02  0.00000000000E+00 0.  1.
         12    1    3    3    0    0  0.15733605997E+01 -0.27856272867E+02 -0.78589242784E+01  0.28986377704E+02  0.00000000000E+00 0. -1.
        -11    1    4    4    0    0  0.12142741866E+02  0.61211202457E+02  0.11213197013E+03  0.12832706734E+03  0.00000000000E+00 0.  1.
         11    1    4    4    0    0 -0.46409846968E+01 -0.32063717601E+02  0.40223655951E+02  0.51648458093E+02  0.00000000000E+00 0. -1.
          1    1    1    2  501    0  0.26257711888E+02 -0.37011739822E+02 -0.10269778667E+02  0.46527461484E+02  0.00000000000E+00 0. -1.
<scales pt_clust_5="13000.00000" pt_clust_6="13000.00000" pt_clust_7="13000.00000" pt_clust_8="13000.00000" pt_clust_9="45.37993"></scales>
<clustering>
<clus scale="   45.380">  1  9  2 -1</clus>
<clus scale="   79.758">  5  6 -1 -1</clus>
<clus scale="   84.131">  2  5  1 -1</clus>
<clus scale="   90.957">  7  8 -1 -1</clus>
<clus scale="   45.380">  1  5  2 -1</clus>
</clustering>
</event>
<event>
 9    2  0.1302972E-004  0.1314596E+03  0.7546771E-02  0.1246769E+00
          4   -1    0    0  502    0 -0.00000000000E+00  0.00000000000E+00  0.18834887465E+03  0.18834887465E+03  0.00000000000E+00 0. -1.
         21   -1    0    0  501  502  0.00000000000E+00 -0.00000000000E+00 -0.24861458975E+03  0.24861458975E+03  0.00000000000E+00 0. -1.
         24    2    1    2    0    0 -0.15851135109E+02 -0.84406385858E+01 -0.16507143461E+03  0.18556351862E+03  0.82841644452E+02 0.  0.
         23    2    1    2    0    0 -0.72920678728E+02  0.55374084894E+02  0.58694472318E+02  0.14090365430E+03  0.89582833454E+02 0.  0.
        -11    1    3    3    0    0 -0.45720010358E+01  0.31906654657E+02 -0.11901911558E+03  0.12330647866E+03  0.00000000000E+00 0.  1.
         12    1    3    3    0    0 -0.11279134073E+02 -0.40347293243E+02 -0.46052319026E+02  0.62257039964E+02  0.00000000000E+00 0. -1.
        -13    1    4    4    0    0 -0.23094735690E+02  0.23120135349E+01  0.63844839948E+02  0.67932877247E+02  0.00000000000E+00 0.  1.
         13    1    4    4    0    0 -0.49825943038E+02  0.53062071359E+02 -0.51503676295E+01  0.72970777050E+02  0.00000000000E+00 0. -1.
          3    1    1    2  501    0  0.88771813836E+02 -0.46933446308E+02  0.46111247186E+02  0.11049629148E+03  0.00000000000E+00 0. -1.
<scales pt_clust_5="13000.00000" pt_clust_6="13000.00000" pt_clust_7="13000.00000" pt_clust_8="13000.00000" pt_clust_9="96.21103"></scales>
<clustering>
<clus scale="   82.842">  5  6 -1 -1</clus>
<clus scale="   84.766">  1  5  2 -1</clus>
<clus scale="   89.583">  7  8 -1 -1</clus>
<clus scale="   96.211">  2  9  1 -1</clus>
<clus scale="   96.211">  2  5  1 -1</clus>
</clustering>
</event>
<event>
 9    2  0.1302972E-004  0.1347927E+03  0.7546771E-02  0.1223717E+00
         -1   -1    0    0    0  501 -0.00000000000E+00  0.00000000000E+00  0.89624034108E+02  0.89624034108E+02  0.00000000000E+00 0.  1.
         21   -1    0    0  501  502  0.00000000000E+00 -0.00000000000E+00 -0.40978773508E+03  0.40978773508E+03  0.00000000000E+00 0. -1.
         23    2    1    2    0    0  0.80678639423E+02 -0.53065772216E+02  0.87522030252E+01  0.13396739542E+03  0.92442646748E+02 0.  0.
         24    2    1    2    0    0 -0.74559268565E+02  0.77611963220E+02 -0.28509696787E+03  0.31484732488E+03  0.79157157187E+02 0.  0.
        -11    1    4    4    0    0 -0.57620988266E+02  0.10655485648E+02 -0.85619005294E+02  0.10375129749E+03  0.00000000000E+00 0.  1.
         12    1    4    4    0    0 -0.16938280299E+02  0.66956477572E+02 -0.19947796257E+03  0.21109602739E+03  0.00000000000E+00 0. -1.
        -13    1    3    3    0    0  0.39233288311E+02 -0.60547946699E+02  0.39095618236E+02  0.82059564503E+02  0.00000000000E+00 0.  1.
         13    1    3    3    0    0  0.41445351112E+02  0.74821744836E+01 -0.30343415211E+02  0.51907830917E+02  0.00000000000E+00 0. -1.
         -2    1    1    2    0  502 -0.61193708585E+01 -0.24546191004E+02 -0.43818936130E+02  0.50597048887E+02  0.00000000000E+00 0.  1.
<scales pt_clust_5="13000.00000" pt_clust_6="13000.00000" pt_clust_7="13000.00000" pt_clust_8="13000.00000" pt_clust_9="25.29747"></scales>
<clustering>
<clus scale="   25.297">  2  9  1 -1</clus>
<clus scale="   79.157">  5  6 -1 -1</clus>
<clus scale="   92.443">  7  8 -1 -1</clus>
<clus scale="  126.053">  2  5  1 -1</clus>
<clus scale="   25.297">  2  5  1 -1</clus>
</clustering>
</event>
<event>
 9    2  0.1302972E-004  0.9282608E+02  0.7546771E-02  0.1304596E+00
          2   -1    0    0  502    0 -0.00000000000E+00  0.00000000000E+00  0.10455856387E+03  0.10455856387E+03  0.00000000000E+00 0. -1.
         21   -1    0    0  501  502  0.00000000000E+00 -0.00000000000E+00 -0.35903851217E+03  0.35903851217E+03  0.00000000000E+00 0. -1.
         24    2    1    2    0    0  0.61875809530E+01 -0.19639012954E+02  0.75140605690E+02  0.10933477771E+03  0.76707274790E+02 0.  0.
         23    2    1    2    0    0 -0.32395073327E+02  0.11323874950E+02 -0.20572756814E+03  0.22735506402E+03  0.90492109727E+02 0.  0.
        -13    1    3    3    0    0  0.22768964696E+02  0.23689095190E+02  0.27627729437E+02  0.42928899567E+02  0.00000000000E+00 0.  1.
         14    1    3    3    0    0 -0.16581383743E+02 -0.43328108143E+02  0.47512876253E+02  0.66405878143E+02  0.00000000000E+00 0. -1.
        -11    1    4    4    0    0 -0.60930139791E+02 -0.47541579597E+01 -0.10563935807E+03  0.12204408189E+03  0.00000000000E+00 0. -1.
         11    1    4    4    0    0  0.28535066464E+02  0.16078032909E+02 -0.10008821008E+03  0.10531098213E+03  0.00000000000E+00 0.  1.
          1    1    1    2  501    0  0.26207492374E+02  0.83151380043E+01 -0.12389298585E+03  0.12690723431E+03  0.00000000000E+00 0. -1.
<scales pt_clust_5="13000.00000" pt_clust_6="13000.00000" pt_clust_7="13000.00000" pt_clust_8="13000.00000" pt_clust_9="27.49498"></scales>
<clustering>
<clus scale="   27.495">  2  9  1 -1</clus>
<clus scale="   76.707">  5  6 -1 -1</clus>
<clus scale="   79.447">  1  5  2 -1</clus>
<clus scale="   90.492">  7  8 -1 -1</clus>
<clus scale="   27.495">  2  5  1 -1</clus>
</clustering>
</event>
<event>
 9    2  0.1302972E-004  0.2543109E+03  0.7546771E-02  0.1142156E+00
          2   -1    0    0  502    0 -0.00000000000E+00  0.00000000000E+00  0.10763371857E+04  0.10763371857E+04  0.00000000000E+00 0. -1.
         21   -1    0    0  501  502  0.00000000000E+00 -0.00000000000E+00 -0.25428225507E+03  0.25428225507E+03  0.00000000000E+00 0. -1.
         23    2    1    2    0    0  0.65391017376E+02 -0.36161542028E+00  0.56497560833E+02  0.12954797646E+03  0.96512112739E+02 0.  0.
         24    2    1    2    0    0  0.12974700081E+03 -0.14968452483E+03  0.89710947448E+03  0.92196817413E+03  0.77331518203E+02 0.  0.
        -11    1    4    4    0    0  0.87499398920E+01 -0.47413291768E+02  0.12959754262E+03  0.13827546687E+03  0.00000000000E+00 0.  1.
         12    1    4    4    0    0  0.12099706092E+03 -0.10227123307E+03  0.76751193186E+03  0.78369270726E+03  0.00000000000E+00 0. -1.
        -11    1    3    3    0    0  0.75683562269E+02 -0.28736768720E+02  0.22374386057E+02  0.83990574624E+02  0.00000000000E+00 0. -1.
         11    1    3    3    0    0 -0.10292544893E+02  0.28375153300E+02  0.34123174777E+02  0.45557401836E+02  0.00000000000E+00 0.  1.
          1    1    1    2  501    0 -0.19513801819E+03  0.15004614025E+03 -0.13155210467E+03  0.27910329018E+03  0.00000000000E+00 0. -1.
<scales pt_clust_5="13000.00000" pt_clust_6="13000.00000" pt_clust_7="13000.00000" pt_clust_8="13000.00000" pt_clust_9="242.26819"></scales>
<clustering>
<clus scale="   77.332">  5  6 -1 -1</clus>
<clus scale="   96.512">  7  8 -1 -1</clus>
<clus scale="  116.579">  1  7  2 -1</clus>
<clus scale="  242.268">  2  9  1 -1</clus>
<clus scale="  242.268">  2  5  1 -1</clus>
</clustering>
</event>
<event>
 9    2  0.1302972E-004  0.2149586E+03  0.7546771E-02  0.1138757E+00
          2   -1    0    0  502    0 -0.00000000000E+00  0.00000000000E+00  0.16658799876E+04  0.16658799876E+04  0.00000000000E+00 0. -1.
         21   -1    0    0  501  502  0.00000000000E+00 -0.00000000000E+00 -0.37821839300E+02  0.37821839300E+02  0.00000000000E+00 0. -1.
         23    2    1    2    0    0 -0.13654844221E+03 -0.16157078027E+03  0.81837980350E+03  0.85032543056E+03  0.92505356473E+02 0.  0.
         24    2    1    2    0    0  0.15376963543E+03  0.93831971029E+02  0.53754588262E+03  0.57241164278E+03  0.79056772607E+02 0.  0.
        -11    1    4    4    0    0  0.29753917296E+02  0.56510873603E+02  0.13105508359E+03  0.14578823466E+03  0.00000000000E+00 0.  1.
         12    1    4    4    0    0  0.12401571814E+03  0.37321097426E+02  0.40649079903E+03  0.42662340812E+03  0.00000000000E+00 0. -1.
        -13    1    3    3    0    0 -0.13925853102E+03 -0.14035605349E+03  0.79229881556E+03  0.81659670178E+03  0.00000000000E+00 0.  1.
         13    1    3    3    0    0  0.27100888117E+01 -0.21214726774E+02  0.26080987938E+02  0.33728728782E+02  0.00000000000E+00 0. -1.
          1    1    1    2  501    0 -0.17221193220E+02  0.67738809238E+02  0.27213246220E+03  0.28096475358E+03  0.00000000000E+00 0. -1.
<scales pt_clust_5="13000.00000" pt_clust_6="13000.00000" pt_clust_7="13000.00000" pt_clust_8="13000.00000" pt_clust_9="69.89364"></scales>
<clustering>
<clus scale="   69.894">  2  9  1 -1</clus>
<clus scale="   79.057">  5  6 -1 -1</clus>
<clus scale="   92.505">  7  8 -1 -1</clus>
<clus scale="  209.523">  2  5  1 -1</clus>
<clus scale="   69.894">  2  5  1 -1</clus>
</clustering>
</event>
<event>
 9    2  0.1302972E-004  0.1004661E+03  0.7546771E-02  0.1284847E+00
          2   -1    0    0  502    0 -0.00000000000E+00  0.00000000000E+00  0.37148267273E+03  0.37148267273E+03  0.00000000000E+00 0. -1.
         21   -1    0    0  501  502  0.00000000000E+00 -0.00000000000E+00 -0.45796103902E+02  0.45796103902E+02  0.00000000000E+00 0.  1.
         23    2    1    2    0    0  0.32044211250E+02 -0.32017658862E+02  0.26140679243E+03  0.28033819925E+03  0.90576116485E+02 0.  0.
         24    2    1    2    0    0 -0.44724013314E+02  0.57668426609E+01  0.43212522879E+02  0.10097237055E+03  0.79338538178E+02 0.  0.
        -13    1    4    4    0    0 -0.40352709188E+02 -0.31900574342E+02  0.14607636702E+02  0.53473085120E+02  0.00000000000E+00 0.  1.
         14    1    4    4    0    0 -0.43713041264E+01  0.37667417003E+02  0.28604886177E+02  0.47499285433E+02  0.00000000000E+00 0. -1.
        -13    1    3    3    0    0  0.56485287741E+02  0.22888820204E+01  0.11747785719E+03  0.13037205851E+03  0.00000000000E+00 0. -1.
         13    1    3    3    0    0 -0.24441076491E+02 -0.34306540882E+02  0.14392893524E+03  0.14996614074E+03  0.00000000000E+00 0.  1.
          1    1    1    2  501    0  0.12679802065E+02  0.26250816201E+02  0.21067253522E+02  0.35968206831E+02  0.00000000000E+00 0. -1.
<scales pt_clust_5="13000.00000" pt_clust_6="13000.00000" pt_clust_7="13000.00000" pt_clust_8="13000.00000" pt_clust_9="29.15275"></scales>
<clustering>
<clus scale="   29.153">  2  9  1 -1</clus>
<clus scale="   79.339">  5  6 -1 -1</clus>
<clus scale="   90.465">  2  5  1 -1</clus>
<clus scale="   90.576">  7  8 -1 -1</clus>
<clus scale="   29.153">  2  5  1 -1</clus>
</clustering>
</event>
<event>
 9    2  0.1302972E-004  0.3352159E+03  0.7546771E-02  0.1069652E+00
         21   -1    0    0  501  502  0.00000000000E+00  0.00000000000E+00  0.11497903670E+03  0.11497903670E+03  0.00000000000E+00 0. -1.
          2   -1    0    0  502    0 -0.00000000000E+00 -0.00000000000E+00 -0.24675716567E+04  0.24675716567E+04  0.00000000000E+00 0. -1.
         24    2    1    2    0    0 -0.13606890278E+03  0.30401045846E+03 -0.14709648119E+04  0.15101018126E+04  0.75715926849E+02 0.  0.
         23    2    1    2    0    0 -0.29111503145E+02 -0.28875782850E+03 -0.19133226654E+03  0.36250159824E+03  0.10281444146E+03 0.  0.
        -11    1    3    3    0    0 -0.83236712279E+02  0.10021243325E+03 -0.61206616467E+03  0.62577621557E+03  0.00000000000E+00 0.  1.
         12    1    3    3    0    0 -0.52832190500E+02  0.20379802521E+03 -0.85889864720E+03  0.88432559705E+03  0.00000000000E+00 0. -1.
        -13    1    4    4    0    0  0.40278987326E+01 -0.18526306593E+03 -0.66219652502E+02  0.19678330708E+03  0.00000000000E+00 0.  1.
         13    1    4    4    0    0 -0.33139401877E+02 -0.10349476257E+03 -0.12511261403E+03  0.16571829116E+03  0.00000000000E+00 0. -1.
          1    1    1    2  501    0  0.16518040592E+03 -0.15252629959E+02 -0.69029554156E+03  0.70994728249E+03  0.00000000000E+00 0. -1.
<scales pt_clust_5="13000.00000" pt_clust_6="13000.00000" pt_clust_7="13000.00000" pt_clust_8="13000.00000" pt_clust_9="165.88320"></scales>
<clustering>
<clus scale="   75.716">  5  6 -1 -1</clus>
<clus scale="  102.814">  7  8 -1 -1</clus>
<clus scale="  165.883">  1  9  2 -1</clus>
<clus scale="  327.920">  2  5  1 -1</clus>
<clus scale="  165.883">  1  5  2 -1</clus>
</clustering>
</event>
<event>
 9    2  0.1302972E-004  0.9252222E+02  0.7546771E-02  0.1304296E+00
         21   -1    0    0  501  502  0.00000000000E+00  0.00000000000E+00  0.62220595827E+02  0.62220595827E+02  0.00000000000E+00 0.  1.
         -1   -1    0    0    0  501 -0.00000000000E+00 -0.00000000000E+00 -0.34580256631E+03  0.34580256631E+03  0.00000000000E+00 0.  1.
         24    2    1    2    0    0  0.48341434878E+01 -0.36138602641E+00 -0.20224381902E+03  0.21723528114E+03  0.79152419413E+02 0.  0.
         23    2    1    2    0    0 -0.40257060919E+02  0.28113012183E+02 -0.98204934087E+02  0.14273141223E+03  0.91197996417E+02 0.  0.
        -13    1    3    3    0    0  0.28417199306E+02  0.26967699767E+02 -0.70702835122E+02  0.80831212668E+02  0.00000000000E+00 0.  1.
         14    1    3    3    0    0 -0.23583055819E+02 -0.27329085793E+02 -0.13154098389E+03  0.13640406847E+03  0.00000000000E+00 0. -1.
        -13    1    4    4    0    0 -0.28039520059E+02  0.51748282033E+02 -0.23403351809E+02  0.63338900010E+02  0.00000000000E+00 0.  1.
         13    1    4    4    0    0 -0.12217540860E+02 -0.23635269850E+02 -0.74801582278E+02  0.79392512221E+02  0.00000000000E+00 0. -1.
         -2    1    1    2    0  502  0.35422917431E+02 -0.27751626157E+02  0.16866782625E+02  0.48056468761E+02  0.00000000000E+00 0.  1.
<scales pt_clust_5="13000.00000" pt_clust_6="13000.00000" pt_clust_7="13000.00000" pt_clust_8="13000.00000" pt_clust_9="44.99929"></scales>
<clustering>
<clus scale="   44.999">  1  9  2 -1</clus>
<clus scale="   79.152">  5  6 -1 -1</clus>
<clus scale="   80.675">  2  5  1 -1</clus>
<clus scale="   91.198">  7  8 -1 -1</clus>
<clus scale="   44.999">  1  5  2 -1</clus>
</clustering>
</event>
<event>
 9    2  0.1302972E-004  0.1034900E+03  0.7546771E-02  0.1278708E+00
         -1   -1    0    0    0  501 -0.00000000000E+00  0.00000000000E+00  0.64796479611E+02  0.64796479611E+02  0.00000000000E+00 0.  1.
         21   -1    0    0  501  502  0.00000000000E+00 -0.00000000000E+00 -0.27461447317E+03  0.27461447317E+03  0.00000000000E+00 0. -1.
         24    2    1    2    0    0 -0.35777228582E+02 -0.41945665849E+02 -0.10633517612E+02  0.99054962897E+02  0.81604932505E+02 0.  0.
         23    2    1    2    0    0  0.96133645994E+01  0.11875765361E+02 -0.13779747798E+03  0.16716370742E+03  0.93392234994E+02 0.  0.
        -11    1    3    3    0    0 -0.38901524880E+02 -0.63281463624E+02  0.15288861311E+01  0.74298114170E+02  0.00000000000E+00 0.  1.
         12    1    3    3    0    0  0.31242962983E+01  0.21335797775E+02 -0.12162403744E+02  0.24756848727E+02  0.00000000000E+00 0. -1.
        -11    1    4    4    0    0 -0.14736560551E+02 -0.36820218594E+02 -0.49474177774E+02  0.63408114469E+02  0.00000000000E+00 0.  1.
         11    1    4    4    0    0  0.24349925150E+02  0.48695983955E+02 -0.88323300210E+02  0.10375559295E+03  0.00000000000E+00 0. -1.
         -2    1    1    2    0  502  0.26163863982E+02  0.30069900488E+02 -0.61386997961E+02  0.73192282465E+02  0.00000000000E+00 0.  1.
<scales pt_clust_5="13000.00000" pt_clust_6="13000.00000" pt_clust_7="13000.00000" pt_clust_8="13000.00000" pt_clust_9="39.85909"></scales>
<clustering>
<clus scale="   39.859">  2  9  1 -1</clus>
<clus scale="   81.605">  5  6 -1 -1</clus>
<clus scale="   92.992">  1  5  2 -1</clus>
<clus scale="   93.392">  7  8 -1 -1</clus>
<clus scale="   39.859">  2  5  1 -1</clus>
</clustering>
</event>
<event>
 9    2  0.1302972E-004  0.2595932E+03  0.7546771E-02  0.1107874E+00
          2   -1    0    0  502    0 -0.00000000000E+00  0.00000000000E+00  0.15405534939E+03  0.15405534939E+03  0.00000000000E+00 0. -1.
         21   -1    0    0  501  502  0.00000000000E+00 -0.00000000000E+00 -0.87368159084E+03  0.87368159084E+03  0.00000000000E+00 0. -1.
         24    2    1    2    0    0 -0.17619081983E+03 -0.12960335883E+03 -0.98467322504E+02  0.25329078200E+03  0.81364433465E+02 0.  0.
         23    2    1    2    0    0  0.30278689366E+03  0.10517229581E+03 -0.43314377173E+03  0.54646997892E+03  0.90965906226E+02 0.  0.
        -13    1    3    3    0    0 -0.24525750210E+02  0.78059428778E+01  0.97258287589E+00  0.25756379501E+02  0.00000000000E+00 0.  1.
         14    1    3    3    0    0 -0.15166506962E+03 -0.13740930171E+03 -0.99439905380E+02  0.22753440250E+03  0.00000000000E+00 0. -1.
        -11    1    4    4    0    0  0.41429527589E+02 -0.45388647661E+01 -0.22114245570E+02  0.47181001544E+02  0.00000000000E+00 0.  1.
         11    1    4    4    0    0  0.26135736607E+03  0.10971116058E+03 -0.41102952616E+03  0.49928897738E+03  0.00000000000E+00 0. -1.
          1    1    1    2  501    0 -0.12659607383E+03  0.24431063023E+02 -0.18801514721E+03  0.22797617931E+03  0.00000000000E+00 0. -1.
<scales pt_clust_5="13000.00000" pt_clust_6="13000.00000" pt_clust_7="13000.00000" pt_clust_8="13000.00000" pt_clust_9="128.93193"></scales>
<clustering>
<clus scale="   81.364">  5  6 -1 -1</clus>
<clus scale="   90.966">  7  8 -1 -1</clus>
<clus scale="  128.932">  2  9  1 -1</clus>
<clus scale="  256.386">  1  5  2 -1</clus>
<clus scale="  128.932">  2  5  1 -1</clus>
</clustering>
</event>
<event>
 9    2  0.1302972E-004  0.9696297E+02  0.7546771E-02  0.1295706E+00
          2   -1    0    0  502    0 -0.00000000000E+00  0.00000000000E+00  0.86390067659E+03  0.86390067659E+03  0.00000000000E+00 0. -1.
         21   -1    0    0  501  502  0.00000000000E+00 -0.00000000000E+00 -0.45683845220E+02  0.45683845220E+02  0.00000000000E+00 0.  1.
         24    2    1    2    0    0 -0.32315755451E+01 -0.21289744205E+02  0.20113019815E+03  0.21699134303E+03  0.78537825627E+02 0.  0.
         23    2    1    2    0    0  0.71411860455E+02  0.40647927520E+01  0.62567803934E+02  0.13363308876E+03  0.93951561819E+02 0.  0.
        -13    1    3    3    0    0  0.21845604606E+02 -0.39970370722E+02  0.81751526139E+02  0.93585111008E+02  0.00000000000E+00 0.  1.
         14    1    3    3    0    0 -0.25077180151E+02  0.18680626517E+02  0.11937867201E+03  0.12340623203E+03  0.00000000000E+00 0. -1.
        -11    1    4    4    0    0  0.35377684028E+02 -0.39056894333E+02  0.46002722266E+01  0.52897864103E+02  0.00000000000E+00 0.  1.
         11    1    4    4    0    0  0.36034176426E+02  0.43121687085E+02  0.57967531707E+02  0.80735224655E+02  0.00000000000E+00 0. -1.
          1    1    1    2  501    0 -0.68180284909E+02  0.17224951453E+02  0.55451882929E+03  0.55896009002E+03  0.00000000000E+00 0. -1.
<scales pt_clust_5="13000.00000" pt_clust_6="13000.00000" pt_clust_7="13000.00000" pt_clust_8="13000.00000" pt_clust_9="70.32251"></scales>
<clustering>
<clus scale="   70.323">  2  9  1 -1</clus>
<clus scale="   78.538">  5  6 -1 -1</clus>
<clus scale="   82.116">  1  5  2 -1</clus>
<clus scale="   93.952">  7  8 -1 -1</clus>
<clus scale="   70.323">  2  5  1 -1</clus>
</clustering>
</event>
<event>
 9    2  0.1302972E-004  0.9971523E+02  0.7546771E-02  0.1287168E+00
         21   -1    0    0  501  502  0.00000000000E+00  0.00000000000E+00  0.22653554720E+02  0.22653554720E+02  0.00000000000E+00 0. -1.
          2   -1    0    0  502    0 -0.00000000000E+00 -0.00000000000E+00 -0.59986489386E+03  0.59986489386E+03  0.00000000000E+00 0. -1.
         24    2    1    2    0    0 -0.60467037431E+01  0.41766066265E+02 -0.37319671158E+03  0.38422818684E+03  0.81083581028E+02 0.  0.
         23    2    1    2    0    0 -0.27780600393E+00 -0.22383874057E+02 -0.19214804001E+03  0.21470033384E+03  0.93135648798E+02 0.  0.
        -13    1    3    3    0    0 -0.17482993705E+02  0.58085964842E+02 -0.17873551909E+03  0.18874856334E+03  0.00000000000E+00 0.  1.
         14    1    3    3    0    0  0.11436289962E+02 -0.16319898578E+02 -0.19446119249E+03  0.19547962350E+03  0.00000000000E+00 0. -1.
        -11    1    4    4    0    0 -0.30277031126E+02 -0.45484267057E+02 -0.84880297049E+02  0.10094643129E+03  0.00000000000E+00 0.  1.
         11    1    4    4    0    0  0.29999225122E+02  0.23100393000E+02 -0.10726774296E+03  0.11375390255E+03  0.00000000000E+00 0. -1.
          1    1    1    2  501    0  0.63245097470E+01 -0.19382192208E+02 -0.11866587556E+02  0.23589927905E+02  0.00000000000E+00 0. -1.
<scales pt_clust_5="13000.00000" pt_clust_6="13000.00000" pt_clust_7="13000.00000" pt_clust_8="13000.00000" pt_clust_9="20.38796"></scales>
<clustering>
<clus scale="   20.388">  1  9  2 -1</clus>
<clus scale="   81.084">  5  6 -1 -1</clus>
<clus scale="   88.563">  2  5  1 -1</clus>
<clus scale="   93.136">  7  8 -1 -1</clus>
<clus scale="   20.388">  1  5  2 -1</clus>
</clustering>
</event>
<event>
 9    2  0.1302972E-004  0.1062130E+03  0.7546771E-02  0.1270969E+00
          2   -1    0    0  502    0 -0.00000000000E+00  0.00000000000E+00  0.64299121796E+03  0.64299121796E+03  0.00000000000E+00 0. -1.
         21   -1    0    0  501  502  0.00000000000E+00 -0.00000000000E+00 -0.55870008655E+02  0.55870008655E+02  0.00000000000E+00 0. -1.
         24    2    1    2    0    0 -0.30978530077E+02 -0.46256074031E+02  0.47942019462E+03  0.48969167417E+03  0.82794438378E+02 0.  0.
         23    2    1    2    0    0  0.59315936340E+02  0.24809911961E+02  0.12707007302E+03  0.16869601934E+03  0.90430257366E+02 0.  0.
        -11    1    3    3    0    0 -0.86682622442E+01  0.22976455105E+02  0.79360989542E+02  0.83073599420E+02  0.00000000000E+00 0.  1.
         12    1    3    3    0    0 -0.22310267833E+02 -0.69232529136E+02  0.40005920508E+03  0.40661807475E+03  0.00000000000E+00 0. -1.
        -13    1    4    4    0    0 -0.16263198642E+02  0.30934526352E+02  0.44649086333E+02  0.56700771256E+02  0.00000000000E+00 0.  1.
         13    1    4    4    0    0  0.75579134982E+02 -0.61246143914E+01  0.82420986686E+02  0.11199524808E+03  0.00000000000E+00 0. -1.
          1    1    1    2  501    0 -0.28337406263E+02  0.21446162071E+02 -0.19369058340E+02  0.40473533108E+02  0.00000000000E+00 0. -1.
<scales pt_clust_5="13000.00000" pt_clust_6="13000.00000" pt_clust_7="13000.00000" pt_clust_8="13000.00000" pt_clust_9="35.53796"></scales>
<clustering>
<clus scale="   35.538">  2  9  1 -1</clus>
<clus scale="   82.794">  5  6 -1 -1</clus>
<clus scale="   90.430">  7  8 -1 -1</clus>
<clus scale="   99.792">  1  5  2 -1</clus>
<clus scale="   35.538">  2  5  1 -1</clus>
</clustering>
</event>
<event>
 9    2  0.1302972E-004  0.1249374E+03  0.7546771E-02  0.1238347E+00
         21   -1    0    0  501  502  0.00000000000E+00  0.00000000000E+00  0.27678187435E+03  0.27678187435E+03  0.00000000000E+00 0. -1.
         -1   -1    0    0    0  501 -0.00000000000E+00 -0.00000000000E+00 -0.99107830144E+02  0.99107830144E+02  0.00000000000E+00 0.  1.
         23    2    1    2    0    0 -0.11038392164E+03  0.24919130953E+02  0.28097449803E+02  0.14794521463E+03  0.91064518905E+02 0.  0.
         24    2    1    2    0    0  0.46415386302E+02  0.85130216290E+01  0.11533184854E+03  0.14805465972E+03  0.79949279890E+02 0.  0.
        -13    1    4    4    0    0  0.15844045769E+02 -0.34969983599E+02  0.60770068754E+02  0.71881393946E+02  0.00000000000E+00 0.  1.
         14    1    4    4    0    0  0.30571340533E+02  0.43483005228E+02  0.54561779789E+02  0.76173265778E+02  0.00000000000E+00 0. -1.
        -11    1    3    3    0    0 -0.77601262858E+02 -0.16088236365E+02  0.47006374982E+02  0.92143294034E+02  0.00000000000E+00 0. -1.
         11    1    3    3    0    0 -0.32782658784E+02  0.41007367317E+02 -0.18908925180E+02  0.55801920600E+02  0.00000000000E+00 0.  1.
         -2    1    1    2    0  502  0.63968535340E+02 -0.33432152582E+02  0.34244745859E+02  0.79889830134E+02  0.00000000000E+00 0.  1.
<scales pt_clust_5="13000.00000" pt_clust_6="13000.00000" pt_clust_7="13000.00000" pt_clust_8="13000.00000" pt_clust_9="72.17817"></scales>
<clustering>
<clus scale="   72.178">  1  9  2 -1</clus>
<clus scale="   79.949">  5  6 -1 -1</clus>
<clus scale="   91.065">  7  8 -1 -1</clus>
<clus scale="  117.083">  1  5  2 -1</clus>
<clus scale="   72.178">  1  5  2 -1</clus>
</clustering>
</event>
<event>
 9    2  0.1302972E-004  0.2505873E+03  0.7546771E-02  0.1113364E+00
          2   -1    0    0  502    0 -0.00000000000E+00  0.00000000000E+00  0.74017087859E+03  0.74017087859E+03  0.00000000000E+00 0. -1.
         21   -1    0    0  501  502  0.00000000000E+00 -0.00000000000E+00 -0.10868417171E+03  0.10868417171E+03  0.00000000000E+00 0. -1.
         23    2    1    2    0    0 -0.38008579308E+02 -0.24574929911E+03  0.30523993473E+03  0.40372531073E+03  0.89360722111E+02 0.  0.
         24    2    1    2    0    0  0.99632706836E+00  0.21899566770E+03  0.18912727813E+03  0.30060493461E+03  0.81450010659E+02 0.  0.
        -13    1    4    4    0    0  0.32985469305E+02  0.46756408012E+02  0.33681498697E+02  0.66397637232E+02  0.00000000000E+00 0.  1.
         14    1    4    4    0    0 -0.31989142237E+02  0.17223925969E+03  0.15544577944E+03  0.23420729738E+03  0.00000000000E+00 0. -1.
        -11    1    3    3    0    0 -0.57299843983E+02 -0.23546537439E+03  0.27796624367E+03  0.36877153805E+03  0.00000000000E+00 0. -1.
         11    1    3    3    0    0  0.19291264675E+02 -0.10283924719E+02  0.27273691060E+02  0.34953772678E+02  0.00000000000E+00 0.  1.
          1    1    1    2  501    0  0.37012252240E+02  0.26753631405E+02  0.13711949402E+03  0.14452480496E+03  0.00000000000E+00 0. -1.
<scales pt_clust_5="13000.00000" pt_clust_6="13000.00000" pt_clust_7="13000.00000" pt_clust_8="13000.00000" pt_clust_9="45.66909"></scales>
<clustering>
<clus scale="   45.669">  2  9  1 -1</clus>
<clus scale="   81.450">  5  6 -1 -1</clus>
<clus scale="   89.361">  7  8 -1 -1</clus>
<clus scale="  247.877">  2  5  1 -1</clus>
<clus scale="   45.669">  2  5  1 -1</clus>
</clustering>
</event>
<event>
 9    2  0.1302972E-004  0.1085141E+03  0.7546771E-02  0.1267477E+00
         21   -1    0    0  501  502  0.00000000000E+00  0.00000000000E+00  0.18104334661E+03  0.18104334661E+03  0.00000000000E+00 0. -1.
          2   -1    0    0  502    0 -0.00000000000E+00 -0.00000000000E+00 -0.21124943436E+03  0.21124943436E+03  0.00000000000E+00 0. -1.
         23    2    1    2    0    0  0.41310566554E+02 -0.14996662645E+02 -0.11053367938E+03  0.15172327884E+03  0.94184904651E+02 0.  0.
         24    2    1    2    0    0 -0.73093203803E+02  0.12086833986E+02 -0.37585568288E+02  0.11841338721E+03  0.84382150533E+02 0.  0.
        -13    1    4    4    0    0 -0.78105774436E+02  0.33271769454E+02 -0.13528079811E+02  0.85968201018E+02  0.00000000000E+00 0.  1.
         14    1    4    4    0    0  0.50125706333E+01 -0.21184935467E+02 -0.24057488477E+02  0.32445186190E+02  0.00000000000E+00 0. -1.
        -11    1    3    3    0    0  0.55013883792E+02  0.12369396741E+02 -0.26527418048E+02  0.62315594308E+02  0.00000000000E+00 0.  1.
         11    1    3    3    0    0 -0.13703317238E+02 -0.27366059386E+02 -0.84006261334E+02  0.89407684530E+02  0.00000000000E+00 0. -1.
          1    1    1    2  501    0  0.31782637249E+02  0.29098286587E+01  0.11791315992E+03  0.12215611493E+03  0.00000000000E+00 0. -1.
<scales pt_clust_5="13000.00000" pt_clust_6="13000.00000" pt_clust_7="13000.00000" pt_clust_8="13000.00000" pt_clust_9="31.91556"></scales>
<clustering>
<clus scale="   31.916">  1  9  2 -1</clus>
<clus scale="   84.382">  5  6 -1 -1</clus>
<clus scale="   94.185">  7  8 -1 -1</clus>
<clus scale="  100.124">  1  5  2 -1</clus>
<clus scale="   31.916">  1  5  2 -1</clus>
</clustering>
</event>
<event>
 9    2  0.1302972E-004  0.9274653E+02  0.7546771E-02  0.1301924E+00
         -1   -1    0    0    0  501 -0.00000000000E+00  0.00000000000E+00  0.10874820731E+03  0.10874820731E+03  0.00000000000E+00 0.  1.
         21   -1    0    0  501  502  0.00000000000E+00 -0.00000000000E+00 -0.13787399971E+03  0.13787399971E+03  0.00000000000E+00 0. -1.
         23    2    1    2    0    0  0.19744118370E+02 -0.12908786373E+02  0.67196991781E+01  0.92832767038E+02  0.89533799780E+02 0.  0.
         24    2    1    2    0    0 -0.31387591862E+02 -0.91370158656E+01 -0.70163480462E+02  0.11137113930E+03  0.80074657016E+02 0.  0.
        -11    1    4    4    0    0 -0.25994766709E+02 -0.29372848614E+02 -0.11395298429E+01  0.39240166414E+02  0.00000000000E+00 0.  1.
         12    1    4    4    0    0 -0.53928251535E+01  0.20235832749E+02 -0.69023950619E+02  0.72130972885E+02  0.00000000000E+00 0. -1.
        -11    1    3    3    0    0 -0.14521920420E+02  0.31243793192E+02  0.12486849391E+02  0.36646721455E+02  0.00000000000E+00 0.  1.
         11    1    3    3    0    0  0.34266038790E+02 -0.44152579565E+02 -0.57671502132E+01  0.56186045582E+02  0.00000000000E+00 0. -1.
         -2    1    1    2    0  502  0.11643473492E+02  0.22045802239E+02  0.34317988889E+02  0.42418300682E+02  0.00000000000E+00 0.  1.
<scales pt_clust_5="13000.00000" pt_clust_6="13000.00000" pt_clust_7="13000.00000" pt_clust_8="13000.00000" pt_clust_9="24.93168"></scales>
<clustering>
<clus scale="   24.932">  2  9  1 -1</clus>
<clus scale="   80.075">  5  6 -1 -1</clus>
<clus scale="   83.651">  2  5  1 -1</clus>
<clus scale="   89.534">  7  8 -1 -1</clus>
<clus scale="   24.932">  2  5  1 -1</clus>
</clustering>
</event>
<event>
 9    2  0.1302972E-004  0.2252943E+03  0.7546771E-02  0.1153731E+00
         21   -1    0    0  501  502  0.00000000000E+00  0.00000000000E+00  0.17613466573E+03  0.17613466573E+03  0.00000000000E+00 0. -1.
          4   -1    0    0  502    0 -0.00000000000E+00 -0.00000000000E+00 -0.91836592976E+03  0.91836592976E+03  0.00000000000E+00 0. -1.
         23    2    1    2    0    0 -0.81532894409E+02 -0.34405699399E+02 -0.46357737043E+03  0.48074512885E+03  0.91545264850E+02 0.  0.
         24    2    1    2    0    0  0.51752967670E+02 -0.20035216901E+03  0.30989243151E+02  0.22404150365E+03  0.80093076331E+02 0.  0.
        -13    1    4    4    0    0 -0.68166174837E+01 -0.13017455578E+03  0.14471049661E+02  0.13115369810E+03  0.00000000000E+00 0.  1.
         14    1    4    4    0    0  0.58569585154E+02 -0.70177613231E+02  0.16518193490E+02  0.92887805551E+02  0.00000000000E+00 0. -1.
        -13    1    3    3    0    0 -0.69657458453E+02 -0.62733877509E+02 -0.38800946560E+03  0.39917295286E+03  0.00000000000E+00 0. -1.
         13    1    3    3    0    0 -0.11875435956E+02  0.28328178110E+02 -0.75567904828E+02  0.81572175981E+02  0.00000000000E+00 0.  1.
          3    1    1    2  501    0  0.29779926739E+02  0.23475786841E+03 -0.30964313675E+03  0.38971396300E+03  0.00000000000E+00 0. -1.
<scales pt_clust_5="13000.00000" pt_clust_6="13000.00000" pt_clust_7="13000.00000" pt_clust_8="13000.00000" pt_clust_9="210.57700"></scales>
<clustering>
<clus scale="   80.093">  5  6 -1 -1</clus>
<clus scale="   91.545">  7  8 -1 -1</clus>
<clus scale="  127.326">  2  7  1 -1</clus>
<clus scale="  210.577">  1  9  2 -1</clus>
<clus scale="  210.577">  1  5  2 -1</clus>
</clustering>
</event>
<event>
 9    2  0.1302972E-004  0.3110291E+03  0.7546771E-02  0.1128855E+00
          2   -1    0    0  502    0 -0.00000000000E+00  0.00000000000E+00  0.18651439808E+04  0.18651439808E+04  0.00000000000E+00 0. -1.
         21   -1    0    0  501  502  0.00000000000E+00 -0.00000000000E+00 -0.70073337238E+02  0.70073337238E+02  0.00000000000E+00 0.  1.
         24    2    1    2    0    0 -0.11360384274E+02 -0.33127348780E+02  0.43451212510E+03  0.44334594854E+03  0.80798289946E+02 0.  0.
         23    2    1    2    0    0  0.23884023148E+03 -0.16897169707E+03  0.74727390776E+03  0.80724802857E+03  0.87378463171E+02 0.  0.
        -13    1    3    3    0    0 -0.44039560539E+02 -0.24155357594E+02  0.19130619414E+03  0.19779035393E+03  0.00000000000E+00 0.  1.
         14    1    3    3    0    0  0.32679176266E+02 -0.89719911867E+01  0.24320593097E+03  0.24555559461E+03  0.00000000000E+00 0. -1.
        -13    1    4    4    0    0  0.11641309468E+03 -0.13453675806E+03  0.41958204505E+03  0.45574251548E+03  0.00000000000E+00 0.  1.
         13    1    4    4    0    0  0.12242713680E+03 -0.34434939004E+02  0.32769186271E+03  0.35150551309E+03  0.00000000000E+00 0. -1.
          1    1    1    2  501    0 -0.22747984721E+03  0.20209904585E+03  0.61328461065E+03  0.68462334088E+03  0.00000000000E+00 0. -1.
<scales pt_clust_5="13000.00000" pt_clust_6="13000.00000" pt_clust_7="13000.00000" pt_clust_8="13000.00000" pt_clust_9="298.50311"></scales>
<clustering>
<clus scale="   80.798">  5  6 -1 -1</clus>
<clus scale="   87.378">  7  8 -1 -1</clus>
<clus scale="   88.062">  1  5  2 -1</clus>
<clus scale="  298.503">  2  9  1 -1</clus>
<clus scale="  298.503">  2  5  1 -1</clus>
</clustering>
</event>
<event>
 9    2  0.1302972E-004  0.2042926E+03  0.7546771E-02  0.1154312E+00
         21   -1    0    0  501  502  0.00000000000E+00  0.00000000000E+00  0.11670943455E+03  0.11670943455E+03  0.00000000000E+00 0. -1.
          2   -1    0    0  502    0 -0.00000000000E+00 -0.00000000000E+00 -0.82595247811E+03  0.82595247811E+03  0.00000000000E+00 0. -1.
         24    2    1    2    0    0  0.14753297437E+03 -0.26763254553E+02 -0.31822647266E+03  0.36006080028E+03  0.76768754595E+02 0.  0.
         23    2    1    2    0    0  0.42523952257E+02  0.16356751383E+03 -0.13270472761E+03  0.23394361698E+03  0.92501097837E+02 0.  0.
        -11    1    3    3    0    0  0.22713016454E+02  0.11378205783E+01 -0.13322376821E+03  0.13515083488E+03  0.00000000000E+00 0.  1.
         12    1    3    3    0    0  0.12481995791E+03 -0.27901075131E+02 -0.18500270445E+03  0.22490996541E+03  0.00000000000E+00 0. -1.
        -11    1    4    4    0    0  0.61642868988E+02  0.10692460038E+03 -0.12136352356E+03  0.17309482463E+03  0.00000000000E+00 0. -1.
         11    1    4    4    0    0 -0.19118916731E+02  0.56642913453E+02 -0.11341204048E+02  0.60848792351E+02  0.00000000000E+00 0.  1.
          1    1    1    2  501    0 -0.19005692662E+03 -0.13680425928E+03 -0.25831184329E+03  0.34865749540E+03  0.00000000000E+00 0. -1.
<scales pt_clust_5="13000.00000" pt_clust_6="13000.00000" pt_clust_7="13000.00000" pt_clust_8="13000.00000" pt_clust_9="182.15116"></scales>
<clustering>
<clus scale="   76.769">  5  6 -1 -1</clus>
<clus scale="   92.501">  7  8 -1 -1</clus>
<clus scale="  168.451">  2  5  1 -1</clus>
<clus scale="  182.151">  1  9  2 -1</clus>
<clus scale="  182.151">  1  5  2 -1</clus>
</clustering>
</event>
<event>
 9    2  0.1302972E-004  0.1547779E+03  0.7546771E-02  0.1196169E+00
          4   -1    0    0  502    0 -0.00000000000E+00  0.00000000000E+00  0.46106020951E+03  0.46106020951E+03  0.00000000000E+00 0. -1.
         21   -1    0    0  501  502  0.00000000000E+00 -0.00000000000E+00 -0.19992501401E+03  0.19992501401E+03  0.00000000000E+00 0.  1.
         23    2    1    2    0    0 -0.10804464105E+03  0.80520154041E+02  0.35734962919E+03  0.39213700045E+03  0.88969264178E+02 0.  0.
         24    2    1    2    0    0  0.44402683909E+02 -0.28492910491E+02 -0.14449724856E+03  0.17351531693E+03  0.80278677623E+02 0.  0.
        -13    1    4    4    0    0  0.50034944348E+02 -0.51467431501E+02 -0.11677882901E+03  0.13707547945E+03  0.00000000000E+00 0.  1.
         14    1    4    4    0    0 -0.56322604383E+01  0.22974521010E+02 -0.27718419557E+02  0.36439837486E+02  0.00000000000E+00 0. -1.
        -11    1    3    3    0    0  0.10570631972E+02  0.28899552636E+02  0.50542200916E+02  0.59172937026E+02  0.00000000000E+00 0.  1.
         11    1    3    3    0    0 -0.11861527302E+03  0.51620601405E+02  0.30680742828E+03  0.33296406342E+03  0.00000000000E+00 0. -1.
          3    1    1    2  501    0  0.63641957144E+02 -0.52027243551E+02  0.48282814867E+02  0.95332906135E+02  0.00000000000E+00 0. -1.
<scales pt_clust_5="13000.00000" pt_clust_6="13000.00000" pt_clust_7="13000.00000" pt_clust_8="13000.00000" pt_clust_9="82.20182"></scales>
<clustering>
<clus scale="   80.279">  5  6 -1 -1</clus>
<clus scale="   82.202">  2  9  1 -1</clus>
<clus scale="   88.969">  7  8 -1 -1</clus>
<clus scale="  149.951">  2  5  1 -1</clus>
<clus scale="   82.202">  2  5  1 -1</clus>
</clustering>
</event>
<event>
 9    2  0.1302972E-004  0.1025856E+03  0.7546771E-02  0.1282361E+00
         21   -1    0    0  501  502  0.00000000000E+00  0.00000000000E+00  0.52318363250E+03  0.52318363250E+03  0.00000000000E+00 0. -1.
         -1   -1    0    0    0  501 -0.00000000000E+00 -0.00000000000E+00 -0.79284553505E+02  0.79284553505E+02  0.00000000000E+00 0.  1.
         24    2    1    2    0    0  0.21732411152E+02 -0.33464087758E+02 -0.38624801940E+02  0.96692231051E+02  0.79154086166E+02 0.  0.
         23    2    1    2    0    0 -0.52388764412E+02  0.30905710537E+02  0.43471682053E+03  0.44892639635E+03  0.94108712162E+02 0.  0.
        -11    1    3    3    0    0  0.15375757396E+02 -0.46249347206E+02 -0.55976448884E+02  0.74221148349E+02  0.00000000000E+00 0.  1.
         12    1    3    3    0    0  0.63566537559E+01  0.12785259448E+02  0.17351646944E+02  0.22471082702E+02  0.00000000000E+00 0. -1.
        -13    1    4    4    0    0  0.23632800439E+02  0.26919592938E+02  0.13010059094E+03  0.13494197828E+03  0.00000000000E+00 0.  1.
         13    1    4    4    0    0 -0.76021564851E+02  0.39861175995E+01  0.30461622959E+03  0.31398441806E+03  0.00000000000E+00 0. -1.
         -2    1    1    2    0  502  0.30656353260E+02  0.25583772206E+01  0.47807060403E+02  0.56849558605E+02  0.00000000000E+00 0.  1.
<scales pt_clust_5="13000.00000" pt_clust_6="13000.00000" pt_clust_7="13000.00000" pt_clust_8="13000.00000" pt_clust_9="30.76292"></scales>
<clustering>
<clus scale="   30.763">  1  9  2 -1</clus>
<clus scale="   79.154">  5  6 -1 -1</clus>
<clus scale="   89.066">  2  5  1 -1</clus>
<clus scale="   94.109">  7  8 -1 -1</clus>
<clus scale="   30.763">  1  5  2 -1</clus>
</clustering>
</event>
<event>
 9    2  0.1302972E-004  0.1231567E+03  0.7546771E-02  0.1243037E+00
          2   -1    0    0  502    0 -0.00000000000E+00  0.00000000000E+00  0.40938862932E+03  0.40938862932E+03  0.00000000000E+00 0. -1.
         21   -1    0    0  501  502  0.00000000000E+00 -0.00000000000E+00 -0.28766928427E+03  0.28766928427E+03  0.00000000000E+00 0.  1.
         23    2    1    2    0    0  0.63551634657E+01  0.79925199108E+02  0.11159803287E+03  0.16713263573E+03  0.95135542419E+02 0.  0.
         24    2    1    2    0    0 -0.71756728728E+02 -0.51759672074E+02 -0.24116407347E+03  0.26874525049E+03  0.78967129613E+02 0.  0.
        -13    1    4    4    0    0 -0.28173474086E+02 -0.33924460765E+02 -0.20412205093E+03  0.20883109289E+03  0.00000000000E+00 0.  1.
         14    1    4    4    0    0 -0.43583254642E+02 -0.17835211309E+02 -0.37042022532E+02  0.59914157600E+02  0.00000000000E+00 0. -1.
        -13    1    3    3    0    0 -0.29541462784E+02  0.33742217879E+02  0.96969944119E+02  0.10683822047E+03  0.00000000000E+00 0.  1.
         13    1    3    3    0    0  0.35896626250E+02  0.46182981229E+02  0.14628088751E+02  0.60294415262E+02  0.00000000000E+00 0. -1.
          1    1    1    2  501    0  0.65401565262E+02 -0.28165527034E+02  0.25128538565E+03  0.26118002736E+03  0.00000000000E+00 0. -1.
<scales pt_clust_5="13000.00000" pt_clust_6="13000.00000" pt_clust_7="13000.00000" pt_clust_8="13000.00000" pt_clust_9="71.20861"></scales>
<clustering>
<clus scale="   71.209">  2  9  1 -1</clus>
<clus scale="   78.967">  5  6 -1 -1</clus>
<clus scale="   95.136">  7  8 -1 -1</clus>
<clus scale="  111.142">  2  5  1 -1</clus>
<clus scale="   71.209">  2  5  1 -1</clus>
</clustering>
</event>
<event>
 9    2  0.1302972E-004  0.2053493E+03  0.7546771E-02  0.1146178E+00
          2   -1    0    0  502    0 -0.00000000000E+00  0.00000000000E+00  0.38011600694E+03  0.38011600694E+03  0.00000000000E+00 0. -1.
         21   -1    0    0  501  502  0.00000000000E+00 -0.00000000000E+00 -0.22332940100E+03  0.22332940100E+03  0.00000000000E+00 0.  1.
         24    2    1    2    0    0  0.12561903685E+03 -0.12228342670E+03  0.22934589366E+03  0.30016822394E+03  0.82268127840E+02 0.  0.
         23    2    1    2    0    0 -0.16734787514E+03  0.13217005481E+03 -0.16777578293E+02  0.23291639615E+03  0.92164666556E+02 0.  0.
        -13    1    3    3    0    0  0.24232650433E+02 -0.11031261222E+02  0.96029619226E+00  0.26642677041E+02  0.00000000000E+00 0.  1.
         14    1    3    3    0    0  0.10138638642E+03 -0.11125216548E+03  0.22838559746E+03  0.27352554690E+03  0.00000000000E+00 0. -1.
        -11    1    4    4    0    0 -0.15509065712E+03  0.84508120694E+02 -0.35698038467E+02  0.18019179876E+03  0.00000000000E+00 0.  1.
         11    1    4    4    0    0 -0.12257218017E+02  0.47661934113E+02  0.18920460174E+02  0.52724597392E+02  0.00000000000E+00 0. -1.
          1    1    1    2  501    0  0.41728838285E+02 -0.98866281042E+01 -0.55781709429E+02  0.70360787849E+02  0.00000000000E+00 0. -1.
<scales pt_clust_5="13000.00000" pt_clust_6="13000.00000" pt_clust_7="13000.00000" pt_clust_8="13000.00000" pt_clust_9="42.88405"></scales>
<clustering>
<clus scale="   42.884">  2  9  1 -1</clus>
<clus scale="   82.268">  5  6 -1 -1</clus>
<clus scale="   92.165">  7  8 -1 -1</clus>
<clus scale="  201.102">  1  5  2 -1</clus>
<clus scale="   42.884">  2  5  1 -1</clus>
</clustering>
</event>
<event>
 9    2  0.1302972E-004  0.6794535E+03  0.7546771E-02  0.9753588E-01
         21   -1    0    0  501  502  0.00000000000E+00  0.00000000000E+00  0.14797130849E+04  0.14797130849E+04  0.00000000000E+00 0. -1.
          2   -1    0    0  502    0 -0.00000000000E+00 -0.00000000000E+00 -0.38713128604E+03  0.38713128604E+03  0.00000000000E+00 0. -1.
         23    2    1    2    0    0  0.47765538885E+03  0.48057658067E+03  0.15863514579E+03  0.70123618081E+03  0.86362905291E+02 0.  0.
         24    2    1    2    0    0 -0.48179906014E+03 -0.45951155840E+03  0.86997213048E+03  0.10981274913E+04  0.75837145676E+02 0.  0.
        -13    1    4    4    0    0 -0.96004429541E+02 -0.12889122236E+03  0.23917273960E+03  0.28815516143E+03  0.00000000000E+00 0.  1.
         14    1    4    4    0    0 -0.38579463060E+03 -0.33062033604E+03  0.63079939089E+03  0.80997232986E+03  0.00000000000E+00 0. -1.
        -13    1    3    3    0    0  0.32518692404E+02  0.56434614787E+02  0.35485516815E+02  0.74172454493E+02  0.00000000000E+00 0.  1.
         13    1    3    3    0    0  0.44513669644E+03  0.42414196589E+03  0.12314962898E+03  0.62706372632E+03  0.00000000000E+00 0. -1.
          1    1    1    2  501    0  0.41436712936E+01 -0.21065022272E+02  0.63974522611E+02  0.67480698858E+02  0.00000000000E+00 0. -1.
<scales pt_clust_5="13000.00000" pt_clust_6="13000.00000" pt_clust_7="13000.00000" pt_clust_8="13000.00000" pt_clust_9="21.46870"></scales>
<clustering>
<clus scale="   21.469">  1  9  2 -1</clus>
<clus scale="   75.837">  5  6 -1 -1</clus>
<clus scale="   86.363">  7  8 -1 -1</clus>
<clus scale="  678.196">  1  5  2 -1</clus>
<clus scale="   21.469">  1  5  2 -1</clus>
</clustering>
</event>
<event>
 9    2  0.1302972E-004  0.5314126E+03  0.7546771E-02  0.1055989E+00
          2   -1    0    0  502    0 -0.00000000000E+00  0.00000000000E+00  0.61493049019E+03  0.61493049019E+03  0.00000000000E+00 0. -1.
         21   -1    0    0  501  502  0.00000000000E+00 -0.00000000000E+00 -0.11117410754E+04  0.11117410754E+04  0.00000000000E+00 0. -1.
         24    2    1    2    0    0 -0.75231839728E+02  0.51012147835E+02  0.27280118964E+03  0.29818839426E+03  0.78954166877E+02 0.  0.
         23    2    1    2    0    0 -0.30159846684E+03 -0.42675687106E+03 -0.71964271543E+03  0.89399081038E+03  0.90834294071E+02 0.  0.
        -11    1    3    3    0    0 -0.34541182618E+01  0.39289688348E+02  0.15332761547E+03  0.15831919722E+03  0.00000000000E+00 0.  1.
         12    1    3    3    0    0 -0.71777721467E+02  0.11722459488E+02  0.11947357417E+03  0.13986919704E+03  0.00000000000E+00 0. -1.
        -13    1    4    4    0    0 -0.40895112021E+02 -0.81248261326E+02 -0.76974030427E+02  0.11915826247E+03  0.00000000000E+00 0.  1.
         13    1    4    4    0    0 -0.26070335482E+03 -0.34550860973E+03 -0.64266868500E+03  0.77483254791E+03  0.00000000000E+00 0. -1.
          1    1    1    2  501    0  0.37683030657E+03  0.37574472322E+03 -0.49969059401E+02  0.53449236092E+03  0.00000000000E+00 0. -1.
<scales pt_clust_5="13000.00000" pt_clust_6="13000.00000" pt_clust_7="13000.00000" pt_clust_8="13000.00000" pt_clust_9="523.59218"></scales>
<clustering>
<clus scale="   78.954">  5  6 -1 -1</clus>
<clus scale="   90.834">  7  8 -1 -1</clus>
<clus scale="  120.399">  1  5  2 -1</clus>
<clus scale="  523.592">  2  9  1 -1</clus>
<clus scale="  523.592">  2  5  1 -1</clus>
</clustering>
</event>
<event>
 9    2  0.1302972E-004  0.1071974E+03  0.7546771E-02  0.1270486E+00
          2   -1    0    0  502    0 -0.00000000000E+00  0.00000000000E+00  0.28472837558E+03  0.28472837558E+03  0.00000000000E+00 0. -1.
         21   -1    0    0  501  502  0.00000000000E+00 -0.00000000000E+00 -0.13875821846E+03  0.13875821846E+03  0.00000000000E+00 0. -1.
         23    2    1    2    0    0 -0.55956993559E+02  0.13059615589E+02  0.19235046372E+03  0.22077362485E+03  0.91872486905E+02 0.  0.
         24    2    1    2    0    0  0.39870487254E+02  0.13030678221E+02 -0.10348345012E+03  0.13790364798E+03  0.80926740632E+02 0.  0.
        -11    1    4    4    0    0 -0.14939745671E+02 -0.21563090503E+02 -0.26878003290E+02  0.37557821204E+02  0.00000000000E+00 0.  1.
         12    1    4    4    0    0  0.54810232925E+02  0.34593768724E+02 -0.76605446829E+02  0.10034582678E+03  0.00000000000E+00 0. -1.
        -11    1    3    3    0    0 -0.60741460229E+02  0.38924957079E+02  0.17493380064E+03  0.18922608669E+03  0.00000000000E+00 0.  1.
         11    1    3    3    0    0  0.47844666705E+01 -0.25865341490E+02  0.17416663074E+02  0.31547538166E+02  0.00000000000E+00 0. -1.
          1    1    1    2  501    0  0.16086506305E+02 -0.26090293810E+02  0.57103143515E+02  0.64809321209E+02  0.00000000000E+00 0. -1.
<scales pt_clust_5="13000.00000" pt_clust_6="13000.00000" pt_clust_7="13000.00000" pt_clust_8="13000.00000" pt_clust_9="30.65094"></scales>
<clustering>
<clus scale="   30.651">  2  9  1 -1</clus>
<clus scale="   80.927">  5  6 -1 -1</clus>
<clus scale="   91.872">  7  8 -1 -1</clus>
<clus scale="   97.979">  2  5  1 -1</clus>
<clus scale="   30.651">  2  5  1 -1</clus>
</clustering>
</event>
<event>
 9    2  0.1302972E-004  0.9396112E+02  0.7546771E-02  0.1300670E+00
         21   -1    0    0  501  502  0.00000000000E+00  0.00000000000E+00  0.59680236310E+02  0.59680236310E+02  0.00000000000E+00 0. -1.
          2   -1    0    0  502    0 -0.00000000000E+00 -0.00000000000E+00 -0.29139034789E+03  0.29139034789E+03  0.00000000000E+00 0. -1.
         23    2    1    2    0    0  0.16723001647E+02  0.64500667284E+01 -0.19769446562E+03  0.21902904490E+03  0.92570830344E+02 0.  0.
         24    2    1    2    0    0 -0.13149165322E+02  0.19673409370E+02  0.57493784789E+01  0.84329219312E+02  0.80736722079E+02 0.  0.
        -13    1    4    4    0    0 -0.17232216892E+02 -0.27372155933E+02 -0.11091556743E+02  0.34193666817E+02  0.00000000000E+00 0.  1.
         14    1    4    4    0    0  0.40830515698E+01  0.47045565303E+02  0.16840935222E+02  0.50135552495E+02  0.00000000000E+00 0. -1.
        -13    1    3    3    0    0  0.51771456478E+02 -0.14003500143E+02 -0.11693216927E+03  0.12864491413E+03  0.00000000000E+00 0.  1.
         13    1    3    3    0    0 -0.35048454830E+02  0.20453566871E+02 -0.80762296344E+02  0.90384130768E+02  0.00000000000E+00 0. -1.
          1    1    1    2  501    0 -0.35738363254E+01 -0.26123476099E+02 -0.39765024446E+02  0.47712319990E+02  0.00000000000E+00 0. -1.
<scales pt_clust_5="13000.00000" pt_clust_6="13000.00000" pt_clust_7="13000.00000" pt_clust_8="13000.00000" pt_clust_9="26.36682"></scales>
<clustering>
<clus scale="   26.367">  1  9  2 -1</clus>
<clus scale="   80.737">  5  6 -1 -1</clus>
<clus scale="   82.327">  1  5  2 -1</clus>
<clus scale="   92.571">  7  8 -1 -1</clus>
<clus scale="   26.367">  1  5  2 -1</clus>
</clustering>
</event>
<event>
 9    2  0.1302972E-004  0.1170870E+03  0.7546771E-02  0.1252698E+00
         -1   -1    0    0    0  501 -0.00000000000E+00  0.00000000000E+00  0.14878815638E+03  0.14878815638E+03  0.00000000000E+00 0.  1.
         21   -1    0    0  501  502  0.00000000000E+00 -0.00000000000E+00 -0.16250015710E+03  0.16250015710E+03  0.00000000000E+00 0.  1.
         23    2    1    2    0    0 -0.55263532176E+02 -0.81296175531E+01  0.27769922766E+02  0.11314041297E+03  0.94389807540E+02 0.  0.
         24    2    1    2    0    0  0.86327271353E+02 -0.37314341176E+02  0.76901900441E+01  0.12433729134E+03  0.80968297236E+02 0.  0.
        -11    1    4    4    0    0  0.98791380767E+02 -0.28895518272E+02 -0.71876955432E+01  0.10318115553E+03  0.00000000000E+00 0.  1.
         12    1    4    4    0    0 -0.12464109414E+02 -0.84188229034E+01  0.14877885587E+02  0.21156135803E+02  0.00000000000E+00 0. -1.
        -13    1    3    3    0    0 -0.19597610815E+02 -0.49325454148E+02  0.26584809332E+01  0.53142584595E+02  0.00000000000E+00 0.  1.
         13    1    3    3    0    0 -0.35665921361E+02  0.41195836595E+02  0.25111441832E+02  0.59997828379E+02  0.00000000000E+00 0. -1.
         -2    1    1    2    0  502 -0.31063739178E+02  0.45443958729E+02 -0.49172113531E+02  0.73810609168E+02  0.00000000000E+00 0.  1.
<scales pt_clust_5="13000.00000" pt_clust_6="13000.00000" pt_clust_7="13000.00000" pt_clust_8="13000.00000" pt_clust_9="55.04643"></scales>
<clustering>
<clus scale="   55.046">  2  9  1 -1</clus>
<clus scale="   80.968">  5  6 -1 -1</clus>
<clus scale="   94.390">  7  8 -1 -1</clus>
<clus scale="  106.564">  2  5  1 -1</clus>
<clus scale="   55.046">  2  5  1 -1</clus>
</clustering>
</event>
<event>
 9    2  0.1302972E-004  0.9925373E+02  0.7546771E-02  0.1283664E+00
         21   -1    0    0  501  502  0.00000000000E+00  0.00000000000E+00  0.93698130090E+02  0.93698130090E+02  0.00000000000E+00 0.  1.
         -1   -1    0    0    0  501 -0.00000000000E+00 -0.00000000000E+00 -0.15716992034E+03  0.15716992034E+03  0.00000000000E+00 0.  1.
         24    2    1    2    0    0 -0.54073868362E+02 -0.28807401041E+01 -0.52124867536E+02  0.11079998787E+03  0.81408559709E+02 0.  0.
         23    2    1    2    0    0  0.40147498553E+02  0.29339171224E+02  0.15440363680E+02  0.99923933899E+02  0.85286453362E+02 0.  0.
        -11    1    3    3    0    0 -0.50997304277E+02  0.11331220292E+01 -0.73147748950E+02  0.89177363639E+02  0.00000000000E+00 0.  1.
         12    1    3    3    0    0 -0.30765640841E+01 -0.40138621333E+01  0.21022881415E+02  0.21622624234E+02  0.00000000000E+00 0. -1.
        -11    1    4    4    0    0 -0.24185220743E+02  0.21983500610E+02  0.12854881102E+02  0.35120466535E+02  0.00000000000E+00 0. -1.
         11    1    4    4    0    0  0.64332719296E+02  0.73556706139E+01  0.25854825776E+01  0.64803467364E+02  0.00000000000E+00 0.  1.
         -2    1    1    2    0  502  0.13926369808E+02 -0.26458431120E+02 -0.26787286393E+02  0.40144128658E+02  0.00000000000E+00 0.  1.
<scales pt_clust_5="13000.00000" pt_clust_6="13000.00000" pt_clust_7="13000.00000" pt_clust_8="13000.00000" pt_clust_9="29.89972"></scales>
<clustering>
<clus scale="   29.900">  1  9  2 -1</clus>
<clus scale="   81.409">  5  6 -1 -1</clus>
<clus scale="   85.286">  7  8 -1 -1</clus>
<clus scale="   95.942">  2  5  1 -1</clus>
<clus scale="   29.900">  1  5  2 -1</clus>
</clustering>
</event>
<event>
 9    2  0.1302972E-004  0.1688132E+03  0.7546771E-02  0.1180679E+00
          2   -1    0    0  502    0 -0.00000000000E+00  0.00000000000E+00  0.10816080782E+04  0.10816080782E+04  0.00000000000E+00 0. -1.
         21   -1    0    0  501  502  0.00000000000E+00 -0.00000000000E+00 -0.80666225094E+02  0.80666225094E+02  0.00000000000E+00 0. -1.
         23    2    1    2    0    0 -0.12040529680E+03 -0.85230386655E+02  0.95525706407E+03  0.97095338423E+03  0.92047604959E+02 0.  0.
         24    2    1    2    0    0  0.76473078544E+02  0.76427931032E+02  0.54782197484E+02  0.14560127487E+03  0.80680119602E+02 0.  0.
        -11    1    4    4    0    0  0.77654273185E+02  0.79116468631E+02  0.69334910025E+02  0.13075523508E+03  0.00000000000E+00 0.  1.
         12    1    4    4    0    0 -0.11811946409E+01 -0.26885375994E+01 -0.14552712540E+02  0.14846039791E+02  0.00000000000E+00 0. -1.
        -11    1    3    3    0    0 -0.65097946852E+02 -0.97482114656E+02  0.63855274903E+03  0.64922270344E+03  0.00000000000E+00 0.  1.
         11    1    3    3    0    0 -0.55307349952E+02  0.12251728001E+02  0.31670431504E+03  0.32173068079E+03  0.00000000000E+00 0. -1.
          1    1    1    2  501    0  0.43932218260E+02  0.88024556234E+01 -0.90974084370E+01  0.45719644208E+02  0.00000000000E+00 0. -1.
<scales pt_clust_5="13000.00000" pt_clust_6="13000.00000" pt_clust_7="13000.00000" pt_clust_8="13000.00000" pt_clust_9="44.80539"></scales>
<clustering>
<clus scale="   44.805">  2  9  1 -1</clus>
<clus scale="   80.680">  5  6 -1 -1</clus>
<clus scale="   92.048">  7  8 -1 -1</clus>
<clus scale="  162.894">  2  5  1 -1</clus>
<clus scale="   44.805">  2  5  1 -1</clus>
</clustering>
</event>
<event>
 9    2  0.1302972E-004  0.9256426E+02  0.7546771E-02  0.1304677E+00
          2   -1    0    0  502    0 -0.00000000000E+00  0.00000000000E+00  0.33306597218E+03  0.33306597218E+03  0.00000000000E+00 0. -1.
         21   -1    0    0  501  502  0.00000000000E+00 -0.00000000000E+00 -0.40016571455E+02  0.40016571455E+02  0.00000000000E+00 0. -1.
         24    2    1    2    0    0  0.69477255504E+01 -0.56724486519E+01  0.16638709448E+03  0.18479925258E+03  0.79910268316E+02 0.  0.
         23    2    1    2    0    0  0.26655536468E+02 -0.28908528889E+01  0.60887074917E+02  0.11392678220E+03  0.92483518297E+02 0.  0.
        -13    1    3    3    0    0 -0.17424141954E+02  0.26734246654E+02  0.35308248555E+02  0.47591943468E+02  0.00000000000E+00 0.  1.
         14    1    3    3    0    0  0.24371867504E+02 -0.32406695306E+02  0.13107884592E+03  0.13720730912E+03  0.00000000000E+00 0. -1.
        -13    1    4    4    0    0  0.22076725170E+02  0.31240563529E+02 -0.59747433476E+01  0.38717594991E+02  0.00000000000E+00 0. -1.
         13    1    4    4    0    0  0.45788112985E+01 -0.34131416418E+02  0.66861818264E+02  0.75209187213E+02  0.00000000000E+00 0.  1.
          1    1    1    2  501    0 -0.33603262019E+02  0.85633015408E+01  0.65775231330E+02  0.74356508848E+02  0.00000000000E+00 0. -1.
<scales pt_clust_5="13000.00000" pt_clust_6="13000.00000" pt_clust_7="13000.00000" pt_clust_8="13000.00000" pt_clust_9="34.67723"></scales>
<clustering>
<clus scale="   34.677">  2  9  1 -1</clus>
<clus scale="   79.910">  5  6 -1 -1</clus>
<clus scale="   80.004">  1  5  2 -1</clus>
<clus scale="   92.484">  7  8 -1 -1</clus>
<clus scale="   34.677">  2  5  1 -1</clus>
</clustering>
</event>
<event>
 9    2  0.1302972E-004  0.1547786E+03  0.7546771E-02  0.1196644E+00
         21   -1    0    0  501  502  0.00000000000E+00  0.00000000000E+00  0.25171446299E+02  0.25171446299E+02  0.00000000000E+00 0. -1.
          2   -1    0    0  502    0 -0.00000000000E+00 -0.00000000000E+00 -0.14215570302E+04  0.14215570302E+04  0.00000000000E+00 0. -1.
         24    2    1    2    0    0  0.89459700775E+02  0.11848447048E+03 -0.67940220174E+03  0.70005239383E+03  0.80276986551E+02 0.  0.
         23    2    1    2    0    0 -0.91930935737E+02 -0.51330568479E+02 -0.43640892393E+03  0.45816649848E+03  0.91529597606E+02 0.  0.
        -11    1    3    3    0    0  0.18184002880E+02 -0.10192811624E+02 -0.10989897797E+03  0.11185855680E+03  0.00000000000E+00 0.  1.
         12    1    3    3    0    0  0.71275697895E+02  0.12867728211E+03 -0.56950322376E+03  0.58819383703E+03  0.00000000000E+00 0. -1.
        -11    1    4    4    0    0 -0.85051980591E+02  0.23231546009E+01 -0.28205329421E+03  0.29460702168E+03  0.00000000000E+00 0.  1.
         11    1    4    4    0    0 -0.68789551466E+01 -0.53653723080E+02 -0.15435562973E+03  0.16355947680E+03  0.00000000000E+00 0. -1.
          1    1    1    2  501    0  0.24712349623E+01 -0.67153902005E+02 -0.28057445824E+03  0.28850958419E+03  0.00000000000E+00 0. -1.
<scales pt_clust_5="13000.00000" pt_clust_6="13000.00000" pt_clust_7="13000.00000" pt_clust_8="13000.00000" pt_clust_9="67.19939"></scales>
<clustering>
<clus scale="   67.199">  1  9  2 -1</clus>
<clus scale="   80.277">  5  6 -1 -1</clus>
<clus scale="   91.530">  7  8 -1 -1</clus>
<clus scale="  148.402">  2  5  1 -1</clus>
<clus scale="   67.199">  1  5  2 -1</clus>
</clustering>
</event>
<event>
 9    2  0.1302972E-004  0.9495562E+02  0.7546771E-02  0.1296266E+00
         21   -1    0    0  501  502  0.00000000000E+00  0.00000000000E+00  0.47646251185E+02  0.47646251185E+02  0.00000000000E+00 0.  1.
          2   -1    0    0  502    0 -0.00000000000E+00 -0.00000000000E+00 -0.24509700527E+03  0.24509700527E+03  0.00000000000E+00 0. -1.
         23    2    1    2    0    0 -0.16335553582E+02  0.16103300691E+02 -0.10947600767E+03  0.14354026946E+03  0.89959135706E+02 0.  0.
         24    2    1    2    0    0  0.26830954993E+02 -0.33499031106E+02 -0.46012970239E+02  0.10258158046E+03  0.81016677228E+02 0.  0.
        -13    1    4    4    0    0  0.37143342000E+02 -0.29819488636E+02  0.72712574238E+01  0.48184032023E+02  0.00000000000E+00 0.  1.
         14    1    4    4    0    0 -0.10312387007E+02 -0.36795424695E+01 -0.53284227663E+02  0.54397548439E+02  0.00000000000E+00 0. -1.
        -13    1    3    3    0    0 -0.23343063207E+02  0.51276249489E+02 -0.58562657695E+02  0.81263381900E+02  0.00000000000E+00 0. -1.
         13    1    3    3    0    0  0.70075096248E+01 -0.35172948798E+02 -0.50913349977E+02  0.62276887560E+02  0.00000000000E+00 0.  1.
          1    1    1    2  501    0 -0.10495401411E+02  0.17395730415E+02 -0.41961776169E+02  0.46621406529E+02  0.00000000000E+00 0. -1.
<scales pt_clust_5="13000.00000" pt_clust_6="13000.00000" pt_clust_7="13000.00000" pt_clust_8="13000.00000" pt_clust_9="20.31663"></scales>
<clustering>
<clus scale="   20.317">  1  9  2 -1</clus>
<clus scale="   81.017">  5  6 -1 -1</clus>
<clus scale="   86.531">  1  5  2 -1</clus>
<clus scale="   89.959">  7  8 -1 -1</clus>
<clus scale="   20.317">  1  5  2 -1</clus>
</clustering>
</event>
<event>
 9    2  0.1302972E-004  0.1830917E+03  0.7546771E-02  0.1192025E+00
         21   -1    0    0  501  502  0.00000000000E+00  0.00000000000E+00  0.57500847697E+03  0.57500847697E+03  0.00000000000E+00 0. -1.
          2   -1    0    0  502    0 -0.00000000000E+00 -0.00000000000E+00 -0.15102391629E+04  0.15102391629E+04  0.00000000000E+00 0. -1.
         23    2    1    2    0    0  0.38039977392E+02 -0.41196844012E+01  0.55224499640E+02  0.11354472258E+03  0.91534949525E+02 0.  0.
         24    2    1    2    0    0 -0.33279744604E+02 -0.14841222411E+03 -0.14633926240E+04  0.14747537614E+04  0.10122724518E+03 0.  0.
        -11    1    4    4    0    0  0.23755026114E+02 -0.83623624251E+02 -0.49989798457E+03  0.50740044026E+03  0.00000000000E+00 0.  1.
         12    1    4    4    0    0 -0.57034770718E+02 -0.64788599856E+02 -0.96349463939E+03  0.96735332111E+03  0.00000000000E+00 0. -1.
        -11    1    3    3    0    0  0.60868207819E+02  0.78350064417E+00  0.87024593101E+01  0.61492157178E+02  0.00000000000E+00 0.  1.
         11    1    3    3    0    0 -0.22828230426E+02 -0.49031850453E+01  0.46522040330E+02  0.52052565398E+02  0.00000000000E+00 0. -1.
          1    1    1    2  501    0 -0.47602327888E+01  0.15253190851E+03  0.47293743839E+03  0.49694915591E+03  0.00000000000E+00 0. -1.
<scales pt_clust_5="13000.00000" pt_clust_6="13000.00000" pt_clust_7="13000.00000" pt_clust_8="13000.00000" pt_clust_9="152.56348"></scales>
<clustering>
<clus scale="   91.535">  7  8 -1 -1</clus>
<clus scale="   99.210">  2  7  1 -1</clus>
<clus scale="  101.227">  5  6 -1 -1</clus>
<clus scale="  152.563">  1  9  2 -1</clus>
<clus scale="  152.563">  1  5  2 -1</clus>
</clustering>
</event>
<event>
 9    2  0.1302972E-004  0.1278090E+03  0.7546771E-02  0.1249233E+00
          2   -1    0    0  502    0 -0.00000000000E+00  0.00000000000E+00  0.69626059852E+02  0.69626059852E+02  0.00000000000E+00 0. -1.
         21   -1    0    0  501  502  0.00000000000E+00 -0.00000000000E+00 -0.53644063038E+03  0.53644063038E+03  0.00000000000E+00 0. -1.
         24    2    1    2    0    0 -0.32318424237E+02 -0.23786223124E+01 -0.11481026745E+02  0.88541143720E+02  0.81594005704E+02 0.  0.
         23    2    1    2    0    0 -0.61974613682E+02 -0.20309010013E+02 -0.10206271985E+03  0.15118392903E+03  0.90479130102E+02 0.  0.
        -11    1    3    3    0    0 -0.55358725243E+02  0.41065095652E+01 -0.25188637619E+02  0.60958341074E+02  0.00000000000E+00 0.  1.
         12    1    3    3    0    0  0.23040301006E+02 -0.64851318776E+01  0.13707610875E+02  0.27582802646E+02  0.00000000000E+00 0. -1.
        -13    1    4    4    0    0 -0.71398301737E+02 -0.44033651192E+02 -0.64720825247E+02  0.10595029565E+03  0.00000000000E+00 0. -1.
         13    1    4    4    0    0  0.94236880553E+01  0.23724641179E+02 -0.37341894606E+02  0.45233633376E+02  0.00000000000E+00 0.  1.
          1    1    1    2  501    0  0.94293037919E+02  0.22687632325E+02 -0.35327082393E+03  0.36634161748E+03  0.00000000000E+00 0. -1.
<scales pt_clust_5="13000.00000" pt_clust_6="13000.00000" pt_clust_7="13000.00000" pt_clust_8="13000.00000" pt_clust_9="90.27000"></scales>
<clustering>
<clus scale="   81.594">  5  6 -1 -1</clus>
<clus scale="   87.794">  1  5  2 -1</clus>
<clus scale="   90.270">  2  9  1 -1</clus>
<clus scale="   90.479">  7  8 -1 -1</clus>
<clus scale="   90.270">  2  5  1 -1</clus>
</clustering>
</event>
<event>
 9    2  0.1302972E-004  0.9005805E+02  0.7546771E-02  0.1308551E+00
         21   -1    0    0  501  502  0.00000000000E+00  0.00000000000E+00  0.33696536520E+02  0.33696536520E+02  0.00000000000E+00 0. -1.
          2   -1    0    0  502    0 -0.00000000000E+00 -0.00000000000E+00 -0.32657778031E+03  0.32657778031E+03  0.00000000000E+00 0. -1.
         23    2    1    2    0    0 -0.11669397621E+02 -0.48724470443E+02 -0.12624541837E+03  0.15267760846E+03  0.69730177155E+02 0.  0.
         24    2    1    2    0    0  0.10573360011E+02  0.26261707649E+02 -0.75339752023E+02  0.11357144565E+03  0.80130654571E+02 0.  0.
        -13    1    4    4    0    0 -0.31291573686E+02  0.25863844162E+02 -0.50850784516E+02  0.65068450915E+02  0.00000000000E+00 0.  1.
         14    1    4    4    0    0  0.41864933697E+02  0.39786348679E+00 -0.24488967507E+02  0.48502994737E+02  0.00000000000E+00 0. -1.
        -11    1    3    3    0    0  0.15827670466E+02 -0.21759047826E+02 -0.10561266651E+03  0.10898626814E+03  0.00000000000E+00 0.  1.
         11    1    3    3    0    0 -0.27497068087E+02 -0.26965422617E+02 -0.20632751857E+02  0.43691340326E+02  0.00000000000E+00 0. -1.
          1    1    1    2  501    0  0.10960376098E+01  0.22462762795E+02 -0.91296073394E+02  0.94025262711E+02  0.00000000000E+00 0. -1.
<scales pt_clust_5="13000.00000" pt_clust_6="13000.00000" pt_clust_7="13000.00000" pt_clust_8="13000.00000" pt_clust_9="22.48950"></scales>
<clustering>
<clus scale="   22.489">  1  9  2 -1</clus>
<clus scale="   69.730">  7  8 -1 -1</clus>
<clus scale="   80.131">  5  6 -1 -1</clus>
<clus scale="   80.943">  2  7  1 -1</clus>
<clus scale="   22.489">  1  5  2 -1</clus>
</clustering>
</event>
<event>
 9    2  0.1302972E-004  0.9586673E+02  0.7546771E-02  0.1294142E+00
         21   -1    0    0  501  502  0.00000000000E+00  0.00000000000E+00  0.20910645994E+03  0.20910645994E+03  0.00000000000E+00 0. -1.
          2   -1    0    0  502    0 -0.00000000000E+00 -0.00000000000E+00 -0.13925452199E+03  0.13925452199E+03  0.00000000000E+00 0. -1.
         24    2    1    2    0    0 -0.10238688771E+02  0.27634039725E+02 -0.79806897644E+02  0.11722554941E+03  0.80648729835E+02 0.  0.
         23    2    1    2    0    0  0.17661119044E+02 -0.71257045186E+02  0.14645909457E+03  0.18676993445E+03  0.89684226137E+02 0.  0.
        -11    1    3    3    0    0  0.20923032742E+02  0.34672327600E+02 -0.11946818093E+02  0.42221677642E+02  0.00000000000E+00 0.  1.
         12    1    3    3    0    0 -0.31161721512E+02 -0.70382878752E+01 -0.67860079551E+02  0.75003871770E+02  0.00000000000E+00 0. -1.
        -11    1    4    4    0    0 -0.11296373317E+02 -0.80523453987E+02  0.12657134898E+03  0.15043916071E+03  0.00000000000E+00 0. -1.
         11    1    4    4    0    0  0.28957492362E+02  0.92664088008E+01  0.19887745585E+02  0.36330773738E+02  0.00000000000E+00 0.  1.
          1    1    1    2  501    0 -0.74224302737E+01  0.43623005461E+02  0.31997410254E+01  0.44365498073E+02  0.00000000000E+00 0. -1.
<scales pt_clust_5="13000.00000" pt_clust_6="13000.00000" pt_clust_7="13000.00000" pt_clust_8="13000.00000" pt_clust_9="44.24998"></scales>
<clustering>
<clus scale="   44.250">  1  9  2 -1</clus>
<clus scale="   80.649">  5  6 -1 -1</clus>
<clus scale="   87.472">  2  5  1 -1</clus>
<clus scale="   89.684">  7  8 -1 -1</clus>
<clus scale="   44.250">  1  5  2 -1</clus>
</clustering>
</event>
<event>
 9    2  0.1302972E-004  0.1216762E+03  0.7546771E-02  0.1242472E+00
          2   -1    0    0  502    0 -0.00000000000E+00  0.00000000000E+00  0.25948448876E+03  0.25948448876E+03  0.00000000000E+00 0. -1.
         21   -1    0    0  501  502  0.00000000000E+00 -0.00000000000E+00 -0.21822246580E+03  0.21822246580E+03  0.00000000000E+00 0.  1.
         23    2    1    2    0    0 -0.23072890649E+02  0.81227053618E+02  0.21098206476E+03  0.24645536900E+03  0.95376227334E+02 0.  0.
         24    2    1    2    0    0  0.11513949030E+02 -0.27197076532E+02 -0.68567638477E+02  0.11599250240E+03  0.88772110327E+02 0.  0.
        -11    1    4    4    0    0 -0.47582258531E+01 -0.31543660643E+02 -0.86016220219E+02  0.91741121536E+02  0.00000000000E+00 0.  1.
         12    1    4    4    0    0  0.16272174883E+02  0.43465841104E+01  0.17448581742E+02  0.24251380861E+02  0.00000000000E+00 0. -1.
        -13    1    3    3    0    0 -0.31895074538E+02  0.45354328964E+02  0.32667322815E+02  0.64354214434E+02  0.00000000000E+00 0. -1.
         13    1    3    3    0    0  0.88221838892E+01  0.35872724654E+02  0.17831474194E+03  0.18210115457E+03  0.00000000000E+00 0.  1.
          1    1    1    2  501    0  0.11558941619E+02 -0.54029977086E+02 -0.10115240332E+03  0.11525908317E+03  0.00000000000E+00 0. -1.
<scales pt_clust_5="13000.00000" pt_clust_6="13000.00000" pt_clust_7="13000.00000" pt_clust_8="13000.00000" pt_clust_9="55.25258"></scales>
<clustering>
<clus scale="   55.253">  2  9  1 -1</clus>
<clus scale="   88.772">  5  6 -1 -1</clus>
<clus scale="   95.376">  7  8 -1 -1</clus>
<clus scale="  116.572">  2  5  1 -1</clus>
<clus scale="   55.253">  2  5  1 -1</clus>
</clustering>
</event>
<event>
 9    2  0.1302972E-004  0.2385228E+03  0.7546771E-02  0.1122393E+00
          2   -1    0    0  502    0 -0.00000000000E+00  0.00000000000E+00  0.71124056859E+03  0.71124056859E+03  0.00000000000E+00 0. -1.
         21   -1    0    0  501  502  0.00000000000E+00 -0.00000000000E+00 -0.21671498585E+03  0.21671498585E+03  0.00000000000E+00 0. -1.
         24    2    1    2    0    0  0.14162928206E+03  0.16487007247E+03  0.59916804651E+03  0.64256501957E+03  0.81525836905E+02 0.  0.
         23    2    1    2    0    0 -0.14686075981E+03 -0.12179261295E+03 -0.10543104686E+03  0.24198940882E+03  0.10507923201E+03 0.  0.
        -11    1    3    3    0    0  0.43137316268E+02  0.43706529537E+01  0.96960679221E+02  0.10621348303E+03  0.00000000000E+00 0.  1.
         12    1    3    3    0    0  0.98491965789E+02  0.16049941952E+03  0.50220736729E+03  0.53635153654E+03  0.00000000000E+00 0. -1.
        -11    1    4    4    0    0  0.12763825472E+01 -0.43435209092E+02  0.99861856602E+00  0.43465432015E+02  0.00000000000E+00 0.  1.
         11    1    4    4    0    0 -0.14813714235E+03 -0.78357403856E+02 -0.10642966543E+03  0.19852397681E+03  0.00000000000E+00 0. -1.
          1    1    1    2  501    0  0.52314777473E+01 -0.43077459523E+02  0.78858309274E+00  0.43401126041E+02  0.00000000000E+00 0. -1.
<scales pt_clust_5="13000.00000" pt_clust_6="13000.00000" pt_clust_7="13000.00000" pt_clust_8="13000.00000" pt_clust_9="43.39396"></scales>
<clustering>
<clus scale="   43.394">  2  9  1 -1</clus>
<clus scale="   81.526">  5  6 -1 -1</clus>
<clus scale="  105.079">  7  8 -1 -1</clus>
<clus scale="  229.124">  1  5  2 -1</clus>
<clus scale="   43.394">  2  5  1 -1</clus>
</clustering>
</event>
<event>
 9    2  0.1302972E-004  0.1096182E+03  0.7546771E-02  0.1268741E+00
         21   -1    0    0  501  502  0.00000000000E+00  0.00000000000E+00  0.71800711576E+02  0.71800711576E+02  0.00000000000E+00 0.  1.
          2   -1    0    0  502    0 -0.00000000000E+00 -0.00000000000E+00 -0.41680888920E+03  0.41680888920E+03  0.00000000000E+00 0. -1.
         23    2    1    2    0    0  0.46033465009E+02  0.36989962506E+02 -0.34629334684E+03  0.36391608987E+03  0.95018425468E+02 0.  0.
         24    2    1    2    0    0 -0.16122545470E+02 -0.37586086815E+02 -0.17599013169E+02  0.89315116136E+02  0.77426186212E+02 0.  0.
        -11    1    4    4    0    0 -0.43121745810E+02 -0.32078746530E+02  0.45842337459E+01  0.53940208932E+02  0.00000000000E+00 0.  1.
         12    1    4    4    0    0  0.26999200340E+02 -0.55073402857E+01 -0.22183246915E+02  0.35374907204E+02  0.00000000000E+00 0. -1.
        -11    1    3    3    0    0  0.66532649625E+02  0.53550711991E+02 -0.27144907737E+03  0.28456787209E+03  0.00000000000E+00 0. -1.
         11    1    3    3    0    0 -0.20499184616E+02 -0.16560749485E+02 -0.74844269465E+02  0.79348217782E+02  0.00000000000E+00 0.  1.
          1    1    1    2  501    0 -0.29910919539E+02  0.59612430924E+00  0.18884182383E+02  0.35378394765E+02  0.00000000000E+00 0. -1.
<scales pt_clust_5="13000.00000" pt_clust_6="13000.00000" pt_clust_7="13000.00000" pt_clust_8="13000.00000" pt_clust_9="29.91686"></scales>
<clustering>
<clus scale="   29.917">  1  9  2 -1</clus>
<clus scale="   77.426">  5  6 -1 -1</clus>
<clus scale="   94.776">  1  5  2 -1</clus>
<clus scale="   95.018">  7  8 -1 -1</clus>
<clus scale="   29.917">  1  5  2 -1</clus>
</clustering>
</event>
<event>
 9    2  0.1302972E-004  0.1491683E+03  0.7546771E-02  0.1217728E+00
         21   -1    0    0  501  502  0.00000000000E+00  0.00000000000E+00  0.18180299230E+03  0.18180299230E+03  0.00000000000E+00 0.  1.
          2   -1    0    0  502    0 -0.00000000000E+00 -0.00000000000E+00 -0.36462511214E+03  0.36462511214E+03  0.00000000000E+00 0. -1.
         24    2    1    2    0    0  0.31309445087E+02 -0.60697934598E+02 -0.24234592049E+03  0.26429564991E+03  0.80350014114E+02 0.  0.
         23    2    1    2    0    0 -0.10389266110E+03 -0.43803397741E+02  0.12106480734E+02  0.14634860447E+03  0.92514455463E+02 0.  0.
        -13    1    3    3    0    0  0.46631964046E+02 -0.49437474119E+01 -0.93162367382E+02  0.10429864527E+03  0.00000000000E+00 0.  1.
         14    1    3    3    0    0 -0.15322518959E+02 -0.55754187186E+02 -0.14918355311E+03  0.15999700464E+03  0.00000000000E+00 0. -1.
        -11    1    4    4    0    0 -0.95166082546E+02  0.54183134635E+01  0.13893278317E+02  0.96327382246E+02  0.00000000000E+00 0.  1.
         11    1    4    4    0    0 -0.87265785582E+01 -0.49221711205E+02 -0.17867975833E+01  0.50021222225E+02  0.00000000000E+00 0. -1.
          1    1    1    2  501    0  0.72583216017E+02  0.10450133234E+03  0.47417319914E+02  0.13578385006E+03  0.00000000000E+00 0. -1.
<scales pt_clust_5="13000.00000" pt_clust_6="13000.00000" pt_clust_7="13000.00000" pt_clust_8="13000.00000" pt_clust_9="117.01387"></scales>
<clustering>
<clus scale="   80.350">  5  6 -1 -1</clus>
<clus scale="   92.514">  7  8 -1 -1</clus>
<clus scale="  105.454">  2  5  1 -1</clus>
<clus scale="  117.014">  1  9  2 -1</clus>
<clus scale="  117.014">  1  5  2 -1</clus>
</clustering>
</event>
<event>
 9    2  0.1302972E-004  0.1387667E+03  0.7546771E-02  0.1229533E+00
         21   -1    0    0  501  502  0.00000000000E+00  0.00000000000E+00  0.34156559761E+03  0.34156559761E+03  0.00000000000E+00 0. -1.
          4   -1    0    0  502    0 -0.00000000000E+00 -0.00000000000E+00 -0.15081747632E+03  0.15081747632E+03  0.00000000000E+00 0. -1.
         24    2    1    2    0    0  0.33996395863E+01  0.63369107600E+02  0.11633065899E+03  0.15497056775E+03  0.80348324804E+02 0.  0.
         23    2    1    2    0    0 -0.43136806161E+02  0.44932765045E+02 -0.87291670995E+02  0.13877166995E+03  0.88079527334E+02 0.  0.
        -13    1    3    3    0    0  0.21488529256E+02 -0.11641681879E+02  0.36660803916E+02  0.44060188270E+02  0.00000000000E+00 0.  1.
         14    1    3    3    0    0 -0.18088889670E+02  0.75010789479E+02  0.79669855078E+02  0.11091037948E+03  0.00000000000E+00 0. -1.
        -13    1    4    4    0    0 -0.31116167250E+02 -0.21073087824E+02 -0.15910504347E+02  0.40809742015E+02  0.00000000000E+00 0.  1.
         13    1    4    4    0    0 -0.12020638912E+02  0.66005852869E+02 -0.71381166648E+02  0.97961927936E+02  0.00000000000E+00 0. -1.
          3    1    1    2  501    0  0.39737166575E+02 -0.10830187264E+03  0.16170913329E+03  0.19864083622E+03  0.00000000000E+00 0. -1.
<scales pt_clust_5="13000.00000" pt_clust_6="13000.00000" pt_clust_7="13000.00000" pt_clust_8="13000.00000" pt_clust_9="107.22962"></scales>
<clustering>
<clus scale="   80.348">  5  6 -1 -1</clus>
<clus scale="   88.080">  7  8 -1 -1</clus>
<clus scale="  102.387">  2  5  1 -1</clus>
<clus scale="  107.230">  1  9  2 -1</clus>
<clus scale="  107.230">  1  5  2 -1</clus>
</clustering>
</event>
<event>
 9    2  0.1302972E-004  0.1257654E+03  0.7546771E-02  0.1253615E+00
         21   -1    0    0  501  502  0.00000000000E+00  0.00000000000E+00  0.71258552814E+02  0.71258552814E+02  0.00000000000E+00 0.  1.
          2   -1    0    0  502    0 -0.00000000000E+00 -0.00000000000E+00 -0.39226204487E+03  0.39226204487E+03  0.00000000000E+00 0. -1.
         24    2    1    2    0    0  0.62295368325E+01  0.27700863057E+02 -0.11396272781E+02  0.85203715534E+02  0.79521400668E+02 0.  0.
         23    2    1    2    0    0  0.24771487278E+02  0.67864090116E+02 -0.15364654997E+03  0.19279746500E+03  0.91347900261E+02 0.  0.
        -13    1    3    3    0    0  0.84175173011E+01  0.21473129848E+02  0.33032277347E+02  0.40287482544E+02  0.00000000000E+00 0.  1.
         14    1    3    3    0    0 -0.21879804686E+01  0.62277332092E+01 -0.44428550129E+02  0.44916232990E+02  0.00000000000E+00 0. -1.
        -13    1    4    4    0    0  0.54471811967E+02  0.24099588152E+02 -0.10610248001E+03  0.12167869457E+03  0.00000000000E+00 0.  1.
         13    1    4    4    0    0 -0.29700324688E+02  0.43764501964E+02 -0.47544069965E+02  0.71118770431E+02  0.00000000000E+00 0. -1.
          1    1    1    2  501    0 -0.31001024111E+02 -0.95564953173E+02 -0.15596066930E+03  0.18551941715E+03  0.00000000000E+00 0. -1.
<scales pt_clust_5="13000.00000" pt_clust_6="13000.00000" pt_clust_7="13000.00000" pt_clust_8="13000.00000" pt_clust_9="86.44369"></scales>
<clustering>
<clus scale="   79.521">  5  6 -1 -1</clus>
<clus scale="   84.438">  2  5  1 -1</clus>
<clus scale="   86.444">  1  9  2 -1</clus>
<clus scale="   91.348">  7  8 -1 -1</clus>
<clus scale="   86.444">  1  5  2 -1</clus>
</clustering>
</event>
<event>
 9    2  0.1302972E-004  0.2757507E+03  0.7546771E-02  0.1098797E+00
          2   -1    0    0  502    0 -0.00000000000E+00  0.00000000000E+00  0.15151916162E+04  0.15151916162E+04  0.00000000000E+00 0. -1.
         21   -1    0    0  501  502  0.00000000000E+00 -0.00000000000E+00 -0.79656060913E+02  0.79656060913E+02  0.00000000000E+00 0. -1.
         23    2    1    2    0    0  0.46493246401E+02 -0.25938825695E+03  0.71934942768E+03  0.77240685087E+03  0.98513219260E+02 0.  0.
         24    2    1    2    0    0 -0.15220974247E+03  0.21505230583E+03  0.39867152894E+03  0.48486539101E+03  0.82098474177E+02 0.  0.
        -13    1    4    4    0    0 -0.72272255627E+02  0.42681919041E+02  0.96223607701E+02  0.12768714824E+03  0.00000000000E+00 0.  1.
         14    1    4    4    0    0 -0.79937486848E+02  0.17237038679E+03  0.30244792124E+03  0.35717824277E+03  0.00000000000E+00 0. -1.
        -13    1    3    3    0    0  0.54261942904E+02 -0.22347314906E+03  0.50454316775E+03  0.55448031067E+03  0.00000000000E+00 0. -1.
         13    1    3    3    0    0 -0.77686965032E+01 -0.35915107892E+02  0.21480625993E+03  0.21792654020E+03  0.00000000000E+00 0.  1.
          1    1    1    2  501    0  0.10571649607E+03  0.44335951121E+02  0.31751459862E+03  0.33757543519E+03  0.00000000000E+00 0. -1.
<scales pt_clust_5="13000.00000" pt_clust_6="13000.00000" pt_clust_7="13000.00000" pt_clust_8="13000.00000" pt_clust_9="114.63711"></scales>
<clustering>
<clus scale="   82.098">  5  6 -1 -1</clus>
<clus scale="   98.513">  7  8 -1 -1</clus>
<clus scale="  114.637">  2  9  1 -1</clus>
<clus scale="  270.322">  2  5  1 -1</clus>
<clus scale="  114.637">  2  5  1 -1</clus>
</clustering>
</event>
<event>
 9    2  0.1302972E-004  0.1022158E+03  0.7546771E-02  0.1283947E+00
          2   -1    0    0  502    0 -0.00000000000E+00  0.00000000000E+00  0.14879697048E+03  0.14879697048E+03  0.00000000000E+00 0. -1.
         21   -1    0    0  501  502  0.00000000000E+00 -0.00000000000E+00 -0.10810929587E+03  0.10810929587E+03  0.00000000000E+00 0. -1.
         24    2    1    2    0    0 -0.28687297381E+02 -0.31351878266E+02  0.66373804800E+02  0.11172338543E+03  0.79187951011E+02 0.  0.
         23    2    1    2    0    0  0.25685070760E+02  0.11396462768E+02  0.14299322810E+02  0.10039372573E+03  0.95314360456E+02 0.  0.
        -13    1    3    3    0    0  0.12332949172E+02 -0.28895720025E+02  0.63113048851E+02  0.70500505008E+02  0.00000000000E+00 0.  1.
         14    1    3    3    0    0 -0.41020246553E+02 -0.24561582408E+01  0.32607559491E+01  0.41222880417E+02  0.00000000000E+00 0. -1.
        -11    1    4    4    0    0 -0.30982032929E+02  0.25940132927E+02  0.11158292789E+01  0.40423037190E+02  0.00000000000E+00 0.  1.
         11    1    4    4    0    0  0.56667103688E+02 -0.14543670159E+02  0.13183493531E+02  0.59970688539E+02  0.00000000000E+00 0. -1.
          1    1    1    2  501    0  0.30022266213E+01  0.19955415498E+02 -0.39985453000E+02  0.44789155205E+02  0.00000000000E+00 0. -1.
<scales pt_clust_5="13000.00000" pt_clust_6="13000.00000" pt_clust_7="13000.00000" pt_clust_8="13000.00000" pt_clust_9="20.17999"></scales>
<clustering>
<clus scale="   20.180">  2  9  1 -1</clus>
<clus scale="   79.188">  5  6 -1 -1</clus>
<clus scale="   87.373">  1  5  2 -1</clus>
<clus scale="   95.314">  7  8 -1 -1</clus>
<clus scale="   20.180">  2  5  1 -1</clus>
</clustering>
</event>
<event>
 9    2  0.1302972E-004  0.1991133E+03  0.7546771E-02  0.1151677E+00
         21   -1    0    0  501  502  0.00000000000E+00  0.00000000000E+00  0.85030927655E+03  0.85030927655E+03  0.00000000000E+00 0.  1.
          2   -1    0    0  502    0 -0.00000000000E+00 -0.00000000000E+00 -0.13469288541E+03  0.13469288541E+03  0.00000000000E+00 0. -1.
         23    2    1    2    0    0  0.16567301370E+03  0.69078606111E+02  0.76597040338E+01  0.20210377641E+03  0.92562757539E+02 0.  0.
         24    2    1    2    0    0 -0.13355725439E+03 -0.78936505796E+02  0.72465460264E+03  0.74538278125E+03  0.80016781371E+02 0.  0.
        -13    1    4    4    0    0 -0.12427611929E+03 -0.44723150038E+02  0.64202301425E+03  0.65546797389E+03  0.00000000000E+00 0.  1.
         14    1    4    4    0    0 -0.92811350990E+01 -0.34213355757E+02  0.82631588395E+02  0.89914807354E+02  0.00000000000E+00 0. -1.
        -11    1    3    3    0    0  0.62410192239E+02  0.32068292734E+02 -0.41908313292E+02  0.81729518641E+02  0.00000000000E+00 0.  1.
         11    1    3    3    0    0  0.10326282146E+03  0.37010313376E+02  0.49568017326E+02  0.12037425777E+03  0.00000000000E+00 0. -1.
          1    1    1    2  501    0 -0.32115759317E+02  0.98578996851E+01 -0.16697915537E+02  0.37515604300E+02  0.00000000000E+00 0. -1.
<scales pt_clust_5="13000.00000" pt_clust_6="13000.00000" pt_clust_7="13000.00000" pt_clust_8="13000.00000" pt_clust_9="33.59466"></scales>
<clustering>
<clus scale="   33.595">  1  9  2 -1</clus>
<clus scale="   80.017">  5  6 -1 -1</clus>
<clus scale="   92.563">  7  8 -1 -1</clus>
<clus scale="  193.600">  1  5  2 -1</clus>
<clus scale="   33.595">  1  5  2 -1</clus>
</clustering>
</event>
<event>
 9    2  0.1302972E-004  0.1047184E+03  0.7546771E-02  0.1274810E+00
         21   -1    0    0  501  502  0.00000000000E+00  0.00000000000E+00  0.10164732118E+03  0.10164732118E+03  0.00000000000E+00 0. -1.
         -3   -1    0    0    0  501 -0.00000000000E+00 -0.00000000000E+00 -0.16869900572E+03  0.16869900572E+03  0.00000000000E+00 0.  1.
         24    2    1    2    0    0  0.36603316740E+02 -0.12978131853E+02 -0.38489919871E+02  0.96352366857E+02  0.79335174825E+02 0.  0.
         23    2    1    2    0    0 -0.77708686737E+02  0.11421276637E+02 -0.48627249600E+02  0.12822607909E+03  0.88928242992E+02 0.  0.
        -11    1    3    3    0    0  0.46034952319E+02 -0.32719377539E+01 -0.57051193708E+02  0.73380931551E+02  0.00000000000E+00 0.  1.
         12    1    3    3    0    0 -0.94316355790E+01 -0.97061940991E+01  0.18561273837E+02  0.22971435307E+02  0.00000000000E+00 0. -1.
        -11    1    4    4    0    0 -0.48729287839E+02  0.94563349296E-01 -0.73641051361E+02  0.88303776143E+02  0.00000000000E+00 0.  1.
         11    1    4    4    0    0 -0.28979398898E+02  0.11326713287E+02  0.25013801761E+02  0.39922302951E+02  0.00000000000E+00 0. -1.
         -4    1    1    2    0  502  0.41105369997E+02  0.15568552162E+01  0.20065484931E+02  0.45767880946E+02  0.00000000000E+00 0.  1.
<scales pt_clust_5="13000.00000" pt_clust_6="13000.00000" pt_clust_7="13000.00000" pt_clust_8="13000.00000" pt_clust_9="41.13484"></scales>
<clustering>
<clus scale="   41.135">  1  9  2 -1</clus>
<clus scale="   79.335">  5  6 -1 -1</clus>
<clus scale="   88.928">  7  8 -1 -1</clus>
<clus scale="   96.705">  2  5  1 -1</clus>
<clus scale="   41.135">  1  5  2 -1</clus>
</clustering>
</event>
<event>
 9    2  0.1302972E-004  0.2198773E+03  0.7546771E-02  0.1134267E+00
         21   -1    0    0  501  502  0.00000000000E+00  0.00000000000E+00  0.10147682950E+04  0.10147682950E+04  0.00000000000E+00 0.  1.
         -3   -1    0    0    0  501 -0.00000000000E+00 -0.00000000000E+00 -0.62916400500E+02  0.62916400500E+02  0.00000000000E+00 0.  1.
         24    2    1    2    0    0  0.21196992696E+03  0.66579754258E+02  0.39759324339E+03  0.46245178477E+03  0.80107130992E+02 0.  0.
         23    2    1    2    0    0 -0.18244102028E+03 -0.16649419440E+02  0.48260818137E+03  0.52304405848E+03  0.84276339119E+02 0.  0.
        -11    1    3    3    0    0  0.12701092395E+03  0.79855032182E+02  0.24442006339E+03  0.28679220414E+03  0.00000000000E+00 0.  1.
         12    1    3    3    0    0  0.84959003009E+02 -0.13275277923E+02  0.15317318000E+03  0.17565958063E+03  0.00000000000E+00 0. -1.
        -11    1    4    4    0    0 -0.16130787889E+03 -0.43155639229E+02  0.41713521663E+03  0.44931551268E+03  0.00000000000E+00 0.  1.
         11    1    4    4    0    0 -0.21133141392E+02  0.26506219789E+02  0.65472964746E+02  0.73728545796E+02  0.00000000000E+00 0. -1.
         -4    1    1    2    0  502 -0.29528906681E+02 -0.49930334818E+02  0.71650469725E+02  0.92188852236E+02  0.00000000000E+00 0.  1.
<scales pt_clust_5="13000.00000" pt_clust_6="13000.00000" pt_clust_7="13000.00000" pt_clust_8="13000.00000" pt_clust_9="58.00860"></scales>
<clustering>
<clus scale="   58.009">  1  9  2 -1</clus>
<clus scale="   80.107">  5  6 -1 -1</clus>
<clus scale="   84.276">  7  8 -1 -1</clus>
<clus scale="  218.313">  2  5  1 -1</clus>
<clus scale="   58.009">  1  5  2 -1</clus>
</clustering>
</event>
<event>
 9    2  0.1302972E-004  0.9509216E+02  0.7546771E-02  0.1297339E+00
         -1   -1    0    0    0  501 -0.00000000000E+00  0.00000000000E+00  0.24387456501E+02  0.24387456501E+02  0.00000000000E+00 0.  1.
         21   -1    0    0  501  502  0.00000000000E+00 -0.00000000000E+00 -0.71057772960E+03  0.71057772960E+03  0.00000000000E+00 0. -1.
         24    2    1    2    0    0 -0.51774945750E+01  0.17484774033E+02 -0.11563982166E+03  0.14163500396E+03  0.79720651160E+02 0.  0.
         23    2    1    2    0    0 -0.16395973409E+02 -0.62747275487E+02 -0.42306030169E+03  0.43755003953E+03  0.90906378747E+02 0.  0.
        -11    1    3    3    0    0  0.82492154524E+01  0.47679246267E+02 -0.75021113631E+02  0.89272210517E+02  0.00000000000E+00 0.  1.
         12    1    3    3    0    0 -0.13426710027E+02 -0.30194472234E+02 -0.40618708024E+02  0.52362793443E+02  0.00000000000E+00 0. -1.
        -13    1    4    4    0    0 -0.29365976246E+02 -0.82508103446E+02 -0.34831439330E+03  0.35915576603E+03  0.00000000000E+00 0. -1.
         13    1    4    4    0    0  0.12970002836E+02  0.19760827959E+02 -0.74745908397E+02  0.78394273498E+02  0.00000000000E+00 0.  1.
         -2    1    1    2    0  502  0.21573467984E+02  0.45262501455E+02 -0.14749014975E+03  0.15578014261E+03  0.00000000000E+00 0.  1.
<scales pt_clust_5="13000.00000" pt_clust_6="13000.00000" pt_clust_7="13000.00000" pt_clust_8="13000.00000" pt_clust_9="50.14089"></scales>
<clustering>
<clus scale="   50.141">  2  9  1 -1</clus>
<clus scale="   79.721">  5  6 -1 -1</clus>
<clus scale="   84.463">  1  5  2 -1</clus>
<clus scale="   90.906">  7  8 -1 -1</clus>
<clus scale="   50.141">  2  5  1 -1</clus>
</clustering>
</event>
<event>
 9    2  0.1302972E-004  0.1448043E+03  0.7546771E-02  0.1209204E+00
         -3   -1    0    0    0  501 -0.00000000000E+00  0.00000000000E+00  0.37150963087E+03  0.37150963087E+03  0.00000000000E+00 0.  1.
         21   -1    0    0  501  502  0.00000000000E+00 -0.00000000000E+00 -0.96468581090E+02  0.96468581090E+02  0.00000000000E+00 0.  1.
         23    2    1    2    0    0  0.63539078508E+02  0.89879044692E+02  0.21635998606E+03  0.25873552448E+03  0.89537538989E+02 0.  0.
         24    2    1    2    0    0 -0.10491686957E+03 -0.72569236416E+02  0.66358356673E+02  0.16373783188E+03  0.78312211656E+02 0.  0.
        -13    1    4    4    0    0 -0.10415457270E+03 -0.86091495102E+02  0.54393308538E+02  0.14566589360E+03  0.00000000000E+00 0.  1.
         14    1    4    4    0    0 -0.76229686816E+00  0.13522258686E+02  0.11965048135E+02  0.18071938285E+02  0.00000000000E+00 0. -1.
        -13    1    3    3    0    0  0.53196758028E+01  0.82706181892E+02  0.13557277154E+03  0.15889804233E+03  0.00000000000E+00 0.  1.
         13    1    3    3    0    0  0.58219402705E+02  0.71728627998E+01  0.80787214524E+02  0.99837482153E+02  0.00000000000E+00 0. -1.
         -4    1    1    2    0  502  0.41377791061E+02 -0.17309808276E+02 -0.76772929554E+01  0.45504855595E+02  0.00000000000E+00 0.  1.
<scales pt_clust_5="13000.00000" pt_clust_6="13000.00000" pt_clust_7="13000.00000" pt_clust_8="13000.00000" pt_clust_9="44.85255"></scales>
<clustering>
<clus scale="   44.853">  2  9  1 -1</clus>
<clus scale="   78.312">  5  6 -1 -1</clus>
<clus scale="   89.538">  7  8 -1 -1</clus>
<clus scale="  138.145">  2  5  1 -1</clus>
<clus scale="   44.853">  2  5  1 -1</clus>
</clustering>
</event>
<event>
 9    2  0.1302972E-004  0.9800013E+02  0.7546771E-02  0.1292580E+00
          2   -1    0    0  502    0 -0.00000000000E+00  0.00000000000E+00  0.36300824958E+03  0.36300824958E+03  0.00000000000E+00 0. -1.
         21   -1    0    0  501  502  0.00000000000E+00 -0.00000000000E+00 -0.63028691159E+02  0.63028691159E+02  0.00000000000E+00 0.  1.
         24    2    1    2    0    0  0.43523532614E+02  0.27229581279E+02  0.20608328018E+03  0.22533524886E+03  0.75298791623E+02 0.  0.
         23    2    1    2    0    0  0.22985631193E+02 -0.24345574351E+01  0.14840781880E+02  0.94456533959E+02  0.90374341986E+02 0.  0.
        -13    1    3    3    0    0 -0.16934121381E+01  0.38073710839E+02  0.52550622598E+02  0.64915660954E+02  0.00000000000E+00 0.  1.
         14    1    3    3    0    0  0.45216944752E+02 -0.10844129560E+02  0.15353265758E+03  0.16041958790E+03  0.00000000000E+00 0. -1.
        -11    1    4    4    0    0 -0.65522067931E+01 -0.39943413147E+02  0.22175029675E+02  0.46153435503E+02  0.00000000000E+00 0. -1.
         11    1    4    4    0    0  0.29537837986E+02  0.37508855712E+02 -0.73342477946E+01  0.48303098455E+02  0.00000000000E+00 0.  1.
          1    1    1    2  501    0 -0.66509163807E+02 -0.24795023844E+02  0.79055496365E+02  0.10624515793E+03  0.00000000000E+00 0. -1.
<scales pt_clust_5="13000.00000" pt_clust_6="13000.00000" pt_clust_7="13000.00000" pt_clust_8="13000.00000" pt_clust_9="70.98075"></scales>
<clustering>
<clus scale="   70.981">  2  9  1 -1</clus>
<clus scale="   75.299">  5  6 -1 -1</clus>
<clus scale="   84.300">  1  5  2 -1</clus>
<clus scale="   90.374">  7  8 -1 -1</clus>
<clus scale="   70.981">  2  5  1 -1</clus>
</clustering>
</event>
<event>
 9    2  0.1302972E-004  0.3218238E+03  0.7546771E-02  0.1075365E+00
          2   -1    0    0  502    0 -0.00000000000E+00  0.00000000000E+00  0.80490734861E+03  0.80490734861E+03  0.00000000000E+00 0. -1.
         21   -1    0    0  501  502  0.00000000000E+00 -0.00000000000E+00 -0.44536276518E+03  0.44536276518E+03  0.00000000000E+00 0.  1.
         23    2    1    2    0    0 -0.19148639767E+03  0.24132489360E+03  0.69192436496E+03  0.76366957004E+03  0.97607072536E+02 0.  0.
         24    2    1    2    0    0  0.21441245885E+03 -0.20447433101E+03 -0.26047067644E+03  0.40260954638E+03  0.80417777875E+02 0.  0.
        -11    1    4    4    0    0  0.21641799184E+03 -0.17892392371E+03 -0.24509236493E+03  0.37272078694E+03  0.00000000000E+00 0.  1.
         12    1    4    4    0    0 -0.20055329938E+01 -0.25550407308E+02 -0.15378311508E+02  0.29888759443E+02  0.00000000000E+00 0. -1.
        -13    1    3    3    0    0 -0.24597175524E+02  0.61826787210E+01  0.19382392963E+02  0.31920584532E+02  0.00000000000E+00 0.  1.
         13    1    3    3    0    0 -0.16688922215E+03  0.23514221488E+03  0.67254197200E+03  0.73174898550E+03  0.00000000000E+00 0. -1.
          1    1    1    2  501    0 -0.22926061182E+02 -0.36850562587E+02 -0.71909105098E+02  0.83990997376E+02  0.00000000000E+00 0. -1.
<scales pt_clust_5="13000.00000" pt_clust_6="13000.00000" pt_clust_7="13000.00000" pt_clust_8="13000.00000" pt_clust_9="43.40009"></scales>
<clustering>
<clus scale="   43.400">  2  9  1 -1</clus>
<clus scale="   80.418">  5  6 -1 -1</clus>
<clus scale="   97.607">  7  8 -1 -1</clus>
<clus scale="  317.034">  2  5  1 -1</clus>
<clus scale="   43.400">  2  5  1 -1</clus>
</clustering>
</event>
<event>
 9    2  0.1302972E-004  0.1510886E+03  0.7546771E-02  0.1200847E+00
         21   -1    0    0  501  502  0.00000000000E+00  0.00000000000E+00  0.58977620533E+02  0.58977620533E+02  0.00000000000E+00 0. -1.
         -1   -1    0    0    0  501 -0.00000000000E+00 -0.00000000000E+00 -0.47583692958E+03  0.47583692958E+03  0.00000000000E+00 0.  1.
         23    2    1    2    0    0  0.42693286572E+02 -0.11654746813E+03 -0.23229455804E+03  0.27803825950E+03  0.89098165002E+02 0.  0.
         24    2    1    2    0    0 -0.11209108794E+02  0.12100157833E+03 -0.13733603025E+03  0.19984084812E+03  0.79423883633E+02 0.  0.
        -13    1    4    4    0    0 -0.20902118079E+02 -0.23154659629E+01 -0.14724017201E+02  0.25672097798E+02  0.00000000000E+00 0.  1.
         14    1    4    4    0    0  0.96930092854E+01  0.12331704430E+03 -0.12261201305E+03  0.17416875032E+03  0.00000000000E+00 0. -1.
        -11    1    3    3    0    0  0.41524175148E+01 -0.92889968141E+02 -0.92684952479E+02  0.13128704875E+03  0.00000000000E+00 0.  1.
         11    1    3    3    0    0  0.38540869057E+02 -0.23657499985E+02 -0.13960960556E+03  0.14675121076E+03  0.00000000000E+00 0. -1.
         -2    1    1    2    0  502 -0.31484177778E+02 -0.44541102074E+01 -0.47228720755E+02  0.56935442496E+02  0.00000000000E+00 0.  1.
<scales pt_clust_5="13000.00000" pt_clust_6="13000.00000" pt_clust_7="13000.00000" pt_clust_8="13000.00000" pt_clust_9="31.79770"></scales>
<clustering>
<clus scale="   31.798">  1  9  2 -1</clus>
<clus scale="   79.424">  5  6 -1 -1</clus>
<clus scale="   89.098">  7  8 -1 -1</clus>
<clus scale="  145.593">  1  5  2 -1</clus>
<clus scale="   31.798">  1  5  2 -1</clus>
</clustering>
</event>
<event>
 9    2  0.1302972E-004  0.1724570E+03  0.7546771E-02  0.1200852E+00
         21   -1    0    0  501  502  0.00000000000E+00  0.00000000000E+00  0.27176792008E+03  0.27176792008E+03  0.00000000000E+00 0.  1.
          2   -1    0    0  502    0 -0.00000000000E+00 -0.00000000000E+00 -0.23701225718E+03  0.23701225718E+03  0.00000000000E+00 0. -1.
         24    2    1    2    0    0 -0.40508511395E+02  0.38118571510E+02 -0.12273439658E+02  0.98659829963E+02  0.80555320978E+02 0.  0.
         23    2    1    2    0    0 -0.10815023275E+02  0.10781394183E+03 -0.11772667202E+03  0.18412284971E+03  0.91108966077E+02 0.  0.
        -13    1    3    3    0    0 -0.41474442020E+01  0.55719132097E+02  0.17428862439E+01  0.55900452838E+02  0.00000000000E+00 0.  1.
         14    1    3    3    0    0 -0.36361067193E+02 -0.17600560586E+02 -0.14016325902E+02  0.42759377125E+02  0.00000000000E+00 0. -1.
        -13    1    4    4    0    0 -0.38585825333E+02  0.79521415724E+02 -0.11407454289E+03  0.14431050831E+03  0.00000000000E+00 0.  1.
         13    1    4    4    0    0  0.27770802058E+02  0.28292526101E+02 -0.36521291347E+01  0.39812341395E+02  0.00000000000E+00 0. -1.
          1    1    1    2  501    0  0.51323534670E+02 -0.14593251334E+03  0.16475577458E+03  0.22599749759E+03  0.00000000000E+00 0. -1.
<scales pt_clust_5="13000.00000" pt_clust_6="13000.00000" pt_clust_7="13000.00000" pt_clust_8="13000.00000" pt_clust_9="146.42603"></scales>
<clustering>
<clus scale="   80.555">  5  6 -1 -1</clus>
<clus scale="   91.109">  7  8 -1 -1</clus>
<clus scale="   97.893">  2  5  1 -1</clus>
<clus scale="  146.426">  1  9  2 -1</clus>
<clus scale="  146.426">  1  5  2 -1</clus>
</clustering>
</event>
<event>
 9    2  0.1302972E-004  0.2442013E+03  0.7546771E-02  0.1151855E+00
          2   -1    0    0  502    0 -0.00000000000E+00  0.00000000000E+00  0.34875268180E+04  0.34875268180E+04  0.00000000000E+00 0. -1.
         21   -1    0    0  501  502  0.00000000000E+00 -0.00000000000E+00 -0.31057107092E+02  0.31057107092E+02  0.00000000000E+00 0. -1.
         24    2    1    2    0    0  0.46816288244E+02  0.48423124524E+02  0.65949516704E+03  0.66772372367E+03  0.79903266275E+02 0.  0.
         23    2    1    2    0    0 -0.22219341014E+02  0.21419078784E+03  0.71261871787E+03  0.74988178980E+03  0.90143601539E+02 0.  0.
        -11    1    3    3    0    0 -0.22816475374E+02  0.12651483096E+02  0.15077986895E+03  0.15302032693E+03  0.00000000000E+00 0.  1.
         12    1    3    3    0    0  0.69632763619E+02  0.35771641428E+02  0.50871529809E+03  0.51470339674E+03  0.00000000000E+00 0. -1.
        -13    1    4    4    0    0 -0.44437911242E+02  0.76887839531E+02  0.20201252013E+03  0.22067062812E+03  0.00000000000E+00 0.  1.
         13    1    4    4    0    0  0.22218570229E+02  0.13730294831E+03  0.51060619774E+03  0.52921116168E+03  0.00000000000E+00 0. -1.
          1    1    1    2  501    0 -0.24596947231E+02 -0.26261391236E+03  0.20843558260E+04  0.21009784116E+04  0.00000000000E+00 0. -1.
<scales pt_clust_5="13000.00000" pt_clust_6="13000.00000" pt_clust_7="13000.00000" pt_clust_8="13000.00000" pt_clust_9="226.95470"></scales>
<clustering>
<clus scale="   79.903">  5  6 -1 -1</clus>
<clus scale="   90.144">  7  8 -1 -1</clus>
<clus scale="  104.504">  1  5  2 -1</clus>
<clus scale="  226.955">  2  9  1 -1</clus>
<clus scale="  226.955">  2  5  1 -1</clus>
</clustering>
</event>
<event>
 9    2  0.1302972E-004  0.1495770E+03  0.7546771E-02  0.1203308E+00
          2   -1    0    0  502    0 -0.00000000000E+00  0.00000000000E+00  0.48129525297E+03  0.48129525297E+03  0.00000000000E+00 0. -1.
         21   -1    0    0  501  502  0.00000000000E+00 -0.00000000000E+00 -0.63221442094E+02  0.63221442094E+02  0.00000000000E+00 0. -1.
         24    2    1    2    0    0 -0.10803829555E+03  0.13081699746E+02  0.16427894719E+03  0.21204387736E+03  0.78304720570E+02 0.  0.
         23    2    1    2    0    0  0.13226550449E+03 -0.25583579534E+02  0.13706340934E+03  0.21260002227E+03  0.90904939729E+02 0.  0.
        -11    1    3    3    0    0 -0.15096540752E+02  0.24743622205E+02  0.83380884698E+02  0.88275275788E+02  0.00000000000E+00 0.  1.
         12    1    3    3    0    0 -0.92941754802E+02 -0.11661922459E+02  0.80898062489E+02  0.12376860157E+03  0.00000000000E+00 0. -1.
        -11    1    4    4    0    0  0.19375035227E+02 -0.23828633311E+02  0.80828355290E+02  0.86466286924E+02  0.00000000000E+00 0.  1.
         11    1    4    4    0    0  0.11289046927E+03 -0.17549462225E+01  0.56235054052E+02  0.12613373534E+03  0.00000000000E+00 0. -1.
          1    1    1    2  501    0 -0.24227208940E+02  0.12501879787E+02  0.11673145435E+03  0.11987279544E+03  0.00000000000E+00 0. -1.
<scales pt_clust_5="13000.00000" pt_clust_6="13000.00000" pt_clust_7="13000.00000" pt_clust_8="13000.00000" pt_clust_9="27.26271"></scales>
<clustering>
<clus scale="   27.263">  2  9  1 -1</clus>
<clus scale="   78.305">  5  6 -1 -1</clus>
<clus scale="   90.905">  7  8 -1 -1</clus>
<clus scale="  142.272">  1  5  2 -1</clus>
<clus scale="   27.263">  2  5  1 -1</clus>
</clustering>
</event>
<event>
 9    2  0.1302972E-004  0.1108219E+03  0.7546771E-02  0.1263531E+00
         21   -1    0    0  501  502  0.00000000000E+00  0.00000000000E+00  0.54315247522E+02  0.54315247522E+02  0.00000000000E+00 0.  1.
          2   -1    0    0  502    0 -0.00000000000E+00 -0.00000000000E+00 -0.33433448842E+03  0.33433448842E+03  0.00000000000E+00 0. -1.
         24    2    1    2    0    0 -0.98575185607E+00  0.59807146704E+02 -0.16874925814E+03  0.19683514022E+03  0.81791770964E+02 0.  0.
         23    2    1    2    0    0  0.24256602396E+02 -0.59333168294E+02 -0.45147879964E+02  0.12171545437E+03  0.93099479852E+02 0.  0.
        -13    1    3    3    0    0 -0.37234830538E+02  0.50932197705E+02 -0.11842847419E+03  0.13418578490E+03  0.00000000000E+00 0.  1.
         14    1    3    3    0    0  0.36249078682E+02  0.88749489982E+01 -0.50320783947E+02  0.62649355321E+02  0.00000000000E+00 0. -1.
        -13    1    4    4    0    0 -0.34010033194E+02 -0.35994339663E+02 -0.26873062704E+02  0.56342136494E+02  0.00000000000E+00 0. -1.
         13    1    4    4    0    0  0.58266635590E+02 -0.23338828631E+02 -0.18274817260E+02  0.65373317880E+02  0.00000000000E+00 0.  1.
          1    1    1    2  501    0 -0.23270850540E+02 -0.47397840923E+00 -0.66122102790E+02  0.70099141348E+02  0.00000000000E+00 0. -1.
<scales pt_clust_5="13000.00000" pt_clust_6="13000.00000" pt_clust_7="13000.00000" pt_clust_8="13000.00000" pt_clust_9="23.27569"></scales>
<clustering>
<clus scale="   23.276">  1  9  2 -1</clus>
<clus scale="   81.792">  5  6 -1 -1</clus>
<clus scale="   93.099">  7  8 -1 -1</clus>
<clus scale="  101.508">  2  5  1 -1</clus>
<clus scale="   23.276">  1  5  2 -1</clus>
</clustering>
</event>
<event>
 9    2  0.1302972E-004  0.1091843E+03  0.7546771E-02  0.1268146E+00
         -1   -1    0    0    0  501 -0.00000000000E+00  0.00000000000E+00  0.57419084033E+03  0.57419084033E+03  0.00000000000E+00 0.  1.
         21   -1    0    0  501  502  0.00000000000E+00 -0.00000000000E+00 -0.35303584499E+02  0.35303584499E+02  0.00000000000E+00 0. -1.
         23    2    1    2    0    0 -0.54775101404E+02 -0.18619714670E+02  0.40910083302E+03  0.42298809526E+03  0.90600395420E+02 0.  0.
         24    2    1    2    0    0  0.73796345488E+02  0.58457848913E+01  0.83048696526E+02  0.13445447017E+03  0.75503938603E+02 0.  0.
        -13    1    4    4    0    0  0.25405784341E+02  0.34539265339E+02  0.59797604443E+02  0.73581031695E+02  0.00000000000E+00 0.  1.
         14    1    4    4    0    0  0.48390561146E+02 -0.28693480447E+02  0.23251092083E+02  0.60873438471E+02  0.00000000000E+00 0. -1.
        -13    1    3    3    0    0 -0.18331781159E+02  0.36639163487E+02  0.14053408984E+03  0.14638412793E+03  0.00000000000E+00 0. -1.
         13    1    3    3    0    0 -0.36443320246E+02 -0.55258878156E+02  0.26856674318E+03  0.27660396734E+03  0.00000000000E+00 0.  1.
         -2    1    1    2    0  502 -0.19021244083E+02  0.12773929778E+02  0.46737726291E+02  0.52051859403E+02  0.00000000000E+00 0.  1.
<scales pt_clust_5="13000.00000" pt_clust_6="13000.00000" pt_clust_7="13000.00000" pt_clust_8="13000.00000" pt_clust_9="22.91248"></scales>
<clustering>
<clus scale="   22.912">  2  9  1 -1</clus>
<clus scale="   75.504">  5  6 -1 -1</clus>
<clus scale="   90.600">  7  8 -1 -1</clus>
<clus scale="   97.024">  2  5  1 -1</clus>
<clus scale="   22.912">  2  5  1 -1</clus>
</clustering>
</event>
<event>
 9    2  0.1302972E-004  0.1222513E+03  0.7546771E-02  0.1243324E+00
         21   -1    0    0  501  502  0.00000000000E+00  0.00000000000E+00  0.61230357388E+02  0.61230357388E+02  0.00000000000E+00 0.  1.
          2   -1    0    0  502    0 -0.00000000000E+00 -0.00000000000E+00 -0.36423177721E+03  0.36423177721E+03  0.00000000000E+00 0. -1.
         24    2    1    2    0    0 -0.90002281849E+02  0.34318140654E+02 -0.13014929005E+03  0.18012160571E+03  0.78910136407E+02 0.  0.
         23    2    1    2    0    0  0.68620401758E+02  0.14546820455E+02 -0.88216633517E+02  0.14529985492E+03  0.91703347208E+02 0.  0.
        -13    1    3    3    0    0 -0.32274302584E+02  0.42869458601E+02 -0.23564585634E+02  0.58606405658E+02  0.00000000000E+00 0.  1.
         14    1    3    3    0    0 -0.57727979265E+02 -0.85513179472E+01 -0.10658470442E+03  0.12151520005E+03  0.00000000000E+00 0. -1.
        -13    1    4    4    0    0  0.64892166181E+02  0.38549589657E+02 -0.93778618145E+02  0.12038061852E+03  0.00000000000E+00 0. -1.
         13    1    4    4    0    0  0.37282355765E+01 -0.24002769202E+02  0.55619846281E+01  0.24919236403E+02  0.00000000000E+00 0.  1.
          1    1    1    2  501    0  0.21381880091E+02 -0.48864961108E+02 -0.84635496251E+02  0.10004067396E+03  0.00000000000E+00 0. -1.
<scales pt_clust_5="13000.00000" pt_clust_6="13000.00000" pt_clust_7="13000.00000" pt_clust_8="13000.00000" pt_clust_9="53.33828"></scales>
<clustering>
<clus scale="   53.338">  1  9  2 -1</clus>
<clus scale="   78.910">  5  6 -1 -1</clus>
<clus scale="   91.703">  7  8 -1 -1</clus>
<clus scale="  112.972">  2  5  1 -1</clus>
<clus scale="   53.338">  1  5  2 -1</clus>
</clustering>
</event>
<event>
 9    2  0.1302972E-004  0.1096328E+03  0.7546771E-02  0.1267122E+00
         21   -1    0    0  501  502  0.00000000000E+00  0.00000000000E+00  0.37569846595E+03  0.37569846595E+03  0.00000000000E+00 0.  1.
          2   -1    0    0  502    0 -0.00000000000E+00 -0.00000000000E+00 -0.13792494692E+03  0.13792494692E+03  0.00000000000E+00 0. -1.
         24    2    1    2    0    0  0.16069953479E+02  0.50939080407E+02 -0.98817427836E+02  0.13845513784E+03  0.80943856048E+02 0.  0.
         23    2    1    2    0    0 -0.52559052355E+02 -0.56830309292E+02  0.20821075028E+03  0.24157323101E+03  0.94940883553E+02 0.  0.
        -11    1    3    3    0    0  0.45860652329E+02  0.43017177754E+02 -0.48351492225E+02  0.79319252483E+02  0.00000000000E+00 0.  1.
         12    1    3    3    0    0 -0.29790698850E+02  0.79219026526E+01 -0.50465935611E+02  0.59135885355E+02  0.00000000000E+00 0. -1.
        -13    1    4    4    0    0 -0.26347240195E+02 -0.60186691942E+02  0.20461434007E+03  0.21490379968E+03  0.00000000000E+00 0.  1.
         13    1    4    4    0    0 -0.26211812160E+02  0.33563826501E+01  0.35964102081E+01  0.26669431332E+02  0.00000000000E+00 0. -1.
          1    1    1    2  501    0  0.36489098876E+02  0.58912288856E+01  0.12838019658E+03  0.13359504402E+03  0.00000000000E+00 0. -1.
<scales pt_clust_5="13000.00000" pt_clust_6="13000.00000" pt_clust_7="13000.00000" pt_clust_8="13000.00000" pt_clust_9="36.96161"></scales>
<clustering>
<clus scale="   36.962">  1  9  2 -1</clus>
<clus scale="   80.944">  5  6 -1 -1</clus>
<clus scale="   94.941">  7  8 -1 -1</clus>
<clus scale="   97.762">  2  5  1 -1</clus>
<clus scale="   36.962">  1  5  2 -1</clus>
</clustering>
</event>
<event>
 9    2  0.1302972E-004  0.1311738E+03  0.7546771E-02  0.1228777E+00
         21   -1    0    0  501  502  0.00000000000E+00  0.00000000000E+00  0.18568434196E+03  0.18568434196E+03  0.00000000000E+00 0.  1.
          2   -1    0    0  502    0 -0.00000000000E+00 -0.00000000000E+00 -0.49855085817E+03  0.49855085817E+03  0.00000000000E+00 0. -1.
         23    2    1    2    0    0  0.51166398312E+02 -0.72548342124E+02 -0.31961780040E+03  0.34380615694E+03  0.90365219829E+02 0.  0.
         24    2    1    2    0    0 -0.14347118811E+03  0.32450563455E+02 -0.99523605788E+02  0.19406525562E+03  0.78226302754E+02 0.  0.
        -11    1    4    4    0    0 -0.13840661684E+03  0.50356297578E+02 -0.82339820056E+02  0.16873646392E+03  0.00000000000E+00 0.  1.
         12    1    4    4    0    0 -0.50645712735E+01 -0.17905734123E+02 -0.17183785732E+02  0.25328791696E+02  0.00000000000E+00 0. -1.
        -13    1    3    3    0    0  0.76725033995E+01 -0.81834154172E+02 -0.20531178463E+03  0.22115294483E+03  0.00000000000E+00 0.  1.
         13    1    3    3    0    0  0.43493894912E+02  0.92858120481E+01 -0.11430601577E+03  0.12265321211E+03  0.00000000000E+00 0. -1.
          1    1    1    2  501    0  0.92304789801E+02  0.40097778669E+02  0.10627488997E+03  0.14636378757E+03  0.00000000000E+00 0. -1.
<scales pt_clust_5="13000.00000" pt_clust_6="13000.00000" pt_clust_7="13000.00000" pt_clust_8="13000.00000" pt_clust_9="100.63800"></scales>
<clustering>
<clus scale="   78.226">  5  6 -1 -1</clus>
<clus scale="   90.365">  7  8 -1 -1</clus>
<clus scale="  100.638">  1  9  2 -1</clus>
<clus scale="  123.126">  1  5  2 -1</clus>
<clus scale="  100.638">  1  5  2 -1</clus>
</clustering>
</event>
<event>
 9    2  0.1302972E-004  0.1299374E+03  0.7546771E-02  0.1229556E+00
         21   -1    0    0  501  502  0.00000000000E+00  0.00000000000E+00  0.10152587482E+03  0.10152587482E+03  0.00000000000E+00 0.  1.
          2   -1    0    0  502    0 -0.00000000000E+00 -0.00000000000E+00 -0.47802448576E+03  0.47802448576E+03  0.00000000000E+00 0. -1.
         23    2    1    2    0    0 -0.99077321596E+02  0.36339238030E+02 -0.21260922101E+03  0.25435526904E+03  0.91416990512E+02 0.  0.
         24    2    1    2    0    0 -0.11336391211E+02 -0.10988430974E+03 -0.40356962520E+02  0.14392091751E+03  0.82954630858E+02 0.  0.
        -13    1    4    4    0    0  0.26145037505E+01 -0.65213246270E+02  0.19336160574E+02  0.68069745296E+02  0.00000000000E+00 0.  1.
         14    1    4    4    0    0 -0.13950894962E+02 -0.44671063475E+02 -0.59693123095E+02  0.75851172219E+02  0.00000000000E+00 0. -1.
        -13    1    3    3    0    0 -0.46572988609E+02  0.37787527403E+02 -0.35660127093E+02  0.69775247470E+02  0.00000000000E+00 0. -1.
         13    1    3    3    0    0 -0.52504332987E+02 -0.14482893725E+01 -0.17694909392E+03  0.18458002157E+03  0.00000000000E+00 0.  1.
          1    1    1    2  501    0  0.11041371281E+03  0.73545071714E+02 -0.12353242740E+03  0.18127417403E+03  0.00000000000E+00 0. -1.
<scales pt_clust_5="13000.00000" pt_clust_6="13000.00000" pt_clust_7="13000.00000" pt_clust_8="13000.00000" pt_clust_9="132.66530"></scales>
<clustering>
<clus scale="   82.955">  5  6 -1 -1</clus>
<clus scale="   91.417">  7  8 -1 -1</clus>
<clus scale="  132.665">  1  9  2 -1</clus>
<clus scale="  132.665">  1  5  2 -1</clus>
<clus scale="  129.937">  1  5  2 -1</clus>
</clustering>
</event>
<event>
 9    2  0.1302972E-004  0.1334256E+03  0.7546771E-02  0.1238437E+00
         -1   -1    0    0    0  501 -0.00000000000E+00  0.00000000000E+00  0.42687333450E+02  0.42687333450E+02  0.00000000000E+00 0.  1.
         21   -1    0    0  501  502  0.00000000000E+00 -0.00000000000E+00 -0.92570085166E+03  0.92570085166E+03  0.00000000000E+00 0.  1.
         23    2    1    2    0    0 -0.26492450618E+02 -0.29024858720E+01 -0.69554228355E+02  0.11850991131E+03  0.92176645812E+02 0.  0.
         24    2    1    2    0    0 -0.90561044222E+02 -0.35031961197E+02 -0.41010630087E+03  0.42817437691E+03  0.75614667832E+02 0.  0.
        -13    1    4    4    0    0 -0.45888589635E+02  0.12922728426E+02 -0.26073663861E+03  0.26505915242E+03  0.00000000000E+00 0.  1.
         14    1    4    4    0    0 -0.44672454587E+02 -0.47954689622E+02 -0.14936966226E+03  0.16311522449E+03  0.00000000000E+00 0. -1.
        -11    1    3    3    0    0 -0.67951575866E+01  0.43228166743E+02 -0.20399773085E+02  0.48280423657E+02  0.00000000000E+00 0. -1.
         11    1    3    3    0    0 -0.19697293031E+02 -0.46130652615E+02 -0.49154455270E+02  0.70229487655E+02  0.00000000000E+00 0.  1.
         -2    1    1    2    0  502  0.11705349484E+03  0.37934447069E+02 -0.40335298898E+03  0.42170389689E+03  0.00000000000E+00 0.  1.
<scales pt_clust_5="13000.00000" pt_clust_6="13000.00000" pt_clust_7="13000.00000" pt_clust_8="13000.00000" pt_clust_9="109.93096"></scales>
<clustering>
<clus scale="   75.615">  5  6 -1 -1</clus>
<clus scale="   92.177">  7  8 -1 -1</clus>
<clus scale="   95.952">  1  7  2 -1</clus>
<clus scale="  109.931">  2  9  1 -1</clus>
<clus scale="  109.931">  2  5  1 -1</clus>
</clustering>
</event>
<event>
 9    2  0.1302972E-004  0.1077075E+03  0.7546771E-02  0.1265762E+00
         21   -1    0    0  501  502  0.00000000000E+00  0.00000000000E+00  0.59658154271E+03  0.59658154271E+03  0.00000000000E+00 0. -1.
          2   -1    0    0  502    0 -0.00000000000E+00 -0.00000000000E+00 -0.76511845266E+02  0.76511845266E+02  0.00000000000E+00 0. -1.
         23    2    1    2    0    0 -0.22014294599E+02 -0.47033028541E+02 -0.23985270674E+02  0.10726620280E+03  0.90741446508E+02 0.  0.
         24    2    1    2    0    0  0.31682113602E+02  0.70264741985E+02  0.35174993495E+03  0.37188285034E+03  0.92886744732E+02 0.  0.
        -13    1    4    4    0    0  0.60918262432E+02  0.31744868364E+02  0.24933988737E+03  0.25862936956E+03  0.00000000000E+00 0.  1.
         14    1    4    4    0    0 -0.29236148831E+02  0.38519873621E+02  0.10241004758E+03  0.11325348078E+03  0.00000000000E+00 0. -1.
        -11    1    3    3    0    0  0.31474512631E+02 -0.33845660743E+02 -0.24209224982E+02  0.52175284098E+02  0.00000000000E+00 0.  1.
         11    1    3    3    0    0 -0.53488807230E+02 -0.13187367798E+02  0.22395430800E+00  0.55090918706E+02  0.00000000000E+00 0. -1.
          1    1    1    2  501    0 -0.96678190024E+01 -0.23231713444E+02  0.19230503317E+03  0.19394433484E+03  0.00000000000E+00 0. -1.
<scales pt_clust_5="13000.00000" pt_clust_6="13000.00000" pt_clust_7="13000.00000" pt_clust_8="13000.00000" pt_clust_9="25.16305"></scales>
<clustering>
<clus scale="   25.163">  1  9  2 -1</clus>
<clus scale="   90.741">  7  8 -1 -1</clus>
<clus scale="   92.887">  5  6 -1 -1</clus>
<clus scale="  105.863">  2  7  1 -1</clus>
<clus scale="   25.163">  1  5  2 -1</clus>
</clustering>
</event>
<event>
 9    2  0.1302972E-004  0.1063948E+03  0.7546771E-02  0.1271266E+00
         -1   -1    0    0    0  501 -0.00000000000E+00  0.00000000000E+00  0.36875425249E+03  0.36875425249E+03  0.00000000000E+00 0.  1.
         21   -1    0    0  501  502  0.00000000000E+00 -0.00000000000E+00 -0.52700220420E+02  0.52700220420E+02  0.00000000000E+00 0.  1.
         23    2    1    2    0    0 -0.43621946844E+02  0.25346335399E+02  0.12180816853E+03  0.15954911907E+03  0.89851992243E+02 0.  0.
         24    2    1    2    0    0  0.72812915312E+02  0.30235211830E+02  0.11969175966E+03  0.16443876758E+03  0.80610807475E+02 0.  0.
        -11    1    4    4    0    0  0.82821505889E+02  0.35812088350E+02  0.12296785330E+03  0.15252213103E+03  0.00000000000E+00 0.  1.
         12    1    4    4    0    0 -0.10008590577E+02 -0.55768765193E+01 -0.32760936399E+01  0.11916636546E+02  0.00000000000E+00 0. -1.
        -11    1    3    3    0    0 -0.31707140200E+02  0.57156810834E+02  0.58569015467E+02  0.87764305598E+02  0.00000000000E+00 0.  1.
         11    1    3    3    0    0 -0.11914806645E+02 -0.31810475435E+02  0.63239153061E+02  0.71784813468E+02  0.00000000000E+00 0. -1.
         -2    1    1    2    0  502 -0.29190968468E+02 -0.55581547230E+02  0.74554103884E+02  0.97466586267E+02  0.00000000000E+00 0.  1.
<scales pt_clust_5="13000.00000" pt_clust_6="13000.00000" pt_clust_7="13000.00000" pt_clust_8="13000.00000" pt_clust_9="62.78077"></scales>
<clustering>
<clus scale="   62.781">  2  9  1 -1</clus>
<clus scale="   80.611">  5  6 -1 -1</clus>
<clus scale="   89.852">  7  8 -1 -1</clus>
<clus scale="   98.715">  2  5  1 -1</clus>
<clus scale="   62.781">  2  5  1 -1</clus>
</clustering>
</event>
<event>
 9    2  0.1302972E-004  0.9385076E+02  0.7546771E-02  0.1299838E+00
          4   -1    0    0  502    0 -0.00000000000E+00  0.00000000000E+00  0.25876701855E+03  0.25876701855E+03  0.00000000000E+00 0. -1.
         21   -1    0    0  501  502  0.00000000000E+00 -0.00000000000E+00 -0.14646220319E+03  0.14646220319E+03  0.00000000000E+00 0. -1.
         24    2    1    2    0    0  0.19318461555E+02  0.16926582542E+02  0.19972642547E+03  0.21689266414E+03  0.80573386256E+02 0.  0.
         23    2    1    2    0    0  0.29341728686E+02 -0.18155625178E+02 -0.98517604641E+02  0.13841215721E+03  0.90893581027E+02 0.  0.
        -11    1    3    3    0    0 -0.18390296451E+02  0.17011071793E+02  0.16902629709E+02  0.30220497318E+02  0.00000000000E+00 0.  1.
         12    1    3    3    0    0  0.37708758006E+02 -0.84489251671E-01  0.18282379576E+03  0.18667216682E+03  0.00000000000E+00 0. -1.
        -13    1    4    4    0    0 -0.30784934344E+02 -0.74162449189E+01 -0.54832970423E+02  0.63319566618E+02  0.00000000000E+00 0.  1.
         13    1    4    4    0    0  0.60126663029E+02 -0.10739380259E+02 -0.43684634218E+02  0.75092590594E+02  0.00000000000E+00 0. -1.
          3    1    1    2  501    0 -0.48660190241E+02  0.12290426365E+01  0.11095994532E+02  0.49924400395E+02  0.00000000000E+00 0. -1.
<scales pt_clust_5="13000.00000" pt_clust_6="13000.00000" pt_clust_7="13000.00000" pt_clust_8="13000.00000" pt_clust_9="48.67571"></scales>
<clustering>
<clus scale="   48.676">  2  9  1 -1</clus>
<clus scale="   80.573">  5  6 -1 -1</clus>
<clus scale="   83.895">  1  5  2 -1</clus>
<clus scale="   90.894">  7  8 -1 -1</clus>
<clus scale="   48.676">  2  5  1 -1</clus>
</clustering>
</event>
<event>
 9    2  0.1302972E-004  0.2646071E+03  0.7546771E-02  0.1150926E+00
          2   -1    0    0  502    0 -0.00000000000E+00  0.00000000000E+00  0.14272708260E+04  0.14272708260E+04  0.00000000000E+00 0. -1.
         21   -1    0    0  501  502  0.00000000000E+00 -0.00000000000E+00 -0.14674152009E+03  0.14674152009E+03  0.00000000000E+00 0. -1.
         24    2    1    2    0    0  0.24614241932E+02 -0.27353898112E+01  0.14593049039E+03  0.16836362636E+03  0.80232533237E+02 0.  0.
         23    2    1    2    0    0 -0.21658949479E+03 -0.15155574726E+03  0.11248539316E+04  0.11591629890E+04  0.92099478366E+02 0.  0.
        -13    1    3    3    0    0  0.13725050953E+02 -0.33022766753E+02  0.26065100731E+02  0.44252340320E+02  0.00000000000E+00 0.  1.
         14    1    3    3    0    0  0.10889190979E+02  0.30287376942E+02  0.11986538966E+03  0.12411128604E+03  0.00000000000E+00 0. -1.
        -11    1    4    4    0    0 -0.34434030620E+02 -0.66773737513E+01  0.63051125528E+02  0.72150774184E+02  0.00000000000E+00 0.  1.
         11    1    4    4    0    0 -0.18215546417E+03 -0.14487837351E+03  0.10618028061E+04  0.10870122149E+04  0.00000000000E+00 0. -1.
          1    1    1    2  501    0  0.19197525285E+03  0.15429113707E+03  0.97448839247E+01  0.24648573072E+03  0.00000000000E+00 0. -1.
<scales pt_clust_5="13000.00000" pt_clust_6="13000.00000" pt_clust_7="13000.00000" pt_clust_8="13000.00000" pt_clust_9="248.06173"></scales>
<clustering>
<clus scale="   80.233">  5  6 -1 -1</clus>
<clus scale="   83.968">  1  5  2 -1</clus>
<clus scale="   92.099">  7  8 -1 -1</clus>
<clus scale="  248.062">  2  9  1 -1</clus>
<clus scale="  248.062">  2  5  1 -1</clus>
</clustering>
</event>
<event>
 9    2  0.1302972E-004  0.1755675E+03  0.7546771E-02  0.1177158E+00
         21   -1    0    0  501  502  0.00000000000E+00  0.00000000000E+00  0.20754349843E+03  0.20754349843E+03  0.00000000000E+00 0.  1.
          2   -1    0    0  502    0 -0.00000000000E+00 -0.00000000000E+00 -0.42627387811E+03  0.42627387811E+03  0.00000000000E+00 0. -1.
         24    2    1    2    0    0  0.12702240949E+03  0.43534927826E+02 -0.34797168412E+03  0.38132588321E+03  0.79342005286E+02 0.  0.
         23    2    1    2    0    0 -0.12735555931E+03 -0.69243196572E+02  0.86446804487E+02  0.20256759828E+03  0.11201126331E+03 0.  0.
        -11    1    3    3    0    0  0.86556739797E+02  0.94663487825E+01 -0.12613801820E+03  0.15327256962E+03  0.00000000000E+00 0.  1.
         12    1    3    3    0    0  0.40465669688E+02  0.34068579043E+02 -0.22183366592E+03  0.22805331359E+03  0.00000000000E+00 0. -1.
        -11    1    4    4    0    0 -0.13779447181E+03 -0.32127586860E+02  0.51623308383E+02  0.15061362577E+03  0.00000000000E+00 0.  1.
         11    1    4    4    0    0  0.10438912505E+02 -0.37115609712E+02  0.34823496104E+02  0.51953972509E+02  0.00000000000E+00 0. -1.
          1    1    1    2  501    0  0.33314982330E+00  0.25708268746E+02  0.42794499953E+02  0.49923895050E+02  0.00000000000E+00 0. -1.
<scales pt_clust_5="13000.00000" pt_clust_6="13000.00000" pt_clust_7="13000.00000" pt_clust_8="13000.00000" pt_clust_9="25.71043"></scales>
<clustering>
<clus scale="   25.710">  1  9  2 -1</clus>
<clus scale="   79.342">  5  6 -1 -1</clus>
<clus scale="  112.011">  7  8 -1 -1</clus>
<clus scale="  156.756">  2  5  1 -1</clus>
<clus scale="   25.710">  1  5  2 -1</clus>
</clustering>
</event>
<event>
 9    2  0.1302972E-004  0.1400939E+03  0.7546771E-02  0.1215920E+00
         21   -1    0    0  501  502  0.00000000000E+00  0.00000000000E+00  0.52194535594E+02  0.52194535594E+02  0.00000000000E+00 0. -1.
          2   -1    0    0  502    0 -0.00000000000E+00 -0.00000000000E+00 -0.69867870091E+03  0.69867870091E+03  0.00000000000E+00 0. -1.
         23    2    1    2    0    0  0.18365860488E+01 -0.75786463173E+02 -0.18384060840E+03  0.21958969928E+03  0.93141321018E+02 0.  0.
         24    2    1    2    0    0 -0.26520359357E+02  0.14841108264E+03 -0.23227550502E+03  0.28848101799E+03  0.80871556156E+02 0.  0.
        -11    1    4    4    0    0 -0.28291966461E+02  0.61435914526E+02 -0.42939817995E+02  0.80116383651E+02  0.00000000000E+00 0.  1.
         12    1    4    4    0    0  0.17716071037E+01  0.86975168115E+02 -0.18933568703E+03  0.20836463434E+03  0.00000000000E+00 0. -1.
        -11    1    3    3    0    0  0.37506266101E+02 -0.67596510712E+02 -0.88736085266E+02  0.11768645243E+03  0.00000000000E+00 0. -1.
         11    1    3    3    0    0 -0.35669680052E+02 -0.81899524610E+01 -0.95104523138E+02  0.10190324685E+03  0.00000000000E+00 0.  1.
          1    1    1    2  501    0  0.24683773308E+02 -0.72624619468E+02 -0.23036805189E+03  0.24280251924E+03  0.00000000000E+00 0. -1.
<scales pt_clust_5="13000.00000" pt_clust_6="13000.00000" pt_clust_7="13000.00000" pt_clust_8="13000.00000" pt_clust_9="76.70482"></scales>
<clustering>
<clus scale="   76.705">  1  9  2 -1</clus>
<clus scale="   80.872">  5  6 -1 -1</clus>
<clus scale="   93.141">  7  8 -1 -1</clus>
<clus scale="  132.254">  1  5  2 -1</clus>
<clus scale="   76.705">  1  5  2 -1</clus>
</clustering>
</event>
<event>
 9    2  0.1302972E-004  0.9864830E+02  0.7546771E-02  0.1286330E+00
          2   -1    0    0  502    0 -0.00000000000E+00  0.00000000000E+00  0.11277269918E+03  0.11277269918E+03  0.00000000000E+00 0. -1.
         21   -1    0    0  501  502  0.00000000000E+00 -0.00000000000E+00 -0.17753562644E+03  0.17753562644E+03  0.00000000000E+00 0.  1.
         24    2    1    2    0    0 -0.21118662858E+02 -0.36289885143E+02 -0.89090591089E+01  0.90714961255E+02  0.79917952780E+02 0.  0.
         23    2    1    2    0    0  0.21567341298E+02  0.57728072452E+02 -0.10290429843E+03  0.14788707676E+03  0.86507874080E+02 0.  0.
        -11    1    3    3    0    0 -0.49440548702E+02 -0.77071406539E+01 -0.51140278548E+01  0.50298321581E+02  0.00000000000E+00 0.  1.
         12    1    3    3    0    0  0.28321885843E+02 -0.28582744490E+02 -0.37950312541E+01  0.40416639674E+02  0.00000000000E+00 0. -1.
        -11    1    4    4    0    0 -0.14822281370E+02  0.29207667095E+02 -0.95630489592E+02  0.10108401645E+03  0.00000000000E+00 0.  1.
         11    1    4    4    0    0  0.36389622668E+02  0.28520405357E+02 -0.72738088417E+01  0.46803060313E+02  0.00000000000E+00 0. -1.
          1    1    1    2  501    0 -0.44867843963E+00 -0.21438187308E+02  0.47050430284E+02  0.51706287599E+02  0.00000000000E+00 0. -1.
<scales pt_clust_5="13000.00000" pt_clust_6="13000.00000" pt_clust_7="13000.00000" pt_clust_8="13000.00000" pt_clust_9="21.44289"></scales>
<clustering>
<clus scale="   21.443">  2  9  1 -1</clus>
<clus scale="   79.918">  5  6 -1 -1</clus>
<clus scale="   86.508">  7  8 -1 -1</clus>
<clus scale="   92.923">  1  5  2 -1</clus>
<clus scale="   21.443">  2  5  1 -1</clus>
</clustering>
</event>
<event>
 9    2  0.1302972E-004  0.9678711E+02  0.7546771E-02  0.1292593E+00
         21   -1    0    0  501  502  0.00000000000E+00  0.00000000000E+00  0.49050071660E+03  0.49050071660E+03  0.00000000000E+00 0. -1.
         -3   -1    0    0    0  501 -0.00000000000E+00 -0.00000000000E+00 -0.78093148430E+02  0.78093148430E+02  0.00000000000E+00 0.  1.
         23    2    1    2    0    0 -0.32137613984E+01 -0.46396768433E+02 -0.12741913141E+02  0.10051707608E+03  0.88194885627E+02 0.  0.
         24    2    1    2    0    0  0.38807951751E+02 -0.19358963586E+02  0.35332884639E+03  0.36439956734E+03  0.77877752878E+02 0.  0.
        -13    1    4    4    0    0 -0.21842686724E+02 -0.17140609902E+02  0.13282331097E+03  0.13569427183E+03  0.00000000000E+00 0.  1.
         14    1    4    4    0    0  0.60650638476E+02 -0.22183536839E+01  0.22050553543E+03  0.22870529551E+03  0.00000000000E+00 0. -1.
        -11    1    3    3    0    0 -0.25188932228E+02  0.17939734902E+02  0.18616050655E+01  0.30980348103E+02  0.00000000000E+00 0. -1.
         11    1    3    3    0    0  0.21975170830E+02 -0.64336503336E+02 -0.14603518206E+02  0.69536727982E+02  0.00000000000E+00 0.  1.
         -4    1    1    2    0  502 -0.35594190353E+02  0.65755732019E+02  0.71820634919E+02  0.10367722161E+03  0.00000000000E+00 0.  1.
<scales pt_clust_5="13000.00000" pt_clust_6="13000.00000" pt_clust_7="13000.00000" pt_clust_8="13000.00000" pt_clust_9="74.77144"></scales>
<clustering>
<clus scale="   74.771">  1  9  2 -1</clus>
<clus scale="   77.878">  5  6 -1 -1</clus>
<clus scale="   87.489">  1  5  2 -1</clus>
<clus scale="   88.195">  7  8 -1 -1</clus>
<clus scale="   74.771">  1  5  2 -1</clus>
</clustering>
</event>
<event>
 9    2  0.1302972E-004  0.1060134E+03  0.7546771E-02  0.1273139E+00
         -3   -1    0    0    0  501 -0.00000000000E+00  0.00000000000E+00  0.48195440183E+03  0.48195440183E+03  0.00000000000E+00 0.  1.
         21   -1    0    0  501  502  0.00000000000E+00 -0.00000000000E+00 -0.78380858765E+02  0.78380858765E+02  0.00000000000E+00 0. -1.
         24    2    1    2    0    0 -0.55528752597E+02  0.26247159827E+02  0.17987725497E+03  0.20614393846E+03  0.79794365360E+02 0.  0.
         23    2    1    2    0    0  0.43857724008E+02  0.69649675893E+02  0.14548095798E+02  0.12381037164E+03  0.91338840194E+02 0.  0.
        -13    1    3    3    0    0 -0.57088952058E+02 -0.14603379954E+02  0.11934982149E+03  0.13310442157E+03  0.00000000000E+00 0.  1.
         14    1    3    3    0    0  0.15601994615E+01  0.40850539781E+02  0.60527433486E+02  0.73039516887E+02  0.00000000000E+00 0. -1.
        -13    1    4    4    0    0 -0.15744858925E+02  0.43406013316E+02  0.32252414397E+02  0.56322294068E+02  0.00000000000E+00 0.  1.
         13    1    4    4    0    0  0.59602582934E+02  0.26243662577E+02 -0.17704318599E+02  0.67488077576E+02  0.00000000000E+00 0. -1.
         -4    1    1    2    0  502  0.11671028588E+02 -0.95896835720E+02  0.20914819230E+03  0.23038095049E+03  0.00000000000E+00 0.  1.
<scales pt_clust_5="13000.00000" pt_clust_6="13000.00000" pt_clust_7="13000.00000" pt_clust_8="13000.00000" pt_clust_9="96.60448"></scales>
<clustering>
<clus scale="   79.794">  5  6 -1 -1</clus>
<clus scale="   91.339">  7  8 -1 -1</clus>
<clus scale="   96.604">  2  9  1 -1</clus>
<clus scale="   96.245">  1  5  2 -1</clus>
<clus scale="   96.604">  2  5  1 -1</clus>
</clustering>
</event>
<event>
 9    2  0.1302972E-004  0.9963502E+02  0.7546771E-02  0.1288540E+00
         21   -1    0    0  501  502  0.00000000000E+00  0.00000000000E+00  0.24905775028E+02  0.24905775028E+02  0.00000000000E+00 0.  1.
          2   -1    0    0  502    0 -0.00000000000E+00 -0.00000000000E+00 -0.73721703973E+03  0.73721703973E+03  0.00000000000E+00 0. -1.
         24    2    1    2    0    0  0.13132116481E+01 -0.30562673406E+02 -0.51467697264E+03  0.52170310890E+03  0.79661447036E+02 0.  0.
         23    2    1    2    0    0 -0.23643459280E+02  0.44661723596E+02 -0.17832534131E+03  0.20770489645E+03  0.93742807364E+02 0.  0.
        -13    1    3    3    0    0  0.33683394206E+02  0.64174831267E+00 -0.12570525805E+03  0.13014144147E+03  0.00000000000E+00 0.  1.
         14    1    3    3    0    0 -0.32370182558E+02 -0.31204421719E+02 -0.38897171459E+03  0.39156166744E+03  0.00000000000E+00 0. -1.
        -13    1    4    4    0    0 -0.43227551423E+02  0.23673070698E+02 -0.32396587913E+02  0.58979440373E+02  0.00000000000E+00 0.  1.
         13    1    4    4    0    0  0.19584092143E+02  0.20988652898E+02 -0.14592875340E+03  0.14872545607E+03  0.00000000000E+00 0. -1.
          1    1    1    2  501    0  0.22330247632E+02 -0.14099050190E+02 -0.19308950752E+02  0.32714809410E+02  0.00000000000E+00 0. -1.
<scales pt_clust_5="13000.00000" pt_clust_6="13000.00000" pt_clust_7="13000.00000" pt_clust_8="13000.00000" pt_clust_9="26.40877"></scales>
<clustering>
<clus scale="   26.409">  1  9  2 -1</clus>
<clus scale="   79.661">  5  6 -1 -1</clus>
<clus scale="   86.518">  2  5  1 -1</clus>
<clus scale="   93.743">  7  8 -1 -1</clus>
<clus scale="   26.409">  1  5  2 -1</clus>
</clustering>
</event>
<event>
 9    2  0.1302972E-004  0.1143692E+03  0.7546771E-02  0.1256834E+00
         21   -1    0    0  501  502  0.00000000000E+00  0.00000000000E+00  0.23514801994E+03  0.23514801994E+03  0.00000000000E+00 0.  1.
         -1   -1    0    0    0  501 -0.00000000000E+00 -0.00000000000E+00 -0.11829089124E+03  0.11829089124E+03  0.00000000000E+00 0.  1.
         24    2    1    2    0    0  0.45303192711E+02 -0.63999877534E+01  0.10485084046E+02  0.92585778448E+02  0.79805076721E+02 0.  0.
         23    2    1    2    0    0 -0.12250058201E+03 -0.24931560063E+02  0.68011870334E+02  0.16913287447E+03  0.91391134361E+02 0.  0.
        -13    1    3    3    0    0  0.61114733733E+02 -0.25938557033E+02  0.11732002212E+02  0.67420021478E+02  0.00000000000E+00 0.  1.
         14    1    3    3    0    0 -0.15811541022E+02  0.19538569279E+02 -0.12469181658E+01  0.25165756970E+02  0.00000000000E+00 0. -1.
        -13    1    4    4    0    0 -0.12314025258E+03  0.59219798369E+01  0.60712229152E+02  0.13742112800E+03  0.00000000000E+00 0.  1.
         13    1    4    4    0    0  0.63967057539E+00 -0.30853539900E+02  0.72996411820E+01  0.31711746471E+02  0.00000000000E+00 0. -1.
         -2    1    1    2    0  502  0.77197389295E+02  0.31331547817E+02  0.38360174316E+02  0.91720258264E+02  0.00000000000E+00 0.  1.
<scales pt_clust_5="13000.00000" pt_clust_6="13000.00000" pt_clust_7="13000.00000" pt_clust_8="13000.00000" pt_clust_9="83.31328"></scales>
<clustering>
<clus scale="   79.805">  5  6 -1 -1</clus>
<clus scale="   83.313">  1  9  2 -1</clus>
<clus scale="   91.391">  7  8 -1 -1</clus>
<clus scale="  105.341">  2  5  1 -1</clus>
<clus scale="   83.313">  1  5  2 -1</clus>
</clustering>
</event>
<event>
 9    2  0.1302972E-004  0.1129525E+03  0.7546771E-02  0.1256064E+00
         21   -1    0    0  501  502  0.00000000000E+00  0.00000000000E+00  0.49637455622E+03  0.49637455622E+03  0.00000000000E+00 0. -1.
          2   -1    0    0  502    0 -0.00000000000E+00 -0.00000000000E+00 -0.80708345083E+02  0.80708345083E+02  0.00000000000E+00 0. -1.
         23    2    1    2    0    0 -0.58179819228E+02 -0.53730870289E+02  0.68373772099E+02  0.13851748628E+03  0.90775676854E+02 0.  0.
         24    2    1    2    0    0  0.68867769848E+02 -0.59691478581E+02  0.28055322536E+03  0.30653138852E+03  0.83339891696E+02 0.  0.
        -13    1    4    4    0    0  0.58119115554E+02 -0.79289932405E+02  0.19883004292E+03  0.22180647182E+03  0.00000000000E+00 0.  1.
         14    1    4    4    0    0  0.10748654294E+02  0.19598453824E+02  0.81723182438E+02  0.84724916697E+02  0.00000000000E+00 0. -1.
        -13    1    3    3    0    0 -0.26297629528E+02 -0.38402026207E+02  0.86903582882E+02  0.98582522048E+02  0.00000000000E+00 0. -1.
         13    1    3    3    0    0 -0.31882189701E+02 -0.15328844081E+02 -0.18529810783E+02  0.39934964237E+02  0.00000000000E+00 0.  1.
          1    1    1    2  501    0 -0.10687950620E+02  0.11342234887E+03  0.66739213678E+02  0.13203402650E+03  0.00000000000E+00 0. -1.
<scales pt_clust_5="13000.00000" pt_clust_6="13000.00000" pt_clust_7="13000.00000" pt_clust_8="13000.00000" pt_clust_9="113.92486"></scales>
<clustering>
<clus scale="   83.340">  5  6 -1 -1</clus>
<clus scale="   90.776">  7  8 -1 -1</clus>
<clus scale="  113.925">  1  9  2 -1</clus>
<clus scale="  113.925">  1  5  2 -1</clus>
<clus scale="  112.952">  1  5  2 -1</clus>
</clustering>
</event>
<event>
 9    2  0.1302972E-004  0.2407411E+03  0.7546771E-02  0.1120081E+00
          2   -1    0    0  502    0 -0.00000000000E+00  0.00000000000E+00  0.52379486711E+03  0.52379486711E+03  0.00000000000E+00 0. -1.
         21   -1    0    0  501  502  0.00000000000E+00 -0.00000000000E+00 -0.15256729951E+03  0.15256729951E+03  0.00000000000E+00 0. -1.
         23    2    1    2    0    0  0.28420613890E+02  0.23024962414E+03  0.32156739896E+03  0.40701728902E+03  0.91841498143E+02 0.  0.
         24    2    1    2    0    0 -0.41252693380E+02 -0.19602376378E+03  0.10128430882E+02  0.21550409313E+03  0.78818325062E+02 0.  0.
        -11    1    4    4    0    0 -0.52737306097E+02 -0.14319945809E+03  0.34106141254E+02  0.15636667523E+03  0.00000000000E+00 0.  1.
         12    1    4    4    0    0  0.11484612717E+02 -0.52824305692E+02 -0.23977710373E+02  0.59137417899E+02  0.00000000000E+00 0. -1.
        -13    1    3    3    0    0 -0.26879244953E+02  0.32017438185E+02  0.36978632439E+02  0.55812448560E+02  0.00000000000E+00 0.  1.
         13    1    3    3    0    0  0.55299858843E+02  0.19823218595E+03  0.28458876652E+03  0.35120484046E+03  0.00000000000E+00 0. -1.
          1    1    1    2  501    0  0.12832079490E+02 -0.34225860356E+02  0.39531737763E+02  0.53840784465E+02  0.00000000000E+00 0. -1.
<scales pt_clust_5="13000.00000" pt_clust_6="13000.00000" pt_clust_7="13000.00000" pt_clust_8="13000.00000" pt_clust_9="36.55233"></scales>
<clustering>
<clus scale="   36.552">  2  9  1 -1</clus>
<clus scale="   78.818">  5  6 -1 -1</clus>
<clus scale="   91.841">  7  8 -1 -1</clus>
<clus scale="  236.080">  2  5  1 -1</clus>
<clus scale="   36.552">  2  5  1 -1</clus>
</clustering>
</event>
<event>
 9    2  0.1302972E-004  0.9433522E+02  0.7546771E-02  0.1297301E+00
          2   -1    0    0  502    0 -0.00000000000E+00  0.00000000000E+00  0.87001059557E+03  0.87001059557E+03  0.00000000000E+00 0. -1.
         21   -1    0    0  501  502  0.00000000000E+00 -0.00000000000E+00 -0.15530148683E+02  0.15530148683E+02  0.00000000000E+00 0. -1.
         24    2    1    2    0    0 -0.14981487570E+02  0.15695945402E+02  0.45315807767E+03  0.46098407267E+03  0.81751233797E+02 0.  0.
         23    2    1    2    0    0  0.49206331057E+02 -0.69822101534E+01  0.28295539870E+03  0.30103335879E+03  0.89929478904E+02 0.  0.
        -13    1    3    3    0    0 -0.20576742488E+02 -0.22140949275E+02  0.74486285632E+02  0.80385513082E+02  0.00000000000E+00 0.  1.
         14    1    3    3    0    0  0.55952549177E+01  0.37836894677E+02  0.37867179204E+03  0.38059855959E+03  0.00000000000E+00 0. -1.
        -13    1    4    4    0    0  0.53145772135E+02  0.29854001507E+02  0.21685463031E+03  0.22525910678E+03  0.00000000000E+00 0.  1.
         13    1    4    4    0    0 -0.39394410786E+01 -0.36836211660E+02  0.66100768395E+02  0.75774252011E+02  0.00000000000E+00 0. -1.
          1    1    1    2  501    0 -0.34224843486E+02 -0.87137352489E+01  0.11836697052E+03  0.12352331279E+03  0.00000000000E+00 0. -1.
<scales pt_clust_5="13000.00000" pt_clust_6="13000.00000" pt_clust_7="13000.00000" pt_clust_8="13000.00000" pt_clust_9="35.31670"></scales>
<clustering>
<clus scale="   35.317">  2  9  1 -1</clus>
<clus scale="   81.751">  5  6 -1 -1</clus>
<clus scale="   86.574">  1  5  2 -1</clus>
<clus scale="   89.929">  7  8 -1 -1</clus>
<clus scale="   35.317">  2  5  1 -1</clus>
</clustering>
</event>
<event>
 9    2  0.1302972E-004  0.8948473E+02  0.7546771E-02  0.1305634E+00
          2   -1    0    0  502    0 -0.00000000000E+00  0.00000000000E+00  0.66751944893E+02  0.66751944893E+02  0.00000000000E+00 0. -1.
         21   -1    0    0  501  502  0.00000000000E+00 -0.00000000000E+00 -0.34393198854E+03  0.34393198854E+03  0.00000000000E+00 0. -1.
         23    2    1    2    0    0  0.31305328569E+02 -0.26874316483E+02 -0.23403612913E+02  0.95761482057E+02  0.83188219509E+02 0.  0.
         24    2    1    2    0    0  0.56075404843E+01  0.33370162162E+02 -0.36882176191E+02  0.94813674708E+02  0.80525311288E+02 0.  0.
        -13    1    4    4    0    0 -0.16119481323E+02  0.14827369494E+02 -0.56209234496E+02  0.60325505442E+02  0.00000000000E+00 0.  1.
         14    1    4    4    0    0  0.21727021807E+02  0.18542792668E+02  0.19327058305E+02  0.34488169265E+02  0.00000000000E+00 0. -1.
        -13    1    3    3    0    0  0.35186214506E+02 -0.53564326444E+02 -0.24886958139E+02  0.68750035956E+02  0.00000000000E+00 0.  1.
         13    1    3    3    0    0 -0.38808859366E+01  0.26690009961E+02  0.14833452256E+01  0.27011446100E+02  0.00000000000E+00 0. -1.
          1    1    1    2  501    0 -0.36912869053E+02 -0.64958456789E+01 -0.21689425454E+03  0.22010877667E+03  0.00000000000E+00 0. -1.
<scales pt_clust_5="13000.00000" pt_clust_6="13000.00000" pt_clust_7="13000.00000" pt_clust_8="13000.00000" pt_clust_9="37.48007"></scales>
<clustering>
<clus scale="   37.480">  2  9  1 -1</clus>
<clus scale="   80.525">  5  6 -1 -1</clus>
<clus scale="   83.188">  7  8 -1 -1</clus>
<clus scale="   87.015">  2  5  1 -1</clus>
<clus scale="   37.480">  2  5  1 -1</clus>
</clustering>
</event>
<event>
 9    2  0.1302972E-004  0.1799916E+03  0.7546771E-02  0.1190189E+00
          2   -1    0    0  502    0 -0.00000000000E+00  0.00000000000E+00  0.11836618116E+04  0.11836618116E+04  0.00000000000E+00 0. -1.
         21   -1    0    0  501  502  0.00000000000E+00 -0.00000000000E+00 -0.43051061841E+03  0.43051061841E+03  0.00000000000E+00 0. -1.
         24    2    1    2    0    0  0.72793761632E+02 -0.47962283337E+01  0.10722049128E+04  0.10777049732E+04  0.80639313227E+02 0.  0.
         23    2    1    2    0    0 -0.27370665694E+02 -0.14701560362E+03  0.50061879383E+01  0.17573914683E+03  0.92176161589E+02 0.  0.
        -11    1    3    3    0    0  0.21603264567E+02  0.29844672219E+02  0.20382423610E+03  0.20712731525E+03  0.00000000000E+00 0.  1.
         12    1    3    3    0    0  0.51190497064E+02 -0.34640900553E+02  0.86838067667E+03  0.87057765799E+03  0.00000000000E+00 0. -1.
        -11    1    4    4    0    0 -0.36807557479E+02 -0.53597058612E+02  0.39073034434E+02  0.75856067650E+02  0.00000000000E+00 0.  1.
         11    1    4    4    0    0  0.94368917852E+01 -0.93418545004E+02 -0.34066846496E+02  0.99883079185E+02  0.00000000000E+00 0. -1.
          1    1    1    2  501    0 -0.45423095938E+02  0.15181183195E+03 -0.32405990749E+03  0.36072830996E+03  0.00000000000E+00 0. -1.
<scales pt_clust_5="13000.00000" pt_clust_6="13000.00000" pt_clust_7="13000.00000" pt_clust_8="13000.00000" pt_clust_9="154.59796"></scales>
<clustering>
<clus scale="   80.639">  5  6 -1 -1</clus>
<clus scale="   92.176">  7  8 -1 -1</clus>
<clus scale="  108.741">  1  5  2 -1</clus>
<clus scale="  154.598">  2  9  1 -1</clus>
<clus scale="  154.598">  2  5  1 -1</clus>
</clustering>
</event>
<event>
 9    2  0.1302972E-004  0.1543336E+03  0.7546771E-02  0.1211520E+00
         21   -1    0    0  501  502  0.00000000000E+00  0.00000000000E+00  0.11834764372E+03  0.11834764372E+03  0.00000000000E+00 0.  1.
         -1   -1    0    0    0  501 -0.00000000000E+00 -0.00000000000E+00 -0.40644542505E+03  0.40644542505E+03  0.00000000000E+00 0.  1.
         24    2    1    2    0    0 -0.47800948874E+02 -0.49074475518E+02 -0.16841559668E+03  0.20039535008E+03  0.84268904515E+02 0.  0.
         23    2    1    2    0    0  0.28907457639E+02 -0.10193180165E+03 -0.24345975319E+02  0.14481806348E+03  0.95675554348E+02 0.  0.
        -13    1    3    3    0    0 -0.39158943376E+02 -0.73156518060E+02 -0.12641314242E+03  0.15121369501E+03  0.00000000000E+00 0.  1.
         14    1    3    3    0    0 -0.86420054981E+01  0.24082042541E+02 -0.42002454257E+02  0.49181655072E+02  0.00000000000E+00 0. -1.
        -11    1    4    4    0    0  0.45448675381E+02 -0.26627620620E+02  0.19446381131E+02  0.56149568234E+02  0.00000000000E+00 0.  1.
         11    1    4    4    0    0 -0.16541217742E+02 -0.75304181030E+02 -0.43792356450E+02  0.88668495242E+02  0.00000000000E+00 0. -1.
         -2    1    1    2    0  502  0.18893491235E+02  0.15100627717E+03 -0.95336209338E+02  0.17957965521E+03  0.00000000000E+00 0.  1.
<scales pt_clust_5="13000.00000" pt_clust_6="13000.00000" pt_clust_7="13000.00000" pt_clust_8="13000.00000" pt_clust_9="121.09939"></scales>
<clustering>
<clus scale="   84.269">  5  6 -1 -1</clus>
<clus scale="   95.676">  7  8 -1 -1</clus>
<clus scale="  108.602">  2  5  1 -1</clus>
<clus scale="  121.099">  1  9  2 -1</clus>
<clus scale="  121.099">  1  5  2 -1</clus>
</clustering>
</event>
<event>
 9    2  0.1302972E-004  0.1140045E+03  0.7546771E-02  0.1256210E+00
          2   -1    0    0  502    0 -0.00000000000E+00  0.00000000000E+00  0.44354447373E+03  0.44354447373E+03  0.00000000000E+00 0. -1.
         21   -1    0    0  501  502  0.00000000000E+00 -0.00000000000E+00 -0.81731651943E+02  0.81731651943E+02  0.00000000000E+00 0.  1.
         24    2    1    2    0    0 -0.59057447309E+02 -0.34963258545E+02  0.19964254654E+03  0.22640963920E+03  0.81816665785E+02 0.  0.
         23    2    1    2    0    0  0.89447899153E+02 -0.72957510508E+01 -0.15228610809E+01  0.12709673845E+03  0.89983927307E+02 0.  0.
        -11    1    3    3    0    0 -0.50254901517E+02  0.23397236308E+01  0.46375809916E+02  0.68423279507E+02  0.00000000000E+00 0.  1.
         12    1    3    3    0    0 -0.88025457926E+01 -0.37302982176E+02  0.15326673663E+03  0.15798635969E+03  0.00000000000E+00 0. -1.
        -11    1    4    4    0    0  0.49204834570E+02  0.26294505032E+02  0.32536094588E+02  0.64584163623E+02  0.00000000000E+00 0. -1.
         11    1    4    4    0    0  0.40243064584E+02 -0.33590256083E+02 -0.34058955668E+02  0.62512574831E+02  0.00000000000E+00 0.  1.
          1    1    1    2  501    0 -0.30390451844E+02  0.42259009596E+02  0.16369313632E+03  0.17176974802E+03  0.00000000000E+00 0. -1.
<scales pt_clust_5="13000.00000" pt_clust_6="13000.00000" pt_clust_7="13000.00000" pt_clust_8="13000.00000" pt_clust_9="52.05196"></scales>
<clustering>
<clus scale="   52.052">  2  9  1 -1</clus>
<clus scale="   81.817">  5  6 -1 -1</clus>
<clus scale="   89.984">  7  8 -1 -1</clus>
<clus scale="  107.675">  1  5  2 -1</clus>
<clus scale="   52.052">  2  5  1 -1</clus>
</clustering>
</event>
<event>
 9    2  0.1302972E-004  0.1373204E+03  0.7546771E-02  0.1219708E+00
         21   -1    0    0  501  502  0.00000000000E+00  0.00000000000E+00  0.42159313665E+02  0.42159313665E+02  0.00000000000E+00 0. -1.
          2   -1    0    0  502    0 -0.00000000000E+00 -0.00000000000E+00 -0.71593222947E+03  0.71593222947E+03  0.00000000000E+00 0. -1.
         24    2    1    2    0    0  0.57674970329E+02 -0.76250327238E+02 -0.40007774479E+03  0.41861432539E+03  0.77686787386E+02 0.  0.
         23    2    1    2    0    0 -0.74833476709E+02  0.94869923043E+02 -0.27562100469E+03  0.31408405874E+03  0.89897197905E+02 0.  0.
        -13    1    3    3    0    0 -0.16927479325E+02 -0.26112168649E+02 -0.71806581941E+02  0.78259632748E+02  0.00000000000E+00 0.  1.
         14    1    3    3    0    0  0.74602449654E+02 -0.50138158589E+02 -0.32827116285E+03  0.34035469264E+03  0.00000000000E+00 0. -1.
        -11    1    4    4    0    0 -0.15331411952E+02  0.43672650435E+02 -0.19928856510E+03  0.20459297340E+03  0.00000000000E+00 0. -1.
         11    1    4    4    0    0 -0.59502064757E+02  0.51197272608E+02 -0.76332439598E+02  0.10949108533E+03  0.00000000000E+00 0.  1.
          1    1    1    2  501    0  0.17158506380E+02 -0.18619595805E+02  0.19258336814E+01  0.25393159010E+02  0.00000000000E+00 0. -1.
<scales pt_clust_5="13000.00000" pt_clust_6="13000.00000" pt_clust_7="13000.00000" pt_clust_8="13000.00000" pt_clust_9="25.32003"></scales>
<clustering>
<clus scale="   25.320">  1  9  2 -1</clus>
<clus scale="   77.687">  5  6 -1 -1</clus>
<clus scale="   89.897">  7  8 -1 -1</clus>
<clus scale="  129.656">  2  5  1 -1</clus>
<clus scale="   25.320">  1  5  2 -1</clus>
</clustering>
</event>
<event>
 9    2  0.1302972E-004  0.3019312E+03  0.7546771E-02  0.1105284E+00
          2   -1    0    0  502    0 -0.00000000000E+00  0.00000000000E+00  0.19320583620E+04  0.19320583620E+04  0.00000000000E+00 0. -1.
         21   -1    0    0  501  502  0.00000000000E+00 -0.00000000000E+00 -0.83777118668E+02  0.83777118668E+02  0.00000000000E+00 0.  1.
         24    2    1    2    0    0  0.11719951970E+03 -0.99151014182E+02  0.24438312278E+03  0.30007630248E+03  0.82195045948E+02 0.  0.
         23    2    1    2    0    0 -0.33634633689E+03  0.12389158905E+03  0.78762093793E+03  0.87021446477E+03  0.91915660501E+02 0.  0.
        -11    1    3    3    0    0  0.11423662812E+03 -0.11099928586E+03  0.20989525708E+03  0.26348978654E+03  0.00000000000E+00 0.  1.
         12    1    3    3    0    0  0.29628915808E+01  0.11848271675E+02  0.34487865699E+02  0.36586515941E+02  0.00000000000E+00 0. -1.
        -13    1    4    4    0    0 -0.24296360655E+03  0.44419292510E+02  0.50642949265E+03  0.56344939319E+03  0.00000000000E+00 0.  1.
         13    1    4    4    0    0 -0.93382730340E+02  0.79472296543E+02  0.28119144528E+03  0.30676507158E+03  0.00000000000E+00 0. -1.
          1    1    1    2  501    0  0.21914681719E+03 -0.24740574872E+02  0.81627718262E+03  0.84554471342E+03  0.00000000000E+00 0. -1.
<scales pt_clust_5="13000.00000" pt_clust_6="13000.00000" pt_clust_7="13000.00000" pt_clust_8="13000.00000" pt_clust_9="287.60054"></scales>
<clustering>
<clus scale="   82.195">  5  6 -1 -1</clus>
<clus scale="   91.916">  7  8 -1 -1</clus>
<clus scale="  174.134">  1  5  2 -1</clus>
<clus scale="  287.601">  2  9  1 -1</clus>
<clus scale="  287.601">  2  5  1 -1</clus>
</clustering>
</event>
<event>
 9    2  0.1302972E-004  0.1332889E+03  0.7546771E-02  0.1224621E+00
         21   -1    0    0  501  502  0.00000000000E+00  0.00000000000E+00  0.30831389155E+03  0.30831389155E+03  0.00000000000E+00 0.  1.
          2   -1    0    0  502    0 -0.00000000000E+00 -0.00000000000E+00 -0.87855010641E+02  0.87855010641E+02  0.00000000000E+00 0. -1.
         24    2    1    2    0    0 -0.69823303313E+02 -0.78462709863E+02  0.41450223665E+01  0.13252755102E+03  0.80713567909E+02 0.  0.
         23    2    1    2    0    0  0.67151280875E+02  0.50222890561E+02  0.17920488924E+03  0.21693265068E+03  0.88959256670E+02 0.  0.
        -13    1    3    3    0    0  0.61531107422E+01 -0.28814882235E+02  0.25863335115E+02  0.39205488306E+02  0.00000000000E+00 0.  1.
         14    1    3    3    0    0 -0.75976414055E+02 -0.49647827628E+02 -0.21718312748E+02  0.93322062715E+02  0.00000000000E+00 0. -1.
        -11    1    4    4    0    0  0.32114614517E+02 -0.47583730940E+01  0.75751900648E+01  0.33337277703E+02  0.00000000000E+00 0. -1.
         11    1    4    4    0    0  0.35036666358E+02  0.54981263655E+02  0.17162969917E+03  0.18359537298E+03  0.00000000000E+00 0.  1.
          1    1    1    2  501    0  0.26720224378E+01  0.28239819302E+02  0.37108969311E+02  0.46708700490E+02  0.00000000000E+00 0. -1.
<scales pt_clust_5="13000.00000" pt_clust_6="13000.00000" pt_clust_7="13000.00000" pt_clust_8="13000.00000" pt_clust_9="28.36595"></scales>
<clustering>
<clus scale="   28.366">  1  9  2 -1</clus>
<clus scale="   80.714">  5  6 -1 -1</clus>
<clus scale="   88.959">  7  8 -1 -1</clus>
<clus scale="  127.933">  2  5  1 -1</clus>
<clus scale="   28.366">  1  5  2 -1</clus>
</clustering>
</event>
<event>
 9    2  0.1302972E-004  0.9764233E+02  0.7546771E-02  0.1287255E+00
         -1   -1    0    0    0  501 -0.00000000000E+00  0.00000000000E+00  0.32147165114E+03  0.32147165114E+03  0.00000000000E+00 0.  1.
         21   -1    0    0  501  502  0.00000000000E+00 -0.00000000000E+00 -0.43935467609E+02  0.43935467609E+02  0.00000000000E+00 0.  1.
         23    2    1    2    0    0  0.49953848316E+02  0.23100560000E+02  0.20837574855E+03  0.23138393936E+03  0.84196508100E+02 0.  0.
         24    2    1    2    0    0 -0.38664524289E+02 -0.11674540479E+01  0.45957519858E+02  0.10015748519E+03  0.80144368610E+02 0.  0.
        -13    1    4    4    0    0 -0.40836326566E+01  0.31823493015E+02 -0.23911485086E+01  0.32173410676E+02  0.00000000000E+00 0.  1.
         14    1    4    4    0    0 -0.34580891633E+02 -0.32990947063E+02  0.48348668367E+02  0.67984074510E+02  0.00000000000E+00 0. -1.
        -13    1    3    3    0    0  0.71769514716E+02  0.13487376610E+02  0.18044997923E+03  0.19466629799E+03  0.00000000000E+00 0.  1.
         13    1    3    3    0    0 -0.21815666400E+02  0.96131833904E+01  0.27925769316E+02  0.36717641363E+02  0.00000000000E+00 0. -1.
         -2    1    1    2    0  502 -0.11289324027E+02 -0.21933105952E+02  0.23202915127E+02  0.33865694206E+02  0.00000000000E+00 0.  1.
<scales pt_clust_5="13000.00000" pt_clust_6="13000.00000" pt_clust_7="13000.00000" pt_clust_8="13000.00000" pt_clust_9="24.66799"></scales>
<clustering>
<clus scale="   24.668">  2  9  1 -1</clus>
<clus scale="   80.144">  5  6 -1 -1</clus>
<clus scale="   84.197">  7  8 -1 -1</clus>
<clus scale="   94.171">  2  5  1 -1</clus>
<clus scale="   24.668">  2  5  1 -1</clus>
</clustering>
</event>
<event>
 9    2  0.1302972E-004  0.9471807E+02  0.7546771E-02  0.1301826E+00
         21   -1    0    0  501  502  0.00000000000E+00  0.00000000000E+00  0.55561757702E+02  0.55561757702E+02  0.00000000000E+00 0. -1.
          2   -1    0    0  502    0 -0.00000000000E+00 -0.00000000000E+00 -0.35702718997E+03  0.35702718997E+03  0.00000000000E+00 0. -1.
         24    2    1    2    0    0 -0.18523442393E+02  0.41395987858E+02 -0.21031035669E+03  0.22743557805E+03  0.73754662904E+02 0.  0.
         23    2    1    2    0    0 -0.71063088593E+01  0.14741190695E+02 -0.80867575685E+02  0.12259060419E+03  0.90670221740E+02 0.  0.
        -11    1    3    3    0    0  0.96365848095E+01  0.39574201819E+02 -0.49196873782E+02  0.63869504510E+02  0.00000000000E+00 0.  1.
         12    1    3    3    0    0 -0.28160027203E+02  0.18217860390E+01 -0.16111348291E+03  0.16356607354E+03  0.00000000000E+00 0. -1.
        -13    1    4    4    0    0  0.34699607395E+02  0.24402781475E+02 -0.63356765810E+02  0.76247218119E+02  0.00000000000E+00 0.  1.
         13    1    4    4    0    0 -0.41805916254E+02 -0.96615907798E+01 -0.17510809876E+02  0.46343386073E+02  0.00000000000E+00 0. -1.
          1    1    1    2  501    0  0.25629751253E+02 -0.56137178553E+02 -0.10287499894E+02  0.62562765438E+02  0.00000000000E+00 0. -1.
<scales pt_clust_5="13000.00000" pt_clust_6="13000.00000" pt_clust_7="13000.00000" pt_clust_8="13000.00000" pt_clust_9="61.71116"></scales>
<clustering>
<clus scale="   61.711">  1  9  2 -1</clus>
<clus scale="   73.755">  5  6 -1 -1</clus>
<clus scale="   78.678">  2  5  1 -1</clus>
<clus scale="   90.670">  7  8 -1 -1</clus>
<clus scale="   61.711">  1  5  2 -1</clus>
</clustering>
</event>
<event>
 9    2  0.1302972E-004  0.1086959E+03  0.7546771E-02  0.1268578E+00
          2   -1    0    0  502    0 -0.00000000000E+00  0.00000000000E+00  0.86590529881E+02  0.86590529881E+02  0.00000000000E+00 0. -1.
         21   -1    0    0  501  502  0.00000000000E+00 -0.00000000000E+00 -0.65677291598E+03  0.65677291598E+03  0.00000000000E+00 0. -1.
         24    2    1    2    0    0  0.49834173467E+02  0.34403559070E+02  0.24849805922E+02  0.10306977782E+03  0.79616684953E+02 0.  0.
         23    2    1    2    0    0 -0.47189380085E+02  0.63327049790E+02 -0.44340990906E+03  0.45988417957E+03  0.92972890360E+02 0.  0.
        -13    1    3    3    0    0  0.30233862229E+02  0.97736726213E+01 -0.27475657349E+02  0.42006223926E+02  0.00000000000E+00 0.  1.
         14    1    3    3    0    0  0.19600311238E+02  0.24629886448E+02  0.52325463271E+02  0.61063553889E+02  0.00000000000E+00 0. -1.
        -11    1    4    4    0    0  0.14018350542E+02  0.48436167639E+02 -0.11624747028E+03  0.12671247308E+03  0.00000000000E+00 0.  1.
         11    1    4    4    0    0 -0.61207730627E+02  0.14890882152E+02 -0.32716243878E+03  0.33317170650E+03  0.00000000000E+00 0. -1.
          1    1    1    2  501    0 -0.26447933818E+01 -0.97730608860E+02 -0.15162228296E+03  0.18040948847E+03  0.00000000000E+00 0. -1.
<scales pt_clust_5="13000.00000" pt_clust_6="13000.00000" pt_clust_7="13000.00000" pt_clust_8="13000.00000" pt_clust_9="97.76639"></scales>
<clustering>
<clus scale="   79.617">  5  6 -1 -1</clus>
<clus scale="   92.973">  7  8 -1 -1</clus>
<clus scale="   97.766">  2  9  1 -1</clus>
<clus scale="   97.517">  1  5  2 -1</clus>
<clus scale="   97.766">  2  5  1 -1</clus>
</clustering>
</event>
<event>
 9    2  0.1302972E-004  0.1266116E+03  0.7546771E-02  0.1234942E+00
          2   -1    0    0  502    0 -0.00000000000E+00  0.00000000000E+00  0.19515288752E+03  0.19515288752E+03  0.00000000000E+00 0. -1.
         21   -1    0    0  501  502  0.00000000000E+00 -0.00000000000E+00 -0.11971059225E+03  0.11971059225E+03  0.00000000000E+00 0. -1.
         24    2    1    2    0    0  0.70588102983E+02  0.42929346451E+02  0.84597496059E+02  0.14262162875E+03  0.79740727227E+02 0.  0.
         23    2    1    2    0    0 -0.88917746982E+02 -0.62044510800E+02  0.87478316333E+01  0.14027493175E+03  0.88569999838E+02 0.  0.
        -11    1    3    3    0    0  0.36683847897E+02 -0.17532017079E+02  0.12337268577E+02  0.42488639838E+02  0.00000000000E+00 0.  1.
         12    1    3    3    0    0  0.33904255086E+02  0.60461363530E+02  0.72260227482E+02  0.10013298891E+03  0.00000000000E+00 0. -1.
        -13    1    4    4    0    0 -0.61611381240E-01 -0.42309244807E+02 -0.17131393436E+02  0.45646036336E+02  0.00000000000E+00 0.  1.
         13    1    4    4    0    0 -0.88856135601E+02 -0.19735265993E+02  0.25879225069E+02  0.94628895417E+02  0.00000000000E+00 0. -1.
          1    1    1    2  501    0  0.18329643999E+02  0.19115164349E+02 -0.17903032423E+02  0.31966919263E+02  0.00000000000E+00 0. -1.
<scales pt_clust_5="13000.00000" pt_clust_6="13000.00000" pt_clust_7="13000.00000" pt_clust_8="13000.00000" pt_clust_9="26.48330"></scales>
<clustering>
<clus scale="   26.483">  2  9  1 -1</clus>
<clus scale="   79.741">  5  6 -1 -1</clus>
<clus scale="   88.570">  7  8 -1 -1</clus>
<clus scale="  120.600">  1  5  2 -1</clus>
<clus scale="   26.483">  2  5  1 -1</clus>
</clustering>
</event>
<event>
 9    2  0.1302972E-004  0.2656237E+03  0.7546771E-02  0.1149063E+00
          2   -1    0    0  502    0 -0.00000000000E+00  0.00000000000E+00  0.11781628049E+04  0.11781628049E+04  0.00000000000E+00 0. -1.
         21   -1    0    0  501  502  0.00000000000E+00 -0.00000000000E+00 -0.88744686045E+02  0.88744686045E+02  0.00000000000E+00 0. -1.
         24    2    1    2    0    0 -0.26172208951E+02 -0.13057547567E+02  0.38717264386E+03  0.39677271775E+03  0.81672818770E+02 0.  0.
         23    2    1    2    0    0  0.18862177640E+03  0.18138049142E+03  0.38606022325E+03  0.47682117209E+03  0.99191113357E+02 0.  0.
        -13    1    3    3    0    0 -0.10666367569E+02 -0.24259812144E+02  0.34122870284E+02  0.43205094131E+02  0.00000000000E+00 0.  1.
         14    1    3    3    0    0 -0.15505841382E+02  0.11202264577E+02  0.35304977358E+03  0.35356762362E+03  0.00000000000E+00 0. -1.
        -13    1    4    4    0    0  0.48141477717E+02  0.76714135698E+02  0.20882007100E+03  0.22761476785E+03  0.00000000000E+00 0.  1.
         13    1    4    4    0    0  0.14048029869E+03  0.10466635572E+03  0.17724015225E+03  0.24920640423E+03  0.00000000000E+00 0. -1.
          1    1    1    2  501    0 -0.16244956745E+03 -0.16832294385E+03  0.31618525170E+03  0.39331360107E+03  0.00000000000E+00 0. -1.
<scales pt_clust_5="13000.00000" pt_clust_6="13000.00000" pt_clust_7="13000.00000" pt_clust_8="13000.00000" pt_clust_9="246.40833"></scales>
<clustering>
<clus scale="   81.673">  5  6 -1 -1</clus>
<clus scale="   86.752">  1  5  2 -1</clus>
<clus scale="   99.191">  7  8 -1 -1</clus>
<clus scale="  246.408">  2  9  1 -1</clus>
<clus scale="  246.408">  2  5  1 -1</clus>
</clustering>
</event>
<event>
 9    2  0.1302972E-004  0.9869137E+02  0.7546771E-02  0.1285679E+00
          2   -1    0    0  502    0 -0.00000000000E+00  0.00000000000E+00  0.34471781756E+03  0.34471781756E+03  0.00000000000E+00 0. -1.
         21   -1    0    0  501  502  0.00000000000E+00 -0.00000000000E+00 -0.15579723228E+03  0.15579723228E+03  0.00000000000E+00 0.  1.
         24    2    1    2    0    0 -0.10092713893E+02 -0.58066634285E+02  0.21713230635E+03  0.23812559260E+03  0.77998477532E+02 0.  0.
         23    2    1    2    0    0  0.11431477431E+02 -0.29370782392E+02 -0.11062368096E+03  0.14222779423E+03  0.83653004301E+02 0.  0.
        -11    1    3    3    0    0  0.23289510549E+02  0.64012533902E+01  0.70153745911E+02  0.74195184560E+02  0.00000000000E+00 0.  1.
         12    1    3    3    0    0 -0.33382224442E+02 -0.64467887675E+02  0.14697856044E+03  0.16393040804E+03  0.00000000000E+00 0. -1.
        -13    1    4    4    0    0 -0.35240915729E+02 -0.98607910800E+01 -0.62399221928E+02  0.72338234976E+02  0.00000000000E+00 0. -1.
         13    1    4    4    0    0  0.46672393160E+02 -0.19509991312E+02 -0.48224459034E+02  0.69889559259E+02  0.00000000000E+00 0.  1.
          1    1    1    2  501    0 -0.13387635372E+01  0.87437416676E+02  0.82411959889E+02  0.12016166300E+03  0.00000000000E+00 0. -1.
<scales pt_clust_5="13000.00000" pt_clust_6="13000.00000" pt_clust_7="13000.00000" pt_clust_8="13000.00000" pt_clust_9="87.44771"></scales>
<clustering>
<clus scale="   77.998">  5  6 -1 -1</clus>
<clus scale="   83.653">  7  8 -1 -1</clus>
<clus scale="   87.448">  2  9  1 -1</clus>
<clus scale="   93.946">  1  5  2 -1</clus>
<clus scale="   87.448">  2  5  1 -1</clus>
</clustering>
</event>
<event>
 9    2  0.1302972E-004  0.1202459E+03  0.7546771E-02  0.1243003E+00
         -1   -1    0    0    0  501 -0.00000000000E+00  0.00000000000E+00  0.11292072911E+04  0.11292072911E+04  0.00000000000E+00 0.  1.
         21   -1    0    0  501  502  0.00000000000E+00 -0.00000000000E+00 -0.25120892594E+02  0.25120892594E+02  0.00000000000E+00 0.  1.
         24    2    1    2    0    0 -0.70670850455E+02 -0.55209065362E+02  0.54978190813E+03  0.56479270093E+03  0.93210721010E+02 0.  0.
         23    2    1    2    0    0  0.89775769313E+01  0.60897690624E+02  0.18993408559E+03  0.21993541196E+03  0.92236126081E+02 0.  0.
        -13    1    3    3    0    0 -0.38803257242E+02 -0.79904690853E+02  0.36319157833E+03  0.37389647627E+03  0.00000000000E+00 0.  1.
         14    1    3    3    0    0 -0.31867593213E+02  0.24695625492E+02  0.18659032980E+03  0.19089622466E+03  0.00000000000E+00 0. -1.
        -11    1    4    4    0    0 -0.26018878955E+02 -0.35713387744E+01  0.10247045754E+03  0.10578247110E+03  0.00000000000E+00 0. -1.
         11    1    4    4    0    0  0.34996455886E+02  0.64469029399E+02  0.87463628046E+02  0.11415294086E+03  0.00000000000E+00 0.  1.
         -2    1    1    2    0  502  0.61693273524E+02 -0.56886252629E+01  0.36437040477E+03  0.36960007079E+03  0.00000000000E+00 0.  1.
<scales pt_clust_5="13000.00000" pt_clust_6="13000.00000" pt_clust_7="13000.00000" pt_clust_8="13000.00000" pt_clust_9="61.95502"></scales>
<clustering>
<clus scale="   61.955">  2  9  1 -1</clus>
<clus scale="   92.236">  7  8 -1 -1</clus>
<clus scale="   93.211">  5  6 -1 -1</clus>
<clus scale="  119.492">  2  7  1 -1</clus>
<clus scale="   61.955">  2  5  1 -1</clus>
</clustering>
</event>
<event>
 9    2  0.1302972E-004  0.9232782E+02  0.7546771E-02  0.1298010E+00
          2   -1    0    0  502    0 -0.00000000000E+00  0.00000000000E+00  0.15110403364E+03  0.15110403364E+03  0.00000000000E+00 0. -1.
         21   -1    0    0  501  502  0.00000000000E+00 -0.00000000000E+00 -0.12205737070E+03  0.12205737070E+03  0.00000000000E+00 0.  1.
         23    2    1    2    0    0 -0.82398784066E+01  0.24755647709E+02  0.70744441510E+02  0.11792761943E+03  0.90671989782E+02 0.  0.
         24    2    1    2    0    0  0.70366265577E+01  0.17718999288E+02 -0.59545719724E+02  0.10914590737E+03  0.89463172917E+02 0.  0.
        -11    1    4    4    0    0  0.16716981940E+02  0.50861426985E+02 -0.50162613362E+02  0.73366409340E+02  0.00000000000E+00 0.  1.
         12    1    4    4    0    0 -0.96803553827E+01 -0.33142427697E+02 -0.93831063624E+01  0.35779498026E+02  0.00000000000E+00 0. -1.
        -13    1    3    3    0    0  0.27667437911E+02 -0.85204076367E+01 -0.33269385920E+01  0.29140229705E+02  0.00000000000E+00 0.  1.
         13    1    3    3    0    0 -0.35907316318E+02  0.33276055346E+02  0.74071380102E+02  0.88787389728E+02  0.00000000000E+00 0. -1.
          1    1    1    2  501    0  0.12032518488E+01 -0.42474646996E+02  0.17847941159E+02  0.46087877540E+02  0.00000000000E+00 0. -1.
<scales pt_clust_5="13000.00000" pt_clust_6="13000.00000" pt_clust_7="13000.00000" pt_clust_8="13000.00000" pt_clust_9="42.49171"></scales>
<clustering>
<clus scale="   42.492">  2  9  1 -1</clus>
<clus scale="   89.463">  5  6 -1 -1</clus>
<clus scale="   90.672">  7  8 -1 -1</clus>
<clus scale="   91.141">  2  5  1 -1</clus>
<clus scale="   42.492">  2  5  1 -1</clus>
</clustering>
</event>
<event>
 9    2  0.1302972E-004  0.1135192E+03  0.7546771E-02  0.1257725E+00
         21   -1    0    0  501  502  0.00000000000E+00  0.00000000000E+00  0.76599286072E+03  0.76599286072E+03  0.00000000000E+00 0. -1.
          2   -1    0    0  502    0 -0.00000000000E+00 -0.00000000000E+00 -0.16352044504E+03  0.16352044504E+03  0.00000000000E+00 0. -1.
         23    2    1    2    0    0 -0.28272322006E+02  0.65750469631E+02 -0.86198377446E+02  0.14403296731E+03  0.90514567608E+02 0.  0.
         24    2    1    2    0    0  0.62398206011E+02  0.31802303070E+02  0.67242707112E+03  0.68086208992E+03  0.80685171607E+02 0.  0.
        -11    1    4    4    0    0  0.68456170656E+02  0.21436645484E+02  0.30823221428E+03  0.31646939029E+03  0.00000000000E+00 0.  1.
         12    1    4    4    0    0 -0.60579646454E+01  0.10365657586E+02  0.36419485684E+03  0.36439269963E+03  0.00000000000E+00 0. -1.
        -11    1    3    3    0    0 -0.32233543632E+02  0.29349838358E+02  0.67678093073E+01  0.44115956178E+02  0.00000000000E+00 0. -1.
         11    1    3    3    0    0  0.39612216258E+01  0.36400631273E+02 -0.92966186753E+02  0.99917011131E+02  0.00000000000E+00 0.  1.
          1    1    1    2  501    0 -0.34125884005E+02 -0.97552772702E+02  0.16243721995E+02  0.10461824853E+03  0.00000000000E+00 0. -1.
<scales pt_clust_5="13000.00000" pt_clust_6="13000.00000" pt_clust_7="13000.00000" pt_clust_8="13000.00000" pt_clust_9="103.34955"></scales>
<clustering>
<clus scale="   80.685">  5  6 -1 -1</clus>
<clus scale="   90.515">  7  8 -1 -1</clus>
<clus scale="  103.350">  1  9  2 -1</clus>
<clus scale="  105.848">  1  5  2 -1</clus>
<clus scale="  103.350">  1  5  2 -1</clus>
</clustering>
</event>
<event>
 9    2  0.1302972E-004  0.1774242E+03  0.7546771E-02  0.1171898E+00
          2   -1    0    0  502    0 -0.00000000000E+00  0.00000000000E+00  0.58639098655E+03  0.58639098655E+03  0.00000000000E+00 0. -1.
         21   -1    0    0  501  502  0.00000000000E+00 -0.00000000000E+00 -0.82086665113E+02  0.82086665113E+02  0.00000000000E+00 0.  1.
         24    2    1    2    0    0 -0.28926006246E+02 -0.15164678061E+03  0.40727340289E+03  0.44251969023E+03  0.78221426954E+02 0.  0.
         23    2    1    2    0    0  0.55271169508E+02  0.13707126660E+03  0.87055130130E+02  0.19423999191E+03  0.91143537727E+02 0.  0.
        -13    1    3    3    0    0  0.23810083761E+02 -0.36041759995E+02  0.14125596163E+03  0.14771315192E+03  0.00000000000E+00 0.  1.
         14    1    3    3    0    0 -0.52736090007E+02 -0.11560502062E+03  0.26601744125E+03  0.29480653831E+03  0.00000000000E+00 0. -1.
        -11    1    4    4    0    0  0.50465821012E+02  0.86803729428E+02  0.83839872349E+01  0.10075702345E+03  0.00000000000E+00 0.  1.
         11    1    4    4    0    0  0.48053484962E+01  0.50267537175E+02  0.78671142895E+02  0.93482968460E+02  0.00000000000E+00 0. -1.
          1    1    1    2  501    0 -0.26345163262E+02  0.14575514009E+02  0.99757884212E+01  0.31717969521E+02  0.00000000000E+00 0. -1.
<scales pt_clust_5="13000.00000" pt_clust_6="13000.00000" pt_clust_7="13000.00000" pt_clust_8="13000.00000" pt_clust_9="30.10836"></scales>
<clustering>
<clus scale="   30.108">  2  9  1 -1</clus>
<clus scale="   78.221">  5  6 -1 -1</clus>
<clus scale="   91.144">  7  8 -1 -1</clus>
<clus scale="  171.145">  1  5  2 -1</clus>
<clus scale="   30.108">  2  5  1 -1</clus>
</clustering>
</event>
<event>
 9    2  0.1302972E-004  0.9335471E+02  0.7546771E-02  0.1297128E+00
         21   -1    0    0  501  502  0.00000000000E+00  0.00000000000E+00  0.23929973793E+03  0.23929973793E+03  0.00000000000E+00 0.  1.
          2   -1    0    0  502    0 -0.00000000000E+00 -0.00000000000E+00 -0.24162178436E+03  0.24162178436E+03  0.00000000000E+00 0. -1.
         23    2    1    2    0    0 -0.14579764268E+02  0.30879897940E+02  0.33446847705E+02  0.10337265081E+03  0.91657382083E+02 0.  0.
         24    2    1    2    0    0 -0.59881974737E+02  0.18986565844E+02  0.14297740080E+03  0.17759524500E+03  0.84564728616E+02 0.  0.
        -11    1    4    4    0    0 -0.39862894362E+02 -0.26076749185E+02  0.10518564144E+03  0.11546889780E+03  0.00000000000E+00 0.  1.
         12    1    4    4    0    0 -0.20019080375E+02  0.45063315029E+02  0.37791759366E+02  0.62126347200E+02  0.00000000000E+00 0. -1.
        -11    1    3    3    0    0 -0.35668835036E+02  0.47393893721E+02 -0.15073605957E+01  0.59335647724E+02  0.00000000000E+00 0.  1.
         11    1    3    3    0    0  0.21089070768E+02 -0.16513995781E+02  0.34954208301E+02  0.44037003082E+02  0.00000000000E+00 0. -1.
          1    1    1    2  501    0  0.74461739004E+02 -0.49866463785E+02 -0.17874629494E+03  0.19995362648E+03  0.00000000000E+00 0. -1.
<scales pt_clust_5="13000.00000" pt_clust_6="13000.00000" pt_clust_7="13000.00000" pt_clust_8="13000.00000" pt_clust_9="89.61709"></scales>
<clustering>
<clus scale="   84.565">  5  6 -1 -1</clus>
<clus scale="   89.617">  1  9  2 -1</clus>
<clus scale="   89.617">  1  5  2 -1</clus>
<clus scale="   91.657">  7  8 -1 -1</clus>
<clus scale="   89.617">  1  5  2 -1</clus>
</clustering>
</event>
<event>
 9    2  0.1302972E-004  0.1080809E+03  0.7546771E-02  0.1272931E+00
         21   -1    0    0  501  502  0.00000000000E+00  0.00000000000E+00  0.40091712686E+02  0.40091712686E+02  0.00000000000E+00 0.  1.
          2   -1    0    0  502    0 -0.00000000000E+00 -0.00000000000E+00 -0.76480235547E+03  0.76480235547E+03  0.00000000000E+00 0. -1.
         23    2    1    2    0    0  0.34819272815E+02  0.54936891109E+02 -0.37474155876E+03  0.39086170339E+03  0.90062153818E+02 0.  0.
         24    2    1    2    0    0  0.18891023880E+02 -0.55208188096E+02 -0.38804419414E+02  0.98266125161E+02  0.68888559079E+02 0.  0.
        -11    1    4    4    0    0  0.41985161615E+02 -0.16645230858E+02 -0.22428102689E+02  0.50426553485E+02  0.00000000000E+00 0.  1.
         12    1    4    4    0    0 -0.23094137734E+02 -0.38562957238E+02 -0.16376316725E+02  0.47839571676E+02  0.00000000000E+00 0. -1.
        -11    1    3    3    0    0  0.48870375050E+02  0.77572988591E+01 -0.98086554346E+02  0.10986110042E+03  0.00000000000E+00 0. -1.
         11    1    3    3    0    0 -0.14051102235E+02  0.47179592250E+02 -0.27665500441E+03  0.28100060296E+03  0.00000000000E+00 0.  1.
          1    1    1    2  501    0 -0.53710296695E+02  0.27129698724E+00 -0.31116466461E+03  0.31576623961E+03  0.00000000000E+00 0. -1.
<scales pt_clust_5="13000.00000" pt_clust_6="13000.00000" pt_clust_7="13000.00000" pt_clust_8="13000.00000" pt_clust_9="53.71101"></scales>
<clustering>
<clus scale="   53.711">  1  9  2 -1</clus>
<clus scale="   68.889">  5  6 -1 -1</clus>
<clus scale="   90.062">  7  8 -1 -1</clus>
<clus scale="   91.192">  1  5  2 -1</clus>
<clus scale="   53.711">  1  5  2 -1</clus>
</clustering>
</event>
<event>
 9    2  0.1302972E-004  0.1539260E+03  0.7546771E-02  0.1216897E+00
         21   -1    0    0  501  502  0.00000000000E+00  0.00000000000E+00  0.39481957050E+02  0.39481957050E+02  0.00000000000E+00 0.  1.
          2   -1    0    0  502    0 -0.00000000000E+00 -0.00000000000E+00 -0.97629607548E+03  0.97629607548E+03  0.00000000000E+00 0. -1.
         24    2    1    2    0    0 -0.53145882641E+02 -0.24390875071E+02 -0.32386682876E+03  0.33827434347E+03  0.78233043225E+02 0.  0.
         23    2    1    2    0    0 -0.98263341301E+02  0.12450551104E+01 -0.27584437011E+03  0.30723505624E+03  0.92984024718E+02 0.  0.
        -11    1    3    3    0    0 -0.44526259135E+02 -0.51745868599E+02 -0.24588291814E+03  0.25518352632E+03  0.00000000000E+00 0.  1.
         12    1    3    3    0    0 -0.86196235060E+01  0.27354993527E+02 -0.77983910611E+02  0.83090817149E+02  0.00000000000E+00 0. -1.
        -13    1    4    4    0    0 -0.58038431045E+02 -0.14689034731E+02 -0.52155623649E+02  0.79400480463E+02  0.00000000000E+00 0.  1.
         13    1    4    4    0    0 -0.40224910256E+02  0.15934089841E+02 -0.22368874646E+03  0.22783457577E+03  0.00000000000E+00 0. -1.
          1    1    1    2  501    0  0.15140922394E+03  0.23145819961E+02 -0.33710291956E+03  0.37026863282E+03  0.00000000000E+00 0. -1.
<scales pt_clust_5="13000.00000" pt_clust_6="13000.00000" pt_clust_7="13000.00000" pt_clust_8="13000.00000" pt_clust_9="122.66708"></scales>
<clustering>
<clus scale="   78.233">  5  6 -1 -1</clus>
<clus scale="   92.984">  7  8 -1 -1</clus>
<clus scale="   97.672">  2  5  1 -1</clus>
<clus scale="  122.667">  1  9  2 -1</clus>
<clus scale="  122.667">  1  5  2 -1</clus>
</clustering>
</event>
<event>
 9    2  0.1302972E-004  0.1744314E+03  0.7546771E-02  0.1173740E+00
          2   -1    0    0  502    0 -0.00000000000E+00  0.00000000000E+00  0.12399687200E+04  0.12399687200E+04  0.00000000000E+00 0. -1.
         21   -1    0    0  501  502  0.00000000000E+00 -0.00000000000E+00 -0.60854524223E+02  0.60854524223E+02  0.00000000000E+00 0.  1.
         23    2    1    2    0    0 -0.11339332314E+03 -0.53991522524E+02  0.45516461338E+03  0.48080197815E+03  0.90678479737E+02 0.  0.
         24    2    1    2    0    0  0.19799492956E+03  0.93504208116E+02  0.28604680189E+03  0.37227409488E+03  0.93915918664E+02 0.  0.
        -11    1    4    4    0    0  0.94710293295E+02  0.24473947089E+01  0.77647648011E+02  0.12249565967E+03  0.00000000000E+00 0.  1.
         12    1    4    4    0    0  0.10328463627E+03  0.91056813407E+02  0.20839915388E+03  0.24977843521E+03  0.00000000000E+00 0. -1.
        -11    1    3    3    0    0 -0.24609721687E+02  0.21742128920E+02  0.16141318714E+03  0.16471968781E+03  0.00000000000E+00 0.  1.
         11    1    3    3    0    0 -0.88783601453E+02 -0.75733651444E+02  0.29375142624E+03  0.31608229034E+03  0.00000000000E+00 0. -1.
          1    1    1    2  501    0 -0.84601606422E+02 -0.39512685592E+02  0.43790278048E+03  0.44774717117E+03  0.00000000000E+00 0. -1.
<scales pt_clust_5="13000.00000" pt_clust_6="13000.00000" pt_clust_7="13000.00000" pt_clust_8="13000.00000" pt_clust_9="93.37394"></scales>
<clustering>
<clus scale="   90.678">  7  8 -1 -1</clus>
<clus scale="   93.374">  2  9  1 -1</clus>
<clus scale="   93.916">  5  6 -1 -1</clus>
<clus scale="  172.710">  1  7  2 -1</clus>
<clus scale="   93.374">  2  5  1 -1</clus>
</clustering>
</event>
<event>
 9    2  0.1302972E-004  0.1415582E+03  0.7546771E-02  0.1213792E+00
         21   -1    0    0  501  502  0.00000000000E+00  0.00000000000E+00  0.11846988869E+03  0.11846988869E+03  0.00000000000E+00 0. -1.
          2   -1    0    0  502    0 -0.00000000000E+00 -0.00000000000E+00 -0.33692613178E+03  0.33692613178E+03  0.00000000000E+00 0. -1.
         24    2    1    2    0    0  0.54247579762E+02  0.91535453035E+02 -0.15164949912E+03  0.20180244484E+03  0.80031975411E+02 0.  0.
         23    2    1    2    0    0 -0.23055714562E+02 -0.11463561080E+03  0.27788005509E+02  0.15134526821E+03  0.91980039792E+02 0.  0.
        -11    1    3    3    0    0  0.40519482547E+02 -0.22843621442E-01 -0.48467042894E+02  0.63173437730E+02  0.00000000000E+00 0.  1.
         12    1    3    3    0    0  0.13728097214E+02  0.91558296656E+02 -0.10318245622E+03  0.13862900711E+03  0.00000000000E+00 0. -1.
        -11    1    4    4    0    0  0.68259750969E+01 -0.88428989364E+02 -0.18222862007E+02  0.90544755760E+02  0.00000000000E+00 0.  1.
         11    1    4    4    0    0 -0.29881689659E+02 -0.26206621438E+02  0.46010867516E+02  0.60800512445E+02  0.00000000000E+00 0. -1.
          1    1    1    2  501    0 -0.31191865200E+02  0.23100157767E+02 -0.94594749476E+02  0.10224830743E+03  0.00000000000E+00 0. -1.
<scales pt_clust_5="13000.00000" pt_clust_6="13000.00000" pt_clust_7="13000.00000" pt_clust_8="13000.00000" pt_clust_9="38.81432"></scales>
<clustering>
<clus scale="   38.814">  1  9  2 -1</clus>
<clus scale="   80.032">  5  6 -1 -1</clus>
<clus scale="   91.980">  7  8 -1 -1</clus>
<clus scale="  134.103">  2  5  1 -1</clus>
<clus scale="   38.814">  1  5  2 -1</clus>
</clustering>
</event>
<event>
 9    2  0.1302972E-004  0.1478409E+03  0.7546771E-02  0.1204756E+00
          2   -1    0    0  502    0 -0.00000000000E+00  0.00000000000E+00  0.53536943965E+03  0.53536943965E+03  0.00000000000E+00 0. -1.
         21   -1    0    0  501  502  0.00000000000E+00 -0.00000000000E+00 -0.96760585308E+02  0.96760585308E+02  0.00000000000E+00 0. -1.
         24    2    1    2    0    0 -0.13745836518E+03  0.34135975213E+01  0.30583516457E+03  0.34480625895E+03  0.80310357478E+02 0.  0.
         23    2    1    2    0    0  0.54724895607E+02 -0.72535432980E+02  0.15610845913E+02  0.12810760129E+03  0.88947488785E+02 0.  0.
        -13    1    3    3    0    0 -0.98053661022E+02  0.34915380314E+02  0.24206328817E+03  0.26349239022E+03  0.00000000000E+00 0.  1.
         14    1    3    3    0    0 -0.39404704160E+02 -0.31501782793E+02  0.63771876398E+02  0.81313868734E+02  0.00000000000E+00 0. -1.
        -13    1    4    4    0    0 -0.22901947418E+02 -0.16513199272E+02  0.15844345072E+02  0.32376352736E+02  0.00000000000E+00 0.  1.
         13    1    4    4    0    0  0.77626843025E+02 -0.56022233709E+02 -0.23349915929E+00  0.95731248553E+02  0.00000000000E+00 0. -1.
          1    1    1    2  501    0  0.82733469575E+02  0.69121835459E+02  0.11716284385E+03  0.15921616471E+03  0.00000000000E+00 0. -1.
<scales pt_clust_5="13000.00000" pt_clust_6="13000.00000" pt_clust_7="13000.00000" pt_clust_8="13000.00000" pt_clust_9="107.80847"></scales>
<clustering>
<clus scale="   80.310">  5  6 -1 -1</clus>
<clus scale="   88.947">  7  8 -1 -1</clus>
<clus scale="  107.808">  2  9  1 -1</clus>
<clus scale="  142.811">  1  5  2 -1</clus>
<clus scale="  107.808">  2  5  1 -1</clus>
</clustering>
</event>
<event>
 9    2  0.1302972E-004  0.1102786E+03  0.7546771E-02  0.1264157E+00
         21   -1    0    0  501  502  0.00000000000E+00  0.00000000000E+00  0.55889426722E+02  0.55889426722E+02  0.00000000000E+00 0.  1.
          2   -1    0    0  502    0 -0.00000000000E+00 -0.00000000000E+00 -0.49258273320E+03  0.49258273320E+03  0.00000000000E+00 0. -1.
         23    2    1    2    0    0 -0.96925418152E+00  0.49685093384E+02 -0.16990061772E+03  0.19945621565E+03  0.91907638978E+02 0.  0.
         24    2    1    2    0    0 -0.28084684106E+02 -0.88612155528E+02 -0.61538362275E+02  0.13809229449E+03  0.81496307751E+02 0.  0.
        -13    1    4    4    0    0 -0.49311267406E+02 -0.31153328399E+02 -0.12561351272E+02  0.59665052663E+02  0.00000000000E+00 0.  1.
         14    1    4    4    0    0  0.21226583300E+02 -0.57458827129E+02 -0.48977011003E+02  0.78427241826E+02  0.00000000000E+00 0. -1.
        -13    1    3    3    0    0 -0.14604469008E+02 -0.24303424468E+02 -0.35525969321E+02  0.45453728693E+02  0.00000000000E+00 0. -1.
         13    1    3    3    0    0  0.13635214826E+02  0.73988517852E+02 -0.13437464840E+03  0.15400248696E+03  0.00000000000E+00 0.  1.
          1    1    1    2  501    0  0.29053938287E+02  0.38927062144E+02 -0.20525432648E+03  0.21092364978E+03  0.00000000000E+00 0. -1.
<scales pt_clust_5="13000.00000" pt_clust_6="13000.00000" pt_clust_7="13000.00000" pt_clust_8="13000.00000" pt_clust_9="48.57417"></scales>
<clustering>
<clus scale="   48.574">  1  9  2 -1</clus>
<clus scale="   81.496">  5  6 -1 -1</clus>
<clus scale="   91.908">  7  8 -1 -1</clus>
<clus scale="  101.764">  1  5  2 -1</clus>
<clus scale="   48.574">  1  5  2 -1</clus>
</clustering>
</event>
<event>
 9    2  0.1302972E-004  0.9387427E+02  0.7546771E-02  0.1294546E+00
          2   -1    0    0  502    0 -0.00000000000E+00  0.00000000000E+00  0.41451291760E+03  0.41451291760E+03  0.00000000000E+00 0. -1.
         21   -1    0    0  501  502  0.00000000000E+00 -0.00000000000E+00 -0.68308636623E+02  0.68308636623E+02  0.00000000000E+00 0. -1.
         24    2    1    2    0    0 -0.27977961101E+02 -0.23125147420E+02  0.30270776552E+03  0.31700182450E+03  0.86836781862E+02 0.  0.
         23    2    1    2    0    0 -0.95644479781E-01  0.46253995833E+02  0.70979760853E+02  0.12023026014E+03  0.85309716475E+02 0.  0.
        -13    1    3    3    0    0  0.82840483083E+01 -0.43760554524E+02  0.92130211596E+02  0.10233077483E+03  0.00000000000E+00 0.  1.
         14    1    3    3    0    0 -0.36262009410E+02  0.20635407104E+02  0.21057755392E+03  0.21467104967E+03  0.00000000000E+00 0. -1.
        -13    1    4    4    0    0  0.27298604808E+02  0.81000772233E+01  0.67347903396E+02  0.73120210389E+02  0.00000000000E+00 0.  1.
         13    1    4    4    0    0 -0.27394249287E+02  0.38153918610E+02  0.36318574571E+01  0.47110049755E+02  0.00000000000E+00 0. -1.
          1    1    1    2  501    0  0.28073605581E+02 -0.23128848413E+02 -0.27483245390E+02  0.45589469578E+02  0.00000000000E+00 0. -1.
<scales pt_clust_5="13000.00000" pt_clust_6="13000.00000" pt_clust_7="13000.00000" pt_clust_8="13000.00000" pt_clust_9="36.37404"></scales>
<clustering>
<clus scale="   36.374">  2  9  1 -1</clus>
<clus scale="   85.310">  7  8 -1 -1</clus>
<clus scale="   86.837">  5  6 -1 -1</clus>
<clus scale="   92.464">  2  7  1 -1</clus>
<clus scale="   36.374">  2  5  1 -1</clus>
</clustering>
</event>
<event>
 9    2  0.1302972E-004  0.2493345E+03  0.7546771E-02  0.1146203E+00
         -1   -1    0    0    0  501 -0.00000000000E+00  0.00000000000E+00  0.43712845335E+03  0.43712845335E+03  0.00000000000E+00 0.  1.
         21   -1    0    0  501  502  0.00000000000E+00 -0.00000000000E+00 -0.23819349133E+03  0.23819349133E+03  0.00000000000E+00 0.  1.
         23    2    1    2    0    0 -0.61241516688E+02  0.10838089411E+01  0.50631876027E+02  0.12316643093E+03  0.94099334913E+02 0.  0.
         24    2    1    2    0    0 -0.10532253512E+03  0.17617535142E+03  0.20278034185E+03  0.30289226999E+03  0.92158935157E+02 0.  0.
        -11    1    4    4    0    0 -0.42517504419E+02  0.29599030814E+02  0.10097363167E+02  0.52780655075E+02  0.00000000000E+00 0.  1.
         12    1    4    4    0    0 -0.62805030701E+02  0.14657632060E+03  0.19268297868E+03  0.25011161492E+03  0.00000000000E+00 0. -1.
        -13    1    3    3    0    0 -0.31895756618E+02 -0.35156891267E+02  0.59066784182E+02  0.75777511752E+02  0.00000000000E+00 0.  1.
         13    1    3    3    0    0 -0.29345760070E+02  0.36240700208E+02 -0.84349081548E+01  0.47388919182E+02  0.00000000000E+00 0. -1.
         -2    1    1    2    0  502  0.16656405181E+03 -0.17725916036E+03 -0.54477255855E+02  0.24926324376E+03  0.00000000000E+00 0.  1.
<scales pt_clust_5="13000.00000" pt_clust_6="13000.00000" pt_clust_7="13000.00000" pt_clust_8="13000.00000" pt_clust_9="231.67738"></scales>
<clustering>
<clus scale="   92.159">  5  6 -1 -1</clus>
<clus scale="   94.099">  7  8 -1 -1</clus>
<clus scale="  112.278">  1  7  2 -1</clus>
<clus scale="  231.677">  2  9  1 -1</clus>
<clus scale="  231.677">  2  5  1 -1</clus>
</clustering>
</event>
<event>
 9    2  0.1302972E-004  0.1058835E+03  0.7546771E-02  0.1281744E+00
          2   -1    0    0  502    0 -0.00000000000E+00  0.00000000000E+00  0.27121436294E+03  0.27121436294E+03  0.00000000000E+00 0. -1.
         21   -1    0    0  501  502  0.00000000000E+00 -0.00000000000E+00 -0.92042059275E+02  0.92042059275E+02  0.00000000000E+00 0.  1.
         24    2    1    2    0    0 -0.57494324734E+02  0.41335825366E+02  0.18152484246E+03  0.20370954097E+03  0.59431143488E+02 0.  0.
         23    2    1    2    0    0  0.23940133847E+01  0.84406461451E+00  0.49824209683E+01  0.89768739505E+02  0.89594410141E+02 0.  0.
        -11    1    3    3    0    0 -0.58070144734E+02  0.99376438810E+01  0.96404355338E+02  0.11298096390E+03  0.00000000000E+00 0.  1.
         12    1    3    3    0    0  0.57582000040E+00  0.31398181485E+02  0.85120487125E+02  0.90728577072E+02  0.00000000000E+00 0. -1.
        -13    1    4    4    0    0 -0.20908077680E+02  0.81485976316E+01 -0.35789762432E+02  0.42242803536E+02  0.00000000000E+00 0.  1.
         13    1    4    4    0    0  0.23302091065E+02 -0.73045330171E+01  0.40772183400E+02  0.47525935970E+02  0.00000000000E+00 0. -1.
          1    1    1    2  501    0  0.55100311349E+02 -0.42179889980E+02 -0.73349597684E+01  0.69778141737E+02  0.00000000000E+00 0. -1.
<scales pt_clust_5="13000.00000" pt_clust_6="13000.00000" pt_clust_7="13000.00000" pt_clust_8="13000.00000" pt_clust_9="69.39155"></scales>
<clustering>
<clus scale="   59.431">  5  6 -1 -1</clus>
<clus scale="   69.392">  2  9  1 -1</clus>
<clus scale="   81.953">  1  5  2 -1</clus>
<clus scale="   89.594">  7  8 -1 -1</clus>
<clus scale="   69.392">  2  5  1 -1</clus>
</clustering>
</event>
<event>
 9    2  0.1302972E-004  0.1297674E+03  0.7546771E-02  0.1231301E+00
          2   -1    0    0  502    0 -0.00000000000E+00  0.00000000000E+00  0.71802073285E+03  0.71802073285E+03  0.00000000000E+00 0. -1.
         21   -1    0    0  501  502  0.00000000000E+00 -0.00000000000E+00 -0.11573745660E+03  0.11573745660E+03  0.00000000000E+00 0. -1.
         23    2    1    2    0    0  0.91656894578E+02  0.29493350148E+01  0.53550554600E+03  0.55116684726E+03  0.92784798456E+02 0.  0.
         24    2    1    2    0    0 -0.85939902669E+02 -0.30812704223E+02  0.15106080668E+03  0.19363804931E+03  0.79631885664E+02 0.  0.
        -11    1    4    4    0    0 -0.70318336589E+02 -0.55569049035E+02  0.96361505023E+02  0.13159835607E+03  0.00000000000E+00 0.  1.
         12    1    4    4    0    0 -0.15621566080E+02  0.24756344812E+02  0.54699301658E+02  0.62039693239E+02  0.00000000000E+00 0. -1.
        -13    1    3    3    0    0  0.58979797420E+01  0.34473511619E+02  0.93753886972E+02  0.10006498134E+03  0.00000000000E+00 0.  1.
         13    1    3    3    0    0  0.85758914836E+02 -0.31524176605E+02  0.44175165903E+03  0.45110186592E+03  0.00000000000E+00 0. -1.
          1    1    1    2  501    0 -0.57169919088E+01  0.27863369208E+02 -0.84283076434E+02  0.88953292875E+02  0.00000000000E+00 0. -1.
<scales pt_clust_5="13000.00000" pt_clust_6="13000.00000" pt_clust_7="13000.00000" pt_clust_8="13000.00000" pt_clust_9="28.44383"></scales>
<clustering>
<clus scale="   28.444">  2  9  1 -1</clus>
<clus scale="   79.632">  5  6 -1 -1</clus>
<clus scale="   92.785">  7  8 -1 -1</clus>
<clus scale="  120.714">  2  5  1 -1</clus>
<clus scale="   28.444">  2  5  1 -1</clus>
</clustering>
</event>
<event>
 9    2  0.1302972E-004  0.1027559E+03  0.7546771E-02  0.1276261E+00
         21   -1    0    0  501  502  0.00000000000E+00  0.00000000000E+00  0.52861610510E+02  0.52861610510E+02  0.00000000000E+00 0.  1.
          2   -1    0    0  502    0 -0.00000000000E+00 -0.00000000000E+00 -0.40056604108E+03  0.40056604108E+03  0.00000000000E+00 0. -1.
         23    2    1    2    0    0 -0.41360810596E+02  0.23953740915E+02 -0.27853298570E+03  0.29706964959E+03  0.91571033761E+02 0.  0.
         24    2    1    2    0    0  0.52217749462E+02  0.11654568770E+02 -0.48937558442E+02  0.11398778841E+03  0.87953447618E+02 0.  0.
        -11    1    4    4    0    0  0.70493605237E+02  0.29942126415E+02 -0.41374009250E+02  0.87049916456E+02  0.00000000000E+00 0.  1.
         12    1    4    4    0    0 -0.18275855775E+02 -0.18287557645E+02 -0.75635491920E+01  0.26937871952E+02  0.00000000000E+00 0. -1.
        -11    1    3    3    0    0  0.43848433110E+01 -0.29929749394E+02 -0.56934867973E+02  0.64471667736E+02  0.00000000000E+00 0.  1.
         11    1    3    3    0    0 -0.45745653908E+02  0.53883490309E+02 -0.22159811773E+03  0.23259798185E+03  0.00000000000E+00 0. -1.
          1    1    1    2  501    0 -0.10856938866E+02 -0.35608309685E+02 -0.20233886426E+02  0.42370213595E+02  0.00000000000E+00 0. -1.
<scales pt_clust_5="13000.00000" pt_clust_6="13000.00000" pt_clust_7="13000.00000" pt_clust_8="13000.00000" pt_clust_9="37.22667"></scales>
<clustering>
<clus scale="   37.227">  1  9  2 -1</clus>
<clus scale="   87.953">  5  6 -1 -1</clus>
<clus scale="   91.571">  7  8 -1 -1</clus>
<clus scale="   99.546">  1  5  2 -1</clus>
<clus scale="   37.227">  1  5  2 -1</clus>
</clustering>
</event>
<event>
 9    2  0.1302972E-004  0.1471294E+03  0.7546771E-02  0.1231294E+00
          2   -1    0    0  502    0 -0.00000000000E+00  0.00000000000E+00  0.38214120399E+02  0.38214120399E+02  0.00000000000E+00 0. -1.
         21   -1    0    0  501  502  0.00000000000E+00 -0.00000000000E+00 -0.12858027828E+04  0.12858027828E+04  0.00000000000E+00 0. -1.
         24    2    1    2    0    0 -0.75232782644E+01  0.16278101248E+02 -0.49085456106E+02  0.96286271175E+02  0.80870808822E+02 0.  0.
         23    2    1    2    0    0  0.11676740792E+03  0.18052648594E+02 -0.59186975588E+03  0.61038387095E+03  0.91094106919E+02 0.  0.
        -13    1    3    3    0    0 -0.37883950626E+02 -0.12347150831E+02 -0.32364698766E+02  0.51333415773E+02  0.00000000000E+00 0.  1.
         14    1    3    3    0    0  0.30360672361E+02  0.28625252079E+02 -0.16720757339E+02  0.44952855402E+02  0.00000000000E+00 0. -1.
        -13    1    4    4    0    0  0.93289400142E+02  0.51082366637E+02 -0.47251064781E+03  0.48433318352E+03  0.00000000000E+00 0. -1.
         13    1    4    4    0    0  0.23478007773E+02 -0.33029718043E+02 -0.11935910807E+03  0.12605068743E+03  0.00000000000E+00 0.  1.
          1    1    1    2  501    0 -0.10924412965E+03 -0.34330749842E+02 -0.60663345039E+03  0.61734676105E+03  0.00000000000E+00 0. -1.
<scales pt_clust_5="13000.00000" pt_clust_6="13000.00000" pt_clust_7="13000.00000" pt_clust_8="13000.00000" pt_clust_9="115.53752"></scales>
<clustering>
<clus scale="   80.871">  5  6 -1 -1</clus>
<clus scale="   82.835">  1  5  2 -1</clus>
<clus scale="   91.094">  7  8 -1 -1</clus>
<clus scale="  115.538">  2  9  1 -1</clus>
<clus scale="  115.538">  2  5  1 -1</clus>
</clustering>
</event>
<event>
 9    2  0.1302972E-004  0.1348366E+03  0.7546771E-02  0.1241403E+00
          2   -1    0    0  502    0 -0.00000000000E+00  0.00000000000E+00  0.39259278789E+03  0.39259278789E+03  0.00000000000E+00 0. -1.
         21   -1    0    0  501  502  0.00000000000E+00 -0.00000000000E+00 -0.23035042493E+03  0.23035042493E+03  0.00000000000E+00 0. -1.
         24    2    1    2    0    0 -0.97285223974E+01 -0.22165007139E+02 -0.14211512548E+02  0.88681552635E+02  0.84122048236E+02 0.  0.
         23    2    1    2    0    0  0.14501631608E+02  0.11893996285E+03  0.32402851114E+03  0.35772144464E+03  0.92807024761E+02 0.  0.
        -11    1    3    3    0    0  0.16826443357E-01 -0.34792503511E+02  0.27291270231E+02  0.44219136293E+02  0.00000000000E+00 0.  1.
         12    1    3    3    0    0 -0.97453488407E+01  0.12627496372E+02 -0.41502782778E+02  0.44462416342E+02  0.00000000000E+00 0. -1.
        -11    1    4    4    0    0 -0.24410038219E+02  0.38581806680E+02  0.19847897957E+03  0.20366224761E+03  0.00000000000E+00 0. -1.
         11    1    4    4    0    0  0.38911669828E+02  0.80358156170E+02  0.12554953157E+03  0.15405919703E+03  0.00000000000E+00 0.  1.
          1    1    1    2  501    0 -0.47731092110E+01 -0.96774955711E+02 -0.14757463563E+03  0.17654021555E+03  0.00000000000E+00 0. -1.
<scales pt_clust_5="13000.00000" pt_clust_6="13000.00000" pt_clust_7="13000.00000" pt_clust_8="13000.00000" pt_clust_9="97.81501"></scales>
<clustering>
<clus scale="   84.122">  5  6 -1 -1</clus>
<clus scale="   87.535">  1  5  2 -1</clus>
<clus scale="   92.807">  7  8 -1 -1</clus>
<clus scale="   97.815">  2  9  1 -1</clus>
<clus scale="   97.815">  2  5  1 -1</clus>
</clustering>
</event>
<event>
 9    2  0.1302972E-004  0.9930539E+02  0.7546771E-02  0.1285893E+00
          2   -1    0    0  502    0 -0.00000000000E+00  0.00000000000E+00  0.19570801538E+03  0.19570801538E+03  0.00000000000E+00 0. -1.
         21   -1    0    0  501  502  0.00000000000E+00 -0.00000000000E+00 -0.21617394814E+03  0.21617394814E+03  0.00000000000E+00 0. -1.
         24    2    1    2    0    0  0.83759914158E+01  0.43076698361E+02  0.13967153516E+03  0.16777136744E+03  0.81934942637E+02 0.  0.
         23    2    1    2    0    0  0.13984527648E+02 -0.33996879134E+02 -0.16926596408E+02  0.98880469570E+02  0.90219082195E+02 0.  0.
        -13    1    3    3    0    0  0.20238976698E+02  0.30337876857E+02  0.11234942359E+02  0.38160540874E+02  0.00000000000E+00 0.  1.
         14    1    3    3    0    0 -0.11862985283E+02  0.12738821505E+02  0.12843659280E+03  0.12961082656E+03  0.00000000000E+00 0. -1.
        -13    1    4    4    0    0  0.18186917590E+01  0.26880200299E+02  0.13056141148E+02  0.29938530851E+02  0.00000000000E+00 0. -1.
         13    1    4    4    0    0  0.12165835889E+02 -0.60877079432E+02 -0.29982737556E+02  0.68941938720E+02  0.00000000000E+00 0.  1.
          1    1    1    2  501    0 -0.22360519064E+02 -0.90798192276E+01 -0.14321087151E+03  0.14523012651E+03  0.00000000000E+00 0. -1.
<scales pt_clust_5="13000.00000" pt_clust_6="13000.00000" pt_clust_7="13000.00000" pt_clust_8="13000.00000" pt_clust_9="24.13371"></scales>
<clustering>
<clus scale="   24.134">  2  9  1 -1</clus>
<clus scale="   81.935">  5  6 -1 -1</clus>
<clus scale="   90.219">  7  8 -1 -1</clus>
<clus scale="   91.844">  1  5  2 -1</clus>
<clus scale="   24.134">  2  5  1 -1</clus>
</clustering>
</event>
<event>
 9    2  0.1302972E-004  0.1148743E+03  0.7546771E-02  0.1256590E+00
         21   -1    0    0  501  502  0.00000000000E+00  0.00000000000E+00  0.15061745005E+03  0.15061745005E+03  0.00000000000E+00 0. -1.
          2   -1    0    0  502    0 -0.00000000000E+00 -0.00000000000E+00 -0.16462152281E+03  0.16462152281E+03  0.00000000000E+00 0. -1.
         24    2    1    2    0    0  0.52449359292E+02 -0.28986045927E+02 -0.48960840255E+02  0.11078282397E+03  0.79275116271E+02 0.  0.
         23    2    1    2    0    0 -0.91557934500E+02 -0.73821483714E+01 -0.15076584285E+02  0.13127512333E+03  0.92566209421E+02 0.  0.
        -11    1    3    3    0    0 -0.53839565739E+01 -0.40096528009E+02 -0.21258907887E+02  0.45701856760E+02  0.00000000000E+00 0.  1.
         12    1    3    3    0    0  0.57833315865E+02  0.11110482082E+02 -0.27701932368E+02  0.65080967210E+02  0.00000000000E+00 0. -1.
        -11    1    4    4    0    0 -0.47338278520E+02 -0.37248959473E+02 -0.40074498062E+02  0.72348897642E+02  0.00000000000E+00 0. -1.
         11    1    4    4    0    0 -0.44219655981E+02  0.29866811102E+02  0.24997913777E+02  0.58926225687E+02  0.00000000000E+00 0.  1.
          1    1    1    2  501    0  0.39108575209E+02  0.36368194299E+02  0.50033351778E+02  0.73181025557E+02  0.00000000000E+00 0. -1.
<scales pt_clust_5="13000.00000" pt_clust_6="13000.00000" pt_clust_7="13000.00000" pt_clust_8="13000.00000" pt_clust_9="53.40530"></scales>
<clustering>
<clus scale="   53.405">  1  9  2 -1</clus>
<clus scale="   79.275">  5  6 -1 -1</clus>
<clus scale="   92.566">  7  8 -1 -1</clus>
<clus scale="  104.461">  2  5  1 -1</clus>
<clus scale="   53.405">  1  5  2 -1</clus>
</clustering>
</event>
<event>
 9    2  0.1302972E-004  0.1627248E+03  0.7546771E-02  0.1187175E+00
          2   -1    0    0  502    0 -0.00000000000E+00  0.00000000000E+00  0.14454595228E+04  0.14454595228E+04  0.00000000000E+00 0. -1.
         21   -1    0    0  501  502  0.00000000000E+00 -0.00000000000E+00 -0.46503756121E+02  0.46503756121E+02  0.00000000000E+00 0. -1.
         24    2    1    2    0    0 -0.11638862942E+03 -0.79931569964E+02  0.12533106207E+04  0.12637116239E+04  0.79020170673E+02 0.  0.
         23    2    1    2    0    0  0.83854639142E+02  0.58758473044E+02  0.10235377371E+03  0.17010611808E+03  0.89306426181E+02 0.  0.
        -11    1    3    3    0    0 -0.36685954535E+02 -0.67298497802E+01  0.13131530151E+03  0.13650955479E+03  0.00000000000E+00 0.  1.
         12    1    3    3    0    0 -0.79702674883E+02 -0.73201720184E+02  0.11219953192E+04  0.11272020691E+04  0.00000000000E+00 0. -1.
        -11    1    4    4    0    0  0.20166310677E+02  0.58795684569E+02  0.82698785534E+02  0.10345386285E+03  0.00000000000E+00 0. -1.
         11    1    4    4    0    0  0.63688328464E+02 -0.37211524861E-01  0.19654988173E+02  0.66652255231E+02  0.00000000000E+00 0.  1.
          1    1    1    2  501    0  0.32533990277E+02  0.21173096920E+02  0.43291372227E+02  0.58145536938E+02  0.00000000000E+00 0. -1.
<scales pt_clust_5="13000.00000" pt_clust_6="13000.00000" pt_clust_7="13000.00000" pt_clust_8="13000.00000" pt_clust_9="38.81701"></scales>
<clustering>
<clus scale="   38.817">  2  9  1 -1</clus>
<clus scale="   79.020">  5  6 -1 -1</clus>
<clus scale="   89.306">  7  8 -1 -1</clus>
<clus scale="  157.315">  1  5  2 -1</clus>
<clus scale="   38.817">  2  5  1 -1</clus>
</clustering>
</event>
<event>
 9    2  0.1302972E-004  0.1444316E+03  0.7546771E-02  0.1207655E+00
          2   -1    0    0  502    0 -0.00000000000E+00  0.00000000000E+00  0.53109045574E+03  0.53109045574E+03  0.00000000000E+00 0. -1.
         21   -1    0    0  501  502  0.00000000000E+00 -0.00000000000E+00 -0.65564319889E+02  0.65564319889E+02  0.00000000000E+00 0.  1.
         24    2    1    2    0    0 -0.98286854165E+02 -0.75038934156E+02  0.31873476377E+03  0.35313311637E+03  0.88430768958E+02 0.  0.
         23    2    1    2    0    0  0.62084745019E+02  0.81798383557E+02  0.15527115990E+03  0.20573026256E+03  0.87580344375E+02 0.  0.
        -13    1    3    3    0    0 -0.40938946833E+01 -0.48984134287E+02  0.67034703418E+02  0.83125548708E+02  0.00000000000E+00 0.  1.
         14    1    3    3    0    0 -0.94192959482E+02 -0.26054799869E+02  0.25170006035E+03  0.27000756766E+03  0.00000000000E+00 0. -1.
        -13    1    4    4    0    0 -0.13955126875E+00  0.71954652617E+02  0.84214497556E+02  0.11076810510E+03  0.00000000000E+00 0.  1.
         13    1    4    4    0    0  0.62224296288E+02  0.98437309397E+01  0.71056662341E+02  0.94962157465E+02  0.00000000000E+00 0. -1.
          1    1    1    2  501    0  0.36202109146E+02 -0.67594494013E+01 -0.84797878212E+01  0.37791396697E+02  0.00000000000E+00 0. -1.
<scales pt_clust_5="13000.00000" pt_clust_6="13000.00000" pt_clust_7="13000.00000" pt_clust_8="13000.00000" pt_clust_9="36.82775"></scales>
<clustering>
<clus scale="   36.828">  2  9  1 -1</clus>
<clus scale="   87.580">  7  8 -1 -1</clus>
<clus scale="   88.431">  5  6 -1 -1</clus>
<clus scale="  143.913">  2  7  1 -1</clus>
<clus scale="   36.828">  2  5  1 -1</clus>
</clustering>
</event>
<event>
 9    2  0.1302972E-004  0.1116739E+03  0.7546771E-02  0.1261439E+00
          2   -1    0    0  502    0 -0.00000000000E+00  0.00000000000E+00  0.97219179868E+02  0.97219179868E+02  0.00000000000E+00 0. -1.
         21   -1    0    0  501  502  0.00000000000E+00 -0.00000000000E+00 -0.20457535228E+03  0.20457535228E+03  0.00000000000E+00 0.  1.
         24    2    1    2    0    0 -0.39165656097E+02  0.59270835787E+02  0.18827541600E+02  0.10918809078E+03  0.80750122313E+02 0.  0.
         23    2    1    2    0    0  0.41210432477E+02 -0.33618971192E+02 -0.59565211916E+02  0.12119058816E+03  0.91162542850E+02 0.  0.
        -11    1    3    3    0    0 -0.61233462167E+02  0.52301882707E+02  0.26547023908E+02  0.84792501449E+02  0.00000000000E+00 0.  1.
         12    1    3    3    0    0  0.22067806070E+02  0.69689530800E+01 -0.77194823082E+01  0.24395589333E+02  0.00000000000E+00 0. -1.
        -11    1    4    4    0    0 -0.21607222568E+02 -0.22702454481E+02 -0.46548539992E+02  0.56116308521E+02  0.00000000000E+00 0.  1.
         11    1    4    4    0    0  0.62817655045E+02 -0.10916516711E+02 -0.13016671923E+02  0.65074279638E+02  0.00000000000E+00 0. -1.
          1    1    1    2  501    0 -0.20447763803E+01 -0.25651864595E+02 -0.66618502094E+02  0.71415853204E+02  0.00000000000E+00 0. -1.
<scales pt_clust_5="13000.00000" pt_clust_6="13000.00000" pt_clust_7="13000.00000" pt_clust_8="13000.00000" pt_clust_9="25.73323"></scales>
<clustering>
<clus scale="   25.733">  2  9  1 -1</clus>
<clus scale="   80.750">  5  6 -1 -1</clus>
<clus scale="   91.163">  7  8 -1 -1</clus>
<clus scale="  103.349">  1  5  2 -1</clus>
<clus scale="   25.733">  2  5  1 -1</clus>
</clustering>
</event>
<event>
 9    2  0.1302972E-004  0.1175864E+03  0.7546771E-02  0.1248184E+00
         -3   -1    0    0    0  501 -0.00000000000E+00  0.00000000000E+00  0.21091196875E+03  0.21091196875E+03  0.00000000000E+00 0.  1.
         21   -1    0    0  501  502  0.00000000000E+00 -0.00000000000E+00 -0.17572054464E+03  0.17572054464E+03  0.00000000000E+00 0.  1.
         23    2    1    2    0    0  0.55023130057E+02 -0.53575633412E+02  0.12690279570E+03  0.17376290494E+03  0.90505990075E+02 0.  0.
         24    2    1    2    0    0 -0.85521066508E+02  0.45454908274E+01 -0.25323206745E+02  0.12488399918E+03  0.87293952529E+02 0.  0.
        -13    1    4    4    0    0 -0.14021931100E+02 -0.32453835826E+02 -0.26803181838E+02  0.44365263081E+02  0.00000000000E+00 0.  1.
         14    1    4    4    0    0 -0.71499135409E+02  0.36999326653E+02  0.14799750936E+01  0.80518736100E+02  0.00000000000E+00 0. -1.
        -13    1    3    3    0    0  0.41477262664E+02  0.12117652178E+02  0.20130727955E+02  0.47670190061E+02  0.00000000000E+00 0. -1.
         13    1    3    3    0    0  0.13545867393E+02 -0.65693285589E+02  0.10677206774E+03  0.12609271487E+03  0.00000000000E+00 0.  1.
         -4    1    1    2    0  502  0.30497936451E+02  0.49030142584E+02 -0.66388164832E+02  0.87985609275E+02  0.00000000000E+00 0.  1.
<scales pt_clust_5="13000.00000" pt_clust_6="13000.00000" pt_clust_7="13000.00000" pt_clust_8="13000.00000" pt_clust_9="57.74148"></scales>
<clustering>
<clus scale="   57.741">  2  9  1 -1</clus>
<clus scale="   87.294">  5  6 -1 -1</clus>
<clus scale="   90.506">  7  8 -1 -1</clus>
<clus scale="  115.132">  2  5  1 -1</clus>
<clus scale="   57.741">  2  5  1 -1</clus>
</clustering>
</event>
<event>
 9    2  0.1302972E-004  0.9749747E+02  0.7546771E-02  0.1292290E+00
         21   -1    0    0  501  502  0.00000000000E+00  0.00000000000E+00  0.24188520160E+03  0.24188520160E+03  0.00000000000E+00 0. -1.
          2   -1    0    0  502    0 -0.00000000000E+00 -0.00000000000E+00 -0.14796495755E+03  0.14796495755E+03  0.00000000000E+00 0. -1.
         24    2    1    2    0    0 -0.26395567746E+02 -0.11519341187E+02 -0.19572705531E+02  0.87008396842E+02  0.79736748750E+02 0.  0.
         23    2    1    2    0    0  0.24754516483E+02  0.64241592100E+02  0.18270916454E+03  0.21581755186E+03  0.91950033398E+02 0.  0.
        -11    1    3    3    0    0 -0.54380435711E+02 -0.33139178179E+01 -0.59016836494E+01  0.54800033845E+02  0.00000000000E+00 0.  1.
         12    1    3    3    0    0  0.27984867965E+02 -0.82054233690E+01 -0.13671021881E+02  0.32208362998E+02  0.00000000000E+00 0. -1.
        -11    1    4    4    0    0 -0.25299571682E+02 -0.83546870511E+01  0.44976599576E+02  0.52275841767E+02  0.00000000000E+00 0.  1.
         11    1    4    4    0    0  0.50054088165E+02  0.72596279151E+02  0.13773256496E+03  0.16354171009E+03  0.00000000000E+00 0. -1.
          1    1    1    2  501    0  0.16410512629E+01 -0.52722250913E+02 -0.69216214960E+02  0.87024210448E+02  0.00000000000E+00 0. -1.
<scales pt_clust_5="13000.00000" pt_clust_6="13000.00000" pt_clust_7="13000.00000" pt_clust_8="13000.00000" pt_clust_9="52.74781"></scales>
<clustering>
<clus scale="   52.748">  1  9  2 -1</clus>
<clus scale="   79.737">  5  6 -1 -1</clus>
<clus scale="   86.075">  2  5  1 -1</clus>
<clus scale="   91.950">  7  8 -1 -1</clus>
<clus scale="   52.748">  1  5  2 -1</clus>
</clustering>
</event>
<event>
 9    2  0.1302972E-004  0.9699139E+02  0.7546771E-02  0.1295462E+00
         21   -1    0    0  501  502  0.00000000000E+00  0.00000000000E+00  0.56560837382E+03  0.56560837382E+03  0.00000000000E+00 0.  1.
         -1   -1    0    0    0  501 -0.00000000000E+00 -0.00000000000E+00 -0.30247097832E+02  0.30247097832E+02  0.00000000000E+00 0.  1.
         23    2    1    2    0    0  0.12977124630E+02  0.37972642609E+01  0.77593070680E+02  0.12402801503E+03  0.95809388446E+02 0.  0.
         24    2    1    2    0    0 -0.12714225613E+02 -0.24647981628E+02  0.42041140702E+03  0.42904484440E+03  0.81021928032E+02 0.  0.
        -13    1    4    4    0    0 -0.44151766778E+02 -0.28229399700E+02  0.22029085861E+03  0.22643837993E+03  0.00000000000E+00 0.  1.
         14    1    4    4    0    0  0.31437541165E+02  0.35814180726E+01  0.20012054841E+03  0.20260646447E+03  0.00000000000E+00 0. -1.
        -13    1    3    3    0    0  0.33299807426E+02  0.40763498293E+02  0.30624144856E+02  0.60896454871E+02  0.00000000000E+00 0.  1.
         13    1    3    3    0    0 -0.20322682796E+02 -0.36966234032E+02  0.46968925824E+02  0.63131560155E+02  0.00000000000E+00 0. -1.
         -2    1    1    2    0  502 -0.26289901669E+00  0.20850717367E+02  0.37356798290E+02  0.42782612228E+02  0.00000000000E+00 0.  1.
<scales pt_clust_5="13000.00000" pt_clust_6="13000.00000" pt_clust_7="13000.00000" pt_clust_8="13000.00000" pt_clust_9="20.85239"></scales>
<clustering>
<clus scale="   20.852">  1  9  2 -1</clus>
<clus scale="   81.022">  5  6 -1 -1</clus>
<clus scale="   82.416">  1  5  2 -1</clus>
<clus scale="   95.809">  7  8 -1 -1</clus>
<clus scale="   20.852">  1  5  2 -1</clus>
</clustering>
</event>
<event>
 9    2  0.1302972E-004  0.1554010E+03  0.7546771E-02  0.1204685E+00
          2   -1    0    0  502    0 -0.00000000000E+00  0.00000000000E+00  0.71697556966E+03  0.71697556966E+03  0.00000000000E+00 0. -1.
         21   -1    0    0  501  502  0.00000000000E+00 -0.00000000000E+00 -0.22318055441E+03  0.22318055441E+03  0.00000000000E+00 0. -1.
         24    2    1    2    0    0  0.86739797680E+02 -0.33566245590E+02  0.40246334517E+03  0.42088423774E+03  0.80723676999E+02 0.  0.
         23    2    1    2    0    0 -0.67668564147E+02 -0.10682198810E+03 -0.16431295205E+03  0.22699335319E+03  0.92397318500E+02 0.  0.
        -13    1    3    3    0    0  0.59818048583E+02  0.16132089632E+02  0.15238668802E+03  0.16449968370E+03  0.00000000000E+00 0.  1.
         14    1    3    3    0    0  0.26921749096E+02 -0.49698335222E+02  0.25007665715E+03  0.25638455404E+03  0.00000000000E+00 0. -1.
        -13    1    4    4    0    0 -0.58677711019E+02 -0.10518867737E+02 -0.69276278412E+02  0.91394327502E+02  0.00000000000E+00 0.  1.
         13    1    4    4    0    0 -0.89908531280E+01 -0.96303120363E+02 -0.95036673636E+02  0.13559902569E+03  0.00000000000E+00 0. -1.
          1    1    1    2  501    0 -0.19071233533E+02  0.14038823369E+03  0.25564462213E+03  0.29227853314E+03  0.00000000000E+00 0. -1.
<scales pt_clust_5="13000.00000" pt_clust_6="13000.00000" pt_clust_7="13000.00000" pt_clust_8="13000.00000" pt_clust_9="124.94893"></scales>
<clustering>
<clus scale="   80.724">  5  6 -1 -1</clus>
<clus scale="   92.397">  7  8 -1 -1</clus>
<clus scale="  123.154">  1  5  2 -1</clus>
<clus scale="  124.949">  2  9  1 -1</clus>
<clus scale="  124.949">  2  5  1 -1</clus>
</clustering>
</event>
<event>
 9    2  0.1302972E-004  0.1473907E+03  0.7546771E-02  0.1206034E+00
         21   -1    0    0  501  502  0.00000000000E+00  0.00000000000E+00  0.13422497670E+03  0.13422497670E+03  0.00000000000E+00 0.  1.
         -1   -1    0    0    0  501 -0.00000000000E+00 -0.00000000000E+00 -0.43648733866E+03  0.43648733866E+03  0.00000000000E+00 0.  1.
         24    2    1    2    0    0  0.37315359207E+02  0.11338171230E+03 -0.30546343566E+03  0.33733626368E+03  0.78993642476E+02 0.  0.
         23    2    1    2    0    0 -0.79128952997E+02 -0.69790291306E+02  0.58775334389E+02  0.15129629132E+03  0.91126021923E+02 0.  0.
        -13    1    3    3    0    0  0.53896442109E+02  0.11243345437E+03 -0.28425970645E+03  0.31040246269E+03  0.00000000000E+00 0.  1.
         14    1    3    3    0    0 -0.16581082902E+02  0.94825792843E+00 -0.21203729210E+02  0.26933800989E+02  0.00000000000E+00 0. -1.
        -11    1    4    4    0    0 -0.63067109517E+02 -0.28098302430E+02  0.76662073069E+02  0.10316999733E+03  0.00000000000E+00 0.  1.
         11    1    4    4    0    0 -0.16061843480E+02 -0.41691988876E+02 -0.17886738680E+02  0.48126293988E+02  0.00000000000E+00 0. -1.
         -2    1    1    2    0  502  0.41813593791E+02 -0.43591420990E+02 -0.55574260695E+02  0.82079760364E+02  0.00000000000E+00 0.  1.
<scales pt_clust_5="13000.00000" pt_clust_6="13000.00000" pt_clust_7="13000.00000" pt_clust_8="13000.00000" pt_clust_9="60.40358"></scales>
<clustering>
<clus scale="   60.404">  1  9  2 -1</clus>
<clus scale="   78.994">  5  6 -1 -1</clus>
<clus scale="   91.126">  7  8 -1 -1</clus>
<clus scale="  140.214">  2  5  1 -1</clus>
<clus scale="   60.404">  1  5  2 -1</clus>
</clustering>
</event>
<event>
 9    2  0.1302972E-004  0.9540162E+02  0.7546771E-02  0.1290945E+00
         21   -1    0    0  501  502  0.00000000000E+00  0.00000000000E+00  0.41703256598E+02  0.41703256598E+02  0.00000000000E+00 0.  1.
          2   -1    0    0  502    0 -0.00000000000E+00 -0.00000000000E+00 -0.52889286075E+03  0.52889286075E+03  0.00000000000E+00 0. -1.
         24    2    1    2    0    0  0.41107671200E+02  0.17329602886E+01 -0.30167572718E+03  0.31686676873E+03  0.87769362386E+02 0.  0.
         23    2    1    2    0    0 -0.81576062793E+01  0.51844694638E+02 -0.14791097484E+03  0.18044735810E+03  0.89045907620E+02 0.  0.
        -11    1    3    3    0    0  0.18805777810E+02  0.93405595692E+01 -0.83515006719E+01  0.22597586056E+02  0.00000000000E+00 0.  1.
         12    1    3    3    0    0  0.22301893391E+02 -0.76075992806E+01 -0.29332422651E+03  0.29426918267E+03  0.00000000000E+00 0. -1.
        -13    1    4    4    0    0 -0.16189820360E+01  0.76148531792E+02 -0.12519688144E+03  0.14654514362E+03  0.00000000000E+00 0.  1.
         13    1    4    4    0    0 -0.65386242433E+01 -0.24303837154E+02 -0.22714093405E+02  0.33902214479E+02  0.00000000000E+00 0. -1.
          1    1    1    2  501    0 -0.32950064921E+02 -0.53577654926E+02 -0.37602902129E+02  0.73281990518E+02  0.00000000000E+00 0. -1.
<scales pt_clust_5="13000.00000" pt_clust_6="13000.00000" pt_clust_7="13000.00000" pt_clust_8="13000.00000" pt_clust_9="62.89890"></scales>
<clustering>
<clus scale="   62.899">  1  9  2 -1</clus>
<clus scale="   87.769">  5  6 -1 -1</clus>
<clus scale="   89.046">  7  8 -1 -1</clus>
<clus scale="   94.211">  2  5  1 -1</clus>
<clus scale="   62.899">  1  5  2 -1</clus>
</clustering>
</event>
<event>
 9    2  0.1302972E-004  0.9422665E+02  0.7546771E-02  0.1301240E+00
         -1   -1    0    0    0  501 -0.00000000000E+00  0.00000000000E+00  0.59823754361E+03  0.59823754361E+03  0.00000000000E+00 0.  1.
         21   -1    0    0  501  502  0.00000000000E+00 -0.00000000000E+00 -0.43624372402E+02  0.43624372402E+02  0.00000000000E+00 0.  1.
         23    2    1    2    0    0 -0.20154503271E+01  0.21154480222E+02  0.43342612016E+03  0.44397348729E+03  0.93822607649E+02 0.  0.
         24    2    1    2    0    0 -0.61439055659E+00  0.19572334254E+02  0.13192903042E+03  0.15568677472E+03  0.80309706825E+02 0.  0.
        -11    1    4    4    0    0  0.25380328631E+02  0.28347797439E+02  0.11978553499E+03  0.12568346388E+03  0.00000000000E+00 0.  1.
         12    1    4    4    0    0 -0.25994719188E+02 -0.87754631846E+01  0.12143495433E+02  0.30003310835E+02  0.00000000000E+00 0. -1.
        -11    1    3    3    0    0  0.43627277019E+02  0.22768569218E+02  0.26115393693E+03  0.26575011913E+03  0.00000000000E+00 0.  1.
         11    1    3    3    0    0 -0.45642727347E+02 -0.16140889963E+01  0.17227218323E+03  0.17822336816E+03  0.00000000000E+00 0. -1.
         -2    1    1    2    0  502  0.26298408837E+01 -0.40726814476E+02 -0.10741979367E+02  0.42201654010E+02  0.00000000000E+00 0.  1.
<scales pt_clust_5="13000.00000" pt_clust_6="13000.00000" pt_clust_7="13000.00000" pt_clust_8="13000.00000" pt_clust_9="40.81163"></scales>
<clustering>
<clus scale="   40.812">  2  9  1 -1</clus>
<clus scale="   80.310">  5  6 -1 -1</clus>
<clus scale="   80.781">  2  5  1 -1</clus>
<clus scale="   93.823">  7  8 -1 -1</clus>
<clus scale="   40.812">  2  5  1 -1</clus>
</clustering>
</event>
<event>
 9    2  0.2522920E-004  0.9488982E+02  0.7546771E-02  0.1297866E+00
         21   -1    0    0  501  502  0.00000000000E+00  0.00000000000E+00  0.21423281266E+03  0.21423281266E+03  0.00000000000E+00 0.  1.
          2   -1    0    0  502    0 -0.00000000000E+00 -0.00000000000E+00 -0.32351560843E+03  0.32351560843E+03  0.00000000000E+00 0. -1.
         24    2    1    2    0    0 -0.13946259882E+02 -0.56941715715E+01 -0.29725139655E+03  0.30896648654E+03  0.82915470815E+02 0.  0.
         23    2    1    2    0    0 -0.69028254180E+01  0.22514260949E+02  0.11056449707E+03  0.14687347934E+03  0.93769771117E+02 0.  0.
        -11    1    3    3    0    0  0.32717442423E+02 -0.16097232544E+02 -0.12913099269E+03  0.13418034583E+03  0.00000000000E+00 0.  1.
         12    1    3    3    0    0 -0.46663702305E+02  0.10403060973E+02 -0.16812040386E+03  0.17478614071E+03  0.00000000000E+00 0. -1.
        -13    1    4    4    0    0 -0.39706676607E+02  0.31431440551E+02  0.28646996264E+02  0.58182523297E+02  0.00000000000E+00 0. -1.
         13    1    4    4    0    0  0.32803851189E+02 -0.89171796021E+01  0.81917500805E+02  0.88690956039E+02  0.00000000000E+00 0.  1.
          1    1    1    2  501    0  0.20849085300E+02 -0.16820089377E+02  0.77404103712E+02  0.81908455216E+02  0.00000000000E+00 0. -1.
<scales pt_clust_5="13000.00000" pt_clust_6="13000.00000" pt_clust_7="13000.00000" pt_clust_8="13000.00000" pt_clust_9="26.78805"></scales>
<clustering>
<clus scale="   26.788">  1  9  2 -1</clus>
<clus scale="   82.915">  5  6 -1 -1</clus>
<clus scale="   84.180">  2  5  1 -1</clus>
<clus scale="   93.770">  7  8 -1 -1</clus>
<clus scale="   26.788">  1  5  2 -1</clus>
</clustering>
</event>
<event>
 9    2  0.1302972E-004  0.1237544E+03  0.7546771E-02  0.1240993E+00
         21   -1    0    0  501  502  0.00000000000E+00  0.00000000000E+00  0.14779141715E+03  0.14779141715E+03  0.00000000000E+00 0.  1.
         -3   -1    0    0    0  501 -0.00000000000E+00 -0.00000000000E+00 -0.16076554849E+03  0.16076554849E+03  0.00000000000E+00 0.  1.
         24    2    1    2    0    0  0.96005674976E+02  0.24540870967E+02 -0.59602345601E+02  0.14004050366E+03  0.78990879776E+02 0.  0.
         23    2    1    2    0    0 -0.56556584618E+02  0.10800432369E+02  0.27626877768E+02  0.11224667222E+03  0.92308041069E+02 0.  0.
        -13    1    3    3    0    0  0.68627849545E+02 -0.19546181459E+02 -0.18170902018E+02  0.73634344045E+02  0.00000000000E+00 0.  1.
         14    1    3    3    0    0  0.27377825431E+02  0.44087052426E+02 -0.41431443583E+02  0.66406159612E+02  0.00000000000E+00 0. -1.
        -11    1    4    4    0    0  0.19561977383E+01  0.38728021234E+02 -0.59517156886E+01  0.39231482995E+02  0.00000000000E+00 0. -1.
         11    1    4    4    0    0 -0.58512782356E+02 -0.27927588865E+02  0.33578593457E+02  0.73015189224E+02  0.00000000000E+00 0.  1.
         -4    1    1    2    0  502 -0.39449090358E+02 -0.35341303336E+02  0.19001336488E+02  0.56269789762E+02  0.00000000000E+00 0.  1.
<scales pt_clust_5="13000.00000" pt_clust_6="13000.00000" pt_clust_7="13000.00000" pt_clust_8="13000.00000" pt_clust_9="52.96450"></scales>
<clustering>
<clus scale="   52.965">  1  9  2 -1</clus>
<clus scale="   78.991">  5  6 -1 -1</clus>
<clus scale="   92.308">  7  8 -1 -1</clus>
<clus scale="  114.166">  2  5  1 -1</clus>
<clus scale="   52.965">  1  5  2 -1</clus>
</clustering>
</event>
<event>
 9    2  0.1302972E-004  0.1595747E+03  0.7546771E-02  0.1191075E+00
         -1   -1    0    0    0  501 -0.00000000000E+00  0.00000000000E+00  0.43728004098E+03  0.43728004098E+03  0.00000000000E+00 0.  1.
         21   -1    0    0  501  502  0.00000000000E+00 -0.00000000000E+00 -0.27248792232E+03  0.27248792232E+03  0.00000000000E+00 0. -1.
         24    2    1    2    0    0 -0.15290588226E+03  0.20907616395E+02  0.30723003519E+03  0.35188412964E+03  0.74932028650E+02 0.  0.
         23    2    1    2    0    0  0.71110153782E+02 -0.79186856933E+02  0.45227890856E+02  0.14503302597E+03  0.87531732696E+02 0.  0.
        -11    1    3    3    0    0 -0.99192618390E+02 -0.13817296050E+02  0.23473508478E+03  0.25520707914E+03  0.00000000000E+00 0.  1.
         12    1    3    3    0    0 -0.53713263869E+02  0.34724912445E+02  0.72494950407E+02  0.96677050504E+02  0.00000000000E+00 0. -1.
        -11    1    4    4    0    0  0.33834274406E+02  0.11392508083E+02  0.28464567321E+02  0.45659379735E+02  0.00000000000E+00 0.  1.
         11    1    4    4    0    0  0.37275879375E+02 -0.90579365016E+02  0.16763323535E+02  0.99373646234E+02  0.00000000000E+00 0. -1.
         -2    1    1    2    0  502  0.81795728477E+02  0.58279240539E+02 -0.18766580739E+03  0.21285080770E+03  0.00000000000E+00 0.  1.
<scales pt_clust_5="13000.00000" pt_clust_6="13000.00000" pt_clust_7="13000.00000" pt_clust_8="13000.00000" pt_clust_9="100.43411"></scales>
<clustering>
<clus scale="   74.932">  5  6 -1 -1</clus>
<clus scale="   87.532">  7  8 -1 -1</clus>
<clus scale="  100.434">  2  9  1 -1</clus>
<clus scale="  153.026">  1  5  2 -1</clus>
<clus scale="  100.434">  2  5  1 -1</clus>
</clustering>
</event>
<event>
 9    2  0.1302972E-004  0.1350324E+03  0.7546771E-02  0.1238895E+00
         21   -1    0    0  501  502  0.00000000000E+00  0.00000000000E+00  0.85682429368E+02  0.85682429368E+02  0.00000000000E+00 0. -1.
          2   -1    0    0  502    0 -0.00000000000E+00 -0.00000000000E+00 -0.11533771321E+04  0.11533771321E+04  0.00000000000E+00 0. -1.
         23    2    1    2    0    0 -0.42835418455E+01  0.77895897788E+01 -0.47754866749E+02  0.10339747600E+03  0.91276964807E+02 0.  0.
         24    2    1    2    0    0  0.55092335632E+02  0.89825688126E+02 -0.10171178869E+04  0.10255792103E+04  0.78613619420E+02 0.  0.
        -13    1    4    4    0    0 -0.10451173257E+02  0.46013479775E+02 -0.24943886746E+03  0.25386259264E+03  0.00000000000E+00 0.  1.
         14    1    4    4    0    0  0.65543508889E+02  0.43812208351E+02 -0.76767901944E+03  0.77171661770E+03  0.00000000000E+00 0. -1.
        -13    1    3    3    0    0 -0.91652158100E+01  0.34630163483E+02  0.11943492611E+02  0.37761043675E+02  0.00000000000E+00 0. -1.
         13    1    3    3    0    0  0.48816739644E+01 -0.26840573704E+02 -0.59698359359E+02  0.65636432320E+02  0.00000000000E+00 0.  1.
          1    1    1    2  501    0 -0.50808793787E+02 -0.97615277905E+02 -0.28219491190E+01  0.11008287516E+03  0.00000000000E+00 0. -1.
<scales pt_clust_5="13000.00000" pt_clust_6="13000.00000" pt_clust_7="13000.00000" pt_clust_8="13000.00000" pt_clust_9="109.78906"></scales>
<clustering>
<clus scale="   78.614">  5  6 -1 -1</clus>
<clus scale="   91.277">  7  8 -1 -1</clus>
<clus scale="   91.709">  2  7  1 -1</clus>
<clus scale="  109.789">  1  9  2 -1</clus>
<clus scale="  109.789">  1  5  2 -1</clus>
</clustering>
</event>
<event>
 9    2  0.1302972E-004  0.1022495E+03  0.7546771E-02  0.1283446E+00
         21   -1    0    0  501  502  0.00000000000E+00  0.00000000000E+00  0.17162075650E+03  0.17162075650E+03  0.00000000000E+00 0.  1.
         -1   -1    0    0    0  501 -0.00000000000E+00 -0.00000000000E+00 -0.17870282440E+03  0.17870282440E+03  0.00000000000E+00 0.  1.
         23    2    1    2    0    0  0.61682555182E+00  0.40051057243E+02 -0.83818331692E+02  0.13293432751E+03  0.95087091887E+02 0.  0.
         24    2    1    2    0    0  0.81357418048E+02 -0.77258158079E+01  0.31544526311E+02  0.11835900051E+03  0.79593204236E+02 0.  0.
        -13    1    4    4    0    0  0.96428995556E+02  0.11270853628E+01  0.28956544961E+02  0.10068914043E+03  0.00000000000E+00 0.  1.
         14    1    4    4    0    0 -0.15071577507E+02 -0.88529011707E+01  0.25879813498E+01  0.17669860078E+02  0.00000000000E+00 0. -1.
        -11    1    3    3    0    0  0.88696442392E+01  0.66915861841E+02 -0.79839488788E+02  0.10455021341E+03  0.00000000000E+00 0.  1.
         11    1    3    3    0    0 -0.82528186874E+01 -0.26864804598E+02 -0.39788429043E+01  0.28384114100E+02  0.00000000000E+00 0. -1.
         -2    1    1    2    0  502 -0.81974243600E+02 -0.32325241435E+02  0.45191737476E+02  0.99030252871E+02  0.00000000000E+00 0.  1.
<scales pt_clust_5="13000.00000" pt_clust_6="13000.00000" pt_clust_7="13000.00000" pt_clust_8="13000.00000" pt_clust_9="88.11752"></scales>
<clustering>
<clus scale="   79.593">  5  6 -1 -1</clus>
<clus scale="   88.118">  1  9  2 -1</clus>
<clus scale="   88.118">  1  5  2 -1</clus>
<clus scale="   95.087">  7  8 -1 -1</clus>
<clus scale="   88.118">  1  5  2 -1</clus>
</clustering>
</event>
<event>
 9    2  0.1302972E-004  0.9312360E+02  0.7546771E-02  0.1301694E+00
         -1   -1    0    0    0  501 -0.00000000000E+00  0.00000000000E+00  0.58558789900E+03  0.58558789900E+03  0.00000000000E+00 0.  1.
         21   -1    0    0  501  502  0.00000000000E+00 -0.00000000000E+00 -0.10036558630E+03  0.10036558630E+03  0.00000000000E+00 0. -1.
         24    2    1    2    0    0 -0.10351478874E+02  0.46693708587E+01  0.47650320895E+03  0.48364494308E+03  0.82025402727E+02 0.  0.
         23    2    1    2    0    0  0.32455420108E+02 -0.36064514233E+02 -0.62395102443E+02  0.12149103440E+03  0.92265481902E+02 0.  0.
        -13    1    3    3    0    0 -0.42769220113E+02 -0.47641129842E+00  0.16639035063E+03  0.17179983102E+03  0.00000000000E+00 0.  1.
         14    1    3    3    0    0  0.32417741240E+02  0.51457821571E+01  0.31011285832E+03  0.31184511206E+03  0.00000000000E+00 0. -1.
        -11    1    4    4    0    0  0.31604785228E+02  0.86773145688E+01  0.11809640032E+02  0.34837132992E+02  0.00000000000E+00 0.  1.
         11    1    4    4    0    0  0.85063487993E+00 -0.44741828802E+02 -0.74204742475E+02  0.86653901412E+02  0.00000000000E+00 0. -1.
         -2    1    1    2    0  502 -0.22103941234E+02  0.31395143374E+02  0.71114206202E+02  0.80817507814E+02  0.00000000000E+00 0.  1.
<scales pt_clust_5="13000.00000" pt_clust_6="13000.00000" pt_clust_7="13000.00000" pt_clust_8="13000.00000" pt_clust_9="38.39584"></scales>
<clustering>
<clus scale="   38.396">  2  9  1 -1</clus>
<clus scale="   82.025">  5  6 -1 -1</clus>
<clus scale="   82.989">  1  5  2 -1</clus>
<clus scale="   92.265">  7  8 -1 -1</clus>
<clus scale="   38.396">  2  5  1 -1</clus>
</clustering>
</event>
<event>
 9    2  0.1302972E-004  0.1454984E+03  0.7546771E-02  0.1208431E+00
          4   -1    0    0  502    0 -0.00000000000E+00  0.00000000000E+00  0.79637002873E+02  0.79637002873E+02  0.00000000000E+00 0. -1.
         21   -1    0    0  501  502  0.00000000000E+00 -0.00000000000E+00 -0.47395630630E+03  0.47395630630E+03  0.00000000000E+00 0. -1.
         24    2    1    2    0    0 -0.81431422285E+02  0.10815940597E+03 -0.12215781536E+03  0.19895209225E+03  0.79560477138E+02 0.  0.
         23    2    1    2    0    0 -0.75128275347E+01 -0.10344547866E+03 -0.15929798562E+03  0.21086545098E+03  0.91274205343E+02 0.  0.
        -11    1    3    3    0    0 -0.15550791068E+02  0.43316042771E+02 -0.32982496819E+00  0.46024074664E+02  0.00000000000E+00 0.  1.
         12    1    3    3    0    0 -0.65880631217E+02  0.64843363203E+02 -0.12182799039E+03  0.15292801759E+03  0.00000000000E+00 0. -1.
        -11    1    4    4    0    0  0.29393619496E+02 -0.37665782001E+02 -0.11218382455E+03  0.12193402516E+03  0.00000000000E+00 0.  1.
         11    1    4    4    0    0 -0.36906447031E+02 -0.65779696663E+02 -0.47114161074E+02  0.88931425825E+02  0.00000000000E+00 0. -1.
          3    1    1    2  501    0  0.88944249819E+02 -0.47139273102E+01 -0.11286350244E+03  0.14377576594E+03  0.00000000000E+00 0. -1.
<scales pt_clust_5="13000.00000" pt_clust_6="13000.00000" pt_clust_7="13000.00000" pt_clust_8="13000.00000" pt_clust_9="89.06908"></scales>
<clustering>
<clus scale="   79.560">  5  6 -1 -1</clus>
<clus scale="   89.069">  2  9  1 -1</clus>
<clus scale="   91.274">  7  8 -1 -1</clus>
<clus scale="  138.451">  1  5  2 -1</clus>
<clus scale="   89.069">  2  5  1 -1</clus>
</clustering>
</event>
<event>
 9    2  0.1302972E-004  0.1889212E+03  0.7546771E-02  0.1184446E+00
         21   -1    0    0  501  502  0.00000000000E+00  0.00000000000E+00  0.18886907242E+03  0.18886907242E+03  0.00000000000E+00 0.  1.
          2   -1    0    0  502    0 -0.00000000000E+00 -0.00000000000E+00 -0.38727050055E+03  0.38727050055E+03  0.00000000000E+00 0. -1.
         24    2    1    2    0    0  0.63764317511E+02 -0.17952386813E+02 -0.18097123887E+03  0.21014671429E+03  0.83802600482E+02 0.  0.
         23    2    1    2    0    0  0.13438772107E+03 -0.27878862283E+02 -0.24557565920E+02  0.16248479180E+03  0.83432265859E+02 0.  0.
        -11    1    3    3    0    0  0.44378275276E+02  0.14179533150E+02 -0.16106351042E+03  0.16766617091E+03  0.00000000000E+00 0.  1.
         12    1    3    3    0    0  0.19386042235E+02 -0.32131919963E+02 -0.19907728450E+02  0.42480543383E+02  0.00000000000E+00 0. -1.
        -11    1    4    4    0    0  0.11437991571E+03 -0.35394007503E+02  0.11799567498E+02  0.12031097488E+03  0.00000000000E+00 0.  1.
         11    1    4    4    0    0  0.20007805364E+02  0.75151452202E+01 -0.36357133418E+02  0.42173816919E+02  0.00000000000E+00 0. -1.
          1    1    1    2  501    0 -0.19815203858E+03  0.45831249096E+02  0.71273766655E+01  0.20350806688E+03  0.00000000000E+00 0. -1.
<scales pt_clust_5="13000.00000" pt_clust_6="13000.00000" pt_clust_7="13000.00000" pt_clust_8="13000.00000" pt_clust_9="169.50020"></scales>
<clustering>
<clus scale="   83.432">  7  8 -1 -1</clus>
<clus scale="   83.803">  5  6 -1 -1</clus>
<clus scale="  106.823">  2  5  1 -1</clus>
<clus scale="  169.500">  1  9  2 -1</clus>
<clus scale="  169.500">  1  5  2 -1</clus>
</clustering>
</event>
<event>
 9    2  0.1302972E-004  0.1393158E+03  0.7546771E-02  0.1217358E+00
         21   -1    0    0  501  502  0.00000000000E+00  0.00000000000E+00  0.19875229459E+03  0.19875229459E+03  0.00000000000E+00 0.  1.
          2   -1    0    0  502    0 -0.00000000000E+00 -0.00000000000E+00 -0.16394235600E+03  0.16394235600E+03  0.00000000000E+00 0. -1.
         24    2    1    2    0    0  0.52131708718E+00 -0.10883888017E+03 -0.94530861590E+02  0.16357003890E+03  0.77284540661E+02 0.  0.
         23    2    1    2    0    0  0.38161865318E+01  0.88767232380E+02  0.12411737005E+03  0.17793571826E+03  0.91442951945E+02 0.  0.
        -13    1    3    3    0    0  0.33280105454E+02 -0.46182949484E+02 -0.18762180340E+02  0.59937047418E+02  0.00000000000E+00 0.  1.
         14    1    3    3    0    0 -0.32758788367E+02 -0.62655930682E+02 -0.75768681250E+02  0.10363299148E+03  0.00000000000E+00 0. -1.
        -13    1    4    4    0    0  0.44760989754E+02  0.41967391195E+02  0.83665292470E+02  0.10375302064E+03  0.00000000000E+00 0.  1.
         13    1    4    4    0    0 -0.40944803222E+02  0.46799841185E+02  0.40452077577E+02  0.74182697620E+02  0.00000000000E+00 0. -1.
          1    1    1    2  501    0 -0.43375036189E+01  0.20071647786E+02  0.52234301361E+01  0.21188893432E+02  0.00000000000E+00 0. -1.
<scales pt_clust_5="13000.00000" pt_clust_6="13000.00000" pt_clust_7="13000.00000" pt_clust_8="13000.00000" pt_clust_9="20.53497"></scales>
<clustering>
<clus scale="   20.535">  1  9  2 -1</clus>
<clus scale="   77.285">  5  6 -1 -1</clus>
<clus scale="   91.443">  7  8 -1 -1</clus>
<clus scale="  130.461">  2  5  1 -1</clus>
<clus scale="   20.535">  1  5  2 -1</clus>
</clustering>
</event>
<event>
 9    2  0.1302972E-004  0.9011865E+02  0.7546771E-02  0.1304956E+00
         21   -1    0    0  501  502  0.00000000000E+00  0.00000000000E+00  0.44437316061E+03  0.44437316061E+03  0.00000000000E+00 0. -1.
          2   -1    0    0  502    0 -0.00000000000E+00 -0.00000000000E+00 -0.36748705265E+02  0.36748705265E+02  0.00000000000E+00 0. -1.
         24    2    1    2    0    0 -0.60663928988E+01 -0.29059556170E+02  0.45352757382E+02  0.98097860970E+02  0.81762208857E+02 0.  0.
         23    2    1    2    0    0 -0.19369673516E+02  0.22512872695E+02  0.21449011424E+03  0.23292653982E+03  0.85829774286E+02 0.  0.
        -11    1    3    3    0    0 -0.17108511049E+02  0.19339586314E+02 -0.61729391466E+01  0.26548557905E+02  0.00000000000E+00 0.  1.
         12    1    3    3    0    0  0.11042118150E+02 -0.48399142484E+02  0.51525696528E+02  0.71549303065E+02  0.00000000000E+00 0. -1.
        -13    1    4    4    0    0  0.33619607016E+02  0.14004961399E+02  0.10155828662E+03  0.10789116044E+03  0.00000000000E+00 0.  1.
         13    1    4    4    0    0 -0.52989280532E+02  0.85079112955E+01  0.11293182762E+03  0.12503537937E+03  0.00000000000E+00 0. -1.
          1    1    1    2  501    0  0.25436066415E+02  0.65466834747E+01  0.14778158372E+03  0.15009746509E+03  0.00000000000E+00 0. -1.
<scales pt_clust_5="13000.00000" pt_clust_6="13000.00000" pt_clust_7="13000.00000" pt_clust_8="13000.00000" pt_clust_9="26.26504"></scales>
<clustering>
<clus scale="   26.265">  1  9  2 -1</clus>
<clus scale="   81.762">  5  6 -1 -1</clus>
<clus scale="   85.830">  7  8 -1 -1</clus>
<clus scale="   86.254">  2  5  1 -1</clus>
<clus scale="   26.265">  1  5  2 -1</clus>
</clustering>
</event>
<event>
 9    2  0.1302972E-004  0.9525159E+02  0.7546771E-02  0.1294835E+00
          2   -1    0    0  502    0 -0.00000000000E+00  0.00000000000E+00  0.13858701379E+04  0.13858701379E+04  0.00000000000E+00 0. -1.
         21   -1    0    0  501  502  0.00000000000E+00 -0.00000000000E+00 -0.13141545202E+02  0.13141545202E+02  0.00000000000E+00 0. -1.
         24    2    1    2    0    0 -0.20783348608E+02 -0.23942640282E+01  0.70624161163E+03  0.71113768789E+03  0.80634465665E+02 0.  0.
         23    2    1    2    0    0  0.72048565200E+02 -0.57159003104E+01  0.52187300825E+03  0.53422797889E+03  0.88455804933E+02 0.  0.
        -13    1    3    3    0    0 -0.41726307441E+02  0.18312878718E+02  0.26297900028E+03  0.26689773481E+03  0.00000000000E+00 0.  1.
         14    1    3    3    0    0  0.20942958832E+02 -0.20707142746E+02  0.44326261135E+03  0.44423995308E+03  0.00000000000E+00 0. -1.
        -11    1    4    4    0    0  0.73499169579E+02 -0.29104464767E+02  0.47796397758E+03  0.48445718248E+03  0.00000000000E+00 0. -1.
         11    1    4    4    0    0 -0.14506043787E+01  0.23388564457E+02  0.43909030670E+02  0.49770796405E+02  0.00000000000E+00 0.  1.
          1    1    1    2  501    0 -0.51265216592E+02  0.81101643386E+01  0.14461397277E+03  0.15364601628E+03  0.00000000000E+00 0. -1.
<scales pt_clust_5="13000.00000" pt_clust_6="13000.00000" pt_clust_7="13000.00000" pt_clust_8="13000.00000" pt_clust_9="51.90277"></scales>
<clustering>
<clus scale="   51.903">  2  9  1 -1</clus>
<clus scale="   80.634">  5  6 -1 -1</clus>
<clus scale="   88.036">  1  5  2 -1</clus>
<clus scale="   88.456">  7  8 -1 -1</clus>
<clus scale="   51.903">  2  5  1 -1</clus>
</clustering>
</event>
<event>
 9    2  0.1302972E-004  0.1541995E+03  0.7546771E-02  0.1196916E+00
          4   -1    0    0  502    0 -0.00000000000E+00  0.00000000000E+00  0.30927775976E+03  0.30927775976E+03  0.00000000000E+00 0. -1.
         21   -1    0    0  501  502  0.00000000000E+00 -0.00000000000E+00 -0.15981279398E+03  0.15981279398E+03  0.00000000000E+00 0. -1.
         24    2    1    2    0    0 -0.99453564297E+02 -0.82186763813E+02  0.23681309869E+03  0.28145009896E+03  0.80548363712E+02 0.  0.
         23    2    1    2    0    0  0.86398669579E+02  0.62267662217E+02 -0.86512346066E+02  0.16380981433E+03  0.89483391681E+02 0.  0.
        -13    1    3    3    0    0 -0.77099434783E+02 -0.19759467182E+02  0.88715404872E+02  0.11918549597E+03  0.00000000000E+00 0.  1.
         14    1    3    3    0    0 -0.22354129514E+02 -0.62427296631E+02  0.14809769381E+03  0.16226460299E+03  0.00000000000E+00 0. -1.
        -13    1    4    4    0    0  0.41184541177E+02  0.93788278479E+01 -0.84187796363E+02  0.94189775986E+02  0.00000000000E+00 0. -1.
         13    1    4    4    0    0  0.45214128402E+02  0.52888834369E+02 -0.23245497031E+01  0.69620038347E+02  0.00000000000E+00 0.  1.
          3    1    1    2  501    0  0.13054894718E+02  0.19919101596E+02 -0.83578683351E+00  0.23830640447E+02  0.00000000000E+00 0. -1.
<scales pt_clust_5="13000.00000" pt_clust_6="13000.00000" pt_clust_7="13000.00000" pt_clust_8="13000.00000" pt_clust_9="23.81598"></scales>
<clustering>
<clus scale="   23.816">  2  9  1 -1</clus>
<clus scale="   80.548">  5  6 -1 -1</clus>
<clus scale="   89.483">  7  8 -1 -1</clus>
<clus scale="  149.192">  1  5  2 -1</clus>
<clus scale="   23.816">  2  5  1 -1</clus>
</clustering>
</event>
<event>
 9    2  0.1302972E-004  0.9457816E+02  0.7546771E-02  0.1299430E+00
         21   -1    0    0  501  502  0.00000000000E+00  0.00000000000E+00  0.54746040629E+02  0.54746040629E+02  0.00000000000E+00 0. -1.
         -1   -1    0    0    0  501 -0.00000000000E+00 -0.00000000000E+00 -0.40761813250E+03  0.40761813250E+03  0.00000000000E+00 0.  1.
         24    2    1    2    0    0  0.15493769752E+02 -0.16807258588E+02 -0.30511468798E+03  0.31611534280E+03  0.79444296746E+02 0.  0.
         23    2    1    2    0    0  0.15984418248E+02  0.37367340666E+02 -0.38229173585E+02  0.10746248651E+03  0.91841692701E+02 0.  0.
        -11    1    3    3    0    0 -0.95104813634E+01 -0.32227102551E+02 -0.56242016757E+02  0.65514882611E+02  0.00000000000E+00 0.  1.
         12    1    3    3    0    0  0.25004251116E+02  0.15419843963E+02 -0.24887267123E+03  0.25060046019E+03  0.00000000000E+00 0. -1.
        -13    1    4    4    0    0 -0.15159213265E+02  0.29289503540E+02  0.21674884476E+02  0.39464887957E+02  0.00000000000E+00 0. -1.
         13    1    4    4    0    0  0.31143631513E+02  0.80778371266E+01 -0.59904058061E+02  0.67997598551E+02  0.00000000000E+00 0.  1.
         -2    1    1    2    0  502 -0.31478188000E+02 -0.20560082078E+02 -0.95282303055E+01  0.38786343829E+02  0.00000000000E+00 0.  1.
<scales pt_clust_5="13000.00000" pt_clust_6="13000.00000" pt_clust_7="13000.00000" pt_clust_8="13000.00000" pt_clust_9="37.59778"></scales>
<clustering>
<clus scale="   37.598">  1  9  2 -1</clus>
<clus scale="   79.444">  5  6 -1 -1</clus>
<clus scale="   82.593">  2  5  1 -1</clus>
<clus scale="   91.842">  7  8 -1 -1</clus>
<clus scale="   37.598">  1  5  2 -1</clus>
</clustering>
</event>
<event>
 9    2  0.1302972E-004  0.2083080E+03  0.7546771E-02  0.1143942E+00
         21   -1    0    0  501  502  0.00000000000E+00  0.00000000000E+00  0.68787321289E+03  0.68787321289E+03  0.00000000000E+00 0. -1.
          2   -1    0    0  502    0 -0.00000000000E+00 -0.00000000000E+00 -0.79929641292E+02  0.79929641292E+02  0.00000000000E+00 0. -1.
         24    2    1    2    0    0 -0.15800247500E+03  0.12496116980E+03  0.22234225639E+03  0.30974855841E+03  0.76993599702E+02 0.  0.
         23    2    1    2    0    0  0.13901487203E+03 -0.94933399138E+02  0.37547180966E+03  0.42111105606E+03  0.89543044216E+02 0.  0.
        -11    1    3    3    0    0 -0.20818499544E+01  0.32662387080E+02  0.49485207605E+02  0.59329178325E+02  0.00000000000E+00 0.  1.
         12    1    3    3    0    0 -0.15592062505E+03  0.92298782724E+02  0.17285704878E+03  0.25041938008E+03  0.00000000000E+00 0. -1.
        -13    1    4    4    0    0 -0.10828508925E+02 -0.20584301288E+02  0.51279941502E+02  0.56308103018E+02  0.00000000000E+00 0.  1.
         13    1    4    4    0    0  0.14984338095E+03 -0.74349097850E+02  0.32419186816E+03  0.36480295304E+03  0.00000000000E+00 0. -1.
          1    1    1    2  501    0  0.18987602977E+02 -0.30027770666E+02  0.10129505547E+02  0.36943239715E+02  0.00000000000E+00 0. -1.
<scales pt_clust_5="13000.00000" pt_clust_6="13000.00000" pt_clust_7="13000.00000" pt_clust_8="13000.00000" pt_clust_9="35.52742"></scales>
<clustering>
<clus scale="   35.527">  1  9  2 -1</clus>
<clus scale="   76.994">  5  6 -1 -1</clus>
<clus scale="   89.543">  7  8 -1 -1</clus>
<clus scale="  203.230">  2  5  1 -1</clus>
<clus scale="   35.527">  1  5  2 -1</clus>
</clustering>
</event>
<event>
 9    2  0.1302972E-004  0.1282962E+03  0.7546771E-02  0.1232421E+00
          2   -1    0    0  502    0 -0.00000000000E+00  0.00000000000E+00  0.34519019956E+03  0.34519019956E+03  0.00000000000E+00 0. -1.
         21   -1    0    0  501  502  0.00000000000E+00 -0.00000000000E+00 -0.11502896964E+03  0.11502896964E+03  0.00000000000E+00 0.  1.
         24    2    1    2    0    0 -0.37044761890E+02 -0.73173990400E+02  0.10945981096E+03  0.15828410830E+03  0.79659660252E+02 0.  0.
         23    2    1    2    0    0  0.10437947016E+03  0.85978637313E+02 -0.14735860691E+01  0.16184703938E+03  0.88909464251E+02 0.  0.
        -13    1    3    3    0    0  0.23513145405E+02 -0.12360183790E+02  0.39286683441E+02  0.47424525785E+02  0.00000000000E+00 0.  1.
         14    1    3    3    0    0 -0.60557907295E+02 -0.60813806609E+02  0.70173127517E+02  0.11085958252E+03  0.00000000000E+00 0. -1.
        -13    1    4    4    0    0  0.24984142347E+02 -0.92398327322E+01 -0.23983042566E+02  0.35843663435E+02  0.00000000000E+00 0.  1.
         13    1    4    4    0    0  0.79395327814E+02  0.95218470046E+02  0.22509456497E+02  0.12600337594E+03  0.00000000000E+00 0. -1.
          1    1    1    2  501    0 -0.67334708270E+02 -0.12804646913E+02  0.12217500503E+03  0.14008802152E+03  0.00000000000E+00 0. -1.
<scales pt_clust_5="13000.00000" pt_clust_6="13000.00000" pt_clust_7="13000.00000" pt_clust_8="13000.00000" pt_clust_9="68.54142"></scales>
<clustering>
<clus scale="   68.541">  2  9  1 -1</clus>
<clus scale="   79.660">  5  6 -1 -1</clus>
<clus scale="   88.909">  7  8 -1 -1</clus>
<clus scale="  122.068">  1  5  2 -1</clus>
<clus scale="   68.541">  2  5  1 -1</clus>
</clustering>
</event>
<event>
 9    2  0.1302972E-004  0.1908173E+03  0.7546771E-02  0.1158454E+00
         21   -1    0    0  501  502  0.00000000000E+00  0.00000000000E+00  0.75686733706E+02  0.75686733706E+02  0.00000000000E+00 0. -1.
          2   -1    0    0  502    0 -0.00000000000E+00 -0.00000000000E+00 -0.11863265050E+04  0.11863265050E+04  0.00000000000E+00 0. -1.
         23    2    1    2    0    0 -0.73284306941E+02  0.11656449092E+03 -0.38955110344E+03  0.42251041853E+03  0.88357916374E+02 0.  0.
         24    2    1    2    0    0  0.22692686542E+03 -0.13139601760E+03 -0.43331918656E+03  0.51294917325E+03  0.81182641012E+02 0.  0.
        -11    1    4    4    0    0  0.71783320528E+02 -0.94511478979E+00 -0.11555546783E+03  0.13603971661E+03  0.00000000000E+00 0.  1.
         12    1    4    4    0    0  0.15514354489E+03 -0.13045090281E+03 -0.31776371873E+03  0.37690945664E+03  0.00000000000E+00 0. -1.
        -13    1    3    3    0    0  0.60740716806E+01  0.43318924465E+02 -0.19646234199E+03  0.20127313627E+03  0.00000000000E+00 0.  1.
         13    1    3    3    0    0 -0.79358378622E+02  0.73245566456E+02 -0.19308876145E+03  0.22123728226E+03  0.00000000000E+00 0. -1.
          1    1    1    2  501    0 -0.15364255848E+03  0.14831526676E+02 -0.28776948129E+03  0.32655364693E+03  0.00000000000E+00 0. -1.
<scales pt_clust_5="13000.00000" pt_clust_6="13000.00000" pt_clust_7="13000.00000" pt_clust_8="13000.00000" pt_clust_9="154.35684"></scales>
<clustering>
<clus scale="   81.183">  5  6 -1 -1</clus>
<clus scale="   88.358">  7  8 -1 -1</clus>
<clus scale="  154.357">  1  9  2 -1</clus>
<clus scale="  187.603">  1  5  2 -1</clus>
<clus scale="  154.357">  1  5  2 -1</clus>
</clustering>
</event>
<event>
 9    2  0.1302972E-004  0.1365864E+03  0.7546771E-02  0.1221137E+00
         21   -1    0    0  501  502  0.00000000000E+00  0.00000000000E+00  0.11911153666E+03  0.11911153666E+03  0.00000000000E+00 0.  1.
         -1   -1    0    0    0  501 -0.00000000000E+00 -0.00000000000E+00 -0.47258576048E+03  0.47258576048E+03  0.00000000000E+00 0.  1.
         23    2    1    2    0    0 -0.10554473312E+03  0.12341888419E+02 -0.38832017142E+03  0.41358230890E+03  0.94687685595E+02 0.  0.
         24    2    1    2    0    0  0.45499321987E+02  0.84404296701E+00  0.60701184013E+02  0.11142305893E+03  0.81606149351E+02 0.  0.
        -11    1    4    4    0    0 -0.12742924555E+02 -0.23729143415E+02  0.54795329762E+01  0.27485990160E+02  0.00000000000E+00 0.  1.
         12    1    4    4    0    0  0.58242246542E+02  0.24573186382E+02  0.55221651037E+02  0.83937068775E+02  0.00000000000E+00 0. -1.
        -13    1    3    3    0    0 -0.23538573078E+02  0.68768149467E+01 -0.10076061037E+02  0.26511922080E+02  0.00000000000E+00 0. -1.
         13    1    3    3    0    0 -0.82006160045E+02  0.54650734724E+01 -0.37824411038E+03  0.38707038682E+03  0.00000000000E+00 0.  1.
         -2    1    1    2    0  502  0.60045411136E+02 -0.13185931386E+02 -0.25855236410E+02  0.66691929308E+02  0.00000000000E+00 0.  1.
<scales pt_clust_5="13000.00000" pt_clust_6="13000.00000" pt_clust_7="13000.00000" pt_clust_8="13000.00000" pt_clust_9="61.47618"></scales>
<clustering>
<clus scale="   61.476">  1  9  2 -1</clus>
<clus scale="   81.606">  5  6 -1 -1</clus>
<clus scale="   94.688">  7  8 -1 -1</clus>
<clus scale="  127.866">  1  5  2 -1</clus>
<clus scale="   61.476">  1  5  2 -1</clus>
</clustering>
</event>
<event>
 9    2  0.1302972E-004  0.1086183E+03  0.7546771E-02  0.1268268E+00
          4   -1    0    0  502    0 -0.00000000000E+00  0.00000000000E+00  0.29238106464E+02  0.29238106464E+02  0.00000000000E+00 0. -1.
         21   -1    0    0  501  502  0.00000000000E+00 -0.00000000000E+00 -0.88984658784E+03  0.88984658784E+03  0.00000000000E+00 0. -1.
         23    2    1    2    0    0  0.65536670703E+02  0.11355229066E+02 -0.13305166255E+03  0.17631312966E+03  0.94655049256E+02 0.  0.
         24    2    1    2    0    0 -0.17689665580E+02  0.26402391705E+02 -0.44332717153E+03  0.45208020559E+03  0.82628812856E+02 0.  0.
        -11    1    4    4    0    0 -0.37230418560E+02  0.45725022508E+02 -0.34420539520E+03  0.34921946657E+03  0.00000000000E+00 0.  1.
         12    1    4    4    0    0  0.19540752980E+02 -0.19322630804E+02 -0.99121776332E+02  0.10286073902E+03  0.00000000000E+00 0. -1.
        -13    1    3    3    0    0 -0.68675729278E+01  0.30143231145E+02 -0.10338437906E+02  0.32598485243E+02  0.00000000000E+00 0. -1.
         13    1    3    3    0    0  0.72404243631E+02 -0.18788002079E+02 -0.12271322464E+03  0.14371464442E+03  0.00000000000E+00 0.  1.
          3    1    1    2  501    0 -0.47847005123E+02 -0.37757620770E+02 -0.28422964730E+03  0.29069135906E+03  0.00000000000E+00 0. -1.
<scales pt_clust_5="13000.00000" pt_clust_6="13000.00000" pt_clust_7="13000.00000" pt_clust_8="13000.00000" pt_clust_9="60.95059"></scales>
<clustering>
<clus scale="   60.951">  2  9  1 -1</clus>
<clus scale="   82.629">  5  6 -1 -1</clus>
<clus scale="   94.655">  7  8 -1 -1</clus>
<clus scale="   98.315">  2  5  1 -1</clus>
<clus scale="   60.951">  2  5  1 -1</clus>
</clustering>
</event>
<event>
 9    2  0.1302972E-004  0.9611476E+02  0.7546771E-02  0.1300135E+00
          2   -1    0    0  502    0 -0.00000000000E+00  0.00000000000E+00  0.39672028341E+03  0.39672028341E+03  0.00000000000E+00 0. -1.
         21   -1    0    0  501  502  0.00000000000E+00 -0.00000000000E+00 -0.70092117418E+02  0.70092117418E+02  0.00000000000E+00 0. -1.
         23    2    1    2    0    0 -0.10942146290E+02  0.16532029595E+02  0.29394184220E+03  0.30915728765E+03  0.93719706285E+02 0.  0.
         24    2    1    2    0    0 -0.15412959922E+02 -0.32386882845E+02  0.70583436578E+02  0.10884774537E+03  0.74694984034E+02 0.  0.
        -11    1    4    4    0    0  0.14992759584E+02 -0.36897964317E+02  0.10234772142E+02  0.41121687362E+02  0.00000000000E+00 0.  1.
         12    1    4    4    0    0 -0.30405719506E+02  0.45110814716E+01  0.60348664435E+02  0.67726058012E+02  0.00000000000E+00 0. -1.
        -13    1    3    3    0    0 -0.48221819128E+02  0.77731886830E+01  0.22551035453E+03  0.23073943378E+03  0.00000000000E+00 0. -1.
         13    1    3    3    0    0  0.37279672838E+02  0.87588409116E+01  0.68431487666E+02  0.78417853868E+02  0.00000000000E+00 0.  1.
          1    1    1    2  501    0  0.26355106212E+02  0.15854853250E+02 -0.37897112780E+02  0.48807367805E+02  0.00000000000E+00 0. -1.
<scales pt_clust_5="13000.00000" pt_clust_6="13000.00000" pt_clust_7="13000.00000" pt_clust_8="13000.00000" pt_clust_9="30.75659"></scales>
<clustering>
<clus scale="   30.757">  2  9  1 -1</clus>
<clus scale="   74.695">  5  6 -1 -1</clus>
<clus scale="   77.679">  2  5  1 -1</clus>
<clus scale="   93.720">  7  8 -1 -1</clus>
<clus scale="   30.757">  2  5  1 -1</clus>
</clustering>
</event>
<event>
 9    2  0.1302972E-004  0.2342042E+03  0.7546771E-02  0.1124507E+00
          2   -1    0    0  502    0 -0.00000000000E+00  0.00000000000E+00  0.12812577620E+04  0.12812577620E+04  0.00000000000E+00 0. -1.
         21   -1    0    0  501  502  0.00000000000E+00 -0.00000000000E+00 -0.96978006850E+02  0.96978006850E+02  0.00000000000E+00 0.  1.
         24    2    1    2    0    0 -0.11918696783E+02 -0.25881868491E+03  0.47416408467E+03  0.54628914384E+03  0.80443038846E+02 0.  0.
         23    2    1    2    0    0 -0.79417986903E+02  0.14805574097E+03  0.12387807083E+03  0.22838607065E+03  0.92664457888E+02 0.  0.
        -13    1    3    3    0    0 -0.88491064441E+01 -0.18357066456E+03  0.25338191467E+03  0.31301579872E+03  0.00000000000E+00 0.  1.
         14    1    3    3    0    0 -0.30695903394E+01 -0.75248020354E+02  0.22078217000E+03  0.23327334512E+03  0.00000000000E+00 0. -1.
        -13    1    4    4    0    0  0.12534093410E+02  0.17504102894E+02 -0.62251415292E+01  0.22410923738E+02  0.00000000000E+00 0. -1.
         13    1    4    4    0    0 -0.91952080313E+02  0.13055163807E+03  0.13010321236E+03  0.20597514691E+03  0.00000000000E+00 0.  1.
          1    1    1    2  501    0  0.91336683686E+02  0.11076294394E+03  0.58623759969E+03  0.60356055440E+03  0.00000000000E+00 0. -1.
<scales pt_clust_5="13000.00000" pt_clust_6="13000.00000" pt_clust_7="13000.00000" pt_clust_8="13000.00000" pt_clust_9="143.56476"></scales>
<clustering>
<clus scale="   80.443">  5  6 -1 -1</clus>
<clus scale="   92.664">  7  8 -1 -1</clus>
<clus scale="  143.565">  2  9  1 -1</clus>
<clus scale="  229.643">  1  5  2 -1</clus>
<clus scale="  143.565">  2  5  1 -1</clus>
</clustering>
</event>
<event>
 9    2  0.1302972E-004  0.1044452E+03  0.7546771E-02  0.1275776E+00
         -1   -1    0    0    0  501 -0.00000000000E+00  0.00000000000E+00  0.91736110476E+02  0.91736110476E+02  0.00000000000E+00 0.  1.
         21   -1    0    0  501  502  0.00000000000E+00 -0.00000000000E+00 -0.18185225800E+03  0.18185225800E+03  0.00000000000E+00 0.  1.
         23    2    1    2    0    0  0.58171048307E+02 -0.25871970457E+02  0.21611327268E+01  0.11072176604E+03  0.90561632407E+02 0.  0.
         24    2    1    2    0    0 -0.40961724907E+02 -0.31090708867E+01 -0.35675216518E+02  0.96989025156E+02  0.80290850649E+02 0.  0.
        -13    1    4    4    0    0  0.18074187755E+02  0.19458574057E+02 -0.63055106819E+01  0.27296003963E+02  0.00000000000E+00 0.  1.
         14    1    4    4    0    0 -0.59035912662E+02 -0.22567644944E+02 -0.29369705836E+02  0.69693021193E+02  0.00000000000E+00 0. -1.
        -13    1    3    3    0    0  0.32285352305E+02 -0.28437350466E+02  0.43946873501E+02  0.61500850120E+02  0.00000000000E+00 0.  1.
         13    1    3    3    0    0  0.25885696002E+02  0.25653800090E+01 -0.41785740774E+02  0.49220915922E+02  0.00000000000E+00 0. -1.
         -2    1    1    2    0  502 -0.17209323401E+02  0.28981041344E+02 -0.56602063734E+02  0.65877577279E+02  0.00000000000E+00 0.  1.
<scales pt_clust_5="13000.00000" pt_clust_6="13000.00000" pt_clust_7="13000.00000" pt_clust_8="13000.00000" pt_clust_9="33.70551"></scales>
<clustering>
<clus scale="   33.706">  2  9  1 -1</clus>
<clus scale="   80.291">  5  6 -1 -1</clus>
<clus scale="   90.562">  7  8 -1 -1</clus>
<clus scale="   95.677">  2  5  1 -1</clus>
<clus scale="   33.706">  2  5  1 -1</clus>
</clustering>
</event>
<event>
 9    2  0.1302972E-004  0.1521998E+03  0.7546771E-02  0.1209450E+00
          2   -1    0    0  502    0 -0.00000000000E+00  0.00000000000E+00  0.15123882351E+04  0.15123882351E+04  0.00000000000E+00 0. -1.
         21   -1    0    0  501  502  0.00000000000E+00 -0.00000000000E+00 -0.35612806985E+02  0.35612806985E+02  0.00000000000E+00 0.  1.
         24    2    1    2    0    0 -0.61901831603E+02 -0.58979381327E+02  0.30685492991E+03  0.32888640385E+03  0.81828567432E+02 0.  0.
         23    2    1    2    0    0  0.74465136081E+02 -0.88601340330E+02  0.28493450261E+03  0.32181974891E+03  0.94789377083E+02 0.  0.
        -11    1    3    3    0    0 -0.75365294229E+02 -0.37140935287E+02  0.16979212355E+03  0.18944324181E+03  0.00000000000E+00 0.  1.
         12    1    3    3    0    0  0.13463462626E+02 -0.21838446040E+02  0.13706280636E+03  0.13944316204E+03  0.00000000000E+00 0. -1.
        -11    1    4    4    0    0  0.31461730298E+02 -0.31585742390E+02  0.22686289952E+02  0.50021668779E+02  0.00000000000E+00 0.  1.
         11    1    4    4    0    0  0.43003405782E+02 -0.57015597940E+02  0.26224821266E+03  0.27179808013E+03  0.00000000000E+00 0. -1.
          1    1    1    2  501    0 -0.12563304478E+02  0.14758072166E+03  0.88498599561E+03  0.89729488935E+03  0.00000000000E+00 0. -1.
<scales pt_clust_5="13000.00000" pt_clust_6="13000.00000" pt_clust_7="13000.00000" pt_clust_8="13000.00000" pt_clust_9="119.07885"></scales>
<clustering>
<clus scale="   81.829">  5  6 -1 -1</clus>
<clus scale="   94.789">  7  8 -1 -1</clus>
<clus scale="  118.348">  1  5  2 -1</clus>
<clus scale="  119.079">  2  9  1 -1</clus>
<clus scale="  119.079">  2  5  1 -1</clus>
</clustering>
</event>
<event>
 9    2  0.1302972E-004  0.1064576E+03  0.7546771E-02  0.1269880E+00
         21   -1    0    0  501  502  0.00000000000E+00  0.00000000000E+00  0.57319887051E+02  0.57319887051E+02  0.00000000000E+00 0. -1.
         -1   -1    0    0    0  501 -0.00000000000E+00 -0.00000000000E+00 -0.41307953268E+03  0.41307953268E+03  0.00000000000E+00 0.  1.
         23    2    1    2    0    0  0.46953421991E+02  0.26917584691E+02 -0.31865599437E+03  0.33569673339E+03  0.90672343404E+02 0.  0.
         24    2    1    2    0    0 -0.44892096573E+02 -0.47069300124E+02 -0.40747487436E+02  0.11412069812E+03  0.84453280917E+02 0.  0.
        -13    1    4    4    0    0 -0.29520030966E+02  0.72989471956E+01 -0.48344084283E+02  0.57112672356E+02  0.00000000000E+00 0.  1.
         14    1    4    4    0    0 -0.15372065607E+02 -0.54368247320E+02  0.75965968470E+01  0.57008025762E+02  0.00000000000E+00 0. -1.
        -11    1    3    3    0    0  0.99439659893E+01  0.56926131060E+02 -0.16536132585E+03  0.17516801918E+03  0.00000000000E+00 0.  1.
         11    1    3    3    0    0  0.37009456001E+02 -0.30008546369E+02 -0.15329466852E+03  0.16052871421E+03  0.00000000000E+00 0. -1.
         -2    1    1    2    0  502 -0.20613254174E+01  0.20151715433E+02  0.36438361717E+01  0.20581988228E+02  0.00000000000E+00 0.  1.
<scales pt_clust_5="13000.00000" pt_clust_6="13000.00000" pt_clust_7="13000.00000" pt_clust_8="13000.00000" pt_clust_9="20.25687"></scales>
<clustering>
<clus scale="   20.257">  1  9  2 -1</clus>
<clus scale="   84.453">  5  6 -1 -1</clus>
<clus scale="   90.672">  7  8 -1 -1</clus>
<clus scale="  101.213">  1  5  2 -1</clus>
<clus scale="   20.257">  1  5  2 -1</clus>
</clustering>
</event>
<event>
 9    2  0.1302972E-004  0.2343225E+03  0.7546771E-02  0.1140415E+00
         -1   -1    0    0    0  501 -0.00000000000E+00  0.00000000000E+00  0.23004486645E+03  0.23004486645E+03  0.00000000000E+00 0.  1.
         21   -1    0    0  501  502  0.00000000000E+00 -0.00000000000E+00 -0.50969412328E+03  0.50969412328E+03  0.00000000000E+00 0.  1.
         24    2    1    2    0    0  0.13176015056E+03 -0.14834716981E+02  0.40924160659E+02  0.16070543720E+03  0.81059512190E+02 0.  0.
         23    2    1    2    0    0  0.64265503853E+02  0.18769878233E+03 -0.17727590664E+03  0.28096943376E+03  0.90311614752E+02 0.  0.
        -11    1    3    3    0    0  0.13113409889E+03  0.90295296027E+01  0.32640888102E+02  0.13543674491E+03  0.00000000000E+00 0.  1.
         12    1    3    3    0    0  0.62605167217E+00 -0.23864246584E+02  0.82832725578E+01  0.25268692289E+02  0.00000000000E+00 0. -1.
        -11    1    4    4    0    0  0.71204579830E+02  0.93429427102E+02 -0.13023689090E+03  0.17538756452E+03  0.00000000000E+00 0.  1.
         11    1    4    4    0    0 -0.69390759771E+01  0.94269355230E+02 -0.47039015747E+02  0.10558186925E+03  0.00000000000E+00 0. -1.
         -2    1    1    2    0  502 -0.19602565442E+03 -0.17286406535E+03 -0.14329751084E+03  0.29806411876E+03  0.00000000000E+00 0.  1.
<scales pt_clust_5="13000.00000" pt_clust_6="13000.00000" pt_clust_7="13000.00000" pt_clust_8="13000.00000" pt_clust_9="216.21951"></scales>
<clustering>
<clus scale="   81.060">  5  6 -1 -1</clus>
<clus scale="   90.312">  7  8 -1 -1</clus>
<clus scale="  155.407">  1  5  2 -1</clus>
<clus scale="  216.220">  2  9  1 -1</clus>
<clus scale="  216.220">  2  5  1 -1</clus>
</clustering>
</event>
<event>
 9    2  0.1302972E-004  0.1380918E+03  0.7546771E-02  0.1218659E+00
          2   -1    0    0  502    0 -0.00000000000E+00  0.00000000000E+00  0.28310908841E+03  0.28310908841E+03  0.00000000000E+00 0. -1.
         21   -1    0    0  501  502  0.00000000000E+00 -0.00000000000E+00 -0.14206808491E+03  0.14206808491E+03  0.00000000000E+00 0.  1.
         24    2    1    2    0    0 -0.77539699050E+02 -0.90888350349E+02  0.59200155632E+02  0.15569019614E+03  0.80384585528E+02 0.  0.
         23    2    1    2    0    0  0.91880076716E+02  0.98666983927E+01 -0.26586941511E+02  0.13337400930E+03  0.92425432985E+02 0.  0.
        -11    1    3    3    0    0 -0.90965755093E+02 -0.93092071242E+02  0.56118472444E+02  0.14173985070E+03  0.00000000000E+00 0.  1.
         12    1    3    3    0    0  0.13426056043E+02  0.22037208935E+01  0.30816831886E+01  0.13950345441E+02  0.00000000000E+00 0. -1.
        -13    1    4    4    0    0  0.19005082357E+02 -0.89344495877E+01  0.31808104214E+02  0.38115259917E+02  0.00000000000E+00 0. -1.
         13    1    4    4    0    0  0.72874994359E+02  0.18801147980E+02 -0.58395045725E+02  0.95258749379E+02  0.00000000000E+00 0.  1.
          1    1    1    2  501    0 -0.14340377666E+02  0.81021651956E+02  0.10842778937E+03  0.13611296788E+03  0.00000000000E+00 0. -1.
<scales pt_clust_5="13000.00000" pt_clust_6="13000.00000" pt_clust_7="13000.00000" pt_clust_8="13000.00000" pt_clust_9="82.28099"></scales>
<clustering>
<clus scale="   80.385">  5  6 -1 -1</clus>
<clus scale="   82.281">  2  9  1 -1</clus>
<clus scale="   92.425">  7  8 -1 -1</clus>
<clus scale="  130.340">  1  5  2 -1</clus>
<clus scale="   82.281">  2  5  1 -1</clus>
</clustering>
</event>
<event>
 9    2  0.1302972E-004  0.3020887E+03  0.7546771E-02  0.1084330E+00
         21   -1    0    0  501  502  0.00000000000E+00  0.00000000000E+00  0.44591149245E+03  0.44591149245E+03  0.00000000000E+00 0.  1.
         -3   -1    0    0    0  501 -0.00000000000E+00 -0.00000000000E+00 -0.37357612906E+03  0.37357612906E+03  0.00000000000E+00 0.  1.
         24    2    1    2    0    0 -0.17529667473E+03  0.25442296257E+03 -0.50678646679E+02  0.32434650340E+03  0.84689792656E+02 0.  0.
         23    2    1    2    0    0  0.20242135553E+03 -0.15592318403E+03  0.22429801827E+03  0.35127866646E+03  0.88321322544E+02 0.  0.
        -11    1    3    3    0    0 -0.10444675657E+03  0.19309863845E+03 -0.37968409304E+01  0.21956918074E+03  0.00000000000E+00 0.  1.
         12    1    3    3    0    0 -0.70849918164E+02  0.61324324115E+02 -0.46881805749E+02  0.10477732265E+03  0.00000000000E+00 0. -1.
        -11    1    4    4    0    0  0.20196142229E+03 -0.12226199698E+03  0.18820660604E+03  0.30192406091E+03  0.00000000000E+00 0.  1.
         11    1    4    4    0    0  0.45993324145E+00 -0.33661187049E+02  0.36091412227E+02  0.49354605547E+02  0.00000000000E+00 0. -1.
         -4    1    1    2    0  502 -0.27124680798E+02 -0.98499778543E+02 -0.10128400820E+03  0.14386245166E+03  0.00000000000E+00 0.  1.
<scales pt_clust_5="13000.00000" pt_clust_6="13000.00000" pt_clust_7="13000.00000" pt_clust_8="13000.00000" pt_clust_9="102.16636"></scales>
<clustering>
<clus scale="   84.690">  5  6 -1 -1</clus>
<clus scale="   88.321">  7  8 -1 -1</clus>
<clus scale="  102.166">  1  9  2 -1</clus>
<clus scale="  301.047">  2  5  1 -1</clus>
<clus scale="  102.166">  1  5  2 -1</clus>
</clustering>
</event>
<event>
 9    2  0.1302972E-004  0.1326890E+03  0.7546771E-02  0.1226500E+00
         21   -1    0    0  501  502  0.00000000000E+00  0.00000000000E+00  0.13890385097E+03  0.13890385097E+03  0.00000000000E+00 0.  1.
          2   -1    0    0  502    0 -0.00000000000E+00 -0.00000000000E+00 -0.17438024500E+03  0.17438024500E+03  0.00000000000E+00 0. -1.
         24    2    1    2    0    0 -0.84209751100E+02  0.50662289011E+02 -0.38701507294E+02  0.13236517754E+03  0.79779595446E+02 0.  0.
         23    2    1    2    0    0  0.98155106432E+02 -0.77064938362E+01  0.11220777388E+02  0.13505385635E+03  0.91759595158E+02 0.  0.
        -13    1    3    3    0    0 -0.81512345271E+02  0.10649164493E+02 -0.94915139764E+01  0.82751169016E+02  0.00000000000E+00 0.  1.
         14    1    3    3    0    0 -0.26974058288E+01  0.40013124518E+02 -0.29209993318E+02  0.49614008521E+02  0.00000000000E+00 0. -1.
        -13    1    4    4    0    0  0.96803659105E+02  0.24222428024E+02 -0.35426165259E+01  0.99851011849E+02  0.00000000000E+00 0.  1.
         13    1    4    4    0    0  0.13514473277E+01 -0.31928921860E+02  0.14763393914E+02  0.35202844500E+02  0.00000000000E+00 0. -1.
          1    1    1    2  501    0 -0.13945355332E+02 -0.42955795174E+02 -0.79956641220E+01  0.45865062075E+02  0.00000000000E+00 0. -1.
<scales pt_clust_5="13000.00000" pt_clust_6="13000.00000" pt_clust_7="13000.00000" pt_clust_8="13000.00000" pt_clust_9="45.16276"></scales>
<clustering>
<clus scale="   45.163">  1  9  2 -1</clus>
<clus scale="   79.780">  5  6 -1 -1</clus>
<clus scale="   91.760">  7  8 -1 -1</clus>
<clus scale="  124.705">  2  5  1 -1</clus>
<clus scale="   45.163">  1  5  2 -1</clus>
</clustering>
</event>
<event>
 9    2  0.1302972E-004  0.1086728E+03  0.7546771E-02  0.1266087E+00
         21   -1    0    0  501  502  0.00000000000E+00  0.00000000000E+00  0.97258153246E+03  0.97258153246E+03  0.00000000000E+00 0. -1.
          2   -1    0    0  502    0 -0.00000000000E+00 -0.00000000000E+00 -0.25257521074E+02  0.25257521074E+02  0.00000000000E+00 0. -1.
         23    2    1    2    0    0  0.48461859809E+02 -0.58642866152E+01  0.15973725147E+03  0.19005997342E+03  0.90685513046E+02 0.  0.
         24    2    1    2    0    0 -0.81416020365E+02  0.37842638794E+02  0.42365962326E+03  0.44096638608E+03  0.83085760453E+02 0.  0.
        -13    1    4    4    0    0 -0.35429052183E+02 -0.25735744470E+02  0.15899311378E+03  0.16491317871E+03  0.00000000000E+00 0.  1.
         14    1    4    4    0    0 -0.45986968182E+02  0.63578383264E+02  0.26466650947E+03  0.27605320737E+03  0.00000000000E+00 0. -1.
        -13    1    3    3    0    0  0.59810157431E+02  0.13480897601E+02  0.15561345335E+03  0.16725590093E+03  0.00000000000E+00 0. -1.
         13    1    3    3    0    0 -0.11348297623E+02 -0.19345184216E+02  0.41237981175E+01  0.22804072491E+02  0.00000000000E+00 0.  1.
          1    1    1    2  501    0  0.32954160556E+02 -0.31978352179E+02  0.36392713666E+03  0.36681269403E+03  0.00000000000E+00 0. -1.
<scales pt_clust_5="13000.00000" pt_clust_6="13000.00000" pt_clust_7="13000.00000" pt_clust_8="13000.00000" pt_clust_9="45.91940"></scales>
<clustering>
<clus scale="   45.919">  1  9  2 -1</clus>
<clus scale="   83.086">  5  6 -1 -1</clus>
<clus scale="   90.686">  7  8 -1 -1</clus>
<clus scale="  102.417">  1  5  2 -1</clus>
<clus scale="   45.919">  1  5  2 -1</clus>
</clustering>
</event>
<event>
 9    2  0.1302972E-004  0.9411380E+02  0.7546771E-02  0.1298255E+00
         21   -1    0    0  501  502  0.00000000000E+00  0.00000000000E+00  0.21194741780E+03  0.21194741780E+03  0.00000000000E+00 0.  1.
          2   -1    0    0  502    0 -0.00000000000E+00 -0.00000000000E+00 -0.22181710560E+03  0.22181710560E+03  0.00000000000E+00 0. -1.
         23    2    1    2    0    0  0.40275591921E+01  0.32636484831E+02 -0.69438549113E+02  0.11838020752E+03  0.90059980318E+02 0.  0.
         24    2    1    2    0    0 -0.40703025803E+02  0.22429876729E+02  0.16572141559E+03  0.19030130822E+03  0.81185987989E+02 0.  0.
        -13    1    4    4    0    0  0.10019053082E+02 -0.18345042073E+02  0.79935812049E+02  0.82623580419E+02  0.00000000000E+00 0.  1.
         14    1    4    4    0    0 -0.50722078885E+02  0.40774918801E+02  0.85785603542E+02  0.10767772780E+03  0.00000000000E+00 0. -1.
        -11    1    3    3    0    0 -0.23672405161E+02  0.35744008986E+02 -0.78183760659E+02  0.89166795250E+02  0.00000000000E+00 0.  1.
         11    1    3    3    0    0  0.27699964354E+02 -0.31075241545E+01  0.87452115459E+01  0.29213412271E+02  0.00000000000E+00 0. -1.
          1    1    1    2  501    0  0.36675466611E+02 -0.55066361560E+02 -0.10615255428E+03  0.12508300766E+03  0.00000000000E+00 0. -1.
<scales pt_clust_5="13000.00000" pt_clust_6="13000.00000" pt_clust_7="13000.00000" pt_clust_8="13000.00000" pt_clust_9="66.16191"></scales>
<clustering>
<clus scale="   66.162">  1  9  2 -1</clus>
<clus scale="   81.186">  5  6 -1 -1</clus>
<clus scale="   85.661">  1  5  2 -1</clus>
<clus scale="   90.060">  7  8 -1 -1</clus>
<clus scale="   66.162">  1  5  2 -1</clus>
</clustering>
</event>
<event>
 9    2  0.1302972E-004  0.1031093E+03  0.7546771E-02  0.1280610E+00
         21   -1    0    0  501  502  0.00000000000E+00  0.00000000000E+00  0.53751822995E+02  0.53751822995E+02  0.00000000000E+00 0. -1.
          2   -1    0    0  502    0 -0.00000000000E+00 -0.00000000000E+00 -0.35322539994E+03  0.35322539994E+03  0.00000000000E+00 0. -1.
         23    2    1    2    0    0  0.28642700237E+02  0.38896334076E+02 -0.26872432807E+03  0.28869064762E+03  0.93788040003E+02 0.  0.
         24    2    1    2    0    0 -0.55406162744E+01 -0.23872393984E+02 -0.10851595100E+02  0.84296257794E+02  0.79921914008E+02 0.  0.
        -13    1    4    4    0    0 -0.22540598468E+02 -0.44438870224E+02 -0.23116328416E+02  0.54929558578E+02  0.00000000000E+00 0.  1.
         14    1    4    4    0    0  0.16999982194E+02  0.20566476241E+02  0.12264733316E+02  0.29366699216E+02  0.00000000000E+00 0. -1.
        -11    1    3    3    0    0  0.41490961592E+02 -0.16036205691E+01 -0.46077582397E+02  0.62025922744E+02  0.00000000000E+00 0.  1.
         11    1    3    3    0    0 -0.12848261355E+02  0.40499954645E+02 -0.22264674567E+03  0.22666472488E+03  0.00000000000E+00 0. -1.
          1    1    1    2  501    0 -0.23102083962E+02 -0.15023940092E+02 -0.19897653779E+02  0.33990317521E+02  0.00000000000E+00 0. -1.
<scales pt_clust_5="13000.00000" pt_clust_6="13000.00000" pt_clust_7="13000.00000" pt_clust_8="13000.00000" pt_clust_9="27.55767"></scales>
<clustering>
<clus scale="   27.558">  1  9  2 -1</clus>
<clus scale="   79.922">  5  6 -1 -1</clus>
<clus scale="   90.680">  1  5  2 -1</clus>
<clus scale="   93.788">  7  8 -1 -1</clus>
<clus scale="   27.558">  1  5  2 -1</clus>
</clustering>
</event>
<event>
 9    2  0.1302972E-004  0.9111096E+02  0.7546771E-02  0.1308914E+00
          2   -1    0    0  502    0 -0.00000000000E+00  0.00000000000E+00  0.77033683477E+03  0.77033683477E+03  0.00000000000E+00 0. -1.
         21   -1    0    0  501  502  0.00000000000E+00 -0.00000000000E+00 -0.60293663345E+02  0.60293663345E+02  0.00000000000E+00 0.  1.
         24    2    1    2    0    0  0.10885785698E+02 -0.11169939455E+02  0.65370770020E+03  0.65824829896E+03  0.75589667995E+02 0.  0.
         23    2    1    2    0    0 -0.47176199016E+02  0.97149688717E+01  0.79816709119E+02  0.12913315788E+03  0.89357098400E+02 0.  0.
        -11    1    3    3    0    0 -0.23612642490E+02 -0.13834069610E+01  0.80062957280E+02  0.83483817765E+02  0.00000000000E+00 0.  1.
         12    1    3    3    0    0  0.34498428189E+02 -0.97865324944E+01  0.57364474292E+03  0.57476448120E+03  0.00000000000E+00 0. -1.
        -11    1    4    4    0    0  0.95505050980E+01  0.37203084050E+02  0.27963180264E+02  0.47510220595E+02  0.00000000000E+00 0. -1.
         11    1    4    4    0    0 -0.56726704114E+02 -0.27488115178E+02  0.51853528855E+02  0.81622937281E+02  0.00000000000E+00 0.  1.
          1    1    1    2  501    0  0.36290413317E+02  0.14549705837E+01 -0.23481237896E+02  0.43249041276E+02  0.00000000000E+00 0. -1.
<scales pt_clust_5="13000.00000" pt_clust_6="13000.00000" pt_clust_7="13000.00000" pt_clust_8="13000.00000" pt_clust_9="36.31957"></scales>
<clustering>
<clus scale="   36.320">  2  9  1 -1</clus>
<clus scale="   75.590">  5  6 -1 -1</clus>
<clus scale="   77.655">  1  5  2 -1</clus>
<clus scale="   89.357">  7  8 -1 -1</clus>
<clus scale="   36.320">  2  5  1 -1</clus>
</clustering>
</event>
<event>
 9    2  0.1302972E-004  0.1094318E+03  0.7546771E-02  0.1266180E+00
         21   -1    0    0  501  502  0.00000000000E+00  0.00000000000E+00  0.10723680786E+03  0.10723680786E+03  0.00000000000E+00 0. -1.
          2   -1    0    0  502    0 -0.00000000000E+00 -0.00000000000E+00 -0.30047164644E+03  0.30047164644E+03  0.00000000000E+00 0. -1.
         24    2    1    2    0    0  0.67633738481E+02  0.18459890894E+02 -0.14825628778E+03  0.18194292250E+03  0.78792195232E+02 0.  0.
         23    2    1    2    0    0 -0.42645754631E+02  0.74501676065E+02 -0.18952581623E+02  0.12604791381E+03  0.90331146899E+02 0.  0.
        -13    1    3    3    0    0  0.21281404698E+02 -0.30466118448E+02 -0.64470262749E+02  0.74414362446E+02  0.00000000000E+00 0.  1.
         14    1    3    3    0    0  0.46352333783E+02  0.48926009342E+02 -0.83786025029E+02  0.10752856005E+03  0.00000000000E+00 0. -1.
        -13    1    4    4    0    0 -0.30321256959E+02 -0.55368465984E+01  0.19424591882E+02  0.36432815752E+02  0.00000000000E+00 0.  1.
         13    1    4    4    0    0 -0.12324497673E+02  0.80038522663E+02 -0.38377173505E+02  0.89615098054E+02  0.00000000000E+00 0. -1.
          1    1    1    2  501    0 -0.24987983850E+02 -0.92961566958E+02 -0.26025969176E+02  0.99717618001E+02  0.00000000000E+00 0. -1.
<scales pt_clust_5="13000.00000" pt_clust_6="13000.00000" pt_clust_7="13000.00000" pt_clust_8="13000.00000" pt_clust_9="96.26137"></scales>
<clustering>
<clus scale="   78.792">  5  6 -1 -1</clus>
<clus scale="   90.331">  7  8 -1 -1</clus>
<clus scale="   96.261">  1  9  2 -1</clus>
<clus scale="  100.119">  2  5  1 -1</clus>
<clus scale="   96.261">  1  5  2 -1</clus>
</clustering>
</event>
<event>
 9    2  0.1302972E-004  0.9154658E+02  0.7546771E-02  0.1304980E+00
          2   -1    0    0  502    0 -0.00000000000E+00  0.00000000000E+00  0.77605583666E+02  0.77605583666E+02  0.00000000000E+00 0. -1.
         21   -1    0    0  501  502  0.00000000000E+00 -0.00000000000E+00 -0.25130729515E+03  0.25130729515E+03  0.00000000000E+00 0.  1.
         23    2    1    2    0    0  0.74391955379E+01  0.88273996142E+01 -0.27095857341E+02  0.96010117104E+02  0.91381029142E+02 0.  0.
         24    2    1    2    0    0  0.16376232174E+00  0.26459443479E+02 -0.16949219395E+03  0.19016225618E+03  0.82060653764E+02 0.  0.
        -13    1    4    4    0    0  0.30436894541E+02  0.20567591406E+01 -0.13428814388E+03  0.13770962346E+03  0.00000000000E+00 0.  1.
         14    1    4    4    0    0 -0.30273132219E+02  0.24402684338E+02 -0.35204050075E+02  0.52452632717E+02  0.00000000000E+00 0. -1.
        -11    1    3    3    0    0  0.37806056877E+02  0.34241903489E+02 -0.66344146230E+01  0.51437548041E+02  0.00000000000E+00 0.  1.
         11    1    3    3    0    0 -0.30366861339E+02 -0.25414503874E+02 -0.20461442718E+02  0.44572569063E+02  0.00000000000E+00 0. -1.
          1    1    1    2  501    0 -0.76029578596E+01 -0.35286843093E+02  0.22886339808E+02  0.42740505536E+02  0.00000000000E+00 0. -1.
<scales pt_clust_5="13000.00000" pt_clust_6="13000.00000" pt_clust_7="13000.00000" pt_clust_8="13000.00000" pt_clust_9="36.09664"></scales>
<clustering>
<clus scale="   36.097">  2  9  1 -1</clus>
<clus scale="   82.061">  5  6 -1 -1</clus>
<clus scale="   82.245">  2  5  1 -1</clus>
<clus scale="   91.381">  7  8 -1 -1</clus>
<clus scale="   36.097">  2  5  1 -1</clus>
</clustering>
</event>
<event>
 9    2  0.1302972E-004  0.1209309E+03  0.7546771E-02  0.1255230E+00
         21   -1    0    0  501  502  0.00000000000E+00  0.00000000000E+00  0.35830623144E+02  0.35830623144E+02  0.00000000000E+00 0.  1.
          2   -1    0    0  502    0 -0.00000000000E+00 -0.00000000000E+00 -0.57251353257E+03  0.57251353257E+03  0.00000000000E+00 0. -1.
         24    2    1    2    0    0  0.26771847859E+01 -0.34779780492E+02 -0.34882294428E+03  0.36077600048E+03  0.85235412904E+02 0.  0.
         23    2    1    2    0    0 -0.26263468070E+02  0.29738366092E+02 -0.10520376860E+03  0.16146487164E+03  0.11588326745E+03 0.  0.
        -13    1    3    3    0    0  0.19734291250E+02 -0.24762495791E+02 -0.38612208672E+02  0.49935219109E+02  0.00000000000E+00 0.  1.
         14    1    3    3    0    0 -0.17057106464E+02 -0.10017284702E+02 -0.31021073561E+03  0.31084078137E+03  0.00000000000E+00 0. -1.
        -11    1    4    4    0    0 -0.17517108277E+02  0.74562440055E+02 -0.61123256304E+02  0.97992137493E+02  0.00000000000E+00 0.  1.
         11    1    4    4    0    0 -0.87463597932E+01 -0.44824073964E+02 -0.44080512296E+02  0.63472734151E+02  0.00000000000E+00 0. -1.
          1    1    1    2  501    0  0.23586283284E+02  0.50414144009E+01 -0.82656196546E+02  0.86103283594E+02  0.00000000000E+00 0. -1.
<scales pt_clust_5="13000.00000" pt_clust_6="13000.00000" pt_clust_7="13000.00000" pt_clust_8="13000.00000" pt_clust_9="24.11906"></scales>
<clustering>
<clus scale="   24.119">  1  9  2 -1</clus>
<clus scale="   85.235">  5  6 -1 -1</clus>
<clus scale="   91.981">  2  5  1 -1</clus>
<clus scale="  115.883">  7  8 -1 -1</clus>
<clus scale="   24.119">  1  5  2 -1</clus>
</clustering>
</event>
<event>
 9    2  0.1302972E-004  0.2592462E+03  0.7546771E-02  0.1108117E+00
          2   -1    0    0  502    0 -0.00000000000E+00  0.00000000000E+00  0.23218964187E+03  0.23218964187E+03  0.00000000000E+00 0. -1.
         21   -1    0    0  501  502  0.00000000000E+00 -0.00000000000E+00 -0.50648143234E+03  0.50648143234E+03  0.00000000000E+00 0. -1.
         24    2    1    2    0    0 -0.10231567048E+02  0.25638738271E+03  0.51062873786E+02  0.27371260981E+03  0.80448745875E+02 0.  0.
         23    2    1    2    0    0  0.49719192805E+02 -0.19590009285E+03 -0.32425498824E+03  0.39271447427E+03  0.90744236139E+02 0.  0.
        -11    1    3    3    0    0 -0.40086561893E+02  0.83575630481E+02  0.73985607955E+01  0.92986865506E+02  0.00000000000E+00 0.  1.
         12    1    3    3    0    0  0.29854994845E+02  0.17281175223E+03  0.43664312991E+02  0.18072574430E+03  0.00000000000E+00 0. -1.
        -11    1    4    4    0    0  0.57529739176E+02 -0.98369551992E+02 -0.23085196977E+03  0.25744683256E+03  0.00000000000E+00 0. -1.
         11    1    4    4    0    0 -0.78105463705E+01 -0.97530540859E+02 -0.93403018467E+02  0.13526764171E+03  0.00000000000E+00 0.  1.
          1    1    1    2  501    0 -0.39487625757E+02 -0.60487289856E+02 -0.10996760163E+01  0.72243990127E+02  0.00000000000E+00 0. -1.
<scales pt_clust_5="13000.00000" pt_clust_6="13000.00000" pt_clust_7="13000.00000" pt_clust_8="13000.00000" pt_clust_9="72.23566"></scales>
<clustering>
<clus scale="   72.236">  2  9  1 -1</clus>
<clus scale="   80.449">  5  6 -1 -1</clus>
<clus scale="   90.744">  7  8 -1 -1</clus>
<clus scale="  255.824">  1  5  2 -1</clus>
<clus scale="   72.236">  2  5  1 -1</clus>
</clustering>
</event>
<event>
 9    2  0.1302972E-004  0.2813053E+03  0.7546771E-02  0.1095533E+00
         21   -1    0    0  501  502  0.00000000000E+00  0.00000000000E+00  0.18418686186E+03  0.18418686186E+03  0.00000000000E+00 0.  1.
          2   -1    0    0  502    0 -0.00000000000E+00 -0.00000000000E+00 -0.66252588196E+03  0.66252588196E+03  0.00000000000E+00 0. -1.
         24    2    1    2    0    0 -0.19531722322E+03  0.19752765083E+03 -0.41706183079E+03  0.50728049391E+03  0.78910951563E+02 0.  0.
         23    2    1    2    0    0  0.19711454570E+03 -0.13113656532E+03 -0.78158666176E+01  0.25417311769E+03  0.92151739511E+02 0.  0.
        -13    1    3    3    0    0 -0.52110705516E+02  0.23400587440E+02 -0.47102331246E+02  0.74038792066E+02  0.00000000000E+00 0.  1.
         14    1    3    3    0    0 -0.14320651770E+03  0.17412706339E+03 -0.36995949954E+03  0.43324170185E+03  0.00000000000E+00 0. -1.
        -11    1    4    4    0    0  0.36512784464E+02 -0.12775248859E+01 -0.28875302267E+02  0.46568214269E+02  0.00000000000E+00 0. -1.
         11    1    4    4    0    0  0.16060176124E+03 -0.12985904044E+03  0.21059435649E+02  0.20760490343E+03  0.00000000000E+00 0.  1.
          1    1    1    2  501    0 -0.17973224859E+01 -0.66391085503E+02 -0.53461322694E+02  0.85259132218E+02  0.00000000000E+00 0. -1.
<scales pt_clust_5="13000.00000" pt_clust_6="13000.00000" pt_clust_7="13000.00000" pt_clust_8="13000.00000" pt_clust_9="66.41544"></scales>
<clustering>
<clus scale="   66.415">  1  9  2 -1</clus>
<clus scale="   78.911">  5  6 -1 -1</clus>
<clus scale="   92.152">  7  8 -1 -1</clus>
<clus scale="  277.250">  2  5  1 -1</clus>
<clus scale="   66.415">  1  5  2 -1</clus>
</clustering>
</event>
<event>
 9    2  0.1302972E-004  0.1772606E+03  0.7546771E-02  0.1192913E+00
          2   -1    0    0  502    0 -0.00000000000E+00  0.00000000000E+00  0.13754825670E+04  0.13754825670E+04  0.00000000000E+00 0. -1.
         21   -1    0    0  501  502  0.00000000000E+00 -0.00000000000E+00 -0.40840696829E+02  0.40840696829E+02  0.00000000000E+00 0. -1.
         24    2    1    2    0    0 -0.56458254712E+02  0.36528514459E+02  0.41910212643E+03  0.43259799525E+03  0.83501893522E+02 0.  0.
         23    2    1    2    0    0  0.18619848644E+03 -0.74196736832E+02  0.65030486692E+03  0.68606613033E+03  0.87265589582E+02 0.  0.
        -13    1    3    3    0    0 -0.25002187405E+02  0.37472794172E+02  0.78206535641E+02  0.90252877489E+02  0.00000000000E+00 0.  1.
         14    1    3    3    0    0 -0.31456067307E+02 -0.94427971300E+00  0.34089559079E+03  0.34234511776E+03  0.00000000000E+00 0. -1.
        -13    1    4    4    0    0  0.84229333569E+02 -0.65793825214E+02  0.23208706860E+03  0.25551480481E+03  0.00000000000E+00 0.  1.
         13    1    4    4    0    0  0.10196915287E+03 -0.84029116182E+01  0.41821779833E+03  0.43055132551E+03  0.00000000000E+00 0. -1.
          1    1    1    2  501    0 -0.12974023173E+03  0.37668222373E+02  0.26523487682E+03  0.29765913826E+03  0.00000000000E+00 0. -1.
<scales pt_clust_5="13000.00000" pt_clust_6="13000.00000" pt_clust_7="13000.00000" pt_clust_8="13000.00000" pt_clust_9="154.29209"></scales>
<clustering>
<clus scale="   83.502">  5  6 -1 -1</clus>
<clus scale="   87.266">  7  8 -1 -1</clus>
<clus scale="  107.212">  1  5  2 -1</clus>
<clus scale="  154.292">  2  9  1 -1</clus>
<clus scale="  154.292">  2  5  1 -1</clus>
</clustering>
</event>
<event>
 9    2  0.1302972E-004  0.1006740E+03  0.7546771E-02  0.1284825E+00
         21   -1    0    0  501  502  0.00000000000E+00  0.00000000000E+00  0.46091038971E+02  0.46091038971E+02  0.00000000000E+00 0.  1.
          2   -1    0    0  502    0 -0.00000000000E+00 -0.00000000000E+00 -0.50939870614E+03  0.50939870614E+03  0.00000000000E+00 0. -1.
         23    2    1    2    0    0 -0.27657017433E+02  0.89224131555E+01 -0.21550339002E+03  0.23622998201E+03  0.92295033567E+02 0.  0.
         24    2    1    2    0    0  0.63772249557E+02 -0.42732240220E+02 -0.62703402367E+02  0.12766188148E+03  0.80454304707E+02 0.  0.
        -13    1    4    4    0    0  0.66742718805E+02 -0.59942923542E+02 -0.63923379984E+02  0.11015417879E+03  0.00000000000E+00 0.  1.
         14    1    4    4    0    0 -0.29704692483E+01  0.17210683322E+02  0.12199776171E+01  0.17507702686E+02  0.00000000000E+00 0. -1.
        -13    1    3    3    0    0  0.34235776103E+02  0.12004168432E+01 -0.70571172540E+02  0.78446285824E+02  0.00000000000E+00 0. -1.
         13    1    3    3    0    0 -0.61892793536E+02  0.77219963122E+01 -0.14493221748E+03  0.15778369619E+03  0.00000000000E+00 0.  1.
          1    1    1    2  501    0 -0.36115232123E+02  0.33809827064E+02 -0.18510087478E+03  0.19159788162E+03  0.00000000000E+00 0. -1.
<scales pt_clust_5="13000.00000" pt_clust_6="13000.00000" pt_clust_7="13000.00000" pt_clust_8="13000.00000" pt_clust_9="49.47137"></scales>
<clustering>
<clus scale="   49.471">  1  9  2 -1</clus>
<clus scale="   80.454">  5  6 -1 -1</clus>
<clus scale="   89.943">  1  5  2 -1</clus>
<clus scale="   92.295">  7  8 -1 -1</clus>
<clus scale="   49.471">  1  5  2 -1</clus>
</clustering>
</event>
<event>
 9    2  0.1302972E-004  0.1019935E+03  0.7546771E-02  0.1285394E+00
         21   -1    0    0  501  502  0.00000000000E+00  0.00000000000E+00  0.95103957309E+02  0.95103957309E+02  0.00000000000E+00 0. -1.
          2   -1    0    0  502    0 -0.00000000000E+00 -0.00000000000E+00 -0.40736895194E+03  0.40736895194E+03  0.00000000000E+00 0. -1.
         23    2    1    2    0    0 -0.15921647360E+02 -0.58508383074E+02 -0.31433299606E+03  0.33181310463E+03  0.87281007393E+02 0.  0.
         24    2    1    2    0    0  0.59396704418E+01  0.36300573575E+02 -0.64197579534E+02  0.10006268084E+03  0.67366160288E+02 0.  0.
        -13    1    4    4    0    0  0.68146565139E+01 -0.19648376220E+02 -0.17087483792E+02  0.26916172347E+02  0.00000000000E+00 0.  1.
         14    1    4    4    0    0 -0.87498607209E+00  0.55948949795E+02 -0.47110095743E+02  0.73146508492E+02  0.00000000000E+00 0. -1.
        -11    1    3    3    0    0 -0.62416599979E+01 -0.81184903762E+02 -0.23245152955E+03  0.24629994013E+03  0.00000000000E+00 0. -1.
         11    1    3    3    0    0 -0.96799873622E+01  0.22676520688E+02 -0.81881466508E+02  0.85513164504E+02  0.00000000000E+00 0.  1.
          1    1    1    2  501    0  0.99819769183E+01  0.22207809499E+02  0.66265580959E+02  0.70597123778E+02  0.00000000000E+00 0. -1.
<scales pt_clust_5="13000.00000" pt_clust_6="13000.00000" pt_clust_7="13000.00000" pt_clust_8="13000.00000" pt_clust_9="24.34803"></scales>
<clustering>
<clus scale="   24.348">  1  9  2 -1</clus>
<clus scale="   67.366">  5  6 -1 -1</clus>
<clus scale="   85.574">  1  5  2 -1</clus>
<clus scale="   87.281">  7  8 -1 -1</clus>
<clus scale="   24.348">  1  5  2 -1</clus>
</clustering>
</event>
<event>
 9    2  0.1302972E-004  0.1403585E+03  0.7546771E-02  0.1214988E+00
         21   -1    0    0  501  502  0.00000000000E+00  0.00000000000E+00  0.44931080784E+03  0.44931080784E+03  0.00000000000E+00 0. -1.
          2   -1    0    0  502    0 -0.00000000000E+00 -0.00000000000E+00 -0.88671515381E+02  0.88671515381E+02  0.00000000000E+00 0. -1.
         23    2    1    2    0    0  0.39236529036E+02 -0.11016796424E+03  0.72528896908E+01  0.14811277899E+03  0.90599698318E+02 0.  0.
         24    2    1    2    0    0 -0.14950921465E+00  0.81399896394E+02  0.22219713582E+03  0.24999095184E+03  0.80609821672E+02 0.  0.
        -13    1    4    4    0    0  0.36511652546E+02  0.64427705567E+02  0.13856347155E+03  0.15711099791E+03  0.00000000000E+00 0.  1.
         14    1    4    4    0    0 -0.36661161760E+02  0.16972190827E+02  0.83633664275E+02  0.92879953936E+02  0.00000000000E+00 0. -1.
        -13    1    3    3    0    0  0.33322915942E+02 -0.54725298576E+02 -0.39567178900E+02  0.75304957853E+02  0.00000000000E+00 0.  1.
         13    1    3    3    0    0  0.59136130938E+01 -0.55442665667E+02  0.46820068590E+02  0.72807821138E+02  0.00000000000E+00 0. -1.
          1    1    1    2  501    0 -0.39087019821E+02  0.28768067849E+02  0.13118926695E+03  0.13987859239E+03  0.00000000000E+00 0. -1.
<scales pt_clust_5="13000.00000" pt_clust_6="13000.00000" pt_clust_7="13000.00000" pt_clust_8="13000.00000" pt_clust_9="48.53243"></scales>
<clustering>
<clus scale="   48.532">  1  9  2 -1</clus>
<clus scale="   80.610">  5  6 -1 -1</clus>
<clus scale="   90.600">  7  8 -1 -1</clus>
<clus scale="  134.127">  1  5  2 -1</clus>
<clus scale="   48.532">  1  5  2 -1</clus>
</clustering>
</event>
<event>
 9    2  0.1302972E-004  0.1527143E+03  0.7546771E-02  0.1201941E+00
         21   -1    0    0  501  502  0.00000000000E+00  0.00000000000E+00  0.11001763467E+03  0.11001763467E+03  0.00000000000E+00 0.  1.
         -3   -1    0    0    0  501 -0.00000000000E+00 -0.00000000000E+00 -0.44612876501E+03  0.44612876501E+03  0.00000000000E+00 0.  1.
         23    2    1    2    0    0  0.12581319989E+02 -0.12000470704E+03 -0.33521095026E+03  0.36740723361E+03  0.89790171044E+02 0.  0.
         24    2    1    2    0    0 -0.43354946835E+02  0.13094797930E+03 -0.18080793974E+02  0.15183462961E+03  0.60826104117E+02 0.  0.
        -11    1    4    4    0    0  0.27160282850E+01  0.82583509127E+02  0.26611961513E-01  0.82628164070E+02  0.00000000000E+00 0.  1.
         12    1    4    4    0    0 -0.46070975120E+02  0.48364470170E+02 -0.18107405936E+02  0.69206465544E+02  0.00000000000E+00 0. -1.
        -13    1    3    3    0    0 -0.11031811861E+02 -0.78158576538E+02 -0.10030911669E+03  0.12764161880E+03  0.00000000000E+00 0.  1.
         13    1    3    3    0    0  0.23613131849E+02 -0.41846130502E+02 -0.23490183356E+03  0.23976561481E+03  0.00000000000E+00 0. -1.
         -4    1    1    2    0  502  0.30773626846E+02 -0.10943272258E+02  0.17180613888E+02  0.36904536449E+02  0.00000000000E+00 0.  1.
<scales pt_clust_5="13000.00000" pt_clust_6="13000.00000" pt_clust_7="13000.00000" pt_clust_8="13000.00000" pt_clust_9="32.66147"></scales>
<clustering>
<clus scale="   32.661">  1  9  2 -1</clus>
<clus scale="   60.826">  5  6 -1 -1</clus>
<clus scale="   89.790">  7  8 -1 -1</clus>
<clus scale="  137.692">  1  5  2 -1</clus>
<clus scale="   32.661">  1  5  2 -1</clus>
</clustering>
</event>
<event>
 9    2  0.1302972E-004  0.1233026E+03  0.7546771E-02  0.1241504E+00
         21   -1    0    0  501  502  0.00000000000E+00  0.00000000000E+00  0.99824452157E+02  0.99824452157E+02  0.00000000000E+00 0. -1.
         -1   -1    0    0    0  501 -0.00000000000E+00 -0.00000000000E+00 -0.52778831523E+03  0.52778831523E+03  0.00000000000E+00 0.  1.
         23    2    1    2    0    0  0.81331118485E+02 -0.24203551379E+02 -0.34153188624E+03  0.36390215230E+03  0.92629284781E+02 0.  0.
         24    2    1    2    0    0 -0.79516252423E+02 -0.11696316753E+02 -0.15153765531E+03  0.18934097317E+03  0.80166731999E+02 0.  0.
        -13    1    4    4    0    0 -0.61216533726E+02 -0.39707901453E+02 -0.13136892172E+03  0.15027300168E+03  0.00000000000E+00 0.  1.
         14    1    4    4    0    0 -0.18299718697E+02  0.28011584700E+02 -0.20168733582E+02  0.39067971487E+02  0.00000000000E+00 0. -1.
        -13    1    3    3    0    0  0.33950600229E+02 -0.42574348660E+02 -0.75665622171E+02  0.93222877011E+02  0.00000000000E+00 0.  1.
         13    1    3    3    0    0  0.47380518256E+02  0.18370797281E+02 -0.26586626406E+03  0.27067927529E+03  0.00000000000E+00 0. -1.
         -2    1    1    2    0  502 -0.18148660617E+01  0.35899868132E+02  0.65105678468E+02  0.74369641921E+02  0.00000000000E+00 0.  1.
<scales pt_clust_5="13000.00000" pt_clust_6="13000.00000" pt_clust_7="13000.00000" pt_clust_8="13000.00000" pt_clust_9="35.94571"></scales>
<clustering>
<clus scale="   35.946">  1  9  2 -1</clus>
<clus scale="   80.167">  5  6 -1 -1</clus>
<clus scale="   92.629">  7  8 -1 -1</clus>
<clus scale="  114.237">  1  5  2 -1</clus>
<clus scale="   35.946">  1  5  2 -1</clus>
</clustering>
</event>
<event>
 9    2  0.1302972E-004  0.1868497E+03  0.7546771E-02  0.1189013E+00
          4   -1    0    0  502    0 -0.00000000000E+00  0.00000000000E+00  0.94504860966E+03  0.94504860966E+03  0.00000000000E+00 0. -1.
         21   -1    0    0  501  502  0.00000000000E+00 -0.00000000000E+00 -0.58775346583E+02  0.58775346583E+02  0.00000000000E+00 0. -1.
         23    2    1    2    0    0 -0.22318760194E+01  0.40750569184E+02  0.15122162830E+03  0.18116341457E+03  0.91030828596E+02 0.  0.
         24    2    1    2    0    0 -0.92772118583E+02 -0.15503290425E+03  0.27549823274E+03  0.33967447519E+03  0.82689814731E+02 0.  0.
        -13    1    4    4    0    0 -0.19581250521E+02 -0.10053909332E+03  0.18316640932E+03  0.20986059221E+03  0.00000000000E+00 0.  1.
         14    1    4    4    0    0 -0.73190868062E+02 -0.54493810933E+02  0.92331823423E+02  0.12981388298E+03  0.00000000000E+00 0. -1.
        -11    1    3    3    0    0 -0.24000696262E+02  0.62364047101E+02  0.84510982303E+02  0.10773770891E+03  0.00000000000E+00 0.  1.
         11    1    3    3    0    0  0.21768820243E+02 -0.21613477918E+02  0.66710645993E+02  0.73425705658E+02  0.00000000000E+00 0. -1.
          3    1    1    2  501    0  0.95003994602E+02  0.11428233507E+03  0.45955340203E+03  0.48298606649E+03  0.00000000000E+00 0. -1.
<scales pt_clust_5="13000.00000" pt_clust_6="13000.00000" pt_clust_7="13000.00000" pt_clust_8="13000.00000" pt_clust_9="167.55668"></scales>
<clustering>
<clus scale="   82.690">  5  6 -1 -1</clus>
<clus scale="   91.031">  7  8 -1 -1</clus>
<clus scale="   99.761">  1  7  2 -1</clus>
<clus scale="  167.557">  2  9  1 -1</clus>
<clus scale="  167.557">  2  5  1 -1</clus>
</clustering>
</event>
<event>
 9    2  0.1302972E-004  0.1640190E+03  0.7546771E-02  0.1195056E+00
         -1   -1    0    0    0  501 -0.00000000000E+00  0.00000000000E+00  0.14088541205E+03  0.14088541205E+03  0.00000000000E+00 0.  1.
         21   -1    0    0  501  502  0.00000000000E+00 -0.00000000000E+00 -0.36608501776E+03  0.36608501776E+03  0.00000000000E+00 0.  1.
         23    2    1    2    0    0 -0.50709143856E+02 -0.79674582436E+02 -0.57729325646E+02  0.14143136441E+03  0.88038056782E+02 0.  0.
         24    2    1    2    0    0  0.90245490850E+02 -0.90134115642E+02 -0.80031235236E+02  0.17049111428E+03  0.79961328241E+02 0.  0.
        -11    1    4    4    0    0  0.63939606450E+02 -0.10199452186E+03 -0.73023924487E+02  0.14079648188E+03  0.00000000000E+00 0.  1.
         12    1    4    4    0    0  0.26305884401E+02  0.11860406214E+02 -0.70073107483E+01  0.29694632404E+02  0.00000000000E+00 0. -1.
        -11    1    3    3    0    0 -0.72074298362E+02 -0.80062373042E+02 -0.47260538329E+02  0.11763607671E+03  0.00000000000E+00 0.  1.
         11    1    3    3    0    0  0.21365154506E+02  0.38779060583E+00 -0.10468787316E+02  0.23795287695E+02  0.00000000000E+00 0. -1.
         -2    1    1    2    0  502 -0.39536346994E+02  0.16980869808E+03 -0.87439044824E+02  0.19504795112E+03  0.00000000000E+00 0.  1.
<scales pt_clust_5="13000.00000" pt_clust_6="13000.00000" pt_clust_7="13000.00000" pt_clust_8="13000.00000" pt_clust_9="143.20772"></scales>
<clustering>
<clus scale="   79.961">  5  6 -1 -1</clus>
<clus scale="   88.038">  7  8 -1 -1</clus>
<clus scale="  129.113">  1  7  2 -1</clus>
<clus scale="  143.208">  2  9  1 -1</clus>
<clus scale="  143.208">  2  5  1 -1</clus>
</clustering>
</event>
<event>
 9    2  0.1302972E-004  0.1229004E+03  0.7546771E-02  0.1241707E+00
          2   -1    0    0  502    0 -0.00000000000E+00  0.00000000000E+00  0.49646535315E+03  0.49646535315E+03  0.00000000000E+00 0. -1.
         21   -1    0    0  501  502  0.00000000000E+00 -0.00000000000E+00 -0.23762205404E+03  0.23762205404E+03  0.00000000000E+00 0.  1.
         24    2    1    2    0    0 -0.81984514412E+02 -0.17249009105E+02  0.24162449909E+03  0.26794811770E+03  0.79967532808E+02 0.  0.
         23    2    1    2    0    0  0.81821827461E+02 -0.46890161266E+02  0.21853357974E+03  0.25485393699E+03  0.91104912343E+02 0.  0.
        -13    1    3    3    0    0 -0.12710017513E+02 -0.34974271478E+02  0.43118021521E+02  0.56955315735E+02  0.00000000000E+00 0.  1.
         14    1    3    3    0    0 -0.69274496898E+02  0.17725262374E+02  0.19850647757E+03  0.21099280197E+03  0.00000000000E+00 0. -1.
        -11    1    4    4    0    0  0.31727060531E+02 -0.68389272928E+02  0.14362822107E+03  0.16221209853E+03  0.00000000000E+00 0.  1.
         11    1    4    4    0    0  0.50094766930E+02  0.21499111662E+02  0.74905358675E+02  0.92641838465E+02  0.00000000000E+00 0. -1.
          1    1    1    2  501    0  0.16268695101E+00  0.64139170370E+02 -0.20131477972E+03  0.21128535249E+03  0.00000000000E+00 0. -1.
<scales pt_clust_5="13000.00000" pt_clust_6="13000.00000" pt_clust_7="13000.00000" pt_clust_8="13000.00000" pt_clust_9="64.13938"></scales>
<clustering>
<clus scale="   64.139">  2  9  1 -1</clus>
<clus scale="   79.968">  5  6 -1 -1</clus>
<clus scale="   91.105">  7  8 -1 -1</clus>
<clus scale="  114.888">  1  5  2 -1</clus>
<clus scale="   64.139">  2  5  1 -1</clus>
</clustering>
</event>
<event>
 9    2  0.1302972E-004  0.1134689E+03  0.7546771E-02  0.1257597E+00
          2   -1    0    0  502    0 -0.00000000000E+00  0.00000000000E+00  0.41711433788E+03  0.41711433788E+03  0.00000000000E+00 0. -1.
         21   -1    0    0  501  502  0.00000000000E+00 -0.00000000000E+00 -0.63600380321E+02  0.63600380321E+02  0.00000000000E+00 0. -1.
         23    2    1    2    0    0  0.65931993239E+02  0.35725068807E+02  0.24604924121E+03  0.27282682289E+03  0.90944696997E+02 0.  0.
         24    2    1    2    0    0 -0.66094942522E+02  0.15237370906E+02  0.11478143882E+03  0.15640264266E+03  0.81769731765E+02 0.  0.
        -13    1    4    4    0    0 -0.83699959469E+02  0.39590611315E+01  0.80179879009E+02  0.11597486960E+03  0.00000000000E+00 0.  1.
         14    1    4    4    0    0  0.17605016947E+02  0.11278309775E+02  0.34601559812E+02  0.40427773059E+02  0.00000000000E+00 0. -1.
        -11    1    3    3    0    0  0.23195646325E+02 -0.30949988699E+02  0.81201350829E+02  0.89942199136E+02  0.00000000000E+00 0.  1.
         11    1    3    3    0    0  0.42736346914E+02  0.66675057506E+02  0.16484789038E+03  0.18288462375E+03  0.00000000000E+00 0. -1.
          1    1    1    2  501    0  0.16294928286E+00 -0.50962439713E+02 -0.73167224690E+01  0.51485252662E+02  0.00000000000E+00 0. -1.
<scales pt_clust_5="13000.00000" pt_clust_6="13000.00000" pt_clust_7="13000.00000" pt_clust_8="13000.00000" pt_clust_9="50.96270"></scales>
<clustering>
<clus scale="   50.963">  2  9  1 -1</clus>
<clus scale="   81.770">  5  6 -1 -1</clus>
<clus scale="   90.945">  7  8 -1 -1</clus>
<clus scale="  106.257">  2  5  1 -1</clus>
<clus scale="   50.963">  2  5  1 -1</clus>
</clustering>
</event>
<event>
 9    2  0.1302972E-004  0.1563632E+03  0.7546771E-02  0.1210137E+00
         21   -1    0    0  501  502  0.00000000000E+00  0.00000000000E+00  0.49028508597E+02  0.49028508597E+02  0.00000000000E+00 0. -1.
          2   -1    0    0  502    0 -0.00000000000E+00 -0.00000000000E+00 -0.90740977436E+03  0.90740977436E+03  0.00000000000E+00 0. -1.
         24    2    1    2    0    0 -0.43082918949E+02 -0.54974230744E+02 -0.11631931805E+03  0.15842296807E+03  0.81788441178E+02 0.  0.
         23    2    1    2    0    0 -0.10196354850E+03  0.24795089225E+02 -0.44567927159E+03  0.46666663296E+03  0.90201837717E+02 0.  0.
        -11    1    3    3    0    0 -0.26236055744E+02 -0.76119938512E+02 -0.86623222847E+02  0.11826308975E+03  0.00000000000E+00 0.  1.
         12    1    3    3    0    0 -0.16846863205E+02  0.21145707768E+02 -0.29696095199E+02  0.40159878323E+02  0.00000000000E+00 0. -1.
        -11    1    4    4    0    0 -0.83608366312E+02 -0.23381687254E+02 -0.28136240209E+03  0.29445180170E+03  0.00000000000E+00 0. -1.
         11    1    4    4    0    0 -0.18355182186E+02  0.48176776479E+02 -0.16431686950E+03  0.17221483126E+03  0.00000000000E+00 0.  1.
          1    1    1    2  501    0  0.14504646745E+03  0.30179141519E+02 -0.29638267613E+03  0.33134868192E+03  0.00000000000E+00 0. -1.
<scales pt_clust_5="13000.00000" pt_clust_6="13000.00000" pt_clust_7="13000.00000" pt_clust_8="13000.00000" pt_clust_9="127.72266"></scales>
<clustering>
<clus scale="   81.788">  5  6 -1 -1</clus>
<clus scale="   90.202">  7  8 -1 -1</clus>
<clus scale="  107.553">  2  5  1 -1</clus>
<clus scale="  127.723">  1  9  2 -1</clus>
<clus scale="  127.723">  1  5  2 -1</clus>
</clustering>
</event>
<event>
 9    2  0.1302972E-004  0.1171796E+03  0.7546771E-02  0.1251221E+00
          2   -1    0    0  502    0 -0.00000000000E+00  0.00000000000E+00  0.35325869556E+03  0.35325869556E+03  0.00000000000E+00 0. -1.
         21   -1    0    0  501  502  0.00000000000E+00 -0.00000000000E+00 -0.59684123921E+02  0.59684123921E+02  0.00000000000E+00 0.  1.
         23    2    1    2    0    0  0.79965086993E+02  0.66913900796E+01  0.16903048491E+03  0.20797233042E+03  0.90785436881E+02 0.  0.
         24    2    1    2    0    0 -0.62524292216E+02  0.36260914405E+02  0.55120376901E+02  0.12149154999E+03  0.80608930889E+02 0.  0.
        -11    1    4    4    0    0  0.11862870546E+02  0.30324225068E+02  0.90658292817E+01  0.33800526389E+02  0.00000000000E+00 0.  1.
         12    1    4    4    0    0 -0.74387162762E+02  0.59366893364E+01  0.46054547619E+02  0.87691023603E+02  0.00000000000E+00 0. -1.
        -11    1    3    3    0    0  0.12207936486E+02 -0.32460876584E+02  0.21035970352E+02  0.40561734067E+02  0.00000000000E+00 0.  1.
         11    1    3    3    0    0  0.67757150507E+02  0.39152266664E+02  0.14799451456E+03  0.16741059635E+03  0.00000000000E+00 0. -1.
          1    1    1    2  501    0 -0.17440794777E+02 -0.42952304484E+02  0.69423709821E+02  0.83478939070E+02  0.00000000000E+00 0. -1.
<scales pt_clust_5="13000.00000" pt_clust_6="13000.00000" pt_clust_7="13000.00000" pt_clust_8="13000.00000" pt_clust_9="46.35821"></scales>
<clustering>
<clus scale="   46.358">  2  9  1 -1</clus>
<clus scale="   80.609">  5  6 -1 -1</clus>
<clus scale="   90.785">  7  8 -1 -1</clus>
<clus scale="  109.485">  2  5  1 -1</clus>
<clus scale="   46.358">  2  5  1 -1</clus>
</clustering>
</event>
<event>
 9    2  0.1302972E-004  0.4048782E+03  0.7546771E-02  0.1042197E+00
         21   -1    0    0  501  502  0.00000000000E+00  0.00000000000E+00  0.43094855227E+03  0.43094855227E+03  0.00000000000E+00 0.  1.
          2   -1    0    0  502    0 -0.00000000000E+00 -0.00000000000E+00 -0.60674926231E+03  0.60674926231E+03  0.00000000000E+00 0. -1.
         24    2    1    2    0    0  0.13434768615E+03  0.42195019313E+03 -0.32002993511E+03  0.55245570897E+03  0.81834496091E+02 0.  0.
         23    2    1    2    0    0 -0.84930261302E+02 -0.30338243326E+03  0.61895638827E+02  0.33266682917E+03  0.87075249238E+02 0.  0.
        -11    1    3    3    0    0  0.86431201896E+02  0.34259864690E+03 -0.28276696143E+03  0.45254982045E+03  0.00000000000E+00 0.  1.
         12    1    3    3    0    0  0.47916484254E+02  0.79351546227E+02 -0.37262973684E+02  0.99905888513E+02  0.00000000000E+00 0. -1.
        -11    1    4    4    0    0 -0.29012466550E+02 -0.14912387481E+03 -0.12650665137E+02  0.15244570372E+03  0.00000000000E+00 0. -1.
         11    1    4    4    0    0 -0.55917794752E+02 -0.15425855845E+03  0.74546303965E+02  0.18022112545E+03  0.00000000000E+00 0.  1.
          1    1    1    2  501    0 -0.49417424848E+02 -0.11856775987E+03  0.82333586242E+02  0.15257527645E+03  0.00000000000E+00 0. -1.
<scales pt_clust_5="13000.00000" pt_clust_6="13000.00000" pt_clust_7="13000.00000" pt_clust_8="13000.00000" pt_clust_9="128.45387"></scales>
<clustering>
<clus scale="   81.834">  5  6 -1 -1</clus>
<clus scale="   87.075">  7  8 -1 -1</clus>
<clus scale="  128.454">  1  9  2 -1</clus>
<clus scale="  403.784">  2  5  1 -1</clus>
<clus scale="  128.454">  1  5  2 -1</clus>
</clustering>
</event>
<event>
 9    2  0.1302972E-004  0.1629800E+03  0.7546771E-02  0.1187682E+00
          2   -1    0    0  502    0 -0.00000000000E+00  0.00000000000E+00  0.65605712152E+03  0.65605712152E+03  0.00000000000E+00 0. -1.
         21   -1    0    0  501  502  0.00000000000E+00 -0.00000000000E+00 -0.57175076256E+02  0.57175076256E+02  0.00000000000E+00 0.  1.
         23    2    1    2    0    0  0.20376557110E+01 -0.12124631217E+03  0.30927607584E+03  0.34519711734E+03  0.93832502236E+02 0.  0.
         24    2    1    2    0    0  0.93168394809E+01  0.14811270109E+03  0.29390565742E+03  0.33855263258E+03  0.78823688332E+02 0.  0.
        -13    1    4    4    0    0  0.39484553718E+02  0.11286573447E+03  0.23401691716E+03  0.26279577911E+03  0.00000000000E+00 0.  1.
         14    1    4    4    0    0 -0.30167714237E+02  0.35246966623E+02  0.59888740255E+02  0.75756853471E+02  0.00000000000E+00 0. -1.
        -11    1    3    3    0    0 -0.33706323800E+02 -0.97524914659E+02  0.16436747622E+03  0.19407187453E+03  0.00000000000E+00 0.  1.
         11    1    3    3    0    0  0.35743979511E+02 -0.23721397513E+02  0.14490859962E+03  0.15112524281E+03  0.00000000000E+00 0. -1.
          1    1    1    2  501    0 -0.11354495192E+02 -0.26866388918E+02 -0.42996879989E+01  0.29482447853E+02  0.00000000000E+00 0. -1.
<scales pt_clust_5="13000.00000" pt_clust_6="13000.00000" pt_clust_7="13000.00000" pt_clust_8="13000.00000" pt_clust_9="29.16723"></scales>
<clustering>
<clus scale="   29.167">  2  9  1 -1</clus>
<clus scale="   78.824">  5  6 -1 -1</clus>
<clus scale="   93.833">  7  8 -1 -1</clus>
<clus scale="  154.826">  2  5  1 -1</clus>
<clus scale="   29.167">  2  5  1 -1</clus>
</clustering>
</event>
<event>
 9    2  0.1302972E-004  0.1420224E+03  0.7546771E-02  0.1211987E+00
         21   -1    0    0  501  502  0.00000000000E+00  0.00000000000E+00  0.82882731606E+02  0.82882731606E+02  0.00000000000E+00 0. -1.
         -1   -1    0    0    0  501 -0.00000000000E+00 -0.00000000000E+00 -0.56303952975E+03  0.56303952975E+03  0.00000000000E+00 0.  1.
         23    2    1    2    0    0  0.36196636999E+02  0.98392785857E+02 -0.39872104811E+03  0.42146404995E+03  0.87533618465E+02 0.  0.
         24    2    1    2    0    0 -0.42332257571E+02 -0.13975639574E+03 -0.70901392582E+02  0.18133551727E+03  0.80818885012E+02 0.  0.
        -11    1    4    4    0    0  0.17304146722E+02 -0.50430463369E+02 -0.47511052970E+02  0.71414041222E+02  0.00000000000E+00 0.  1.
         12    1    4    4    0    0 -0.59636404292E+02 -0.89325932368E+02 -0.23390339613E+02  0.10992147605E+03  0.00000000000E+00 0. -1.
        -11    1    3    3    0    0 -0.52028846541E+01  0.58269928862E+02 -0.89563926035E+02  0.10697734090E+03  0.00000000000E+00 0. -1.
         11    1    3    3    0    0  0.41399521653E+02  0.40122856994E+02 -0.30915712207E+03  0.31448670906E+03  0.00000000000E+00 0.  1.
         -2    1    1    2    0  502  0.61356205717E+01  0.41363609880E+02 -0.10534357459E+02  0.43122694132E+02  0.00000000000E+00 0.  1.
<scales pt_clust_5="13000.00000" pt_clust_6="13000.00000" pt_clust_7="13000.00000" pt_clust_8="13000.00000" pt_clust_9="41.81619"></scales>
<clustering>
<clus scale="   41.816">  1  9  2 -1</clus>
<clus scale="   80.819">  5  6 -1 -1</clus>
<clus scale="   87.534">  7  8 -1 -1</clus>
<clus scale="  137.985">  1  5  2 -1</clus>
<clus scale="   41.816">  1  5  2 -1</clus>
</clustering>
</event>
<event>
 9    2  0.1302972E-004  0.1235297E+03  0.7546771E-02  0.1238251E+00
         21   -1    0    0  501  502  0.00000000000E+00  0.00000000000E+00  0.65976998117E+02  0.65976998117E+02  0.00000000000E+00 0. -1.
          2   -1    0    0  502    0 -0.00000000000E+00 -0.00000000000E+00 -0.74597579197E+03  0.74597579197E+03  0.00000000000E+00 0. -1.
         24    2    1    2    0    0  0.75216219179E+02  0.37894869103E+02 -0.59349058355E+03  0.60566589369E+03  0.86640644555E+02 0.  0.
         23    2    1    2    0    0 -0.63778588495E+02 -0.68624418298E+02 -0.10657739047E+03  0.16784347587E+03  0.89641915938E+02 0.  0.
        -13    1    3    3    0    0 -0.17495110667E+02  0.13483794740E+02 -0.67879015134E+02  0.71382437009E+02  0.00000000000E+00 0.  1.
         14    1    3    3    0    0  0.92711329846E+02  0.24411074364E+02 -0.52561156841E+03  0.53428345668E+03  0.00000000000E+00 0. -1.
        -13    1    4    4    0    0 -0.20376850999E+02  0.20030447744E+02 -0.11527274274E+02  0.30810922505E+02  0.00000000000E+00 0.  1.
         13    1    4    4    0    0 -0.43401737496E+02 -0.88654866042E+02 -0.95050116200E+02  0.13703255336E+03  0.00000000000E+00 0. -1.
          1    1    1    2  501    0 -0.11437630684E+02  0.30729549195E+02  0.20069180169E+02  0.38443420530E+02  0.00000000000E+00 0. -1.
<scales pt_clust_5="13000.00000" pt_clust_6="13000.00000" pt_clust_7="13000.00000" pt_clust_8="13000.00000" pt_clust_9="32.78909"></scales>
<clustering>
<clus scale="   32.789">  1  9  2 -1</clus>
<clus scale="   86.641">  5  6 -1 -1</clus>
<clus scale="   89.642">  7  8 -1 -1</clus>
<clus scale="  121.369">  2  5  1 -1</clus>
<clus scale="   32.789">  1  5  2 -1</clus>
</clustering>
</event>
<event>
 9    2  0.1302972E-004  0.2839323E+03  0.7546771E-02  0.1093930E+00
         21   -1    0    0  501  502  0.00000000000E+00  0.00000000000E+00  0.65700844867E+03  0.65700844867E+03  0.00000000000E+00 0. -1.
          2   -1    0    0  502    0 -0.00000000000E+00 -0.00000000000E+00 -0.31154289736E+03  0.31154289736E+03  0.00000000000E+00 0. -1.
         24    2    1    2    0    0  0.37851001993E+02  0.28062078102E+03 -0.18348579561E+03  0.34710298094E+03  0.81441519465E+02 0.  0.
         23    2    1    2    0    0  0.27928396647E+02 -0.20588847125E+03  0.36339502115E+03  0.42826258814E+03  0.90459079538E+02 0.  0.
        -13    1    3    3    0    0  0.45364972146E+02  0.20608247104E+03 -0.95721155279E+02  0.23171211694E+03  0.00000000000E+00 0.  1.
         14    1    3    3    0    0 -0.75139701526E+01  0.74538309984E+02 -0.87764640334E+02  0.11539086400E+03  0.00000000000E+00 0. -1.
        -11    1    4    4    0    0 -0.24912546957E+02 -0.31818251645E+02  0.38007050620E+02  0.55475868902E+02  0.00000000000E+00 0.  1.
         11    1    4    4    0    0  0.52840943604E+02 -0.17407021960E+03  0.32538797053E+03  0.37278671924E+03  0.00000000000E+00 0. -1.
          1    1    1    2  501    0 -0.65779398640E+02 -0.74732309775E+02  0.16555632577E+03  0.19318577694E+03  0.00000000000E+00 0. -1.
<scales pt_clust_5="13000.00000" pt_clust_6="13000.00000" pt_clust_7="13000.00000" pt_clust_8="13000.00000" pt_clust_9="99.55826"></scales>
<clustering>
<clus scale="   81.442">  5  6 -1 -1</clus>
<clus scale="   90.459">  7  8 -1 -1</clus>
<clus scale="   99.558">  1  9  2 -1</clus>
<clus scale="  281.189">  2  5  1 -1</clus>
<clus scale="   99.558">  1  5  2 -1</clus>
</clustering>
</event>
<event>
 9    2  0.1302972E-004  0.1453286E+03  0.7546771E-02  0.1235146E+00
         21   -1    0    0  501  502  0.00000000000E+00  0.00000000000E+00  0.36491169810E+02  0.36491169810E+02  0.00000000000E+00 0. -1.
          2   -1    0    0  502    0 -0.00000000000E+00 -0.00000000000E+00 -0.84304161758E+03  0.84304161758E+03  0.00000000000E+00 0. -1.
         24    2    1    2    0    0  0.15565329781E+02  0.18990419730E+02 -0.25804426656E+03  0.26998838042E+03  0.75524608761E+02 0.  0.
         23    2    1    2    0    0  0.78337059723E+02 -0.82550831431E+02 -0.24063239448E+03  0.28145317995E+03  0.91436363294E+02 0.  0.
        -13    1    3    3    0    0  0.15120949737E+02  0.31436909867E+02 -0.46767506644E+02  0.58344854963E+02  0.00000000000E+00 0.  1.
         14    1    3    3    0    0  0.44438004324E+00 -0.12446490137E+02 -0.21127675991E+03  0.21164352546E+03  0.00000000000E+00 0. -1.
        -11    1    4    4    0    0  0.51640926248E+02 -0.99883130975E+02 -0.16804922370E+03  0.20219784050E+03  0.00000000000E+00 0. -1.
         11    1    4    4    0    0  0.26696133474E+02  0.17332299544E+02 -0.72583170784E+02  0.79255339448E+02  0.00000000000E+00 0.  1.
          1    1    1    2  501    0 -0.93902389503E+02  0.63560411700E+02 -0.30787378673E+03  0.32809122702E+03  0.00000000000E+00 0. -1.
<scales pt_clust_5="13000.00000" pt_clust_6="13000.00000" pt_clust_7="13000.00000" pt_clust_8="13000.00000" pt_clust_9="112.95933"></scales>
<clustering>
<clus scale="   75.525">  5  6 -1 -1</clus>
<clus scale="   79.416">  2  5  1 -1</clus>
<clus scale="   91.436">  7  8 -1 -1</clus>
<clus scale="  112.959">  1  9  2 -1</clus>
<clus scale="  112.959">  1  5  2 -1</clus>
</clustering>
</event>
<event>
 9    2  0.1302972E-004  0.1317950E+03  0.7546771E-02  0.1227619E+00
         21   -1    0    0  501  502  0.00000000000E+00  0.00000000000E+00  0.58866099443E+02  0.58866099443E+02  0.00000000000E+00 0. -1.
          2   -1    0    0  502    0 -0.00000000000E+00 -0.00000000000E+00 -0.98189265087E+03  0.98189265087E+03  0.00000000000E+00 0. -1.
         24    2    1    2    0    0 -0.99473385130E+02 -0.27565474968E+02 -0.84411128371E+03  0.85421806412E+03  0.80683530049E+02 0.  0.
         23    2    1    2    0    0  0.45865913938E+02 -0.10045008092E+02 -0.54961047616E+02  0.11681182514E+03  0.91758931380E+02 0.  0.
        -13    1    3    3    0    0 -0.11511116612E+02  0.20453837591E+02 -0.74507684227E+02  0.78116965422E+02  0.00000000000E+00 0.  1.
         14    1    3    3    0    0 -0.87962268518E+02 -0.48019312559E+02 -0.76960359948E+03  0.77610109870E+03  0.00000000000E+00 0. -1.
        -11    1    4    4    0    0 -0.13119156887E+02  0.29337567952E+02 -0.16287976039E+02  0.36029201132E+02  0.00000000000E+00 0.  1.
         11    1    4    4    0    0  0.58985070825E+02 -0.39382576044E+02 -0.38673071577E+02  0.80782624006E+02  0.00000000000E+00 0. -1.
          1    1    1    2  501    0  0.53607471192E+02  0.37610483060E+02 -0.23954220101E+02  0.69728861057E+02  0.00000000000E+00 0. -1.
<scales pt_clust_5="13000.00000" pt_clust_6="13000.00000" pt_clust_7="13000.00000" pt_clust_8="13000.00000" pt_clust_9="65.48518"></scales>
<clustering>
<clus scale="   65.485">  1  9  2 -1</clus>
<clus scale="   80.684">  5  6 -1 -1</clus>
<clus scale="   91.759">  7  8 -1 -1</clus>
<clus scale="  124.338">  2  5  1 -1</clus>
<clus scale="   65.485">  1  5  2 -1</clus>
</clustering>
</event>
<event>
 9    2  0.1302972E-004  0.3011622E+03  0.7546771E-02  0.1116666E+00
         -3   -1    0    0    0  501 -0.00000000000E+00  0.00000000000E+00  0.53083959440E+03  0.53083959440E+03  0.00000000000E+00 0.  1.
         21   -1    0    0  501  502  0.00000000000E+00 -0.00000000000E+00 -0.25786544917E+03  0.25786544917E+03  0.00000000000E+00 0. -1.
         24    2    1    2    0    0 -0.25358868528E+02 -0.10076463394E+03  0.83923808267E+02  0.15589392453E+03  0.80393572171E+02 0.  0.
         23    2    1    2    0    0 -0.27260226263E+03 -0.30830225021E+01  0.67173113946E+02  0.29455200398E+03  0.89034584248E+02 0.  0.
        -11    1    3    3    0    0  0.13560211278E+02 -0.52042333453E+02  0.75899297147E+02  0.93021433598E+02  0.00000000000E+00 0.  1.
         12    1    3    3    0    0 -0.38919079807E+02 -0.48722300487E+02  0.80245111195E+01  0.62872490936E+02  0.00000000000E+00 0. -1.
        -11    1    4    4    0    0 -0.40607577478E+02 -0.15482432701E+02 -0.18091259567E+02  0.47074140923E+02  0.00000000000E+00 0.  1.
         11    1    4    4    0    0 -0.23199468515E+03  0.12399410199E+02  0.85264373513E+02  0.24747786306E+03  0.00000000000E+00 0. -1.
         -4    1    1    2    0  502  0.29796113116E+03  0.10384765644E+03  0.12187722301E+03  0.33825911506E+03  0.00000000000E+00 0.  1.
<scales pt_clust_5="13000.00000" pt_clust_6="13000.00000" pt_clust_7="13000.00000" pt_clust_8="13000.00000" pt_clust_9="287.70056"></scales>
<clustering>
<clus scale="   80.394">  5  6 -1 -1</clus>
<clus scale="   89.035">  7  8 -1 -1</clus>
<clus scale="  131.376">  1  5  2 -1</clus>
<clus scale="  287.701">  2  9  1 -1</clus>
<clus scale="  287.701">  2  5  1 -1</clus>
</clustering>
</event>
<event>
 9    2  0.1302972E-004  0.1409463E+03  0.7546771E-02  0.1214920E+00
          2   -1    0    0  502    0 -0.00000000000E+00  0.00000000000E+00  0.16974753551E+03  0.16974753551E+03  0.00000000000E+00 0. -1.
         21   -1    0    0  501  502  0.00000000000E+00 -0.00000000000E+00 -0.17459421634E+03  0.17459421634E+03  0.00000000000E+00 0.  1.
         24    2    1    2    0    0  0.12318412255E+03  0.12157846534E+02  0.43862957750E+02  0.15469230331E+03  0.81753338536E+02 0.  0.
         23    2    1    2    0    0 -0.73057015280E+02  0.15893827222E+02 -0.53651738442E+02  0.13199489421E+03  0.94626644414E+02 0.  0.
        -13    1    3    3    0    0  0.10720764967E+03  0.40956951057E+02  0.27968576165E+02  0.11812363540E+03  0.00000000000E+00 0.  1.
         14    1    3    3    0    0  0.15976472877E+02 -0.28799104523E+02  0.15894381585E+02  0.36568667912E+02  0.00000000000E+00 0. -1.
        -13    1    4    4    0    0 -0.30658009538E+02 -0.33198997929E+02  0.37925559076E+01  0.45348324033E+02  0.00000000000E+00 0. -1.
         13    1    4    4    0    0 -0.42399005743E+02  0.49092825151E+02 -0.57444294349E+02  0.86646570172E+02  0.00000000000E+00 0.  1.
          1    1    1    2  501    0 -0.50127107267E+02 -0.28051673756E+02  0.49420998574E+01  0.57654554326E+02  0.00000000000E+00 0. -1.
<scales pt_clust_5="13000.00000" pt_clust_6="13000.00000" pt_clust_7="13000.00000" pt_clust_8="13000.00000" pt_clust_9="57.44238"></scales>
<clustering>
<clus scale="   57.442">  2  9  1 -1</clus>
<clus scale="   81.753">  5  6 -1 -1</clus>
<clus scale="   94.627">  7  8 -1 -1</clus>
<clus scale="  132.647">  1  5  2 -1</clus>
<clus scale="   57.442">  2  5  1 -1</clus>
</clustering>
</event>
<event>
 9    2  0.1302972E-004  0.1865150E+03  0.7546771E-02  0.1162982E+00
         21   -1    0    0  501  502  0.00000000000E+00  0.00000000000E+00  0.12523390289E+03  0.12523390289E+03  0.00000000000E+00 0. -1.
          2   -1    0    0  502    0 -0.00000000000E+00 -0.00000000000E+00 -0.39829955414E+03  0.39829955414E+03  0.00000000000E+00 0. -1.
         24    2    1    2    0    0 -0.85411360472E+02 -0.11621500644E+03 -0.79957684079E+02  0.18382040462E+03  0.81213802357E+02 0.  0.
         23    2    1    2    0    0  0.13955518163E+03  0.12258506015E+03 -0.97295639648E+02  0.22947633865E+03  0.93221257298E+02 0.  0.
        -13    1    3    3    0    0 -0.14250576689E+02 -0.14604236391E+02  0.16852665739E+02  0.26464598978E+02  0.00000000000E+00 0.  1.
         14    1    3    3    0    0 -0.71160783784E+02 -0.10161077005E+03 -0.96810349818E+02  0.15735580565E+03  0.00000000000E+00 0. -1.
        -11    1    4    4    0    0 -0.11957835602E+02  0.19180895862E+02 -0.18067403369E+01  0.22675116516E+02  0.00000000000E+00 0.  1.
         11    1    4    4    0    0  0.15151301723E+03  0.10340416429E+03 -0.95488899311E+02  0.20680122213E+03  0.00000000000E+00 0. -1.
          1    1    1    2  501    0 -0.54143821158E+02 -0.63700537115E+01 -0.95812327521E+02  0.11023671375E+03  0.00000000000E+00 0. -1.
<scales pt_clust_5="13000.00000" pt_clust_6="13000.00000" pt_clust_7="13000.00000" pt_clust_8="13000.00000" pt_clust_9="54.51728"></scales>
<clustering>
<clus scale="   54.517">  1  9  2 -1</clus>
<clus scale="   81.214">  5  6 -1 -1</clus>
<clus scale="   93.221">  7  8 -1 -1</clus>
<clus scale="  180.813">  2  5  1 -1</clus>
<clus scale="   54.517">  1  5  2 -1</clus>
</clustering>
</event>
<event>
 9    2  0.1302972E-004  0.1292180E+03  0.7546771E-02  0.1230867E+00
         21   -1    0    0  501  502  0.00000000000E+00  0.00000000000E+00  0.14776034036E+03  0.14776034036E+03  0.00000000000E+00 0.  1.
          2   -1    0    0  502    0 -0.00000000000E+00 -0.00000000000E+00 -0.26005862419E+03  0.26005862419E+03  0.00000000000E+00 0. -1.
         24    2    1    2    0    0 -0.49212781159E+02 -0.73547036244E+02 -0.37923804128E+02  0.12710457889E+03  0.82983701318E+02 0.  0.
         23    2    1    2    0    0  0.74119964420E+02  0.66667814223E+02  0.57008405969E+02  0.14681459433E+03  0.91466934885E+02 0.  0.
        -13    1    3    3    0    0 -0.47939215685E+02 -0.85694304519E+02 -0.12610290838E+02  0.98998493234E+02  0.00000000000E+00 0.  1.
         14    1    3    3    0    0 -0.12735654740E+01  0.12147268275E+02 -0.25313513291E+02  0.28106085652E+02  0.00000000000E+00 0. -1.
        -13    1    4    4    0    0  0.75822552719E+02  0.22845015441E+02  0.64736804378E+02  0.10228298037E+03  0.00000000000E+00 0.  1.
         13    1    4    4    0    0 -0.17025882997E+01  0.43822798782E+02 -0.77283984090E+01  0.44531613961E+02  0.00000000000E+00 0. -1.
          1    1    1    2  501    0 -0.24907183261E+02  0.68792220210E+01 -0.13138288567E+03  0.13389979133E+03  0.00000000000E+00 0. -1.
<scales pt_clust_5="13000.00000" pt_clust_6="13000.00000" pt_clust_7="13000.00000" pt_clust_8="13000.00000" pt_clust_9="25.83974"></scales>
<clustering>
<clus scale="   25.840">  1  9  2 -1</clus>
<clus scale="   82.984">  5  6 -1 -1</clus>
<clus scale="   91.467">  7  8 -1 -1</clus>
<clus scale="  123.359">  2  5  1 -1</clus>
<clus scale="   25.840">  1  5  2 -1</clus>
</clustering>
</event>
<event>
 9    2  0.1302972E-004  0.1171448E+03  0.7546771E-02  0.1259022E+00
          2   -1    0    0  502    0 -0.00000000000E+00  0.00000000000E+00  0.14910309083E+04  0.14910309083E+04  0.00000000000E+00 0. -1.
         21   -1    0    0  501  502  0.00000000000E+00 -0.00000000000E+00 -0.10571348089E+02  0.10571348089E+02  0.00000000000E+00 0. -1.
         24    2    1    2    0    0  0.35678408059E+02  0.36781199079E+02  0.90260650911E+03  0.90759690336E+03  0.80048880735E+02 0.  0.
         23    2    1    2    0    0 -0.43302996597E+02 -0.16653520989E+02  0.48931430631E+03  0.50288802698E+03  0.10637381278E+03 0.  0.
        -13    1    3    3    0    0  0.28987130212E+02 -0.14742401370E+02  0.16570495088E+03  0.16886599084E+03  0.00000000000E+00 0.  1.
         14    1    3    3    0    0  0.66912778473E+01  0.51523600449E+02  0.73690155822E+03  0.73873091252E+03  0.00000000000E+00 0. -1.
        -13    1    4    4    0    0 -0.39587362899E+02 -0.55667052357E+02  0.39322983099E+03  0.39911862899E+03  0.00000000000E+00 0.  1.
         13    1    4    4    0    0 -0.37156336975E+01  0.39013531368E+02  0.96084475319E+02  0.10376939800E+03  0.00000000000E+00 0. -1.
          1    1    1    2  501    0  0.76245885381E+01 -0.20127678090E+02  0.88538744748E+02  0.91117325999E+02  0.00000000000E+00 0. -1.
<scales pt_clust_5="13000.00000" pt_clust_6="13000.00000" pt_clust_7="13000.00000" pt_clust_8="13000.00000" pt_clust_9="21.52342"></scales>
<clustering>
<clus scale="   21.523">  2  9  1 -1</clus>
<clus scale="   80.049">  5  6 -1 -1</clus>
<clus scale="   93.890">  1  5  2 -1</clus>
<clus scale="  106.374">  7  8 -1 -1</clus>
<clus scale="   21.523">  2  5  1 -1</clus>
</clustering>
</event>
<event>
 9    2  0.1302972E-004  0.1629297E+03  0.7546771E-02  0.1187157E+00
         21   -1    0    0  501  502  0.00000000000E+00  0.00000000000E+00  0.15751967228E+03  0.15751967228E+03  0.00000000000E+00 0.  1.
          2   -1    0    0  502    0 -0.00000000000E+00 -0.00000000000E+00 -0.31816569472E+03  0.31816569472E+03  0.00000000000E+00 0. -1.
         24    2    1    2    0    0  0.93188205123E+02 -0.83283483649E+02 -0.77767368646E+02  0.16792612269E+03  0.80816080292E+02 0.  0.
         23    2    1    2    0    0 -0.10402023510E+03  0.11879197911E+03  0.33258800226E+02  0.18583265020E+03  0.92173111451E+02 0.  0.
        -11    1    3    3    0    0  0.91528325680E+02 -0.66736425470E+02 -0.29758524065E+02  0.11711854952E+03  0.00000000000E+00 0.  1.
         12    1    3    3    0    0  0.16598794435E+01 -0.16547058180E+02 -0.48008844581E+02  0.50807573177E+02  0.00000000000E+00 0. -1.
        -11    1    4    4    0    0 -0.76534747661E+02  0.55557111955E+02  0.59863791107E+02  0.11192780608E+03  0.00000000000E+00 0.  1.
         11    1    4    4    0    0 -0.27485487443E+02  0.63234867153E+02 -0.26604990881E+02  0.73904844115E+02  0.00000000000E+00 0. -1.
          1    1    1    2  501    0  0.10832029981E+02 -0.35508495459E+02 -0.11613745402E+03  0.12192659411E+03  0.00000000000E+00 0. -1.
<scales pt_clust_5="13000.00000" pt_clust_6="13000.00000" pt_clust_7="13000.00000" pt_clust_8="13000.00000" pt_clust_9="37.12395"></scales>
<clustering>
<clus scale="   37.124">  1  9  2 -1</clus>
<clus scale="   80.816">  5  6 -1 -1</clus>
<clus scale="   92.173">  7  8 -1 -1</clus>
<clus scale="  156.785">  2  5  1 -1</clus>
<clus scale="   37.124">  1  5  2 -1</clus>
</clustering>
</event>
<event>
 9    2  0.1302972E-004  0.1742365E+03  0.7546771E-02  0.1175161E+00
         -1   -1    0    0    0  501 -0.00000000000E+00  0.00000000000E+00  0.17431719414E+03  0.17431719414E+03  0.00000000000E+00 0.  1.
         21   -1    0    0  501  502  0.00000000000E+00 -0.00000000000E+00 -0.35858302249E+03  0.35858302249E+03  0.00000000000E+00 0.  1.
         24    2    1    2    0    0  0.10057804126E+03  0.24425911660E+01 -0.92320439710E+02  0.15820034435E+03  0.79889778621E+02 0.  0.
         23    2    1    2    0    0 -0.20150041021E+03 -0.75722002294E+02 -0.86660636328E+02  0.24986748362E+03  0.92668530464E+02 0.  0.
        -13    1    3    3    0    0  0.86074674012E+02 -0.12932653899E+02 -0.29475382584E+02  0.91896143671E+02  0.00000000000E+00 0.  1.
         14    1    3    3    0    0  0.14503367251E+02  0.15375245065E+02 -0.62845057126E+02  0.66304200678E+02  0.00000000000E+00 0. -1.
        -11    1    4    4    0    0 -0.56077122265E+02 -0.36137879973E+02  0.14604390145E+02  0.68292592731E+02  0.00000000000E+00 0. -1.
         11    1    4    4    0    0 -0.14542328794E+03 -0.39584122322E+02 -0.10126502647E+03  0.18157489089E+03  0.00000000000E+00 0.  1.
         -2    1    1    2    0  502  0.10092236894E+03  0.73279411129E+02 -0.52847523139E+01  0.12483238865E+03  0.00000000000E+00 0.  1.
<scales pt_clust_5="13000.00000" pt_clust_6="13000.00000" pt_clust_7="13000.00000" pt_clust_8="13000.00000" pt_clust_9="124.72054"></scales>
<clustering>
<clus scale="   79.890">  5  6 -1 -1</clus>
<clus scale="   92.669">  7  8 -1 -1</clus>
<clus scale="  124.721">  2  9  1 -1</clus>
<clus scale="  167.789">  1  5  2 -1</clus>
<clus scale="  124.721">  2  5  1 -1</clus>
</clustering>
</event>
<event>
 9    2  0.1302972E-004  0.1367297E+03  0.7546771E-02  0.1218465E+00
          2   -1    0    0  502    0 -0.00000000000E+00  0.00000000000E+00  0.85458174579E+03  0.85458174579E+03  0.00000000000E+00 0. -1.
         21   -1    0    0  501  502  0.00000000000E+00 -0.00000000000E+00 -0.69881497222E+02  0.69881497222E+02  0.00000000000E+00 0.  1.
         23    2    1    2    0    0 -0.14718067085E+02  0.12523128640E+03  0.19035620361E+03  0.24603780498E+03  0.91649444271E+02 0.  0.
         24    2    1    2    0    0  0.11194134193E+03 -0.31825688016E+02  0.12762491284E+03  0.19262329799E+03  0.85275307688E+02 0.  0.
        -13    1    4    4    0    0  0.11417488122E+03 -0.27737108863E+02  0.13800392328E+03  0.18124660977E+03  0.00000000000E+00 0.  1.
         14    1    4    4    0    0 -0.22335392918E+01 -0.40885791528E+01 -0.10379010442E+02  0.11376688227E+02  0.00000000000E+00 0. -1.
        -13    1    3    3    0    0 -0.34043520427E+02  0.11758323489E+03  0.11532190137E+03  0.16817823684E+03  0.00000000000E+00 0.  1.
         13    1    3    3    0    0  0.19325453342E+02  0.76480515061E+01  0.75034302233E+02  0.77859568136E+02  0.00000000000E+00 0. -1.
          1    1    1    2  501    0 -0.97223274846E+02 -0.93405598383E+02  0.46671913212E+03  0.48580214004E+03  0.00000000000E+00 0. -1.
<scales pt_clust_5="13000.00000" pt_clust_6="13000.00000" pt_clust_7="13000.00000" pt_clust_8="13000.00000" pt_clust_9="134.82206"></scales>
<clustering>
<clus scale="   85.275">  5  6 -1 -1</clus>
<clus scale="   91.649">  7  8 -1 -1</clus>
<clus scale="  134.822">  2  9  1 -1</clus>
<clus scale="  134.822">  2  5  1 -1</clus>
<clus scale="  134.822">  2  5  1 -1</clus>
</clustering>
</event>
<event>
 9    2  0.1302972E-004  0.1197361E+03  0.7546771E-02  0.1244739E+00
          2   -1    0    0  502    0 -0.00000000000E+00  0.00000000000E+00  0.45743711482E+03  0.45743711482E+03  0.00000000000E+00 0. -1.
         21   -1    0    0  501  502  0.00000000000E+00 -0.00000000000E+00 -0.84148177166E+02  0.84148177166E+02  0.00000000000E+00 0. -1.
         24    2    1    2    0    0  0.13032548725E+02  0.10747259349E+03  0.31210210967E+03  0.34050865772E+03  0.82572473909E+02 0.  0.
         23    2    1    2    0    0 -0.15796739009E+02 -0.41521793457E+02  0.86665669842E+02  0.13032128001E+03  0.86597352146E+02 0.  0.
        -11    1    3    3    0    0 -0.31345614155E+02  0.33866703214E+02  0.15125773775E+03  0.15814045764E+03  0.00000000000E+00 0.  1.
         12    1    3    3    0    0  0.44378162880E+02  0.73605890276E+02  0.16084437192E+03  0.18236820008E+03  0.00000000000E+00 0. -1.
        -13    1    4    4    0    0 -0.44125399782E+02 -0.45735135047E+02  0.38557590545E+02  0.74333311996E+02  0.00000000000E+00 0. -1.
         13    1    4    4    0    0  0.28328660772E+02  0.42133415902E+01  0.48108079298E+02  0.55987968013E+02  0.00000000000E+00 0.  1.
          1    1    1    2  501    0  0.27641902846E+01 -0.65950800033E+02 -0.25478841858E+02  0.70755354252E+02  0.00000000000E+00 0. -1.
<scales pt_clust_5="13000.00000" pt_clust_6="13000.00000" pt_clust_7="13000.00000" pt_clust_8="13000.00000" pt_clust_9="66.00870"></scales>
<clustering>
<clus scale="   66.009">  2  9  1 -1</clus>
<clus scale="   82.572">  5  6 -1 -1</clus>
<clus scale="   86.597">  7  8 -1 -1</clus>
<clus scale="  116.858">  1  5  2 -1</clus>
<clus scale="   66.009">  2  5  1 -1</clus>
</clustering>
</event>
<event>
 9    2  0.1302972E-004  0.1113488E+03  0.7546771E-02  0.1260020E+00
         21   -1    0    0  501  502  0.00000000000E+00  0.00000000000E+00  0.21306864311E+03  0.21306864311E+03  0.00000000000E+00 0.  1.
          4   -1    0    0  502    0 -0.00000000000E+00 -0.00000000000E+00 -0.11289187777E+03  0.11289187777E+03  0.00000000000E+00 0. -1.
         24    2    1    2    0    0  0.99708125005E+01 -0.68066687909E+02 -0.46807960315E+02  0.12063700396E+03  0.87348786320E+02 0.  0.
         23    2    1    2    0    0 -0.31067848114E+02  0.35188872785E+02  0.97588652418E+02  0.14234726989E+03  0.92389026454E+02 0.  0.
        -11    1    3    3    0    0 -0.27693922117E+02 -0.16181984357E+02 -0.46539582335E+02  0.56522054668E+02  0.00000000000E+00 0.  1.
         12    1    3    3    0    0  0.37664734618E+02 -0.51884703551E+02 -0.26837797982E+00  0.64114949295E+02  0.00000000000E+00 0. -1.
        -11    1    4    4    0    0 -0.31418892302E+02  0.57081742590E+02  0.30817377929E+02  0.72077617282E+02  0.00000000000E+00 0. -1.
         11    1    4    4    0    0  0.35104418792E+00 -0.21892869805E+02  0.66771274488E+02  0.70269652604E+02  0.00000000000E+00 0.  1.
          3    1    1    2  501    0  0.21097035614E+02  0.32877815123E+02  0.49396073241E+02  0.62976247035E+02  0.00000000000E+00 0. -1.
<scales pt_clust_5="13000.00000" pt_clust_6="13000.00000" pt_clust_7="13000.00000" pt_clust_8="13000.00000" pt_clust_9="39.06451"></scales>
<clustering>
<clus scale="   39.065">  1  9  2 -1</clus>
<clus scale="   87.349">  5  6 -1 -1</clus>
<clus scale="   92.389">  7  8 -1 -1</clus>
<clus scale="  107.204">  2  5  1 -1</clus>
<clus scale="   39.065">  1  5  2 -1</clus>
</clustering>
</event>
<event>
 9    2  0.1302972E-004  0.9519902E+02  0.7546771E-02  0.1296885E+00
         21   -1    0    0  501  502  0.00000000000E+00  0.00000000000E+00  0.59519158979E+02  0.59519158979E+02  0.00000000000E+00 0. -1.
          2   -1    0    0  502    0 -0.00000000000E+00 -0.00000000000E+00 -0.30893933284E+03  0.30893933284E+03  0.00000000000E+00 0. -1.
         24    2    1    2    0    0 -0.29343253979E+01  0.30384994623E+02 -0.20571683369E+03  0.22295740477E+03  0.80366227467E+02 0.  0.
         23    2    1    2    0    0  0.93674538838E+01 -0.84131218290E+01  0.44718232402E+01  0.92162595259E+02  0.91188908046E+02 0.  0.
        -13    1    3    3    0    0  0.22485990674E+02 -0.15423126454E+02 -0.34908597539E+02  0.44295629450E+02  0.00000000000E+00 0.  1.
         14    1    3    3    0    0 -0.25420316072E+02  0.45808121076E+02 -0.17080823615E+03  0.17866177532E+03  0.00000000000E+00 0. -1.
        -13    1    4    4    0    0 -0.24500629471E+02  0.24809537302E+02 -0.18476861380E+02  0.39461226438E+02  0.00000000000E+00 0. -1.
         13    1    4    4    0    0  0.33868083354E+02 -0.33222659131E+02  0.22948684620E+02  0.52701368821E+02  0.00000000000E+00 0.  1.
          1    1    1    2  501    0 -0.64331284859E+01 -0.21971872794E+02 -0.48175163414E+02  0.53338491787E+02  0.00000000000E+00 0. -1.
<scales pt_clust_5="13000.00000" pt_clust_6="13000.00000" pt_clust_7="13000.00000" pt_clust_8="13000.00000" pt_clust_9="22.89430"></scales>
<clustering>
<clus scale="   22.894">  1  9  2 -1</clus>
<clus scale="   80.366">  5  6 -1 -1</clus>
<clus scale="   84.889">  2  5  1 -1</clus>
<clus scale="   91.189">  7  8 -1 -1</clus>
<clus scale="   22.894">  1  5  2 -1</clus>
</clustering>
</event>
<event>
 9    2  0.1302972E-004  0.1560374E+03  0.7546771E-02  0.1195079E+00
         21   -1    0    0  501  502  0.00000000000E+00  0.00000000000E+00  0.24146179957E+03  0.24146179957E+03  0.00000000000E+00 0. -1.
          2   -1    0    0  502    0 -0.00000000000E+00 -0.00000000000E+00 -0.39674538179E+03  0.39674538179E+03  0.00000000000E+00 0. -1.
         24    2    1    2    0    0 -0.56628680933E+01  0.12859029362E+03 -0.33465699090E+03  0.36744435643E+03  0.80327590662E+02 0.  0.
         23    2    1    2    0    0 -0.43370329690E+02 -0.10762555090E+03  0.11486187592E+03  0.18706388359E+03  0.91298418922E+02 0.  0.
        -11    1    3    3    0    0 -0.22414518390E+02  0.13551689250E+02 -0.23167324039E+02  0.34968325944E+02  0.00000000000E+00 0.  1.
         12    1    3    3    0    0  0.16751650296E+02  0.11503860437E+03 -0.31148966686E+03  0.33247603048E+03  0.00000000000E+00 0. -1.
        -13    1    4    4    0    0 -0.78652190728E+01 -0.52232826462E+02 -0.21029461408E+01  0.52863524416E+02  0.00000000000E+00 0. -1.
         13    1    4    4    0    0 -0.35505110617E+02 -0.55392724436E+02  0.11696482207E+03  0.13420035917E+03  0.00000000000E+00 0.  1.
          1    1    1    2  501    0  0.49033197783E+02 -0.20964742722E+02  0.64511532764E+02  0.83698941342E+02  0.00000000000E+00 0. -1.
<scales pt_clust_5="13000.00000" pt_clust_6="13000.00000" pt_clust_7="13000.00000" pt_clust_8="13000.00000" pt_clust_9="53.32706"></scales>
<clustering>
<clus scale="   53.327">  1  9  2 -1</clus>
<clus scale="   80.328">  5  6 -1 -1</clus>
<clus scale="   91.298">  7  8 -1 -1</clus>
<clus scale="  149.883">  2  5  1 -1</clus>
<clus scale="   53.327">  1  5  2 -1</clus>
</clustering>
</event>
<event>
 9    2  0.1302972E-004  0.9428046E+02  0.7546771E-02  0.1296725E+00
         21   -1    0    0  501  502  0.00000000000E+00  0.00000000000E+00  0.10971430753E+03  0.10971430753E+03  0.00000000000E+00 0. -1.
          2   -1    0    0  502    0 -0.00000000000E+00 -0.00000000000E+00 -0.17622978979E+03  0.17622978979E+03  0.00000000000E+00 0. -1.
         24    2    1    2    0    0 -0.12028776656E+02 -0.26670275297E+02 -0.10760216819E+03  0.13767170295E+03  0.80742034537E+02 0.  0.
         23    2    1    2    0    0  0.73367927909E+01  0.60515364238E+02  0.39650274026E+02  0.11407344647E+03  0.87890096841E+02 0.  0.
        -13    1    3    3    0    0 -0.41731686181E+02 -0.32287680555E+02 -0.84519223690E+02  0.99636976672E+02  0.00000000000E+00 0.  1.
         14    1    3    3    0    0  0.29702909525E+02  0.56174052579E+01 -0.23082944498E+02  0.38034726275E+02  0.00000000000E+00 0. -1.
        -11    1    4    4    0    0  0.44699113348E+01  0.19904837326E+02 -0.28284445256E+02  0.34873951594E+02  0.00000000000E+00 0.  1.
         11    1    4    4    0    0  0.28668814561E+01  0.40610526911E+02  0.67934719282E+02  0.79199494880E+02  0.00000000000E+00 0. -1.
          1    1    1    2  501    0  0.46919838648E+01 -0.33845088941E+02  0.14364119068E+01  0.34198947896E+02  0.00000000000E+00 0. -1.
<scales pt_clust_5="13000.00000" pt_clust_6="13000.00000" pt_clust_7="13000.00000" pt_clust_8="13000.00000" pt_clust_9="34.16877"></scales>
<clustering>
<clus scale="   34.169">  1  9  2 -1</clus>
<clus scale="   80.742">  5  6 -1 -1</clus>
<clus scale="   87.655">  2  5  1 -1</clus>
<clus scale="   87.890">  7  8 -1 -1</clus>
<clus scale="   34.169">  1  5  2 -1</clus>
</clustering>
</event>
<event>
 9    2  0.1302972E-004  0.1051326E+03  0.7546771E-02  0.1275067E+00
          2   -1    0    0  502    0 -0.00000000000E+00  0.00000000000E+00  0.15347765534E+03  0.15347765534E+03  0.00000000000E+00 0. -1.
         21   -1    0    0  501  502  0.00000000000E+00 -0.00000000000E+00 -0.14360728619E+03  0.14360728619E+03  0.00000000000E+00 0. -1.
         23    2    1    2    0    0  0.46200322862E+02 -0.38688817822E+02 -0.20917276367E+02  0.11170626367E+03  0.91703121181E+02 0.  0.
         24    2    1    2    0    0  0.86293383414E+01  0.57048189196E+02 -0.28391768093E+02  0.10264077083E+03  0.80000462307E+02 0.  0.
        -13    1    4    4    0    0  0.29600770147E+02  0.38811741926E+00  0.97785440943E+01  0.31176532088E+02  0.00000000000E+00 0.  1.
         14    1    4    4    0    0 -0.20971431806E+02  0.56660071777E+02 -0.38170312188E+02  0.71464238737E+02  0.00000000000E+00 0. -1.
        -11    1    3    3    0    0  0.13349608684E+01  0.27608056508E+02  0.38595753740E+01  0.27908479477E+02  0.00000000000E+00 0.  1.
         11    1    3    3    0    0  0.44865361994E+02 -0.66296874329E+02 -0.24776851741E+02  0.83797784188E+02  0.00000000000E+00 0. -1.
          1    1    1    2  501    0 -0.54829661204E+02 -0.18359371375E+02  0.59179413611E+02  0.82737907034E+02  0.00000000000E+00 0. -1.
<scales pt_clust_5="13000.00000" pt_clust_6="13000.00000" pt_clust_7="13000.00000" pt_clust_8="13000.00000" pt_clust_9="57.82181"></scales>
<clustering>
<clus scale="   57.822">  2  9  1 -1</clus>
<clus scale="   80.000">  5  6 -1 -1</clus>
<clus scale="   91.703">  7  8 -1 -1</clus>
<clus scale="   95.097">  2  5  1 -1</clus>
<clus scale="   57.822">  2  5  1 -1</clus>
</clustering>
</event>
<event>
 9    2  0.1302972E-004  0.1457315E+03  0.7546771E-02  0.1227259E+00
          2   -1    0    0  502    0 -0.00000000000E+00  0.00000000000E+00  0.81158049048E+03  0.81158049048E+03  0.00000000000E+00 0. -1.
         21   -1    0    0  501  502  0.00000000000E+00 -0.00000000000E+00 -0.52413512582E+02  0.52413512582E+02  0.00000000000E+00 0. -1.
         23    2    1    2    0    0 -0.15616995568E+02  0.12259037276E+02  0.82263543173E+02  0.12390708066E+03  0.90506903364E+02 0.  0.
         24    2    1    2    0    0 -0.52234258935E+02 -0.10160855120E+03  0.55595054498E+03  0.57511198517E+03  0.92844340388E+02 0.  0.
        -11    1    4    4    0    0  0.11359100216E+02 -0.50861013353E+02  0.10901013282E+03  0.12082665639E+03  0.00000000000E+00 0.  1.
         12    1    4    4    0    0 -0.63593359151E+02 -0.50747537849E+02  0.44694041216E+03  0.45428532878E+03  0.00000000000E+00 0. -1.
        -13    1    3    3    0    0  0.33035606910E+02  0.53207573165E+01  0.62585386165E+02  0.70968953379E+02  0.00000000000E+00 0.  1.
         13    1    3    3    0    0 -0.48652602477E+02  0.69382799591E+01  0.19678157008E+02  0.52938127279E+02  0.00000000000E+00 0. -1.
          1    1    1    2  501    0  0.67851254502E+02  0.89349513926E+02  0.12095288974E+03  0.16497493723E+03  0.00000000000E+00 0. -1.
<scales pt_clust_5="13000.00000" pt_clust_6="13000.00000" pt_clust_7="13000.00000" pt_clust_8="13000.00000" pt_clust_9="112.32804"></scales>
<clustering>
<clus scale="   90.507">  7  8 -1 -1</clus>
<clus scale="   92.659">  1  7  2 -1</clus>
<clus scale="   92.844">  5  6 -1 -1</clus>
<clus scale="  112.328">  2  9  1 -1</clus>
<clus scale="  112.328">  2  5  1 -1</clus>
</clustering>
</event>
<event>
 9    2  0.1302972E-004  0.2270172E+03  0.7546771E-02  0.1167566E+00
         21   -1    0    0  501  502  0.00000000000E+00  0.00000000000E+00  0.20931482670E+03  0.20931482670E+03  0.00000000000E+00 0.  1.
         -3   -1    0    0    0  501 -0.00000000000E+00 -0.00000000000E+00 -0.46504208218E+03  0.46504208218E+03  0.00000000000E+00 0.  1.
         24    2    1    2    0    0 -0.39491004020E+02 -0.95357578490E+01 -0.32627211729E+02  0.95933837085E+02  0.80549960127E+02 0.  0.
         23    2    1    2    0    0 -0.11640776473E+03 -0.16651022092E+03  0.41544027897E+02  0.22439892375E+03  0.85747007918E+02 0.  0.
        -13    1    3    3    0    0 -0.33026241544E+02  0.24536201904E+02 -0.43220475401E+02  0.59672165440E+02  0.00000000000E+00 0.  1.
         14    1    3    3    0    0 -0.64647624763E+01 -0.34071959753E+02  0.10593263673E+02  0.36261671645E+02  0.00000000000E+00 0. -1.
        -11    1    4    4    0    0 -0.32522112593E+02  0.89471826310E-01  0.15621361468E+02  0.36079395045E+02  0.00000000000E+00 0. -1.
         11    1    4    4    0    0 -0.83885652136E+02 -0.16659969274E+03  0.25922666429E+02  0.18831952870E+03  0.00000000000E+00 0.  1.
         -4    1    1    2    0  502  0.15589876875E+03  0.17604597877E+03 -0.26464407165E+03  0.35402414804E+03  0.00000000000E+00 0.  1.
<scales pt_clust_5="13000.00000" pt_clust_6="13000.00000" pt_clust_7="13000.00000" pt_clust_8="13000.00000" pt_clust_9="210.20067"></scales>
<clustering>
<clus scale="   80.550">  5  6 -1 -1</clus>
<clus scale="   85.747">  7  8 -1 -1</clus>
<clus scale="   90.215">  2  5  1 -1</clus>
<clus scale="  210.201">  1  9  2 -1</clus>
<clus scale="  210.201">  1  5  2 -1</clus>
</clustering>
</event>
<event>
 9    2  0.1302972E-004  0.9591598E+02  0.7546771E-02  0.1294402E+00
          4   -1    0    0  502    0 -0.00000000000E+00  0.00000000000E+00  0.72022042011E+02  0.72022042011E+02  0.00000000000E+00 0. -1.
         21   -1    0    0  501  502  0.00000000000E+00 -0.00000000000E+00 -0.18447104987E+03  0.18447104987E+03  0.00000000000E+00 0.  1.
         24    2    1    2    0    0  0.20709623714E+02  0.28613701521E+02 -0.19700948546E+02  0.89839489490E+02  0.80220783274E+02 0.  0.
         23    2    1    2    0    0  0.46599921336E+01 -0.35988994347E+02 -0.99980217267E+02  0.13926169736E+03  0.89893566324E+02 0.  0.
        -11    1    3    3    0    0  0.39475210137E+02  0.16049651335E+02  0.17705099266E+02  0.46144924567E+02  0.00000000000E+00 0.  1.
         12    1    3    3    0    0 -0.18765586423E+02  0.12564050186E+02 -0.37406047812E+02  0.43694564923E+02  0.00000000000E+00 0. -1.
        -13    1    4    4    0    0  0.47039841450E+01 -0.66372253765E+02 -0.67314898097E+02  0.94650404344E+02  0.00000000000E+00 0.  1.
         13    1    4    4    0    0 -0.43992011434E-01  0.30383259418E+02 -0.32665319170E+02  0.44611293017E+02  0.00000000000E+00 0. -1.
          3    1    1    2  501    0 -0.25369615847E+02  0.73752928263E+01  0.72321579533E+01  0.27391905030E+02  0.00000000000E+00 0. -1.
<scales pt_clust_5="13000.00000" pt_clust_6="13000.00000" pt_clust_7="13000.00000" pt_clust_8="13000.00000" pt_clust_9="26.41994"></scales>
<clustering>
<clus scale="   26.420">  2  9  1 -1</clus>
<clus scale="   80.221">  5  6 -1 -1</clus>
<clus scale="   86.916">  1  5  2 -1</clus>
<clus scale="   89.894">  7  8 -1 -1</clus>
<clus scale="   26.420">  2  5  1 -1</clus>
</clustering>
</event>
<event>
 9    2  0.1302972E-004  0.2546117E+03  0.7546771E-02  0.1117987E+00
          2   -1    0    0  502    0 -0.00000000000E+00  0.00000000000E+00  0.78919592490E+03  0.78919592490E+03  0.00000000000E+00 0. -1.
         21   -1    0    0  501  502  0.00000000000E+00 -0.00000000000E+00 -0.31602095051E+03  0.31602095051E+03  0.00000000000E+00 0.  1.
         23    2    1    2    0    0  0.16130523589E+03  0.99731423226E+02  0.27611402537E+03  0.34708742330E+03  0.90911982155E+02 0.  0.
         24    2    1    2    0    0  0.21540367863E+03  0.97260023412E+01 -0.11402090520E+03  0.25746743607E+03  0.82434058054E+02 0.  0.
        -11    1    4    4    0    0  0.86497318878E+02  0.11047170487E+02 -0.91870839017E+02  0.12666521705E+03  0.00000000000E+00 0.  1.
         12    1    4    4    0    0  0.12890635975E+03 -0.13211681457E+01 -0.22150066185E+02  0.13080221902E+03  0.00000000000E+00 0. -1.
        -11    1    3    3    0    0  0.67523771077E+02 -0.42391548231E+01  0.65428935803E+02  0.94118944609E+02  0.00000000000E+00 0. -1.
         11    1    3    3    0    0  0.93781464808E+02  0.10397057805E+03  0.21068508957E+03  0.25296847869E+03  0.00000000000E+00 0.  1.
          1    1    1    2  501    0 -0.37670891451E+03 -0.10945742557E+03  0.31108185422E+03  0.50066201605E+03  0.00000000000E+00 0. -1.
<scales pt_clust_5="13000.00000" pt_clust_6="13000.00000" pt_clust_7="13000.00000" pt_clust_8="13000.00000" pt_clust_9="240.89792"></scales>
<clustering>
<clus scale="   82.434">  5  6 -1 -1</clus>
<clus scale="   90.912">  7  8 -1 -1</clus>
<clus scale="  210.311">  1  7  2 -1</clus>
<clus scale="  240.898">  2  9  1 -1</clus>
<clus scale="  240.898">  2  5  1 -1</clus>
</clustering>
</event>
<event>
 9    2  0.1302972E-004  0.1520267E+03  0.7546771E-02  0.1199657E+00
          2   -1    0    0  502    0 -0.00000000000E+00  0.00000000000E+00  0.11568020494E+04  0.11568020494E+04  0.00000000000E+00 0. -1.
         21   -1    0    0  501  502  0.00000000000E+00 -0.00000000000E+00 -0.42241479659E+02  0.42241479659E+02  0.00000000000E+00 0.  1.
         24    2    1    2    0    0 -0.82778431325E+02 -0.80652653053E+02  0.74776239607E+03  0.76076922055E+03  0.79145984307E+02 0.  0.
         23    2    1    2    0    0  0.97865035543E+02  0.10940561541E+03  0.36776358911E+03  0.40578938130E+03  0.88700680014E+02 0.  0.
        -11    1    3    3    0    0 -0.48043296273E+02 -0.80933283458E+00  0.17711347009E+03  0.18351565226E+03  0.00000000000E+00 0.  1.
         12    1    3    3    0    0 -0.34735135052E+02 -0.79843320218E+02  0.57064892597E+03  0.57725356829E+03  0.00000000000E+00 0. -1.
        -13    1    4    4    0    0  0.28747689099E+02 -0.88613874422E+01  0.10811603885E+03  0.11222313341E+03  0.00000000000E+00 0. -1.
         13    1    4    4    0    0  0.69117346445E+02  0.11826700285E+03  0.25964755026E+03  0.29356624789E+03  0.00000000000E+00 0.  1.
          1    1    1    2  501    0 -0.15086604218E+02 -0.28752962358E+02 -0.96541539895E+00  0.32484927245E+02  0.00000000000E+00 0. -1.
<scales pt_clust_5="13000.00000" pt_clust_6="13000.00000" pt_clust_7="13000.00000" pt_clust_8="13000.00000" pt_clust_9="32.47058"></scales>
<clustering>
<clus scale="   32.471">  2  9  1 -1</clus>
<clus scale="   79.146">  5  6 -1 -1</clus>
<clus scale="   88.701">  7  8 -1 -1</clus>
<clus scale="  146.657">  1  5  2 -1</clus>
<clus scale="   32.471">  2  5  1 -1</clus>
</clustering>
</event>
<event>
 9    2  0.1302972E-004  0.3328214E+03  0.7546771E-02  0.1069895E+00
         -1   -1    0    0    0  501 -0.00000000000E+00  0.00000000000E+00  0.16446291188E+04  0.16446291188E+04  0.00000000000E+00 0.  1.
         21   -1    0    0  501  502  0.00000000000E+00 -0.00000000000E+00 -0.62627567334E+02  0.62627567334E+02  0.00000000000E+00 0.  1.
         24    2    1    2    0    0  0.84489571796E+02 -0.50027348876E+02  0.24183418435E+03  0.27338105338E+03  0.81315461319E+02 0.  0.
         23    2    1    2    0    0  0.18285546830E+03  0.20248871949E+02  0.32757221165E+03  0.38615950850E+03  0.89271905184E+02 0.  0.
        -13    1    3    3    0    0  0.25554416875E+02  0.90572818434E+01  0.13562299653E+03  0.13830639813E+03  0.00000000000E+00 0.  1.
         14    1    3    3    0    0  0.58935154922E+02 -0.59084630719E+02  0.10621118782E+03  0.13507465525E+03  0.00000000000E+00 0. -1.
        -11    1    4    4    0    0  0.30154208343E+02  0.31744979161E+02  0.12343082358E+03  0.13096636283E+03  0.00000000000E+00 0. -1.
         11    1    4    4    0    0  0.15270125996E+03 -0.11496107212E+02  0.20414138807E+03  0.25519314567E+03  0.00000000000E+00 0.  1.
         -2    1    1    2    0  502 -0.26734504010E+03  0.29778476927E+02  0.10125951555E+04  0.10477161243E+04  0.00000000000E+00 0.  1.
<scales pt_clust_5="13000.00000" pt_clust_6="13000.00000" pt_clust_7="13000.00000" pt_clust_8="13000.00000" pt_clust_9="268.99851"></scales>
<clustering>
<clus scale="   81.315">  5  6 -1 -1</clus>
<clus scale="   89.272">  7  8 -1 -1</clus>
<clus scale="  109.438">  5  7 -1 -1</clus>
<clus scale="  268.999">  2  9  1 -1</clus>
<clus scale="  268.999">  2  5  1 -1</clus>
</clustering>
</event>
<event>
 9    2  0.1302972E-004  0.1150778E+03  0.7546771E-02  0.1256055E+00
          2   -1    0    0  502    0 -0.00000000000E+00  0.00000000000E+00  0.44776353308E+03  0.44776353308E+03  0.00000000000E+00 0. -1.
         21   -1    0    0  501  502  0.00000000000E+00 -0.00000000000E+00 -0.17333339819E+03  0.17333339819E+03  0.00000000000E+00 0.  1.
         24    2    1    2    0    0  0.32560920450E+02  0.59541124852E+02  0.39906293951E+03  0.41253885884E+03  0.79572113673E+02 0.  0.
         23    2    1    2    0    0 -0.55487303840E+02 -0.57999591586E+02 -0.53147662622E+02  0.13347065067E+03  0.92449700037E+02 0.  0.
        -13    1    3    3    0    0  0.41204028348E+02 -0.30484365593E+01  0.16574820339E+03  0.17082017400E+03  0.00000000000E+00 0.  1.
         14    1    3    3    0    0 -0.86431078976E+01  0.62589561412E+02  0.23331473612E+03  0.24171868484E+03  0.00000000000E+00 0. -1.
        -11    1    4    4    0    0 -0.77589333930E+02 -0.40346790895E+02 -0.57767299188E+02  0.10480948970E+03  0.00000000000E+00 0.  1.
         11    1    4    4    0    0  0.22102030090E+02 -0.17652800691E+02  0.46196365662E+01  0.28661160974E+02  0.00000000000E+00 0. -1.
          1    1    1    2  501    0  0.22926383390E+02 -0.15415332664E+01 -0.71485141999E+02  0.75087421762E+02  0.00000000000E+00 0. -1.
<scales pt_clust_5="13000.00000" pt_clust_6="13000.00000" pt_clust_7="13000.00000" pt_clust_8="13000.00000" pt_clust_9="22.97815"></scales>
<clustering>
<clus scale="   22.978">  2  9  1 -1</clus>
<clus scale="   79.572">  5  6 -1 -1</clus>
<clus scale="   92.450">  7  8 -1 -1</clus>
<clus scale="  105.013">  1  5  2 -1</clus>
<clus scale="   22.978">  2  5  1 -1</clus>
</clustering>
</event>
<event>
 9    2  0.1302972E-004  0.1255389E+03  0.7546771E-02  0.1254305E+00
         21   -1    0    0  501  502  0.00000000000E+00  0.00000000000E+00  0.33188292316E+03  0.33188292316E+03  0.00000000000E+00 0. -1.
          2   -1    0    0  502    0 -0.00000000000E+00 -0.00000000000E+00 -0.24862306830E+03  0.24862306830E+03  0.00000000000E+00 0. -1.
         24    2    1    2    0    0 -0.55054406662E+01 -0.20253680874E+02 -0.20748756049E+03  0.22374894343E+03  0.81067752281E+02 0.  0.
         23    2    1    2    0    0 -0.42132576384E+02 -0.53814552744E+02  0.15766439878E+03  0.19717455150E+03  0.96688060477E+02 0.  0.
        -13    1    3    3    0    0  0.22886897620E+02  0.17830947276E+02 -0.38477539647E+02  0.48189976351E+02  0.00000000000E+00 0.  1.
         14    1    3    3    0    0 -0.28392338287E+02 -0.38084628149E+02 -0.16901002084E+03  0.17555896707E+03  0.00000000000E+00 0. -1.
        -11    1    4    4    0    0 -0.69422065514E+02 -0.16206975721E+02  0.10536028087E+03  0.12721194137E+03  0.00000000000E+00 0. -1.
         11    1    4    4    0    0  0.27289489130E+02 -0.37607577023E+02  0.52304117911E+02  0.69962610136E+02  0.00000000000E+00 0.  1.
          1    1    1    2  501    0  0.47638017050E+02  0.74068233618E+02  0.13308301657E+03  0.15958249653E+03  0.00000000000E+00 0. -1.
<scales pt_clust_5="13000.00000" pt_clust_6="13000.00000" pt_clust_7="13000.00000" pt_clust_8="13000.00000" pt_clust_9="80.07147"></scales>
<clustering>
<clus scale="   81.068">  5  6 -1 -1</clus>
<clus scale="   83.741">  2  5  1 -1</clus>
<clus scale="   80.071">  1  9  2 -1</clus>
<clus scale="   96.688">  7  8 -1 -1</clus>
<clus scale="   80.071">  1  5  2 -1</clus>
</clustering>
</event>
<event>
 9    2  0.1302972E-004  0.1387292E+03  0.7546771E-02  0.1218551E+00
          4   -1    0    0  502    0 -0.00000000000E+00  0.00000000000E+00  0.12001598670E+03  0.12001598670E+03  0.00000000000E+00 0. -1.
         21   -1    0    0  501  502  0.00000000000E+00 -0.00000000000E+00 -0.31706419529E+03  0.31706419529E+03  0.00000000000E+00 0.  1.
         23    2    1    2    0    0  0.44331195869E+02 -0.11844096307E+03 -0.10925302394E+03  0.19211031102E+03  0.94745087998E+02 0.  0.
         24    2    1    2    0    0 -0.37785507970E+02  0.66142645866E+02 -0.13498359171E+03  0.17422592584E+03  0.79570779746E+02 0.  0.
        -11    1    4    4    0    0 -0.38144736867E+02  0.17081800174E+01 -0.21751812513E+02  0.43944057360E+02  0.00000000000E+00 0.  1.
         12    1    4    4    0    0  0.35922889757E+00  0.64434465849E+02 -0.11323177920E+03  0.13028186848E+03  0.00000000000E+00 0. -1.
        -13    1    3    3    0    0  0.21736551929E+02 -0.12947186197E+03 -0.10102490124E+03  0.16565467516E+03  0.00000000000E+00 0.  1.
         13    1    3    3    0    0  0.22594643940E+02  0.11030898904E+02 -0.82281227003E+01  0.26455635857E+02  0.00000000000E+00 0. -1.
          3    1    1    2  501    0 -0.65456878989E+01  0.52298317202E+02  0.47188407059E+02  0.70743945133E+02  0.00000000000E+00 0. -1.
<scales pt_clust_5="13000.00000" pt_clust_6="13000.00000" pt_clust_7="13000.00000" pt_clust_8="13000.00000" pt_clust_9="52.70638"></scales>
<clustering>
<clus scale="   52.706">  2  9  1 -1</clus>
<clus scale="   79.571">  5  6 -1 -1</clus>
<clus scale="   94.745">  7  8 -1 -1</clus>
<clus scale="  128.844">  2  5  1 -1</clus>
<clus scale="   52.706">  2  5  1 -1</clus>
</clustering>
</event>
<event>
 9    2  0.1627740E-004  0.1890603E+03  0.7546771E-02  0.1194876E+00
          2   -1    0    0  502    0 -0.00000000000E+00  0.00000000000E+00  0.37573029832E+03  0.37573029832E+03  0.00000000000E+00 0. -1.
         21   -1    0    0  501  502  0.00000000000E+00 -0.00000000000E+00 -0.38496454563E+03  0.38496454563E+03  0.00000000000E+00 0. -1.
         24    2    1    2    0    0  0.21146522163E+02  0.58407812082E+01  0.26731511453E+03  0.28039425598E+03  0.81745202966E+02 0.  0.
         23    2    1    2    0    0 -0.89659480587E+02  0.13528974523E+03 -0.40656723687E+02  0.19700359239E+03  0.10399667596E+03 0.  0.
        -11    1    3    3    0    0 -0.16987976837E+02 -0.26664245702E+02  0.69872397864E+02  0.76692407311E+02  0.00000000000E+00 0.  1.
         12    1    3    3    0    0  0.38134499001E+02  0.32505026910E+02  0.19744271667E+03  0.20370184867E+03  0.00000000000E+00 0. -1.
        -11    1    4    4    0    0 -0.20716444695E+02  0.24356893715E+01 -0.42469055408E+02  0.47315159629E+02  0.00000000000E+00 0.  1.
         11    1    4    4    0    0 -0.68943035892E+02  0.13285405586E+03  0.18123317207E+01  0.14968843276E+03  0.00000000000E+00 0. -1.
          1    1    1    2  501    0  0.68512958423E+02 -0.14113052644E+03 -0.23589263815E+03  0.28329699557E+03  0.00000000000E+00 0. -1.
<scales pt_clust_5="13000.00000" pt_clust_6="13000.00000" pt_clust_7="13000.00000" pt_clust_8="13000.00000" pt_clust_9="157.88759"></scales>
<clustering>
<clus scale="   81.745">  5  6 -1 -1</clus>
<clus scale="   84.638">  1  5  2 -1</clus>
<clus scale="  103.997">  7  8 -1 -1</clus>
<clus scale="  157.888">  2  9  1 -1</clus>
<clus scale="  157.888">  2  5  1 -1</clus>
</clustering>
</event>
<event>
 9    2  0.1302972E-004  0.1311880E+03  0.7546771E-02  0.1228081E+00
          2   -1    0    0  502    0 -0.00000000000E+00  0.00000000000E+00  0.33924392354E+03  0.33924392354E+03  0.00000000000E+00 0. -1.
         21   -1    0    0  501  502  0.00000000000E+00 -0.00000000000E+00 -0.94950119233E+02  0.94950119233E+02  0.00000000000E+00 0. -1.
         24    2    1    2    0    0  0.44312122972E+02 -0.77342684810E+02  0.17245272388E+03  0.21066922374E+03  0.81829852264E+02 0.  0.
         23    2    1    2    0    0 -0.82420647025E+02  0.82333968494E+02  0.69447624360E+01  0.14810131734E+03  0.91179630672E+02 0.  0.
        -13    1    3    3    0    0 -0.22765870640E+02 -0.23978416083E+02  0.67488617570E+02  0.75152929453E+02  0.00000000000E+00 0.  1.
         14    1    3    3    0    0  0.67077993612E+02 -0.53364268727E+02  0.10496410631E+03  0.13551629429E+03  0.00000000000E+00 0. -1.
        -11    1    4    4    0    0 -0.26650078255E+02  0.66417603207E+01  0.39929707611E+02  0.48463606975E+02  0.00000000000E+00 0.  1.
         11    1    4    4    0    0 -0.55770568770E+02  0.75692208174E+02 -0.32984945175E+02  0.99637710368E+02  0.00000000000E+00 0. -1.
          1    1    1    2  501    0  0.38108524052E+02 -0.49912836840E+01  0.64896317986E+02  0.75423501685E+02  0.00000000000E+00 0. -1.
<scales pt_clust_5="13000.00000" pt_clust_6="13000.00000" pt_clust_7="13000.00000" pt_clust_8="13000.00000" pt_clust_9="38.43402"></scales>
<clustering>
<clus scale="   38.434">  2  9  1 -1</clus>
<clus scale="   81.830">  5  6 -1 -1</clus>
<clus scale="   91.180">  7  8 -1 -1</clus>
<clus scale="  124.871">  1  5  2 -1</clus>
<clus scale="   38.434">  2  5  1 -1</clus>
</clustering>
</event>
<event>
 9    2  0.1302972E-004  0.1829092E+03  0.7546771E-02  0.1179825E+00
          2   -1    0    0  502    0 -0.00000000000E+00  0.00000000000E+00  0.12607463776E+04  0.12607463776E+04  0.00000000000E+00 0. -1.
         21   -1    0    0  501  502  0.00000000000E+00 -0.00000000000E+00 -0.58465791597E+02  0.58465791597E+02  0.00000000000E+00 0. -1.
         23    2    1    2    0    0  0.80730702644E+02 -0.55167725431E+02  0.17602348949E+03  0.21914680953E+03  0.86487750565E+02 0.  0.
         24    2    1    2    0    0  0.10301814522E+03  0.12692656974E+02  0.77461711178E+03  0.78559683588E+03  0.79730025088E+02 0.  0.
        -11    1    4    4    0    0  0.98386444223E+01  0.18295111105E+02  0.39996662870E+02  0.45069313897E+02  0.00000000000E+00 0.  1.
         12    1    4    4    0    0  0.93179500795E+02 -0.56024541314E+01  0.73462044891E+03  0.74052752198E+03  0.00000000000E+00 0. -1.
        -13    1    3    3    0    0  0.96829229984E+02 -0.34300333775E+02  0.15218233124E+03  0.18360793724E+03  0.00000000000E+00 0. -1.
         13    1    3    3    0    0 -0.16098527340E+02 -0.20867391656E+02  0.23841158245E+02  0.35538872288E+02  0.00000000000E+00 0.  1.
          1    1    1    2  501    0 -0.18374884786E+03  0.42475068458E+02  0.25163998471E+03  0.31446852376E+03  0.00000000000E+00 0. -1.
<scales pt_clust_5="13000.00000" pt_clust_6="13000.00000" pt_clust_7="13000.00000" pt_clust_8="13000.00000" pt_clust_9="164.61743"></scales>
<clustering>
<clus scale="   79.730">  5  6 -1 -1</clus>
<clus scale="   86.488">  7  8 -1 -1</clus>
<clus scale="  130.541">  1  7  2 -1</clus>
<clus scale="  164.617">  2  9  1 -1</clus>
<clus scale="  164.617">  2  5  1 -1</clus>
</clustering>
</event>
<event>
 9    2  0.1302972E-004  0.2354640E+03  0.7546771E-02  0.1122852E+00
         21   -1    0    0  501  502  0.00000000000E+00  0.00000000000E+00  0.69699527927E+02  0.69699527927E+02  0.00000000000E+00 0. -1.
         -3   -1    0    0    0  501 -0.00000000000E+00 -0.00000000000E+00 -0.53540563585E+03  0.53540563585E+03  0.00000000000E+00 0.  1.
         24    2    1    2    0    0 -0.13981345123E+02  0.81359215730E+02 -0.20217212632E+03  0.23261678097E+03  0.80138618238E+02 0.  0.
         23    2    1    2    0    0  0.29858147882E+02  0.65572927635E+02 -0.12037069067E+03  0.16672916554E+03  0.90101019056E+02 0.  0.
        -11    1    3    3    0    0 -0.41678875682E+02  0.33578499662E+02 -0.61709332493E+02  0.81686510725E+02  0.00000000000E+00 0.  1.
         12    1    3    3    0    0  0.27697530559E+02  0.47780716068E+02 -0.14046279383E+03  0.15093027025E+03  0.00000000000E+00 0. -1.
        -13    1    4    4    0    0  0.23575990302E+02  0.10363675756E+02  0.79021829959E+01  0.26938403628E+02  0.00000000000E+00 0.  1.
         13    1    4    4    0    0  0.62821575796E+01  0.55209251879E+02 -0.12827287366E+03  0.13979076191E+03  0.00000000000E+00 0. -1.
         -4    1    1    2    0  502 -0.15876802759E+02 -0.14693214336E+03 -0.14316329093E+03  0.20575921727E+03  0.00000000000E+00 0.  1.
<scales pt_clust_5="13000.00000" pt_clust_6="13000.00000" pt_clust_7="13000.00000" pt_clust_8="13000.00000" pt_clust_9="147.78744"></scales>
<clustering>
<clus scale="   80.139">  5  6 -1 -1</clus>
<clus scale="   90.101">  7  8 -1 -1</clus>
<clus scale="  108.763">  5  7 -1 -1</clus>
<clus scale="  147.787">  1  9  2 -1</clus>
<clus scale="  147.787">  1  5  2 -1</clus>
</clustering>
</event>
<event>
 9    2  0.1302972E-004  0.5887030E+03  0.7546771E-02  0.9929125E-01
         21   -1    0    0  501  502  0.00000000000E+00  0.00000000000E+00  0.65681944665E+03  0.65681944665E+03  0.00000000000E+00 0. -1.
          4   -1    0    0  502    0 -0.00000000000E+00 -0.00000000000E+00 -0.51331454128E+03  0.51331454128E+03  0.00000000000E+00 0. -1.
         24    2    1    2    0    0  0.13605931965E+03  0.66591316314E+02  0.32629558432E+02  0.17467534169E+03  0.80624097144E+02 0.  0.
         23    2    1    2    0    0  0.36794951582E+03 -0.12643550482E+03 -0.14873485788E+03  0.42536769597E+03  0.86271871172E+02 0.  0.
        -11    1    3    3    0    0  0.13017432492E+03  0.54969152174E+02  0.52645910102E+02  0.15079308476E+03  0.00000000000E+00 0.  1.
         12    1    3    3    0    0  0.58849947271E+01  0.11622164139E+02 -0.20016351670E+02  0.23882256937E+02  0.00000000000E+00 0. -1.
        -13    1    4    4    0    0  0.40876338888E+02  0.25623535533E+01  0.57027721195E+01  0.41351690974E+02  0.00000000000E+00 0.  1.
         13    1    4    4    0    0  0.32707317693E+03 -0.12899785837E+03 -0.15443763000E+03  0.38401600500E+03  0.00000000000E+00 0. -1.
          3    1    1    2  501    0 -0.50400883547E+03  0.59844188504E+02  0.25961020482E+03  0.57009095026E+03  0.00000000000E+00 0. -1.
<scales pt_clust_5="13000.00000" pt_clust_6="13000.00000" pt_clust_7="13000.00000" pt_clust_8="13000.00000" pt_clust_9="507.54924"></scales>
<clustering>
<clus scale="   80.624">  5  6 -1 -1</clus>
<clus scale="   86.272">  7  8 -1 -1</clus>
<clus scale="  169.329">  5  7 -1 -1</clus>
<clus scale="  507.549">  1  9  2 -1</clus>
<clus scale="  507.549">  1  5  2 -1</clus>
</clustering>
</event>
<event>
 9    2  0.1302972E-004  0.1562881E+03  0.7546771E-02  0.1194915E+00
         -1   -1    0    0    0  501 -0.00000000000E+00  0.00000000000E+00  0.72413144330E+03  0.72413144330E+03  0.00000000000E+00 0.  1.
         21   -1    0    0  501  502  0.00000000000E+00 -0.00000000000E+00 -0.71064733617E+02  0.71064733617E+02  0.00000000000E+00 0.  1.
         23    2    1    2    0    0 -0.36336239419E+02  0.13203134321E+03  0.49597342734E+03  0.52263182689E+03  0.91661267516E+02 0.  0.
         24    2    1    2    0    0  0.57102480114E+02 -0.73501698234E+02  0.23033584192E+02  0.12481808523E+03  0.79911297839E+02 0.  0.
        -11    1    4    4    0    0  0.72110160717E+02 -0.47082295449E+02  0.33896067260E+02  0.92550317121E+02  0.00000000000E+00 0.  1.
         12    1    4    4    0    0 -0.15007680604E+02 -0.26419402784E+02 -0.10862483068E+02  0.32267768113E+02  0.00000000000E+00 0. -1.
        -13    1    3    3    0    0 -0.59625122062E+02  0.10291087786E+03  0.29226119162E+03  0.31553511388E+03  0.00000000000E+00 0.  1.
         13    1    3    3    0    0  0.23288882642E+02  0.29120465348E+02  0.20371223572E+03  0.20709671301E+03  0.00000000000E+00 0. -1.
         -2    1    1    2    0  502 -0.20766240694E+02 -0.58529644972E+02  0.13405969815E+03  0.14774626480E+03  0.00000000000E+00 0.  1.
<scales pt_clust_5="13000.00000" pt_clust_6="13000.00000" pt_clust_7="13000.00000" pt_clust_8="13000.00000" pt_clust_9="62.10443"></scales>
<clustering>
<clus scale="   62.104">  2  9  1 -1</clus>
<clus scale="   79.911">  5  6 -1 -1</clus>
<clus scale="   91.661">  7  8 -1 -1</clus>
<clus scale="  149.700">  2  5  1 -1</clus>
<clus scale="   62.104">  2  5  1 -1</clus>
</clustering>
</event>
<event>
 9    2  0.1302972E-004  0.2516890E+03  0.7546771E-02  0.1127864E+00
          2   -1    0    0  502    0 -0.00000000000E+00  0.00000000000E+00  0.16347030273E+04  0.16347030273E+04  0.00000000000E+00 0. -1.
         21   -1    0    0  501  502  0.00000000000E+00 -0.00000000000E+00 -0.13105720681E+03  0.13105720681E+03  0.00000000000E+00 0.  1.
         23    2    1    2    0    0  0.11195656450E+03  0.92908169041E+02 -0.72056113568E+01  0.17044298951E+03  0.88502495046E+02 0.  0.
         24    2    1    2    0    0 -0.29227343480E+03 -0.22377987551E+01  0.76394936456E+03  0.82162609959E+03  0.77601852319E+02 0.  0.
        -13    1    4    4    0    0 -0.12228275002E+03 -0.23967678303E+02  0.24094199908E+03  0.27125738235E+03  0.00000000000E+00 0.  1.
         14    1    4    4    0    0 -0.16999068478E+03  0.21729879548E+02  0.52300736548E+03  0.55036871724E+03  0.00000000000E+00 0. -1.
        -13    1    3    3    0    0  0.65522373507E+02  0.76467916060E+02 -0.43056871927E+02  0.10951902956E+03  0.00000000000E+00 0.  1.
         13    1    3    3    0    0  0.46434190989E+02  0.16440252981E+02  0.35851260570E+02  0.60923959945E+02  0.00000000000E+00 0. -1.
          1    1    1    2  501    0  0.18031687030E+03 -0.90670370285E+02  0.74690206728E+03  0.77369114502E+03  0.00000000000E+00 0. -1.
<scales pt_clust_5="13000.00000" pt_clust_6="13000.00000" pt_clust_7="13000.00000" pt_clust_8="13000.00000" pt_clust_9="239.42713"></scales>
<clustering>
<clus scale="   77.602">  5  6 -1 -1</clus>
<clus scale="   88.502">  7  8 -1 -1</clus>
<clus scale="  170.291">  1  7  2 -1</clus>
<clus scale="  239.427">  2  9  1 -1</clus>
<clus scale="  239.427">  2  5  1 -1</clus>
</clustering>
</event>
<event>
 9    2  0.1302972E-004  0.3055296E+03  0.7546771E-02  0.1083041E+00
         21   -1    0    0  501  502  0.00000000000E+00  0.00000000000E+00  0.80627332158E+03  0.80627332158E+03  0.00000000000E+00 0.  1.
         -3   -1    0    0    0  501 -0.00000000000E+00 -0.00000000000E+00 -0.31530333261E+03  0.31530333261E+03  0.00000000000E+00 0.  1.
         23    2    1    2    0    0  0.15336922997E+03  0.20995713210E+03  0.19631952113E+02  0.27694539357E+03  0.93323198904E+02 0.  0.
         24    2    1    2    0    0 -0.27290710085E+03 -0.19132865524E+03 -0.15834591547E+02  0.34266164741E+03  0.77982884692E+02 0.  0.
        -11    1    4    4    0    0 -0.21999229428E+03 -0.11509587880E+03 -0.24357599087E+02  0.24947337231E+03  0.00000000000E+00 0.  1.
         12    1    4    4    0    0 -0.52914806571E+02 -0.76232776441E+02  0.85230075399E+01  0.93188275099E+02  0.00000000000E+00 0. -1.
        -13    1    3    3    0    0  0.92092295873E+02  0.11607342127E+03 -0.34976721367E+02  0.15224125959E+03  0.00000000000E+00 0.  1.
         13    1    3    3    0    0  0.61276934093E+02  0.93883710831E+02  0.54608673480E+02  0.12470413398E+03  0.00000000000E+00 0. -1.
         -4    1    1    2    0  502  0.11953787088E+03 -0.18628476859E+02  0.48717262841E+03  0.50196961322E+03  0.00000000000E+00 0.  1.
<scales pt_clust_5="13000.00000" pt_clust_6="13000.00000" pt_clust_7="13000.00000" pt_clust_8="13000.00000" pt_clust_9="120.98067"></scales>
<clustering>
<clus scale="   77.983">  5  6 -1 -1</clus>
<clus scale="   93.323">  7  8 -1 -1</clus>
<clus scale="  120.981">  1  9  2 -1</clus>
<clus scale="  301.198">  1  5  2 -1</clus>
<clus scale="  120.981">  1  5  2 -1</clus>
</clustering>
</event>
<event>
 9    2  0.1302972E-004  0.1742168E+03  0.7546771E-02  0.1199875E+00
          2   -1    0    0  502    0 -0.00000000000E+00  0.00000000000E+00  0.51806440757E+03  0.51806440757E+03  0.00000000000E+00 0. -1.
         21   -1    0    0  501  502  0.00000000000E+00 -0.00000000000E+00 -0.16741458046E+03  0.16741458046E+03  0.00000000000E+00 0. -1.
         24    2    1    2    0    0 -0.46767895770E+02  0.10193342478E+02  0.33515313754E+03  0.34890563150E+03  0.84358602303E+02 0.  0.
         23    2    1    2    0    0 -0.10810061219E+03 -0.90823379775E+02  0.12684190918E+01  0.16139373057E+03  0.78177354223E+02 0.  0.
        -13    1    3    3    0    0  0.23313922179E+02  0.12670015414E+02  0.10541352269E+03  0.10870178942E+03  0.00000000000E+00 0.  1.
         14    1    3    3    0    0 -0.70081817949E+02 -0.24766729357E+01  0.22973961485E+03  0.24020384208E+03  0.00000000000E+00 0. -1.
        -11    1    4    4    0    0 -0.20908631112E+02 -0.12706649300E+01  0.26606427677E+02  0.33862773632E+02  0.00000000000E+00 0.  1.
         11    1    4    4    0    0 -0.87191981074E+02 -0.89552714845E+02 -0.25338008585E+02  0.12753095694E+03  0.00000000000E+00 0. -1.
          1    1    1    2  501    0  0.15486850796E+03  0.80630037296E+02  0.14228270480E+02  0.17517962596E+03  0.00000000000E+00 0. -1.
<scales pt_clust_5="13000.00000" pt_clust_6="13000.00000" pt_clust_7="13000.00000" pt_clust_8="13000.00000" pt_clust_9="155.69146"></scales>
<clustering>
<clus scale="   78.177">  7  8 -1 -1</clus>
<clus scale="   84.359">  5  6 -1 -1</clus>
<clus scale="   96.992">  1  5  2 -1</clus>
<clus scale="  155.691">  2  9  1 -1</clus>
<clus scale="  155.691">  2  5  1 -1</clus>
</clustering>
</event>
<event>
 9    2  0.1302972E-004  0.1577494E+03  0.7546771E-02  0.1191537E+00
         21   -1    0    0  501  502  0.00000000000E+00  0.00000000000E+00  0.63420866468E+02  0.63420866468E+02  0.00000000000E+00 0. -1.
          2   -1    0    0  502    0 -0.00000000000E+00 -0.00000000000E+00 -0.63667441546E+03  0.63667441546E+03  0.00000000000E+00 0. -1.
         23    2    1    2    0    0 -0.12617449433E+03 -0.25014177893E+02 -0.38316635451E+03  0.41409128707E+03  0.90052355266E+02 0.  0.
         24    2    1    2    0    0  0.12395095507E+03  0.51111621556E+02 -0.93254784665E+02  0.18569180076E+03  0.88367148224E+02 0.  0.
        -11    1    4    4    0    0  0.89845595084E+02  0.70306409448E+02 -0.91962894992E+02  0.14653462465E+03  0.00000000000E+00 0.  1.
         12    1    4    4    0    0  0.34105359985E+02 -0.19194787893E+02 -0.12918896731E+01  0.39157176109E+02  0.00000000000E+00 0. -1.
        -11    1    3    3    0    0 -0.12264169014E+03 -0.37602943809E+01 -0.36752791687E+03  0.38746857118E+03  0.00000000000E+00 0. -1.
         11    1    3    3    0    0 -0.35328041940E+01 -0.21253883512E+02 -0.15638437636E+02  0.26622715893E+02  0.00000000000E+00 0.  1.
          1    1    1    2  501    0  0.22235392640E+01 -0.26097443663E+02 -0.96832409819E+02  0.10031219409E+03  0.00000000000E+00 0. -1.
<scales pt_clust_5="13000.00000" pt_clust_6="13000.00000" pt_clust_7="13000.00000" pt_clust_8="13000.00000" pt_clust_9="26.19201"></scales>
<clustering>
<clus scale="   26.192">  1  9  2 -1</clus>
<clus scale="   88.367">  5  6 -1 -1</clus>
<clus scale="   90.052">  7  8 -1 -1</clus>
<clus scale="  156.794">  1  5  2 -1</clus>
<clus scale="   26.192">  1  5  2 -1</clus>
</clustering>
</event>
<event>
 9    2  0.1302972E-004  0.1557093E+03  0.7546771E-02  0.1195229E+00
          2   -1    0    0  502    0 -0.00000000000E+00  0.00000000000E+00  0.12556476897E+04  0.12556476897E+04  0.00000000000E+00 0. -1.
         21   -1    0    0  501  502  0.00000000000E+00 -0.00000000000E+00 -0.33387074919E+02  0.33387074919E+02  0.00000000000E+00 0. -1.
         24    2    1    2    0    0  0.11131189667E+03  0.11080393566E+03  0.76181600477E+03  0.78204727382E+03  0.81033714477E+02 0.  0.
         23    2    1    2    0    0 -0.31133453245E+02 -0.81449961900E+02  0.24895870139E+03  0.27891616838E+03  0.90611289467E+02 0.  0.
        -13    1    3    3    0    0 -0.15754631496E+01  0.37450468552E+02  0.10279427832E+03  0.10941518786E+03  0.00000000000E+00 0.  1.
         14    1    3    3    0    0  0.11288735982E+03  0.73353467109E+02  0.65902172644E+03  0.67263208596E+03  0.00000000000E+00 0. -1.
        -11    1    4    4    0    0  0.24108520868E+02 -0.18871142989E+02  0.23788300734E+02  0.38771433659E+02  0.00000000000E+00 0. -1.
         11    1    4    4    0    0 -0.55241974113E+02 -0.62578818911E+02  0.22517040066E+03  0.24014473472E+03  0.00000000000E+00 0.  1.
          1    1    1    2  501    0 -0.80178443421E+02 -0.29353973761E+02  0.21148590867E+03  0.22807132247E+03  0.00000000000E+00 0. -1.
<scales pt_clust_5="13000.00000" pt_clust_6="13000.00000" pt_clust_7="13000.00000" pt_clust_8="13000.00000" pt_clust_9="85.38289"></scales>
<clustering>
<clus scale="   81.034">  5  6 -1 -1</clus>
<clus scale="   85.383">  2  9  1 -1</clus>
<clus scale="   90.611">  7  8 -1 -1</clus>
<clus scale="  150.338">  1  5  2 -1</clus>
<clus scale="   85.383">  2  5  1 -1</clus>
</clustering>
</event>
<event>
 9    2  0.1302972E-004  0.2554649E+03  0.7546771E-02  0.1149068E+00
          2   -1    0    0  502    0 -0.00000000000E+00  0.00000000000E+00  0.94167558663E+03  0.94167558663E+03  0.00000000000E+00 0. -1.
         21   -1    0    0  501  502  0.00000000000E+00 -0.00000000000E+00 -0.11304170032E+03  0.11304170032E+03  0.00000000000E+00 0. -1.
         23    2    1    2    0    0  0.34444449580E+02  0.26035102357E+01  0.21348700855E+03  0.23470036713E+03  0.91183118707E+02 0.  0.
         24    2    1    2    0    0  0.12434159142E+03 -0.20202233323E+03  0.15684820299E+03  0.29559481019E+03  0.80629266100E+02 0.  0.
        -13    1    4    4    0    0  0.88875514994E+02 -0.72399730644E+02  0.88535888278E+02  0.14484191961E+03  0.00000000000E+00 0.  1.
         14    1    4    4    0    0  0.35466076422E+02 -0.12962260259E+03  0.68312314708E+02  0.15075289058E+03  0.00000000000E+00 0. -1.
        -11    1    3    3    0    0  0.73831791500E+00 -0.33314222796E+02  0.15353249522E+03  0.15710700061E+03  0.00000000000E+00 0.  1.
         11    1    3    3    0    0  0.33706131665E+02  0.35917733032E+02  0.59954513334E+02  0.77593366515E+02  0.00000000000E+00 0. -1.
          1    1    1    2  501    0 -0.15878604100E+03  0.19941882299E+03  0.45829867477E+03  0.52442210964E+03  0.00000000000E+00 0. -1.
<scales pt_clust_5="13000.00000" pt_clust_6="13000.00000" pt_clust_7="13000.00000" pt_clust_8="13000.00000" pt_clust_9="242.40724"></scales>
<clustering>
<clus scale="   80.629">  5  6 -1 -1</clus>
<clus scale="   91.183">  7  8 -1 -1</clus>
<clus scale="   97.507">  1  7  2 -1</clus>
<clus scale="  242.407">  2  9  1 -1</clus>
<clus scale="  242.407">  2  5  1 -1</clus>
</clustering>
</event>
<event>
 9    2  0.1302972E-004  0.1665120E+03  0.7546771E-02  0.1190283E+00
         21   -1    0    0  501  502  0.00000000000E+00  0.00000000000E+00  0.12595018093E+03  0.12595018093E+03  0.00000000000E+00 0. -1.
          2   -1    0    0  502    0 -0.00000000000E+00 -0.00000000000E+00 -0.10130492336E+04  0.10130492336E+04  0.00000000000E+00 0. -1.
         23    2    1    2    0    0  0.68505851467E+02 -0.73902072967E+02 -0.11876433891E+03  0.18135615347E+03  0.92900581984E+02 0.  0.
         24    2    1    2    0    0 -0.84399235876E+02  0.21345711968E+03 -0.77981417481E+03  0.81671778873E+03  0.78934316024E+02 0.  0.
        -13    1    4    4    0    0 -0.37788819944E+02  0.13629849781E+03 -0.34896272676E+03  0.37653719615E+03  0.00000000000E+00 0.  1.
         14    1    4    4    0    0 -0.46610415933E+02  0.77158621873E+02 -0.43085144804E+03  0.44018059258E+03  0.00000000000E+00 0. -1.
        -11    1    3    3    0    0  0.61954369269E+02 -0.81611772808E+01 -0.26498221326E+02  0.67875654100E+02  0.00000000000E+00 0. -1.
         11    1    3    3    0    0  0.65514821975E+01 -0.65740895686E+02 -0.92266117581E+02  0.11348049937E+03  0.00000000000E+00 0.  1.
          1    1    1    2  501    0  0.15893384410E+02 -0.13955504672E+03  0.11479461007E+02  0.14092547235E+03  0.00000000000E+00 0. -1.
<scales pt_clust_5="13000.00000" pt_clust_6="13000.00000" pt_clust_7="13000.00000" pt_clust_8="13000.00000" pt_clust_9="146.61387"></scales>
<clustering>
<clus scale="   78.934">  5  6 -1 -1</clus>
<clus scale="   92.901">  7  8 -1 -1</clus>
<clus scale="  137.059">  2  7  1 -1</clus>
<clus scale="  146.614">  1  9  2 -1</clus>
<clus scale="  146.614">  1  5  2 -1</clus>
</clustering>
</event>
<event>
 9    2  0.1302972E-004  0.1604763E+03  0.7546771E-02  0.1214248E+00
          2   -1    0    0  502    0 -0.00000000000E+00  0.00000000000E+00  0.19057856673E+03  0.19057856673E+03  0.00000000000E+00 0. -1.
         21   -1    0    0  501  502  0.00000000000E+00 -0.00000000000E+00 -0.25311626636E+03  0.25311626636E+03  0.00000000000E+00 0. -1.
         24    2    1    2    0    0 -0.19191694462E+02  0.61877395568E+02  0.54692753801E+01  0.91324673229E+02  0.64133842459E+02 0.  0.
         23    2    1    2    0    0  0.13674121300E+03  0.69096053163E+01 -0.12407823078E+03  0.20508293529E+03  0.88981464450E+02 0.  0.
        -13    1    3    3    0    0 -0.80979804582E+01  0.24233705677E+02 -0.29312433789E+02  0.38885325676E+02  0.00000000000E+00 0.  1.
         14    1    3    3    0    0 -0.11093714004E+02  0.37643689891E+02  0.34781709169E+02  0.52439347553E+02  0.00000000000E+00 0. -1.
        -11    1    4    4    0    0  0.43098684637E+02 -0.10992990552E+02  0.48405489590E+01  0.44741182069E+02  0.00000000000E+00 0.  1.
         11    1    4    4    0    0  0.93642528367E+02  0.17902595868E+02 -0.12891877974E+03  0.16034175322E+03  0.00000000000E+00 0. -1.
          1    1    1    2  501    0 -0.11754951854E+03 -0.68787000884E+02  0.56071255764E+02  0.14728722457E+03  0.00000000000E+00 0. -1.
<scales pt_clust_5="13000.00000" pt_clust_6="13000.00000" pt_clust_7="13000.00000" pt_clust_8="13000.00000" pt_clust_9="133.54759"></scales>
<clustering>
<clus scale="   64.134">  5  6 -1 -1</clus>
<clus scale="   88.981">  7  8 -1 -1</clus>
<clus scale="   91.161">  1  5  2 -1</clus>
<clus scale="  133.548">  2  9  1 -1</clus>
<clus scale="  133.548">  2  5  1 -1</clus>
</clustering>
</event>
<event>
 9    2  0.1302972E-004  0.9029551E+02  0.7546771E-02  0.1305838E+00
         21   -1    0    0  501  502  0.00000000000E+00  0.00000000000E+00  0.50205539050E+02  0.50205539050E+02  0.00000000000E+00 0.  1.
          2   -1    0    0  502    0 -0.00000000000E+00 -0.00000000000E+00 -0.48225660409E+03  0.48225660409E+03  0.00000000000E+00 0. -1.
         23    2    1    2    0    0 -0.17737814413E+02 -0.10976943947E+02 -0.33335413600E+03  0.34534586637E+03  0.87770519376E+02 0.  0.
         24    2    1    2    0    0  0.35831093738E+02 -0.21122137350E+02 -0.11394484174E+02  0.92356397833E+02  0.81669198517E+02 0.  0.
        -11    1    4    4    0    0  0.40165463625E+02  0.10228893624E+02 -0.33880082800E+02  0.53532744592E+02  0.00000000000E+00 0.  1.
         12    1    4    4    0    0 -0.43343698868E+01 -0.31351030974E+02  0.22485598626E+02  0.38823653242E+02  0.00000000000E+00 0. -1.
        -13    1    3    3    0    0 -0.21825178356E+02  0.35213303903E+02 -0.19742488465E+03  0.20172481320E+03  0.00000000000E+00 0. -1.
         13    1    3    3    0    0  0.40873639432E+01 -0.46190247850E+02 -0.13592925135E+03  0.14362105316E+03  0.00000000000E+00 0.  1.
          1    1    1    2  501    0 -0.18093279325E+02  0.32099081297E+02 -0.87302444873E+02  0.94759878945E+02  0.00000000000E+00 0. -1.
<scales pt_clust_5="13000.00000" pt_clust_6="13000.00000" pt_clust_7="13000.00000" pt_clust_8="13000.00000" pt_clust_9="36.84724"></scales>
<clustering>
<clus scale="   36.847">  1  9  2 -1</clus>
<clus scale="   81.669">  5  6 -1 -1</clus>
<clus scale="   84.377">  1  5  2 -1</clus>
<clus scale="   87.771">  7  8 -1 -1</clus>
<clus scale="   36.847">  1  5  2 -1</clus>
</clustering>
</event>
<event>
 9    2  0.1302972E-004  0.1511719E+03  0.7546771E-02  0.1210933E+00
         21   -1    0    0  501  502  0.00000000000E+00  0.00000000000E+00  0.11509734808E+03  0.11509734808E+03  0.00000000000E+00 0. -1.
          2   -1    0    0  502    0 -0.00000000000E+00 -0.00000000000E+00 -0.43685494067E+03  0.43685494067E+03  0.00000000000E+00 0. -1.
         24    2    1    2    0    0  0.55556348397E+02 -0.64938412571E+02 -0.16467142592E+03  0.20201207022E+03  0.79929298306E+02 0.  0.
         23    2    1    2    0    0  0.54935249411E+02 -0.76122027133E+02 -0.36773936339E+02  0.13411280228E+03  0.88439112942E+02 0.  0.
        -11    1    3    3    0    0  0.63141379472E+02 -0.35422313448E+02 -0.63333606521E+02  0.96191058870E+02  0.00000000000E+00 0.  1.
         12    1    3    3    0    0 -0.75850310744E+01 -0.29516099123E+02 -0.10133781939E+03  0.10582101135E+03  0.00000000000E+00 0. -1.
        -11    1    4    4    0    0  0.73618697987E+02 -0.33926313547E+02 -0.12651364301E+02  0.82041236356E+02  0.00000000000E+00 0. -1.
         11    1    4    4    0    0 -0.18683448576E+02 -0.42195713586E+02 -0.24122572038E+02  0.52071565921E+02  0.00000000000E+00 0.  1.
          1    1    1    2  501    0 -0.11049159781E+03  0.14106043970E+03 -0.12031223034E+03  0.21582741625E+03  0.00000000000E+00 0. -1.
<scales pt_clust_5="13000.00000" pt_clust_6="13000.00000" pt_clust_7="13000.00000" pt_clust_8="13000.00000" pt_clust_9="122.60295"></scales>
<clustering>
<clus scale="   79.929">  5  6 -1 -1</clus>
<clus scale="   88.439">  7  8 -1 -1</clus>
<clus scale="  117.014">  2  5  1 -1</clus>
<clus scale="  122.603">  1  9  2 -1</clus>
<clus scale="  122.603">  1  5  2 -1</clus>
</clustering>
</event>
<event>
 9    2  0.1302972E-004  0.1203394E+03  0.7546771E-02  0.1245293E+00
         21   -1    0    0  501  502  0.00000000000E+00  0.00000000000E+00  0.45247706224E+02  0.45247706224E+02  0.00000000000E+00 0.  1.
          2   -1    0    0  502    0 -0.00000000000E+00 -0.00000000000E+00 -0.12378300639E+04  0.12378300639E+04  0.00000000000E+00 0. -1.
         24    2    1    2    0    0 -0.80812304060E+02 -0.11737368300E+02 -0.10371329704E+04  0.10435370568E+04  0.81586741557E+02 0.  0.
         23    2    1    2    0    0  0.46785014362E+02  0.37451519336E+02 -0.38614547798E+02  0.11516445461E+03  0.90445090712E+02 0.  0.
        -13    1    3    3    0    0 -0.50596770926E+02 -0.77939779596E+01 -0.22165783510E+03  0.22749280248E+03  0.00000000000E+00 0.  1.
         14    1    3    3    0    0 -0.30215533134E+02 -0.39433903400E+01 -0.81547513529E+03  0.81604425434E+03  0.00000000000E+00 0. -1.
        -11    1    4    4    0    0  0.55513170049E+02  0.19013794129E+02  0.12617686627E+02  0.60020350148E+02  0.00000000000E+00 0.  1.
         11    1    4    4    0    0 -0.87281556873E+01  0.18437725207E+02 -0.51232234424E+02  0.55144104459E+02  0.00000000000E+00 0. -1.
          1    1    1    2  501    0  0.34027289698E+02 -0.25714151037E+02 -0.11683483950E+03  0.12437625870E+03  0.00000000000E+00 0. -1.
<scales pt_clust_5="13000.00000" pt_clust_6="13000.00000" pt_clust_7="13000.00000" pt_clust_8="13000.00000" pt_clust_9="42.65063"></scales>
<clustering>
<clus scale="   42.651">  1  9  2 -1</clus>
<clus scale="   81.587">  5  6 -1 -1</clus>
<clus scale="   90.445">  7  8 -1 -1</clus>
<clus scale="  113.832">  2  5  1 -1</clus>
<clus scale="   42.651">  1  5  2 -1</clus>
</clustering>
</event>
<event>
 9    2  0.1302972E-004  0.1087553E+03  0.7546771E-02  0.1266245E+00
         21   -1    0    0  501  502  0.00000000000E+00  0.00000000000E+00  0.28798630297E+03  0.28798630297E+03  0.00000000000E+00 0. -1.
         -3   -1    0    0    0  501 -0.00000000000E+00 -0.00000000000E+00 -0.13075318411E+03  0.13075318411E+03  0.00000000000E+00 0.  1.
         24    2    1    2    0    0  0.36648018333E+02  0.48949229266E+02 -0.87902185651E+02  0.13370151397E+03  0.80063701533E+02 0.  0.
         23    2    1    2    0    0 -0.46937562906E+02 -0.67708934980E+02  0.22584186264E+03  0.25622758982E+03  0.88658875326E+02 0.  0.
        -13    1    3    3    0    0  0.31544238297E+02  0.60857349631E+00 -0.77937557585E+02  0.84081342840E+02  0.00000000000E+00 0.  1.
         14    1    3    3    0    0  0.51037800361E+01  0.48340655769E+02 -0.99646280658E+01  0.49620171134E+02  0.00000000000E+00 0. -1.
        -11    1    4    4    0    0  0.23519956988E+02 -0.15218106311E+02  0.27310858455E+02  0.39123677306E+02  0.00000000000E+00 0.  1.
         11    1    4    4    0    0 -0.70457519894E+02 -0.52490828669E+02  0.19853100419E+03  0.21710391251E+03  0.00000000000E+00 0. -1.
         -4    1    1    2    0  502  0.10289544573E+02  0.18759705715E+02  0.19293441874E+02  0.28810383291E+02  0.00000000000E+00 0.  1.
<scales pt_clust_5="13000.00000" pt_clust_6="13000.00000" pt_clust_7="13000.00000" pt_clust_8="13000.00000" pt_clust_9="21.39629"></scales>
<clustering>
<clus scale="   21.396">  1  9  2 -1</clus>
<clus scale="   80.064">  5  6 -1 -1</clus>
<clus scale="   88.659">  7  8 -1 -1</clus>
<clus scale="  101.870">  2  5  1 -1</clus>
<clus scale="   21.396">  1  5  2 -1</clus>
</clustering>
</event>
<event>
 9    2  0.1302972E-004  0.1344007E+03  0.7546771E-02  0.1245421E+00
         21   -1    0    0  501  502  0.00000000000E+00  0.00000000000E+00  0.12333884734E+03  0.12333884734E+03  0.00000000000E+00 0.  1.
         -1   -1    0    0    0  501 -0.00000000000E+00 -0.00000000000E+00 -0.46297634642E+03  0.46297634642E+03  0.00000000000E+00 0.  1.
         24    2    1    2    0    0  0.83936462439E+01  0.12767675732E+02 -0.52488645068E+02  0.96940845353E+02  0.80056247700E+02 0.  0.
         23    2    1    2    0    0  0.10205153158E+03 -0.20000247554E+02 -0.34210545909E+03  0.36579977237E+03  0.77193285512E+02 0.  0.
        -11    1    3    3    0    0 -0.29631634369E+01 -0.29723715298E+02 -0.19371978105E+01  0.29933799025E+02  0.00000000000E+00 0.  1.
         12    1    3    3    0    0  0.11356809681E+02  0.42491391031E+02 -0.50551447257E+02  0.67007046328E+02  0.00000000000E+00 0. -1.
        -11    1    4    4    0    0  0.60488189161E+02  0.26407952567E+02 -0.15095510532E+03  0.16475328467E+03  0.00000000000E+00 0.  1.
         11    1    4    4    0    0  0.41563342418E+02 -0.46408200121E+02 -0.19115035377E+03  0.20104648771E+03  0.00000000000E+00 0. -1.
         -2    1    1    2    0  502 -0.11044517782E+03  0.72325718214E+01  0.54956605081E+02  0.12357457603E+03  0.00000000000E+00 0.  1.
<scales pt_clust_5="13000.00000" pt_clust_6="13000.00000" pt_clust_7="13000.00000" pt_clust_8="13000.00000" pt_clust_9="110.02161"></scales>
<clustering>
<clus scale="   77.193">  7  8 -1 -1</clus>
<clus scale="   80.056">  5  6 -1 -1</clus>
<clus scale="   81.501">  2  5  1 -1</clus>
<clus scale="  110.022">  1  9  2 -1</clus>
<clus scale="  110.022">  1  5  2 -1</clus>
</clustering>
</event>
<event>
 9    2  0.1302972E-004  0.2030595E+03  0.7546771E-02  0.1149341E+00
          4   -1    0    0  502    0 -0.00000000000E+00  0.00000000000E+00  0.38200854542E+03  0.38200854542E+03  0.00000000000E+00 0. -1.
         21   -1    0    0  501  502  0.00000000000E+00 -0.00000000000E+00 -0.33547397649E+03  0.33547397649E+03  0.00000000000E+00 0. -1.
         23    2    1    2    0    0 -0.11351875049E+03 -0.12628087800E+03 -0.72852258374E+02  0.20620647589E+03  0.91543936382E+02 0.  0.
         24    2    1    2    0    0 -0.76215879889E+02  0.18518647697E+03 -0.79561430812E+02  0.23011860087E+03  0.80756780486E+02 0.  0.
        -13    1    4    4    0    0  0.10363836736E+02  0.61921061364E+02 -0.39767920277E+02  0.74317658975E+02  0.00000000000E+00 0.  1.
         14    1    4    4    0    0 -0.86579716624E+02  0.12326541560E+03 -0.39793510535E+02  0.15580094189E+03  0.00000000000E+00 0. -1.
        -11    1    3    3    0    0 -0.12365973271E+02 -0.37072040438E+02  0.18572780527E+02  0.43268945604E+02  0.00000000000E+00 0.  1.
         11    1    3    3    0    0 -0.10115277722E+03 -0.89208837561E+02 -0.91425038901E+02  0.16293753029E+03  0.00000000000E+00 0. -1.
          3    1    1    2  501    0  0.18973463038E+03 -0.58905598966E+02  0.19894825811E+03  0.28115744515E+03  0.00000000000E+00 0. -1.
<scales pt_clust_5="13000.00000" pt_clust_6="13000.00000" pt_clust_7="13000.00000" pt_clust_8="13000.00000" pt_clust_9="186.31030"></scales>
<clustering>
<clus scale="   80.757">  5  6 -1 -1</clus>
<clus scale="   91.544">  7  8 -1 -1</clus>
<clus scale="  192.909">  1  7  2 -1</clus>
<clus scale="  186.310">  2  9  1 -1</clus>
<clus scale="  186.310">  2  5  1 -1</clus>
</clustering>
</event>
<event>
 9    2  0.1302972E-004  0.9432318E+02  0.7546771E-02  0.1298400E+00
          2   -1    0    0  502    0 -0.00000000000E+00  0.00000000000E+00  0.24627239382E+03  0.24627239382E+03  0.00000000000E+00 0. -1.
         21   -1    0    0  501  502  0.00000000000E+00 -0.00000000000E+00 -0.80308285056E+02  0.80308285056E+02  0.00000000000E+00 0.  1.
         24    2    1    2    0    0 -0.19035094918E+02 -0.28603006166E+02  0.96191430003E+02  0.12978025088E+03  0.80060324212E+02 0.  0.
         23    2    1    2    0    0  0.36758226045E+00  0.62375914189E+01 -0.28233442307E+02  0.94556173522E+02  0.90026107453E+02 0.  0.
        -13    1    3    3    0    0  0.30942567826E+02 -0.18390590107E+02  0.43110477758E+02  0.56161994273E+02  0.00000000000E+00 0.  1.
         14    1    3    3    0    0 -0.49977662744E+02 -0.10212416059E+02  0.53080952244E+02  0.73618256610E+02  0.00000000000E+00 0. -1.
        -13    1    4    4    0    0 -0.26383206089E+02 -0.12300660563E+02 -0.48247121258E+02  0.56348598239E+02  0.00000000000E+00 0.  1.
         13    1    4    4    0    0  0.26750788349E+02  0.18538251982E+02  0.20013678951E+02  0.38207575283E+02  0.00000000000E+00 0. -1.
          1    1    1    2  501    0  0.18667512658E+02  0.22365414747E+02  0.98006121069E+02  0.10224425447E+03  0.00000000000E+00 0. -1.
<scales pt_clust_5="13000.00000" pt_clust_6="13000.00000" pt_clust_7="13000.00000" pt_clust_8="13000.00000" pt_clust_9="29.13226"></scales>
<clustering>
<clus scale="   29.132">  2  9  1 -1</clus>
<clus scale="   80.060">  5  6 -1 -1</clus>
<clus scale="   84.864">  1  5  2 -1</clus>
<clus scale="   90.026">  7  8 -1 -1</clus>
<clus scale="   29.132">  2  5  1 -1</clus>
</clustering>
</event>
<event>
 9    2  0.1302972E-004  0.2104607E+03  0.7546771E-02  0.1141699E+00
         21   -1    0    0  501  502  0.00000000000E+00  0.00000000000E+00  0.15695604498E+03  0.15695604498E+03  0.00000000000E+00 0. -1.
          2   -1    0    0  502    0 -0.00000000000E+00 -0.00000000000E+00 -0.43287969465E+03  0.43287969465E+03  0.00000000000E+00 0. -1.
         23    2    1    2    0    0  0.48136758531E+02  0.18547913800E+03 -0.19479766039E+03  0.28685916584E+03  0.87306324967E+02 0.  0.
         24    2    1    2    0    0  0.41932919320E+01 -0.19625088860E+03 -0.81568562209E+01  0.21253897556E+03  0.81081976160E+02 0.  0.
        -13    1    4    4    0    0 -0.36656468742E+02 -0.64252025971E+02  0.19072766302E+01  0.73997684059E+02  0.00000000000E+00 0.  1.
         14    1    4    4    0    0  0.40849760674E+02 -0.13199886262E+03 -0.10064132851E+02  0.13854129150E+03  0.00000000000E+00 0. -1.
        -11    1    3    3    0    0 -0.18865821252E+02  0.77019516557E+01 -0.15200296826E+02  0.25422200818E+02  0.00000000000E+00 0.  1.
         11    1    3    3    0    0  0.67002579783E+02  0.17777718634E+03 -0.17959736356E+03  0.26143696502E+03  0.00000000000E+00 0. -1.
          1    1    1    2  501    0 -0.52330050463E+02  0.10771750596E+02 -0.72969133067E+02  0.90437598226E+02  0.00000000000E+00 0. -1.
<scales pt_clust_5="13000.00000" pt_clust_6="13000.00000" pt_clust_7="13000.00000" pt_clust_8="13000.00000" pt_clust_9="53.42722"></scales>
<clustering>
<clus scale="   53.427">  1  9  2 -1</clus>
<clus scale="   81.082">  5  6 -1 -1</clus>
<clus scale="   87.306">  7  8 -1 -1</clus>
<clus scale="  207.956">  1  5  2 -1</clus>
<clus scale="   53.427">  1  5  2 -1</clus>
</clustering>
</event>
<event>
 9    2  0.1302972E-004  0.1314856E+03  0.7546771E-02  0.1228302E+00
         21   -1    0    0  501  502  0.00000000000E+00  0.00000000000E+00  0.33351673493E+03  0.33351673493E+03  0.00000000000E+00 0.  1.
         -3   -1    0    0    0  501 -0.00000000000E+00 -0.00000000000E+00 -0.11417862388E+03  0.11417862388E+03  0.00000000000E+00 0.  1.
         23    2    1    2    0    0  0.71242265482E+02  0.49758529497E+02 -0.12954218618E+02  0.12627592831E+03  0.90699650725E+02 0.  0.
         24    2    1    2    0    0 -0.10182916448E+03 -0.47006886976E+02  0.65494615788E+02  0.15181811187E+03  0.78615318060E+02 0.  0.
        -13    1    4    4    0    0 -0.72661329485E+02 -0.28887938720E+02  0.82356471711E+02  0.11356394779E+03  0.00000000000E+00 0.  1.
         14    1    4    4    0    0 -0.29167834996E+02 -0.18118948257E+02 -0.16861855923E+02  0.38254164080E+02  0.00000000000E+00 0. -1.
        -11    1    3    3    0    0  0.74240923162E+01 -0.25264115604E+02 -0.85401901704E+01  0.27682621482E+02  0.00000000000E+00 0.  1.
         11    1    3    3    0    0  0.63818173166E+02  0.75022645100E+02 -0.44140284473E+01  0.98593306828E+02  0.00000000000E+00 0. -1.
         -4    1    1    2    0  502  0.30586898998E+02 -0.27516425202E+01  0.16679771387E+03  0.16960131863E+03  0.00000000000E+00 0.  1.
<scales pt_clust_5="13000.00000" pt_clust_6="13000.00000" pt_clust_7="13000.00000" pt_clust_8="13000.00000" pt_clust_9="30.71042"></scales>
<clustering>
<clus scale="   30.710">  1  9  2 -1</clus>
<clus scale="   78.615">  5  6 -1 -1</clus>
<clus scale="   90.700">  7  8 -1 -1</clus>
<clus scale="  123.460">  1  5  2 -1</clus>
<clus scale="   30.710">  1  5  2 -1</clus>
</clustering>
</event>
<event>
 9    2  0.1302972E-004  0.1058551E+03  0.7546771E-02  0.1272797E+00
         21   -1    0    0  501  502  0.00000000000E+00  0.00000000000E+00  0.20350266459E+03  0.20350266459E+03  0.00000000000E+00 0.  1.
          2   -1    0    0  502    0 -0.00000000000E+00 -0.00000000000E+00 -0.20609517659E+03  0.20609517659E+03  0.00000000000E+00 0. -1.
         24    2    1    2    0    0 -0.50827021826E+02 -0.82420694586E+01 -0.12202003756E+03  0.15529498122E+03  0.81094536005E+02 0.  0.
         23    2    1    2    0    0  0.80222980565E+02 -0.23156305465E+01  0.16139288364E+03  0.20198958536E+03  0.91164910750E+02 0.  0.
        -13    1    3    3    0    0 -0.31659530432E+02  0.35925232554E+02 -0.62743831520E+02  0.78928680434E+02  0.00000000000E+00 0.  1.
         14    1    3    3    0    0 -0.19167491393E+02 -0.44167302013E+02 -0.59276206036E+02  0.76366300784E+02  0.00000000000E+00 0. -1.
        -13    1    4    4    0    0  0.74002024704E+02 -0.39412548455E+02  0.11116054531E+03  0.13923474951E+03  0.00000000000E+00 0.  1.
         13    1    4    4    0    0  0.62209558606E+01  0.37096917909E+02  0.50232338322E+02  0.62754835857E+02  0.00000000000E+00 0. -1.
          1    1    1    2  501    0 -0.29395958739E+02  0.10557700005E+02 -0.41965358085E+02  0.52313274594E+02  0.00000000000E+00 0. -1.
<scales pt_clust_5="13000.00000" pt_clust_6="13000.00000" pt_clust_7="13000.00000" pt_clust_8="13000.00000" pt_clust_9="31.23441"></scales>
<clustering>
<clus scale="   31.234">  1  9  2 -1</clus>
<clus scale="   81.095">  5  6 -1 -1</clus>
<clus scale="   91.165">  7  8 -1 -1</clus>
<clus scale="   97.317">  2  5  1 -1</clus>
<clus scale="   31.234">  1  5  2 -1</clus>
</clustering>
</event>
<event>
 9    2  0.1302972E-004  0.8589719E+02  0.7546771E-02  0.1316240E+00
         -3   -1    0    0    0  501 -0.00000000000E+00  0.00000000000E+00  0.23816803387E+03  0.23816803387E+03  0.00000000000E+00 0.  1.
         21   -1    0    0  501  502  0.00000000000E+00 -0.00000000000E+00 -0.14279811129E+03  0.14279811129E+03  0.00000000000E+00 0.  1.
         23    2    1    2    0    0  0.68635256127E+01 -0.77521056583E+01  0.19226204367E+03  0.21032997346E+03  0.84656961750E+02 0.  0.
         24    2    1    2    0    0 -0.42984155742E+02  0.28219213275E+02 -0.47772398486E+02  0.10632171326E+03  0.79863276989E+02 0.  0.
        -13    1    4    4    0    0 -0.45357745177E+02 -0.20247909026E+01  0.47672845927E+01  0.45652511740E+02  0.00000000000E+00 0.  1.
         14    1    4    4    0    0  0.23735894351E+01  0.30244004178E+02 -0.52539683078E+02  0.60669201523E+02  0.00000000000E+00 0. -1.
        -13    1    3    3    0    0 -0.24837384753E+01  0.34645003868E+02  0.45265944204E+02  0.57056559259E+02  0.00000000000E+00 0.  1.
         13    1    3    3    0    0  0.93472640880E+01 -0.42397109526E+02  0.14699609947E+03  0.15327341420E+03  0.00000000000E+00 0. -1.
         -4    1    1    2    0  502  0.36120630129E+02 -0.20467107617E+02 -0.49119722604E+02  0.64314458435E+02  0.00000000000E+00 0.  1.
<scales pt_clust_5="13000.00000" pt_clust_6="13000.00000" pt_clust_7="13000.00000" pt_clust_8="13000.00000" pt_clust_9="41.51629"></scales>
<clustering>
<clus scale="   41.516">  2  9  1 -1</clus>
<clus scale="   79.863">  5  6 -1 -1</clus>
<clus scale="   81.177">  2  5  1 -1</clus>
<clus scale="   84.657">  7  8 -1 -1</clus>
<clus scale="   41.516">  2  5  1 -1</clus>
</clustering>
</event>
<event>
 9    2  0.1302972E-004  0.1122877E+03  0.7546771E-02  0.1261832E+00
         21   -1    0    0  501  502  0.00000000000E+00  0.00000000000E+00  0.10939486192E+03  0.10939486192E+03  0.00000000000E+00 0. -1.
          4   -1    0    0  502    0 -0.00000000000E+00 -0.00000000000E+00 -0.18346615268E+03  0.18346615268E+03  0.00000000000E+00 0. -1.
         23    2    1    2    0    0 -0.56703296054E+02  0.10670173400E+02 -0.63397795806E+02  0.12248958106E+03  0.87494574525E+02 0.  0.
         24    2    1    2    0    0  0.96093994425E+02 -0.24967898076E+02  0.10805169497E+02  0.12328231510E+03  0.72279497983E+02 0.  0.
        -13    1    4    4    0    0  0.17983198663E+02 -0.38150776964E+02 -0.51061369175E+01  0.42484701380E+02  0.00000000000E+00 0.  1.
         14    1    4    4    0    0  0.78110795762E+02  0.13182878888E+02  0.15911306414E+02  0.80797613716E+02  0.00000000000E+00 0. -1.
        -13    1    3    3    0    0 -0.34136236219E+01  0.31143305741E+02 -0.57003062413E+02  0.65045425997E+02  0.00000000000E+00 0.  1.
         13    1    3    3    0    0 -0.53289672432E+02 -0.20473132340E+02 -0.63947333935E+01  0.57444155063E+02  0.00000000000E+00 0. -1.
          3    1    1    2  501    0 -0.39390698371E+02  0.14297724676E+02 -0.21478664447E+02  0.47089118441E+02  0.00000000000E+00 0. -1.
<scales pt_clust_5="13000.00000" pt_clust_6="13000.00000" pt_clust_7="13000.00000" pt_clust_8="13000.00000" pt_clust_9="41.90530"></scales>
<clustering>
<clus scale="   41.905">  1  9  2 -1</clus>
<clus scale="   72.279">  5  6 -1 -1</clus>
<clus scale="   87.495">  7  8 -1 -1</clus>
<clus scale="  100.884">  1  5  2 -1</clus>
<clus scale="   41.905">  1  5  2 -1</clus>
</clustering>
</event>
<event>
 9    2  0.1302972E-004  0.1299964E+03  0.7546771E-02  0.1229866E+00
         21   -1    0    0  501  502  0.00000000000E+00  0.00000000000E+00  0.46966726620E+02  0.46966726620E+02  0.00000000000E+00 0.  1.
          4   -1    0    0  502    0 -0.00000000000E+00 -0.00000000000E+00 -0.52881302096E+03  0.52881302096E+03  0.00000000000E+00 0. -1.
         24    2    1    2    0    0 -0.95722660619E+02 -0.15235319884E+02 -0.37159150145E+03  0.39246538977E+03  0.80956133124E+02 0.  0.
         23    2    1    2    0    0  0.79658193509E+02  0.29879197908E+02 -0.99621561759E+02  0.15911568281E+03  0.90305872951E+02 0.  0.
        -13    1    3    3    0    0 -0.84748325532E+02  0.21725450581E+02 -0.24639760814E+03  0.26146903293E+03  0.00000000000E+00 0.  1.
         14    1    3    3    0    0 -0.10974335087E+02 -0.36960770465E+02 -0.12519389331E+03  0.13099635684E+03  0.00000000000E+00 0. -1.
        -13    1    4    4    0    0  0.52410040541E+02  0.48787952335E+02 -0.10336008962E+03  0.12573935251E+03  0.00000000000E+00 0. -1.
         13    1    4    4    0    0  0.27248152968E+02 -0.18908754427E+02  0.37385278628E+01  0.33376330306E+02  0.00000000000E+00 0.  1.
          3    1    1    2  501    0  0.16064467111E+02 -0.14643878025E+02 -0.10633231130E+02  0.24198674993E+02  0.00000000000E+00 0. -1.
<scales pt_clust_5="13000.00000" pt_clust_6="13000.00000" pt_clust_7="13000.00000" pt_clust_8="13000.00000" pt_clust_9="21.73730"></scales>
<clustering>
<clus scale="   21.737">  1  9  2 -1</clus>
<clus scale="   80.956">  5  6 -1 -1</clus>
<clus scale="   90.306">  7  8 -1 -1</clus>
<clus scale="  123.684">  2  5  1 -1</clus>
<clus scale="   21.737">  1  5  2 -1</clus>
</clustering>
</event>
<event>
 9    2  0.1302972E-004  0.1164084E+03  0.7546771E-02  0.1251487E+00
          2   -1    0    0  502    0 -0.00000000000E+00  0.00000000000E+00  0.43343895730E+03  0.43343895730E+03  0.00000000000E+00 0. -1.
         21   -1    0    0  501  502  0.00000000000E+00 -0.00000000000E+00 -0.11490510803E+03  0.11490510803E+03  0.00000000000E+00 0.  1.
         24    2    1    2    0    0 -0.72631175023E+02  0.20780191282E+01  0.35149533956E+03  0.36840799242E+03  0.83041371614E+02 0.  0.
         23    2    1    2    0    0  0.81061552138E+02  0.22297499696E+02  0.16369009766E+02  0.12426978677E+03  0.90038223524E+02 0.  0.
        -13    1    3    3    0    0  0.71205048730E+01 -0.24899191310E+02  0.72501546372E+02  0.76987957135E+02  0.00000000000E+00 0.  1.
         14    1    3    3    0    0 -0.79751679896E+02  0.26977210438E+02  0.27899379319E+03  0.29142003529E+03  0.00000000000E+00 0. -1.
        -13    1    4    4    0    0  0.18396405079E+02  0.35917863344E+02  0.39140689344E+02  0.56218450613E+02  0.00000000000E+00 0. -1.
         13    1    4    4    0    0  0.62665147059E+02 -0.13620363648E+02 -0.22771679578E+02  0.68051336156E+02  0.00000000000E+00 0.  1.
          1    1    1    2  501    0 -0.84303771152E+01 -0.24375518825E+02 -0.49330500062E+02  0.55666286140E+02  0.00000000000E+00 0. -1.
<scales pt_clust_5="13000.00000" pt_clust_6="13000.00000" pt_clust_7="13000.00000" pt_clust_8="13000.00000" pt_clust_9="25.79219"></scales>
<clustering>
<clus scale="   25.792">  2  9  1 -1</clus>
<clus scale="   83.041">  5  6 -1 -1</clus>
<clus scale="   90.038">  7  8 -1 -1</clus>
<clus scale="  111.085">  1  5  2 -1</clus>
<clus scale="   25.792">  2  5  1 -1</clus>
</clustering>
</event>
<event>
 9    2  0.1302972E-004  0.9823818E+02  0.7546771E-02  0.1291046E+00
         21   -1    0    0  501  502  0.00000000000E+00  0.00000000000E+00  0.95358820781E+02  0.95358820781E+02  0.00000000000E+00 0.  1.
          2   -1    0    0  502    0 -0.00000000000E+00 -0.00000000000E+00 -0.33130647258E+03  0.33130647258E+03  0.00000000000E+00 0. -1.
         24    2    1    2    0    0  0.20846833463E+02  0.25243987163E+02 -0.28262866983E+03  0.29560958097E+03  0.80213527536E+02 0.  0.
         23    2    1    2    0    0  0.51471218048E+01 -0.24449410691E+02  0.38380097708E+02  0.10375695161E+03  0.93103203822E+02 0.  0.
        -11    1    3    3    0    0 -0.29297621175E+02 -0.16502478305E+01 -0.10988543305E+03  0.11373602033E+03  0.00000000000E+00 0.  1.
         12    1    3    3    0    0  0.50144454638E+02  0.26894234993E+02 -0.17274323678E+03  0.18187356064E+03  0.00000000000E+00 0. -1.
        -13    1    4    4    0    0  0.38759527655E+02 -0.41647642406E+02  0.13292616992E+02  0.58425343547E+02  0.00000000000E+00 0. -1.
         13    1    4    4    0    0 -0.33612405851E+02  0.17198231715E+02  0.25087480715E+02  0.45331608066E+02  0.00000000000E+00 0.  1.
          1    1    1    2  501    0 -0.25993955268E+02 -0.79457647171E+00  0.83009203162E+01  0.27298760784E+02  0.00000000000E+00 0. -1.
<scales pt_clust_5="13000.00000" pt_clust_6="13000.00000" pt_clust_7="13000.00000" pt_clust_8="13000.00000" pt_clust_9="26.00610"></scales>
<clustering>
<clus scale="   26.006">  1  9  2 -1</clus>
<clus scale="   80.214">  5  6 -1 -1</clus>
<clus scale="   86.121">  2  5  1 -1</clus>
<clus scale="   93.103">  7  8 -1 -1</clus>
<clus scale="   26.006">  1  5  2 -1</clus>
</clustering>
</event>
<event>
 9    2  0.1302972E-004  0.1179359E+03  0.7546771E-02  0.1252700E+00
         21   -1    0    0  501  502  0.00000000000E+00  0.00000000000E+00  0.13026049858E+03  0.13026049858E+03  0.00000000000E+00 0.  1.
         -1   -1    0    0    0  501 -0.00000000000E+00 -0.00000000000E+00 -0.21963923719E+03  0.21963923719E+03  0.00000000000E+00 0.  1.
         24    2    1    2    0    0  0.46525928488E+02 -0.44847215436E+02 -0.74272434247E+02  0.12428717287E+03  0.75861532387E+02 0.  0.
         23    2    1    2    0    0 -0.43957229188E+02  0.68917745076E+02 -0.85654214645E+02  0.15102706659E+03  0.93758395750E+02 0.  0.
        -13    1    3    3    0    0  0.26696232497E+02 -0.59411497124E+02 -0.75425616942E+02  0.99656602948E+02  0.00000000000E+00 0.  1.
         14    1    3    3    0    0  0.19829695991E+02  0.14564281688E+02  0.11531826948E+01  0.24630569918E+02  0.00000000000E+00 0. -1.
        -11    1    4    4    0    0 -0.39125358253E+02  0.48706960501E+02 -0.10529447455E+03  0.12243401501E+03  0.00000000000E+00 0. -1.
         11    1    4    4    0    0 -0.48318709346E+01  0.20210784575E+02  0.19640259907E+02  0.28593051588E+02  0.00000000000E+00 0.  1.
         -2    1    1    2    0  502 -0.25686993006E+01 -0.24070529640E+02  0.70547910290E+02  0.74585496308E+02  0.00000000000E+00 0.  1.
<scales pt_clust_5="13000.00000" pt_clust_6="13000.00000" pt_clust_7="13000.00000" pt_clust_8="13000.00000" pt_clust_9="24.20720"></scales>
<clustering>
<clus scale="   24.207">  1  9  2 -1</clus>
<clus scale="   75.862">  5  6 -1 -1</clus>
<clus scale="   93.758">  7  8 -1 -1</clus>
<clus scale="  104.275">  2  5  1 -1</clus>
<clus scale="   24.207">  1  5  2 -1</clus>
</clustering>
</event>
<event>
 9    2  0.1302972E-004  0.1050082E+03  0.7546771E-02  0.1274608E+00
          2   -1    0    0  502    0 -0.00000000000E+00  0.00000000000E+00  0.10704407431E+03  0.10704407431E+03  0.00000000000E+00 0. -1.
         21   -1    0    0  501  502  0.00000000000E+00 -0.00000000000E+00 -0.30252859010E+03  0.30252859010E+03  0.00000000000E+00 0.  1.
         24    2    1    2    0    0 -0.53171441941E+02 -0.13211007096E+00  0.55114874559E+02  0.11083165950E+03  0.80117336819E+02 0.  0.
         23    2    1    2    0    0  0.53099005766E+02  0.43946474764E+02 -0.21100442950E+03  0.23968624451E+03  0.90420293526E+02 0.  0.
        -11    1    3    3    0    0 -0.17736320863E+02  0.27661308851E+02 -0.74993482028E+01  0.33704084449E+02  0.00000000000E+00 0.  1.
         12    1    3    3    0    0 -0.35435121079E+02 -0.27793418922E+02  0.62614222762E+02  0.77127575052E+02  0.00000000000E+00 0. -1.
        -13    1    4    4    0    0 -0.10223784644E+02  0.37081366852E+02 -0.13575578231E+03  0.14109991485E+03  0.00000000000E+00 0.  1.
         13    1    4    4    0    0  0.63322790410E+02  0.68651079115E+01 -0.75248647190E+02  0.98586329660E+02  0.00000000000E+00 0. -1.
          1    1    1    2  501    0  0.72436175174E-01 -0.43814364693E+02 -0.39594960848E+02  0.59054760392E+02  0.00000000000E+00 0. -1.
<scales pt_clust_5="13000.00000" pt_clust_6="13000.00000" pt_clust_7="13000.00000" pt_clust_8="13000.00000" pt_clust_9="43.81442"></scales>
<clustering>
<clus scale="   43.814">  2  9  1 -1</clus>
<clus scale="   80.117">  5  6 -1 -1</clus>
<clus scale="   90.420">  7  8 -1 -1</clus>
<clus scale="   96.279">  1  5  2 -1</clus>
<clus scale="   43.814">  2  5  1 -1</clus>
</clustering>
</event>
<event>
 9    2  0.1302972E-004  0.1502756E+03  0.7546771E-02  0.1200284E+00
          4   -1    0    0  502    0 -0.00000000000E+00  0.00000000000E+00  0.12962566585E+04  0.12962566585E+04  0.00000000000E+00 0. -1.
         21   -1    0    0  501  502  0.00000000000E+00 -0.00000000000E+00 -0.37505540269E+02  0.37505540269E+02  0.00000000000E+00 0. -1.
         24    2    1    2    0    0  0.84296597497E+02 -0.71939416831E+02  0.83588650152E+03  0.84804593163E+03  0.90523271524E+02 0.  0.
         23    2    1    2    0    0 -0.10881482785E+03  0.91536101533E+02  0.42170564566E+03  0.45430740080E+03  0.91323809558E+02 0.  0.
        -13    1    3    3    0    0  0.18051338814E+02 -0.54531367388E+02  0.18880858795E+03  0.19735299275E+03  0.00000000000E+00 0.  1.
         14    1    3    3    0    0  0.66245258683E+02 -0.17408049443E+02  0.64707791357E+03  0.65069293888E+03  0.00000000000E+00 0. -1.
        -11    1    4    4    0    0 -0.83178168342E+01  0.55054641313E+02  0.90332430085E+02  0.10611384232E+03  0.00000000000E+00 0. -1.
         11    1    4    4    0    0 -0.10049701101E+03  0.36481460220E+02  0.33137321558E+03  0.34819355848E+03  0.00000000000E+00 0.  1.
          3    1    1    2  501    0  0.24518230350E+02 -0.19596684702E+02  0.11589710454E+01  0.31408866339E+02  0.00000000000E+00 0. -1.
<scales pt_clust_5="13000.00000" pt_clust_6="13000.00000" pt_clust_7="13000.00000" pt_clust_8="13000.00000" pt_clust_9="31.38748"></scales>
<clustering>
<clus scale="   31.387">  2  9  1 -1</clus>
<clus scale="   90.523">  5  6 -1 -1</clus>
<clus scale="   91.324">  7  8 -1 -1</clus>
<clus scale="  149.790">  1  5  2 -1</clus>
<clus scale="   31.387">  2  5  1 -1</clus>
</clustering>
</event>
<event>
 9    2  0.1302972E-004  0.1433402E+03  0.7546771E-02  0.1236202E+00
          2   -1    0    0  502    0 -0.00000000000E+00  0.00000000000E+00  0.27534489743E+03  0.27534489743E+03  0.00000000000E+00 0. -1.
         21   -1    0    0  501  502  0.00000000000E+00 -0.00000000000E+00 -0.10850424173E+03  0.10850424173E+03  0.00000000000E+00 0.  1.
         24    2    1    2    0    0 -0.88574765244E+00 -0.80817775548E+01  0.45696203989E+02  0.92998885792E+02  0.80588771068E+02 0.  0.
         23    2    1    2    0    0 -0.87075023043E+02  0.72351183241E+02  0.27914676584E+02  0.14746460326E+03  0.90276390557E+02 0.  0.
        -13    1    3    3    0    0 -0.29348776764E+02 -0.27066397576E+02  0.43004265943E+02  0.58679702322E+02  0.00000000000E+00 0.  1.
         14    1    3    3    0    0  0.28463029112E+02  0.18984620022E+02  0.26919380459E+01  0.34319183470E+02  0.00000000000E+00 0. -1.
        -11    1    4    4    0    0 -0.38496052185E+02  0.85960212803E+02  0.14837725933E+02  0.95348111307E+02  0.00000000000E+00 0.  1.
         11    1    4    4    0    0 -0.48578970858E+02 -0.13609029562E+02  0.13076950651E+02  0.52116491954E+02  0.00000000000E+00 0. -1.
          1    1    1    2  501    0  0.87960770695E+02 -0.64269405686E+02  0.93229775126E+02  0.14338565011E+03  0.00000000000E+00 0. -1.
<scales pt_clust_5="13000.00000" pt_clust_6="13000.00000" pt_clust_7="13000.00000" pt_clust_8="13000.00000" pt_clust_9="111.33997"></scales>
<clustering>
<clus scale="   80.589">  5  6 -1 -1</clus>
<clus scale="   80.998">  1  5  2 -1</clus>
<clus scale="   90.276">  7  8 -1 -1</clus>
<clus scale="  111.340">  2  9  1 -1</clus>
<clus scale="  111.340">  2  5  1 -1</clus>
</clustering>
</event>
<event>
 9    2  0.1302972E-004  0.1180715E+03  0.7546771E-02  0.1249897E+00
         21   -1    0    0  501  502  0.00000000000E+00  0.00000000000E+00  0.44873595834E+02  0.44873595834E+02  0.00000000000E+00 0.  1.
          2   -1    0    0  502    0 -0.00000000000E+00 -0.00000000000E+00 -0.10223753603E+04  0.10223753603E+04  0.00000000000E+00 0. -1.
         23    2    1    2    0    0 -0.65132415546E+02  0.55301742847E+01 -0.31570167103E+03  0.33509974312E+03  0.91386423308E+02 0.  0.
         24    2    1    2    0    0  0.10519325599E+03  0.55253024940E+02 -0.12471816640E+03  0.19015616454E+03  0.80537121950E+02 0.  0.
        -13    1    4    4    0    0  0.10875291415E+03  0.68584865170E+02 -0.11909310289E+03  0.17525480656E+03  0.00000000000E+00 0.  1.
         14    1    4    4    0    0 -0.35596581642E+01 -0.13331840229E+02 -0.56250635151E+01  0.14901357982E+02  0.00000000000E+00 0. -1.
        -11    1    3    3    0    0  0.21015085301E+02 -0.73230763290E+01 -0.10060204436E+03  0.10303413311E+03  0.00000000000E+00 0. -1.
         11    1    3    3    0    0 -0.86147500847E+02  0.12853250614E+02 -0.21509962667E+03  0.23206561001E+03  0.00000000000E+00 0.  1.
          1    1    1    2  501    0 -0.40060840444E+02 -0.60783199225E+02 -0.53708192703E+03  0.54199304847E+03  0.00000000000E+00 0. -1.
<scales pt_clust_5="13000.00000" pt_clust_6="13000.00000" pt_clust_7="13000.00000" pt_clust_8="13000.00000" pt_clust_9="72.79748"></scales>
<clustering>
<clus scale="   72.797">  1  9  2 -1</clus>
<clus scale="   80.537">  5  6 -1 -1</clus>
<clus scale="   91.386">  7  8 -1 -1</clus>
<clus scale="  109.889">  1  5  2 -1</clus>
<clus scale="   72.797">  1  5  2 -1</clus>
</clustering>
</event>
<event>
 9    2  0.1302972E-004  0.1255258E+03  0.7546771E-02  0.1236606E+00
         21   -1    0    0  501  502  0.00000000000E+00  0.00000000000E+00  0.12416729174E+03  0.12416729174E+03  0.00000000000E+00 0. -1.
          2   -1    0    0  502    0 -0.00000000000E+00 -0.00000000000E+00 -0.17255701900E+03  0.17255701900E+03  0.00000000000E+00 0. -1.
         23    2    1    2    0    0  0.92976222554E+02  0.32565657282E+01 -0.75902136349E+02  0.15060474195E+03  0.90914634772E+02 0.  0.
         24    2    1    2    0    0 -0.72090772635E+02 -0.79288903853E+01  0.44732757087E+02  0.11865007622E+03  0.82564364162E+02 0.  0.
        -11    1    4    4    0    0 -0.26275957290E+02 -0.43073405519E+02  0.10542954320E+02  0.51545107239E+02  0.00000000000E+00 0.  1.
         12    1    4    4    0    0 -0.45814815346E+02  0.35144515134E+02  0.34189802767E+02  0.67104968985E+02  0.00000000000E+00 0. -1.
        -13    1    3    3    0    0  0.93649444210E+01 -0.21977267818E+02  0.11963752967E+02  0.26717669618E+02  0.00000000000E+00 0.  1.
         13    1    3    3    0    0  0.83611278133E+02  0.25233833546E+02 -0.87865889316E+02  0.12388707233E+03  0.00000000000E+00 0. -1.
          1    1    1    2  501    0 -0.20885449918E+02  0.46723246571E+01 -0.17220347998E+02  0.27469492554E+02  0.00000000000E+00 0. -1.
<scales pt_clust_5="13000.00000" pt_clust_6="13000.00000" pt_clust_7="13000.00000" pt_clust_8="13000.00000" pt_clust_9="21.40171"></scales>
<clustering>
<clus scale="   21.402">  1  9  2 -1</clus>
<clus scale="   82.564">  5  6 -1 -1</clus>
<clus scale="   90.915">  7  8 -1 -1</clus>
<clus scale="  119.617">  1  5  2 -1</clus>
<clus scale="   21.402">  1  5  2 -1</clus>
</clustering>
</event>
<event>
 9    2  0.1302972E-004  0.1636013E+03  0.7546771E-02  0.1184941E+00
         21   -1    0    0  501  502  0.00000000000E+00  0.00000000000E+00  0.10282644365E+03  0.10282644365E+03  0.00000000000E+00 0.  1.
          2   -1    0    0  502    0 -0.00000000000E+00 -0.00000000000E+00 -0.46829181517E+03  0.46829181517E+03  0.00000000000E+00 0. -1.
         23    2    1    2    0    0  0.23865895651E+02  0.13723425396E+03 -0.35045533050E+03  0.38702988027E+03  0.87007862332E+02 0.  0.
         24    2    1    2    0    0 -0.43608216684E+02 -0.12446584735E+03 -0.19569908465E+02  0.16013876815E+03  0.88701860331E+02 0.  0.
        -13    1    4    4    0    0 -0.37913721221E+02 -0.10694557113E+03  0.21171804460E+02  0.11542552034E+03  0.00000000000E+00 0.  1.
         14    1    4    4    0    0 -0.56944954638E+01 -0.17520276224E+02 -0.40741712925E+02  0.44713247809E+02  0.00000000000E+00 0. -1.
        -11    1    3    3    0    0  0.42324056069E+02  0.10693126931E+03 -0.18514720919E+03  0.21795667264E+03  0.00000000000E+00 0. -1.
         11    1    3    3    0    0 -0.18458160419E+02  0.30302984650E+02 -0.16530812132E+03  0.16907320763E+03  0.00000000000E+00 0.  1.
          1    1    1    2  501    0  0.19742321034E+02 -0.12768406608E+02  0.45598674487E+01  0.23949610399E+02  0.00000000000E+00 0. -1.
<scales pt_clust_5="13000.00000" pt_clust_6="13000.00000" pt_clust_7="13000.00000" pt_clust_8="13000.00000" pt_clust_9="23.51152"></scales>
<clustering>
<clus scale="   23.512">  1  9  2 -1</clus>
<clus scale="   87.008">  7  8 -1 -1</clus>
<clus scale="   88.702">  5  6 -1 -1</clus>
<clus scale="  162.689">  2  7  1 -1</clus>
<clus scale="   23.512">  1  5  2 -1</clus>
</clustering>
</event>
<event>
 9    2  0.1302972E-004  0.1629407E+03  0.7546771E-02  0.1186798E+00
         21   -1    0    0  501  502  0.00000000000E+00  0.00000000000E+00  0.37381076892E+03  0.37381076892E+03  0.00000000000E+00 0.  1.
         -3   -1    0    0    0  501 -0.00000000000E+00 -0.00000000000E+00 -0.12337886803E+03  0.12337886803E+03  0.00000000000E+00 0.  1.
         24    2    1    2    0    0  0.84396004239E+02  0.91830637140E+02  0.35234329035E+02  0.15337307992E+03  0.82013975962E+02 0.  0.
         23    2    1    2    0    0 -0.10297679846E+03 -0.12823597726E+03  0.23285016497E+03  0.29929455408E+03  0.91155602617E+02 0.  0.
        -13    1    3    3    0    0  0.97170846479E+02  0.62551878076E+02  0.17634376007E+02  0.11690116370E+03  0.00000000000E+00 0.  1.
         14    1    3    3    0    0 -0.12774842240E+02  0.29278759064E+02  0.17599953028E+02  0.36471916226E+02  0.00000000000E+00 0. -1.
        -13    1    4    4    0    0 -0.71194249854E+02 -0.67872986675E+02  0.64439887258E+02  0.11759193256E+03  0.00000000000E+00 0.  1.
         13    1    4    4    0    0 -0.31782548608E+02 -0.60362990585E+02  0.16841027772E+03  0.18170262152E+03  0.00000000000E+00 0. -1.
         -4    1    1    2    0  502  0.18580794223E+02  0.36405340120E+02 -0.17652593113E+02  0.44522002952E+02  0.00000000000E+00 0.  1.
<scales pt_clust_5="13000.00000" pt_clust_6="13000.00000" pt_clust_7="13000.00000" pt_clust_8="13000.00000" pt_clust_9="40.87293"></scales>
<clustering>
<clus scale="   40.873">  1  9  2 -1</clus>
<clus scale="   82.014">  5  6 -1 -1</clus>
<clus scale="   91.156">  7  8 -1 -1</clus>
<clus scale="  158.008">  2  5  1 -1</clus>
<clus scale="   40.873">  1  5  2 -1</clus>
</clustering>
</event>
<event>
 9    2  0.1302972E-004  0.2542981E+03  0.7546771E-02  0.1121633E+00
         21   -1    0    0  501  502  0.00000000000E+00  0.00000000000E+00  0.40103716237E+03  0.40103716237E+03  0.00000000000E+00 0.  1.
         -3   -1    0    0    0  501 -0.00000000000E+00 -0.00000000000E+00 -0.41048411891E+03  0.41048411891E+03  0.00000000000E+00 0.  1.
         24    2    1    2    0    0  0.48975879779E+00  0.17530857273E+03  0.12823201619E+03  0.23145787102E+03  0.79974749421E+02 0.  0.
         23    2    1    2    0    0  0.22826016330E+03 -0.12162257116E+03  0.51127592376E+02  0.27863907041E+03  0.90171774354E+02 0.  0.
        -13    1    3    3    0    0 -0.39448300078E+02  0.76844762763E+02  0.60271449856E+02  0.10532774379E+03  0.00000000000E+00 0.  1.
         14    1    3    3    0    0  0.39938058876E+02  0.98463809967E+02  0.67960566336E+02  0.12613012724E+03  0.00000000000E+00 0. -1.
        -11    1    4    4    0    0  0.22200044521E+02 -0.27177788230E+02 -0.20842214926E+02  0.40815096139E+02  0.00000000000E+00 0. -1.
         11    1    4    4    0    0  0.20606011878E+03 -0.94444782930E+02  0.71969807302E+02  0.23782397427E+03  0.00000000000E+00 0.  1.
         -4    1    1    2    0  502 -0.22874992210E+03 -0.53686001570E+02 -0.18880656511E+03  0.30142433985E+03  0.00000000000E+00 0.  1.
<scales pt_clust_5="13000.00000" pt_clust_6="13000.00000" pt_clust_7="13000.00000" pt_clust_8="13000.00000" pt_clust_9="237.77435"></scales>
<clustering>
<clus scale="   79.975">  5  6 -1 -1</clus>
<clus scale="   90.172">  7  8 -1 -1</clus>
<clus scale="  192.690">  2  5  1 -1</clus>
<clus scale="  237.774">  1  9  2 -1</clus>
<clus scale="  237.774">  1  5  2 -1</clus>
</clustering>
</event>
<event>
 9    2  0.1302972E-004  0.1150200E+03  0.7546771E-02  0.1256913E+00
         21   -1    0    0  501  502  0.00000000000E+00  0.00000000000E+00  0.57494700671E+02  0.57494700671E+02  0.00000000000E+00 0.  1.
          2   -1    0    0  502    0 -0.00000000000E+00 -0.00000000000E+00 -0.59949276502E+03  0.59949276502E+03  0.00000000000E+00 0. -1.
         23    2    1    2    0    0 -0.77367158936E+02  0.23828221018E+02 -0.42770142083E+03  0.44456546903E+03  0.90313285183E+02 0.  0.
         24    2    1    2    0    0  0.18151505912E+02 -0.17742395147E+02  0.47923252860E+01  0.79284048156E+02  0.74958149376E+02 0.  0.
        -13    1    4    4    0    0  0.32141244067E+02 -0.13033613338E+02  0.32728823403E+02  0.47687634961E+02  0.00000000000E+00 0.  1.
         14    1    4    4    0    0 -0.13989738155E+02 -0.47087818088E+01 -0.27936498117E+02  0.31596413195E+02  0.00000000000E+00 0. -1.
        -13    1    3    3    0    0 -0.29627701711E+02  0.53657555177E+02 -0.16797369026E+03  0.17880742310E+03  0.00000000000E+00 0.  1.
         13    1    3    3    0    0 -0.47739457226E+02 -0.29829334160E+02 -0.25972773056E+03  0.26575804593E+03  0.00000000000E+00 0. -1.
          1    1    1    2  501    0  0.59215653025E+02 -0.60858258711E+01 -0.11908896881E+03  0.13313794850E+03  0.00000000000E+00 0. -1.
<scales pt_clust_5="13000.00000" pt_clust_6="13000.00000" pt_clust_7="13000.00000" pt_clust_8="13000.00000" pt_clust_9="59.52759"></scales>
<clustering>
<clus scale="   59.528">  1  9  2 -1</clus>
<clus scale="   74.958">  5  6 -1 -1</clus>
<clus scale="   90.313">  7  8 -1 -1</clus>
<clus scale="  103.401">  1  5  2 -1</clus>
<clus scale="   59.528">  1  5  2 -1</clus>
</clustering>
</event>
<event>
 9    2  0.1302972E-004  0.9728518E+02  0.7546771E-02  0.1292405E+00
         -1   -1    0    0    0  501 -0.00000000000E+00  0.00000000000E+00  0.59078634933E+02  0.59078634933E+02  0.00000000000E+00 0.  1.
         21   -1    0    0  501  502  0.00000000000E+00 -0.00000000000E+00 -0.38698074981E+03  0.38698074981E+03  0.00000000000E+00 0.  1.
         23    2    1    2    0    0  0.12239919563E+02 -0.29586099469E+02 -0.45004999966E+01  0.97425419667E+02  0.91903781121E+02 0.  0.
         24    2    1    2    0    0 -0.31144781294E+02  0.19410955827E+02 -0.15130315859E+03  0.17520154019E+03  0.80350179071E+02 0.  0.
        -11    1    4    4    0    0 -0.18754884693E+02  0.48321381205E+02 -0.12050807038E+03  0.13118268410E+03  0.00000000000E+00 0.  1.
         12    1    4    4    0    0 -0.12389896601E+02 -0.28910425378E+02 -0.30795088214E+02  0.44018856089E+02  0.00000000000E+00 0. -1.
        -11    1    3    3    0    0  0.75757820088E+01 -0.57980399838E+02 -0.23418868581E+02  0.62988591380E+02  0.00000000000E+00 0.  1.
         11    1    3    3    0    0  0.46641375537E+01  0.28394300369E+02  0.18918368585E+02  0.34436828287E+02  0.00000000000E+00 0. -1.
         -2    1    1    2    0  502  0.18904861732E+02  0.10175143642E+02 -0.17209845629E+03  0.17343242488E+03  0.00000000000E+00 0.  1.
<scales pt_clust_5="13000.00000" pt_clust_6="13000.00000" pt_clust_7="13000.00000" pt_clust_8="13000.00000" pt_clust_9="21.46922"></scales>
<clustering>
<clus scale="   21.469">  2  9  1 -1</clus>
<clus scale="   80.350">  5  6 -1 -1</clus>
<clus scale="   86.454">  2  5  1 -1</clus>
<clus scale="   91.904">  7  8 -1 -1</clus>
<clus scale="   21.469">  2  5  1 -1</clus>
</clustering>
</event>
<event>
 9    2  0.1302972E-004  0.9679415E+02  0.7546771E-02  0.1287904E+00
         -1   -1    0    0    0  501 -0.00000000000E+00  0.00000000000E+00  0.60839943073E+03  0.60839943073E+03  0.00000000000E+00 0.  1.
         21   -1    0    0  501  502  0.00000000000E+00 -0.00000000000E+00 -0.39667698085E+02  0.39667698085E+02  0.00000000000E+00 0. -1.
         24    2    1    2    0    0  0.18019706840E+02 -0.58405410610E+02  0.27620224351E+03  0.29690172980E+03  0.90150185902E+02 0.  0.
         23    2    1    2    0    0  0.29721166732E+02 -0.11860398172E+02  0.85265301554E+02  0.12716781343E+03  0.88755080564E+02 0.  0.
        -13    1    3    3    0    0 -0.25023220554E+02  0.88300883332E+01  0.44260967353E+02  0.51605864568E+02  0.00000000000E+00 0.  1.
         14    1    3    3    0    0  0.43042927394E+02 -0.67235498943E+02  0.23194127616E+03  0.24529586523E+03  0.00000000000E+00 0. -1.
        -13    1    4    4    0    0  0.23952999102E+02 -0.42262215411E+02  0.15735698324E+02  0.51063227661E+02  0.00000000000E+00 0. -1.
         13    1    4    4    0    0  0.57681676295E+01  0.30401817239E+02  0.69529603230E+02  0.76104585765E+02  0.00000000000E+00 0.  1.
         -2    1    1    2    0  502 -0.47740873572E+02  0.70265808781E+02  0.20726418758E+03  0.22399758559E+03  0.00000000000E+00 0.  1.
<scales pt_clust_5="13000.00000" pt_clust_6="13000.00000" pt_clust_7="13000.00000" pt_clust_8="13000.00000" pt_clust_9="84.94988"></scales>
<clustering>
<clus scale="   84.950">  2  9  1 -1</clus>
<clus scale="   88.755">  7  8 -1 -1</clus>
<clus scale="   90.150">  5  6 -1 -1</clus>
<clus scale="   95.496">  2  7  1 -1</clus>
<clus scale="   84.950">  2  5  1 -1</clus>
</clustering>
</event>
<event>
 9    2  0.1302972E-004  0.1395587E+03  0.7546771E-02  0.1214997E+00
          2   -1    0    0  502    0 -0.00000000000E+00  0.00000000000E+00  0.76223941376E+03  0.76223941376E+03  0.00000000000E+00 0. -1.
         21   -1    0    0  501  502  0.00000000000E+00 -0.00000000000E+00 -0.44863800341E+02  0.44863800341E+02  0.00000000000E+00 0. -1.
         23    2    1    2    0    0 -0.83290906099E+02 -0.47416467121E-01  0.18813635144E+03  0.22033829703E+03  0.78843522998E+02 0.  0.
         24    2    1    2    0    0  0.15221111451E+03  0.11131534545E+02  0.29804006911E+03  0.34525731970E+03  0.84158181860E+02 0.  0.
        -13    1    4    4    0    0  0.19648349623E+02 -0.28865315169E+02  0.46844611664E+02  0.58426720811E+02  0.00000000000E+00 0.  1.
         14    1    4    4    0    0  0.13256276488E+03  0.39996849714E+02  0.25119545744E+03  0.28683059889E+03  0.00000000000E+00 0. -1.
        -11    1    3    3    0    0 -0.41462712989E+02 -0.87844656013E+01  0.20014689117E+02  0.46871219151E+02  0.00000000000E+00 0. -1.
         11    1    3    3    0    0 -0.41828193111E+02  0.87370491341E+01  0.16812166232E+03  0.17346707788E+03  0.00000000000E+00 0.  1.
          1    1    1    2  501    0 -0.68920208409E+02 -0.11084118077E+02  0.23119919287E+03  0.24150759737E+03  0.00000000000E+00 0. -1.
<scales pt_clust_5="13000.00000" pt_clust_6="13000.00000" pt_clust_7="13000.00000" pt_clust_8="13000.00000" pt_clust_9="69.80586"></scales>
<clustering>
<clus scale="   69.806">  2  9  1 -1</clus>
<clus scale="   78.844">  7  8 -1 -1</clus>
<clus scale="   84.158">  5  6 -1 -1</clus>
<clus scale="  136.420">  1  7  2 -1</clus>
<clus scale="   69.806">  2  5  1 -1</clus>
</clustering>
</event>
<event>
 9    2  0.1302972E-004  0.1010519E+03  0.7546771E-02  0.1283343E+00
         21   -1    0    0  501  502  0.00000000000E+00  0.00000000000E+00  0.31252517471E+03  0.31252517471E+03  0.00000000000E+00 0. -1.
          2   -1    0    0  502    0 -0.00000000000E+00 -0.00000000000E+00 -0.88837861136E+02  0.88837861136E+02  0.00000000000E+00 0. -1.
         24    2    1    2    0    0  0.34429787499E+02  0.46524230191E+01  0.49539995143E+02  0.10092055471E+03  0.80769374993E+02 0.  0.
         23    2    1    2    0    0 -0.66775014774E+02  0.35229463412E+02  0.20764290568E+03  0.23913397473E+03  0.91484774136E+02 0.  0.
        -11    1    3    3    0    0  0.20510042362E+02 -0.34597879092E+02  0.42801099522E+02  0.58733373780E+02  0.00000000000E+00 0.  1.
         12    1    3    3    0    0  0.13919745137E+02  0.39250302111E+02  0.67388956212E+01  0.42187180929E+02  0.00000000000E+00 0. -1.
        -13    1    4    4    0    0 -0.34271988646E+02  0.65384644678E+02  0.13966983352E+03  0.15797905988E+03  0.00000000000E+00 0.  1.
         13    1    4    4    0    0 -0.32503026128E+02 -0.30155181266E+02  0.67973072160E+02  0.81154914845E+02  0.00000000000E+00 0. -1.
          1    1    1    2  501    0  0.32345227275E+02 -0.39881886431E+02 -0.33495587251E+02  0.61308506408E+02  0.00000000000E+00 0. -1.
<scales pt_clust_5="13000.00000" pt_clust_6="13000.00000" pt_clust_7="13000.00000" pt_clust_8="13000.00000" pt_clust_9="51.34960"></scales>
<clustering>
<clus scale="   51.350">  1  9  2 -1</clus>
<clus scale="   80.769">  5  6 -1 -1</clus>
<clus scale="   91.464">  2  5  1 -1</clus>
<clus scale="   91.485">  7  8 -1 -1</clus>
<clus scale="   51.350">  1  5  2 -1</clus>
</clustering>
</event>
<event>
 9    2  0.1302972E-004  0.9844997E+02  0.7546771E-02  0.1289476E+00
         21   -1    0    0  501  502  0.00000000000E+00  0.00000000000E+00  0.31725827396E+03  0.31725827396E+03  0.00000000000E+00 0.  1.
          2   -1    0    0  502    0 -0.00000000000E+00 -0.00000000000E+00 -0.34316548362E+03  0.34316548362E+03  0.00000000000E+00 0. -1.
         23    2    1    2    0    0  0.22479192423E+02  0.23799813200E+02 -0.29747081477E+03  0.31297266864E+03  0.91603823473E+02 0.  0.
         24    2    1    2    0    0 -0.82445211556E+02 -0.33948616855E+02  0.74679934584E+02  0.14138774580E+03  0.80397018214E+02 0.  0.
        -13    1    4    4    0    0 -0.43468417640E+02 -0.60990169327E+01  0.81921083421E+02  0.92939578482E+02  0.00000000000E+00 0.  1.
         14    1    4    4    0    0 -0.38976793917E+02 -0.27849599922E+02 -0.72411488368E+01  0.48448167317E+02  0.00000000000E+00 0. -1.
        -13    1    3    3    0    0 -0.64288999141E+01  0.46320703436E+02 -0.24209100324E+03  0.24656640519E+03  0.00000000000E+00 0. -1.
         13    1    3    3    0    0  0.28908092337E+02 -0.22520890236E+02 -0.55379811531E+02  0.66406263446E+02  0.00000000000E+00 0.  1.
          1    1    1    2  501    0  0.59966019134E+02  0.10148803655E+02  0.19688367053E+03  0.20606334314E+03  0.00000000000E+00 0. -1.
<scales pt_clust_5="13000.00000" pt_clust_6="13000.00000" pt_clust_7="13000.00000" pt_clust_8="13000.00000" pt_clust_9="60.81876"></scales>
<clustering>
<clus scale="   60.819">  1  9  2 -1</clus>
<clus scale="   80.397">  5  6 -1 -1</clus>
<clus scale="   88.118">  1  5  2 -1</clus>
<clus scale="   91.604">  7  8 -1 -1</clus>
<clus scale="   60.819">  1  5  2 -1</clus>
</clustering>
</event>
<event>
 9    2  0.1302972E-004  0.9874586E+02  0.7546771E-02  0.1288338E+00
         -1   -1    0    0    0  501 -0.00000000000E+00  0.00000000000E+00  0.15617566005E+03  0.15617566005E+03  0.00000000000E+00 0.  1.
         21   -1    0    0  501  502  0.00000000000E+00 -0.00000000000E+00 -0.39935464274E+03  0.39935464274E+03  0.00000000000E+00 0. -1.
         23    2    1    2    0    0 -0.13227447728E+02  0.38346449486E+02  0.91949526257E+02  0.13486962115E+03  0.89942669340E+02 0.  0.
         24    2    1    2    0    0  0.79813203623E+02 -0.14968856768E+02 -0.33104099833E+03  0.34997205121E+03  0.79360442973E+02 0.  0.
        -11    1    4    4    0    0  0.34910762317E+02  0.32647308528E+02 -0.12734159657E+03  0.13601650744E+03  0.00000000000E+00 0.  1.
         12    1    4    4    0    0  0.44902441306E+02 -0.47616165296E+02 -0.20369940176E+03  0.21395554377E+03  0.00000000000E+00 0. -1.
        -13    1    3    3    0    0 -0.20471894686E+02  0.31997169975E+01  0.96497466289E+02  0.98696999251E+02  0.00000000000E+00 0.  1.
         13    1    3    3    0    0  0.72444469578E+01  0.35146732489E+02 -0.45479400315E+01  0.36172621897E+02  0.00000000000E+00 0. -1.
         -2    1    1    2    0  502 -0.66585755895E+02 -0.23377592719E+02 -0.40875106129E+01  0.70688630432E+02  0.00000000000E+00 0.  1.
<scales pt_clust_5="13000.00000" pt_clust_6="13000.00000" pt_clust_7="13000.00000" pt_clust_8="13000.00000" pt_clust_9="70.57039"></scales>
<clustering>
<clus scale="   70.570">  2  9  1 -1</clus>
<clus scale="   79.360">  5  6 -1 -1</clus>
<clus scale="   89.214">  2  5  1 -1</clus>
<clus scale="   89.943">  7  8 -1 -1</clus>
<clus scale="   70.570">  2  5  1 -1</clus>
</clustering>
</event>
<event>
 9    2  0.1302972E-004  0.1809690E+03  0.7546771E-02  0.1167927E+00
         21   -1    0    0  501  502  0.00000000000E+00  0.00000000000E+00  0.16265477957E+03  0.16265477957E+03  0.00000000000E+00 0. -1.
          2   -1    0    0  502    0 -0.00000000000E+00 -0.00000000000E+00 -0.43579680249E+03  0.43579680249E+03  0.00000000000E+00 0. -1.
         24    2    1    2    0    0  0.99123149625E+02 -0.14085194438E+03 -0.32009316770E+03  0.37253507595E+03  0.81597045180E+02 0.  0.
         23    2    1    2    0    0 -0.91180372379E+02  0.65562825961E+02  0.20708382607E+02  0.14579022061E+03  0.90628951552E+02 0.  0.
        -11    1    3    3    0    0  0.22895525550E+02 -0.30415907692E+02 -0.18271933723E+02  0.42227906566E+02  0.00000000000E+00 0.  1.
         12    1    3    3    0    0  0.76227624075E+02 -0.11043603669E+03 -0.30182123397E+03  0.33030716939E+03  0.00000000000E+00 0. -1.
        -11    1    4    4    0    0 -0.43149159745E+01  0.45176895328E+02 -0.17616958882E+02  0.48681902300E+02  0.00000000000E+00 0.  1.
         11    1    4    4    0    0 -0.86865456405E+02  0.20385930634E+02  0.38325341490E+02  0.97108318307E+02  0.00000000000E+00 0. -1.
          1    1    1    2  501    0 -0.79427772457E+01  0.75289118417E+02  0.26242762165E+02  0.80126285503E+02  0.00000000000E+00 0. -1.
<scales pt_clust_5="13000.00000" pt_clust_6="13000.00000" pt_clust_7="13000.00000" pt_clust_8="13000.00000" pt_clust_9="75.70693"></scales>
<clustering>
<clus scale="   75.707">  1  9  2 -1</clus>
<clus scale="   81.597">  5  6 -1 -1</clus>
<clus scale="   90.629">  7  8 -1 -1</clus>
<clus scale="  176.619">  2  5  1 -1</clus>
<clus scale="   75.707">  1  5  2 -1</clus>
</clustering>
</event>
<event>
 9    2  0.1302972E-004  0.1728986E+03  0.7546771E-02  0.1197857E+00
          2   -1    0    0  502    0 -0.00000000000E+00  0.00000000000E+00  0.30963030634E+03  0.30963030634E+03  0.00000000000E+00 0. -1.
         21   -1    0    0  501  502  0.00000000000E+00 -0.00000000000E+00 -0.23423314742E+03  0.23423314742E+03  0.00000000000E+00 0. -1.
         23    2    1    2    0    0 -0.23398699910E+02  0.22408670551E+02  0.34630705510E+01  0.10373922671E+03  0.98489525466E+02 0.  0.
         24    2    1    2    0    0  0.10667189980E+01  0.13329581756E+03  0.18855291345E+03  0.24431167548E+03  0.79793989361E+02 0.  0.
        -11    1    4    4    0    0  0.39713487681E+02  0.75241868234E+02  0.93453123228E+02  0.12638032315E+03  0.00000000000E+00 0.  1.
         12    1    4    4    0    0 -0.38646768683E+02  0.58053949322E+02  0.95099790226E+02  0.11793135233E+03  0.00000000000E+00 0. -1.
        -11    1    3    3    0    0 -0.49897354709E+02  0.37140401026E+02 -0.20069136685E+02  0.65359969726E+02  0.00000000000E+00 0. -1.
         11    1    3    3    0    0  0.26498654799E+02 -0.14731730474E+02  0.23532207236E+02  0.38379256980E+02  0.00000000000E+00 0.  1.
          1    1    1    2  501    0  0.22331980912E+02 -0.15570448811E+03 -0.11661882509E+03  0.19581255157E+03  0.00000000000E+00 0. -1.
<scales pt_clust_5="13000.00000" pt_clust_6="13000.00000" pt_clust_7="13000.00000" pt_clust_8="13000.00000" pt_clust_9="153.38462"></scales>
<clustering>
<clus scale="   79.794">  5  6 -1 -1</clus>
<clus scale="   98.490">  7  8 -1 -1</clus>
<clus scale="  103.681">  1  7  2 -1</clus>
<clus scale="  153.385">  2  9  1 -1</clus>
<clus scale="  153.385">  2  5  1 -1</clus>
</clustering>
</event>
<event>
 9    2  0.1302972E-004  0.1120605E+03  0.7546771E-02  0.1258889E+00
         21   -1    0    0  501  502  0.00000000000E+00  0.00000000000E+00  0.64562417472E+02  0.64562417472E+02  0.00000000000E+00 0. -1.
          2   -1    0    0  502    0 -0.00000000000E+00 -0.00000000000E+00 -0.55476841277E+03  0.55476841277E+03  0.00000000000E+00 0. -1.
         24    2    1    2    0    0 -0.60655605983E+01 -0.79056683901E+02 -0.39285661423E+03  0.41023511770E+03  0.87577292499E+02 0.  0.
         23    2    1    2    0    0 -0.91915469729E+01 -0.59215792160E+01 -0.26440221550E+02  0.97371975409E+02  0.93073447574E+02 0.  0.
        -11    1    3    3    0    0  0.35621611295E+02 -0.41752089269E+02 -0.12373176163E+03  0.13535761886E+03  0.00000000000E+00 0.  1.
         12    1    3    3    0    0 -0.41687171893E+02 -0.37304594632E+02 -0.26912485260E+03  0.27487749884E+03  0.00000000000E+00 0. -1.
        -13    1    4    4    0    0  0.27495247307E+02  0.30770236592E+02 -0.17020442122E+02  0.44637333415E+02  0.00000000000E+00 0.  1.
         13    1    4    4    0    0 -0.36686794279E+02 -0.36691815808E+02 -0.94197794279E+01  0.52734641994E+02  0.00000000000E+00 0. -1.
          1    1    1    2  501    0  0.15257107571E+02  0.84978263117E+02 -0.70909159518E+02  0.11172373713E+03  0.00000000000E+00 0. -1.
<scales pt_clust_5="13000.00000" pt_clust_6="13000.00000" pt_clust_7="13000.00000" pt_clust_8="13000.00000" pt_clust_9="86.33704"></scales>
<clustering>
<clus scale="   86.337">  1  9  2 -1</clus>
<clus scale="   87.577">  5  6 -1 -1</clus>
<clus scale="   93.073">  7  8 -1 -1</clus>
<clus scale="  107.539">  2  5  1 -1</clus>
<clus scale="   86.337">  1  5  2 -1</clus>
</clustering>
</event>
<event>
 9    2  0.1302972E-004  0.1006026E+03  0.7546771E-02  0.1284251E+00
         21   -1    0    0  501  502  0.00000000000E+00  0.00000000000E+00  0.13479101413E+03  0.13479101413E+03  0.00000000000E+00 0.  1.
          2   -1    0    0  502    0 -0.00000000000E+00 -0.00000000000E+00 -0.15372104893E+03  0.15372104893E+03  0.00000000000E+00 0. -1.
         24    2    1    2    0    0 -0.42736266199E+01  0.41020735937E+02 -0.74635071617E+02  0.11691663746E+03  0.79988383777E+02 0.  0.
         23    2    1    2    0    0 -0.14020214934E+02 -0.56994890521E+02  0.82154199212E+02  0.13568725878E+03  0.90646212131E+02 0.  0.
        -13    1    3    3    0    0 -0.51533665608E+01 -0.19976697412E+02 -0.14057899076E+00  0.20631175169E+02  0.00000000000E+00 0.  1.
         14    1    3    3    0    0  0.87973994092E+00  0.60997433350E+02 -0.74494492627E+02  0.96285462295E+02  0.00000000000E+00 0. -1.
        -13    1    4    4    0    0 -0.43479110762E+02 -0.64175425049E+02  0.62228550661E+02  0.99404782432E+02  0.00000000000E+00 0.  1.
         13    1    4    4    0    0  0.29458895828E+02  0.71805345277E+01  0.19925648551E+02  0.36282476344E+02  0.00000000000E+00 0. -1.
          1    1    1    2  501    0  0.18293841554E+02  0.15974154584E+02 -0.26449162394E+02  0.35908166826E+02  0.00000000000E+00 0. -1.
<scales pt_clust_5="13000.00000" pt_clust_6="13000.00000" pt_clust_7="13000.00000" pt_clust_8="13000.00000" pt_clust_9="24.28660"></scales>
<clustering>
<clus scale="   24.287">  1  9  2 -1</clus>
<clus scale="   79.988">  5  6 -1 -1</clus>
<clus scale="   90.646">  7  8 -1 -1</clus>
<clus scale="   91.117">  2  5  1 -1</clus>
<clus scale="   24.287">  1  5  2 -1</clus>
</clustering>
</event>
<event>
 9    2  0.1302972E-004  0.9242598E+02  0.7546771E-02  0.1300469E+00
         -3   -1    0    0    0  501 -0.00000000000E+00  0.00000000000E+00  0.16174091694E+03  0.16174091694E+03  0.00000000000E+00 0.  1.
         21   -1    0    0  501  502  0.00000000000E+00 -0.00000000000E+00 -0.84176181198E+02  0.84176181198E+02  0.00000000000E+00 0. -1.
         23    2    1    2    0    0  0.43954188136E+01 -0.32926147724E+02  0.88863745392E+02  0.12719259724E+03  0.84721547659E+02 0.  0.
         24    2    1    2    0    0  0.15962207320E+02  0.47249457707E+02 -0.58467197195E+01  0.93242789488E+02  0.78566725424E+02 0.  0.
        -13    1    4    4    0    0 -0.79071453846E+01 -0.20023446458E+02 -0.35877132899E+01  0.21825055392E+02  0.00000000000E+00 0.  1.
         14    1    4    4    0    0  0.23869352704E+02  0.67272904165E+02 -0.22590064296E+01  0.71417734096E+02  0.00000000000E+00 0. -1.
        -11    1    3    3    0    0 -0.14653541842E+01 -0.57787098833E+02  0.82729222188E+02  0.10092383395E+03  0.00000000000E+00 0.  1.
         11    1    3    3    0    0  0.58607729978E+01  0.24860951110E+02  0.61345232036E+01  0.26268763297E+02  0.00000000000E+00 0. -1.
         -4    1    1    2    0  502 -0.20357626133E+02 -0.14323309983E+02 -0.54522899321E+01  0.25481711406E+02  0.00000000000E+00 0.  1.
<scales pt_clust_5="13000.00000" pt_clust_6="13000.00000" pt_clust_7="13000.00000" pt_clust_8="13000.00000" pt_clust_9="24.89157"></scales>
<clustering>
<clus scale="   24.892">  2  9  1 -1</clus>
<clus scale="   78.567">  5  6 -1 -1</clus>
<clus scale="   84.722">  7  8 -1 -1</clus>
<clus scale="   86.819">  2  5  1 -1</clus>
<clus scale="   24.892">  2  5  1 -1</clus>
</clustering>
</event>
<event>
 9    2  0.1302972E-004  0.9294625E+02  0.7546771E-02  0.1302383E+00
         -3   -1    0    0    0  501 -0.00000000000E+00  0.00000000000E+00  0.43926618569E+03  0.43926618569E+03  0.00000000000E+00 0.  1.
         21   -1    0    0  501  502  0.00000000000E+00 -0.00000000000E+00 -0.34714912903E+02  0.34714912903E+02  0.00000000000E+00 0. -1.
         23    2    1    2    0    0 -0.16032294632E+02  0.10014070925E+02  0.28585612534E+03  0.30067446945E+03  0.91291270655E+02 0.  0.
         24    2    1    2    0    0  0.20689199771E+02  0.27388074255E+02  0.92763950805E+02  0.12755693856E+03  0.80544847172E+02 0.  0.
        -11    1    4    4    0    0 -0.25121268007E+02 -0.11233526409E+02  0.26185304908E+02  0.37986055533E+02  0.00000000000E+00 0.  1.
         12    1    4    4    0    0  0.45810467778E+02  0.38621600664E+02  0.66578645897E+02  0.89570883022E+02  0.00000000000E+00 0. -1.
        -11    1    3    3    0    0 -0.52061478195E+02  0.19883912664E+02  0.16292875363E+03  0.17219624343E+03  0.00000000000E+00 0.  1.
         11    1    3    3    0    0  0.36029183562E+02 -0.98698417392E+01  0.12292737171E+03  0.12847822602E+03  0.00000000000E+00 0. -1.
         -4    1    1    2    0  502 -0.46569051391E+01 -0.37402145180E+02  0.25931196643E+02  0.45749690588E+02  0.00000000000E+00 0.  1.
<scales pt_clust_5="13000.00000" pt_clust_6="13000.00000" pt_clust_7="13000.00000" pt_clust_8="13000.00000" pt_clust_9="37.69094"></scales>
<clustering>
<clus scale="   37.691">  2  9  1 -1</clus>
<clus scale="   80.545">  5  6 -1 -1</clus>
<clus scale="   82.416">  2  5  1 -1</clus>
<clus scale="   91.291">  7  8 -1 -1</clus>
<clus scale="   37.691">  2  5  1 -1</clus>
</clustering>
</event>
<event>
 9    2  0.1302972E-004  0.1228200E+03  0.7546771E-02  0.1251285E+00
         21   -1    0    0  501  502  0.00000000000E+00  0.00000000000E+00  0.11446338393E+03  0.11446338393E+03  0.00000000000E+00 0. -1.
          2   -1    0    0  502    0 -0.00000000000E+00 -0.00000000000E+00 -0.41604896400E+03  0.41604896400E+03  0.00000000000E+00 0. -1.
         24    2    1    2    0    0  0.56744005170E+02 -0.61064562451E-01 -0.10003785380E+03  0.13793244165E+03  0.76143945350E+02 0.  0.
         23    2    1    2    0    0  0.48241639605E+02 -0.59577921215E+02  0.37346176482E+02  0.12490642794E+03  0.91269350577E+02 0.  0.
        -11    1    3    3    0    0  0.47086693397E+01  0.25103244318E+02 -0.40142574039E+01  0.25854568354E+02  0.00000000000E+00 0.  1.
         12    1    3    3    0    0  0.52035335830E+02 -0.25164308881E+02 -0.96023596400E+02  0.11207787329E+03  0.00000000000E+00 0. -1.
        -13    1    4    4    0    0  0.58168260275E+02 -0.35069811236E+02  0.59586478150E+02  0.90354781511E+02  0.00000000000E+00 0. -1.
         13    1    4    4    0    0 -0.99266206702E+01 -0.24508109979E+02 -0.22240301667E+02  0.34551646429E+02  0.00000000000E+00 0.  1.
          1    1    1    2  501    0 -0.10498564478E+03  0.59638985778E+02 -0.23889390275E+03  0.26767347834E+03  0.00000000000E+00 0. -1.
<scales pt_clust_5="13000.00000" pt_clust_6="13000.00000" pt_clust_7="13000.00000" pt_clust_8="13000.00000" pt_clust_9="82.18674"></scales>
<clustering>
<clus scale="   76.144">  5  6 -1 -1</clus>
<clus scale="   91.269">  7  8 -1 -1</clus>
<clus scale="   94.962">  2  5  1 -1</clus>
<clus scale="   82.187">  1  9  2 -1</clus>
<clus scale="   82.187">  1  5  2 -1</clus>
</clustering>
</event>
<event>
 9    2  0.1302972E-004  0.2764432E+03  0.7546771E-02  0.1131799E+00
         21   -1    0    0  501  502  0.00000000000E+00  0.00000000000E+00  0.96593248306E+02  0.96593248306E+02  0.00000000000E+00 0. -1.
          2   -1    0    0  502    0 -0.00000000000E+00 -0.00000000000E+00 -0.20848200412E+04  0.20848200412E+04  0.00000000000E+00 0. -1.
         24    2    1    2    0    0  0.64183717150E+02 -0.59686233386E+02 -0.62365969204E+03  0.63448038862E+03  0.77019192833E+02 0.  0.
         23    2    1    2    0    0 -0.31108782443E+03  0.25994528516E+01 -0.12043317669E+04  0.12471064495E+04  0.89872687262E+02 0.  0.
        -13    1    3    3    0    0  0.25903513350E+02 -0.63857421454E+02 -0.26705514276E+03  0.27580284907E+03  0.00000000000E+00 0.  1.
         14    1    3    3    0    0  0.38280203799E+02  0.41711880674E+01 -0.35660454928E+03  0.35867753955E+03  0.00000000000E+00 0. -1.
        -13    1    4    4    0    0 -0.77267566714E+02  0.40025742445E+02 -0.32078069350E+03  0.33237417205E+03  0.00000000000E+00 0.  1.
         13    1    4    4    0    0 -0.23382025771E+03 -0.37426289594E+02 -0.88355107342E+03  0.91473227745E+03  0.00000000000E+00 0. -1.
          1    1    1    2  501    0  0.24690410728E+03  0.57086780535E+02 -0.16023533391E+03  0.29982645136E+03  0.00000000000E+00 0. -1.
<scales pt_clust_5="13000.00000" pt_clust_6="13000.00000" pt_clust_7="13000.00000" pt_clust_8="13000.00000" pt_clust_9="261.42637"></scales>
<clustering>
<clus scale="   77.019">  5  6 -1 -1</clus>
<clus scale="   89.873">  7  8 -1 -1</clus>
<clus scale="  116.679">  2  5  1 -1</clus>
<clus scale="  261.426">  1  9  2 -1</clus>
<clus scale="  261.426">  1  5  2 -1</clus>
</clustering>
</event>
<event>
 9    2  0.1302972E-004  0.1990916E+03  0.7546771E-02  0.1172048E+00
         21   -1    0    0  501  502  0.00000000000E+00  0.00000000000E+00  0.99446734966E+03  0.99446734966E+03  0.00000000000E+00 0.  1.
         -1   -1    0    0    0  501 -0.00000000000E+00 -0.00000000000E+00 -0.13056009948E+03  0.13056009948E+03  0.00000000000E+00 0.  1.
         23    2    1    2    0    0 -0.39349873413E+02  0.70064953263E+02  0.54063104479E+03  0.55394373625E+03  0.90078999372E+02 0.  0.
         24    2    1    2    0    0  0.20578890558E+03 -0.99985480081E+02  0.49790153495E+02  0.24953774427E+03  0.86277787078E+02 0.  0.
        -11    1    4    4    0    0  0.13280214604E+03 -0.93164178645E+02  0.64846372225E+02  0.17470267933E+03  0.00000000000E+00 0.  1.
         12    1    4    4    0    0  0.72986759541E+02 -0.68213014356E+01 -0.15056218730E+02  0.74835064937E+02  0.00000000000E+00 0. -1.
        -13    1    3    3    0    0  0.29386649067E+02  0.20619262531E+02  0.14897247725E+03  0.15323683666E+03  0.00000000000E+00 0.  1.
         13    1    3    3    0    0 -0.68736522481E+02  0.49445690732E+02  0.39165856753E+03  0.40070689959E+03  0.00000000000E+00 0. -1.
         -2    1    1    2    0  502 -0.16643903217E+03  0.29920526818E+02  0.27348605190E+03  0.32154596862E+03  0.00000000000E+00 0.  1.
<scales pt_clust_5="13000.00000" pt_clust_6="13000.00000" pt_clust_7="13000.00000" pt_clust_8="13000.00000" pt_clust_9="179.42573"></scales>
<clustering>
<clus scale="   86.278">  5  6 -1 -1</clus>
<clus scale="   90.079">  7  8 -1 -1</clus>
<clus scale="  120.714">  2  7  1 -1</clus>
<clus scale="  179.426">  1  9  2 -1</clus>
<clus scale="  179.426">  1  5  2 -1</clus>
</clustering>
</event>
<event>
 9    2  0.1302972E-004  0.8774407E+02  0.7546771E-02  0.1308904E+00
          2   -1    0    0  502    0 -0.00000000000E+00  0.00000000000E+00  0.67969243932E+03  0.67969243932E+03  0.00000000000E+00 0. -1.
         21   -1    0    0  501  502  0.00000000000E+00 -0.00000000000E+00 -0.34999465021E+02  0.34999465021E+02  0.00000000000E+00 0. -1.
         24    2    1    2    0    0  0.49857409244E+01  0.78482065545E+01  0.42525223706E+03  0.43414239238E+03  0.86912023231E+02 0.  0.
         23    2    1    2    0    0  0.17536839425E+01  0.17185734739E+02  0.23422773417E+03  0.25070368575E+03  0.87699952735E+02 0.  0.
        -11    1    3    3    0    0 -0.11991361195E+02  0.43844427320E+02  0.17824777494E+03  0.18395215634E+03  0.00000000000E+00 0.  1.
         12    1    3    3    0    0  0.16977102119E+02 -0.35996220766E+02  0.24700446211E+03  0.25019023604E+03  0.00000000000E+00 0. -1.
        -11    1    4    4    0    0 -0.25901687977E+02 -0.23636535385E+02  0.58643946930E+02  0.68327854910E+02  0.00000000000E+00 0.  1.
         11    1    4    4    0    0  0.27655371920E+02  0.40822270124E+02  0.17558378724E+03  0.18237583084E+03  0.00000000000E+00 0. -1.
          1    1    1    2  501    0 -0.67394248669E+01 -0.25033941293E+02 -0.14786996923E+02  0.29845826211E+02  0.00000000000E+00 0. -1.
<scales pt_clust_5="13000.00000" pt_clust_6="13000.00000" pt_clust_7="13000.00000" pt_clust_8="13000.00000" pt_clust_9="25.92524"></scales>
<clustering>
<clus scale="   25.925">  2  9  1 -1</clus>
<clus scale="   86.912">  5  6 -1 -1</clus>
<clus scale="   86.957">  1  5  2 -1</clus>
<clus scale="   87.700">  7  8 -1 -1</clus>
<clus scale="   25.925">  2  5  1 -1</clus>
</clustering>
</event>
<event>
 9    2  0.1302972E-004  0.3071984E+03  0.7546771E-02  0.1082100E+00
          2   -1    0    0  502    0 -0.00000000000E+00  0.00000000000E+00  0.16364902144E+04  0.16364902144E+04  0.00000000000E+00 0. -1.
         21   -1    0    0  501  502  0.00000000000E+00 -0.00000000000E+00 -0.12216311801E+03  0.12216311801E+03  0.00000000000E+00 0.  1.
         23    2    1    2    0    0 -0.11837435424E+03  0.25474323773E+03  0.89692508098E+03  0.94441621034E+03  0.92416300226E+02 0.  0.
         24    2    1    2    0    0  0.13210998781E+03 -0.31536581714E+03  0.22556996213E+03  0.41750532005E+03  0.80747984221E+02 0.  0.
        -11    1    4    4    0    0  0.13342911939E+03 -0.23317623938E+03  0.18172180756E+03  0.32434133849E+03  0.00000000000E+00 0.  1.
         12    1    4    4    0    0 -0.13191315817E+01 -0.82189577756E+02  0.43848154568E+02  0.93163981553E+02  0.00000000000E+00 0. -1.
        -13    1    3    3    0    0 -0.33056540487E+02  0.12402131615E+03  0.27946850717E+03  0.30753319858E+03  0.00000000000E+00 0. -1.
         13    1    3    3    0    0 -0.85317813753E+02  0.13072192158E+03  0.61745657381E+03  0.63688301176E+03  0.00000000000E+00 0.  1.
          1    1    1    2  501    0 -0.13735633567E+02  0.60622579409E+02  0.39183205324E+03  0.39673180199E+03  0.00000000000E+00 0. -1.
<scales pt_clust_5="13000.00000" pt_clust_6="13000.00000" pt_clust_7="13000.00000" pt_clust_8="13000.00000" pt_clust_9="62.15922"></scales>
<clustering>
<clus scale="   62.159">  2  9  1 -1</clus>
<clus scale="   80.748">  5  6 -1 -1</clus>
<clus scale="   92.416">  7  8 -1 -1</clus>
<clus scale="  303.892">  2  5  1 -1</clus>
<clus scale="   62.159">  2  5  1 -1</clus>
</clustering>
</event>
<event>
 9    2  0.1302972E-004  0.2079189E+03  0.7546771E-02  0.1176138E+00
          2   -1    0    0  502    0 -0.00000000000E+00  0.00000000000E+00  0.14140685820E+04  0.14140685820E+04  0.00000000000E+00 0. -1.
         21   -1    0    0  501  502  0.00000000000E+00 -0.00000000000E+00 -0.73996000492E+02  0.73996000492E+02  0.00000000000E+00 0. -1.
         23    2    1    2    0    0 -0.25509076041E+02  0.80589023482E+01  0.22151974059E+03  0.24165857694E+03  0.92802012218E+02 0.  0.
         24    2    1    2    0    0  0.11381703329E+02 -0.19885423581E+03  0.99691371236E+03  0.10196935896E+04  0.79155016090E+02 0.  0.
        -13    1    4    4    0    0 -0.34678742162E+01 -0.37020210044E+02  0.76672558689E+02  0.85212694824E+02  0.00000000000E+00 0.  1.
         14    1    4    4    0    0  0.14849577546E+02 -0.16183402577E+03  0.92024115368E+03  0.93448089481E+03  0.00000000000E+00 0. -1.
        -13    1    3    3    0    0 -0.30512063984E+02 -0.38832266467E+02  0.10992285419E+03  0.12050711531E+03  0.00000000000E+00 0. -1.
         13    1    3    3    0    0  0.50029879432E+01  0.46891168815E+02  0.11159688640E+03  0.12115146163E+03  0.00000000000E+00 0.  1.
          1    1    1    2  501    0  0.14127372711E+02  0.19079533347E+03  0.12163912854E+03  0.22671241590E+03  0.00000000000E+00 0. -1.
<scales pt_clust_5="13000.00000" pt_clust_6="13000.00000" pt_clust_7="13000.00000" pt_clust_8="13000.00000" pt_clust_9="192.26225"></scales>
<clustering>
<clus scale="   79.155">  5  6 -1 -1</clus>
<clus scale="   92.802">  7  8 -1 -1</clus>
<clus scale="   96.581">  1  7  2 -1</clus>
<clus scale="  192.262">  2  9  1 -1</clus>
<clus scale="  192.262">  2  5  1 -1</clus>
</clustering>
</event>
<event>
 9    2  0.1302972E-004  0.1825561E+03  0.7546771E-02  0.1184432E+00
         21   -1    0    0  501  502  0.00000000000E+00  0.00000000000E+00  0.31649282054E+02  0.31649282054E+02  0.00000000000E+00 0. -1.
          2   -1    0    0  502    0 -0.00000000000E+00 -0.00000000000E+00 -0.21822395150E+04  0.21822395150E+04  0.00000000000E+00 0. -1.
         24    2    1    2    0    0 -0.85970406380E+02  0.79184745365E+01 -0.82241542955E+03  0.83089855474E+03  0.81065754099E+02 0.  0.
         23    2    1    2    0    0  0.97112331268E+00 -0.15799973023E+03 -0.41224833737E+03  0.45096526808E+03  0.91957183081E+02 0.  0.
        -11    1    3    3    0    0 -0.48737932296E+02 -0.28761709726E+00 -0.15698693933E+03  0.16437873308E+03  0.00000000000E+00 0.  1.
         12    1    3    3    0    0 -0.37232474084E+02  0.82060916337E+01 -0.66542849022E+03  0.66651982166E+03  0.00000000000E+00 0. -1.
        -13    1    4    4    0    0  0.30692950350E+02 -0.10289263030E+03 -0.33350607118E+03  0.35036445323E+03  0.00000000000E+00 0.  1.
         13    1    4    4    0    0 -0.29721827037E+02 -0.55107099926E+02 -0.78742266187E+02  0.10060081485E+03  0.00000000000E+00 0. -1.
          1    1    1    2  501    0  0.84999283067E+02  0.15008125569E+03 -0.91592646605E+03  0.93202497426E+03  0.00000000000E+00 0. -1.
<scales pt_clust_5="13000.00000" pt_clust_6="13000.00000" pt_clust_7="13000.00000" pt_clust_8="13000.00000" pt_clust_9="157.70424"></scales>
<clustering>
<clus scale="   81.066">  5  6 -1 -1</clus>
<clus scale="   91.957">  7  8 -1 -1</clus>
<clus scale="  118.428">  2  5  1 -1</clus>
<clus scale="  157.704">  1  9  2 -1</clus>
<clus scale="  157.704">  1  5  2 -1</clus>
</clustering>
</event>
<event>
 9    2  0.1302972E-004  0.1111955E+03  0.7546771E-02  0.1263896E+00
         -1   -1    0    0    0  501 -0.00000000000E+00  0.00000000000E+00  0.87216769082E+02  0.87216769082E+02  0.00000000000E+00 0.  1.
         21   -1    0    0  501  502  0.00000000000E+00 -0.00000000000E+00 -0.18847165468E+03  0.18847165468E+03  0.00000000000E+00 0.  1.
         24    2    1    2    0    0 -0.40142023959E+02  0.24434009363E+02 -0.33356705416E+02  0.98113125883E+02  0.79404740244E+02 0.  0.
         23    2    1    2    0    0  0.61451546673E+02 -0.54472963626E+02 -0.65842026308E+02  0.14068814157E+03  0.93350867141E+02 0.  0.
        -11    1    3    3    0    0 -0.19696936758E+02 -0.21170910060E+02 -0.38189247082E+02  0.47901934649E+02  0.00000000000E+00 0.  1.
         12    1    3    3    0    0 -0.20445087202E+02  0.45604919423E+02  0.48325416656E+01  0.50211191235E+02  0.00000000000E+00 0. -1.
        -11    1    4    4    0    0 -0.18549172507E+02 -0.38365499111E+02 -0.19801418049E+02  0.46990206208E+02  0.00000000000E+00 0. -1.
         11    1    4    4    0    0  0.80000719181E+02 -0.16107464515E+02 -0.46040608259E+02  0.93697935364E+02  0.00000000000E+00 0.  1.
         -2    1    1    2    0  502 -0.21309522714E+02  0.30038954262E+02 -0.20561538710E+01  0.36887156304E+02  0.00000000000E+00 0.  1.
<scales pt_clust_5="13000.00000" pt_clust_6="13000.00000" pt_clust_7="13000.00000" pt_clust_8="13000.00000" pt_clust_9="36.82982"></scales>
<clustering>
<clus scale="   36.830">  2  9  1 -1</clus>
<clus scale="   79.405">  5  6 -1 -1</clus>
<clus scale="   93.351">  7  8 -1 -1</clus>
<clus scale="   99.776">  1  5  2 -1</clus>
<clus scale="   36.830">  2  5  1 -1</clus>
</clustering>
</event>
<event>
 9    2  0.1302972E-004  0.1931308E+03  0.7546771E-02  0.1162060E+00
         21   -1    0    0  501  502  0.00000000000E+00  0.00000000000E+00  0.37829011953E+02  0.37829011953E+02  0.00000000000E+00 0. -1.
          2   -1    0    0  502    0 -0.00000000000E+00 -0.00000000000E+00 -0.20747370956E+04  0.20747370956E+04  0.00000000000E+00 0. -1.
         24    2    1    2    0    0  0.11053872635E+03 -0.91587706695E+02 -0.51919922757E+03  0.54520614493E+03  0.84111738312E+02 0.  0.
         23    2    1    2    0    0 -0.17489543705E+03 -0.76693543193E+02 -0.82882065703E+03  0.85530145656E+03  0.90147582298E+02 0.  0.
        -13    1    3    3    0    0  0.43338168556E+02  0.20726964355E+01 -0.78634816003E+02  0.89810507248E+02  0.00000000000E+00 0.  1.
         14    1    3    3    0    0  0.67200557793E+02 -0.93660403131E+02 -0.44056441157E+03  0.45539563769E+03  0.00000000000E+00 0. -1.
        -13    1    4    4    0    0 -0.78001094163E+02  0.75496587026E+00 -0.20656914392E+03  0.22080659384E+03  0.00000000000E+00 0.  1.
         13    1    4    4    0    0 -0.96894342887E+02 -0.77448509063E+02 -0.62225151312E+03  0.63449486272E+03  0.00000000000E+00 0. -1.
          1    1    1    2  501    0  0.64356710701E+02  0.16828124989E+03 -0.68888819904E+03  0.71205850606E+03  0.00000000000E+00 0. -1.
<scales pt_clust_5="13000.00000" pt_clust_6="13000.00000" pt_clust_7="13000.00000" pt_clust_8="13000.00000" pt_clust_9="170.80085"></scales>
<clustering>
<clus scale="   84.112">  5  6 -1 -1</clus>
<clus scale="   90.148">  7  8 -1 -1</clus>
<clus scale="  166.379">  2  5  1 -1</clus>
<clus scale="  170.801">  1  9  2 -1</clus>
<clus scale="  170.801">  1  5  2 -1</clus>
</clustering>
</event>
<event>
 9    2  0.1302972E-004  0.2250586E+03  0.7546771E-02  0.1130167E+00
         -1   -1    0    0    0  501 -0.00000000000E+00  0.00000000000E+00  0.89117424359E+03  0.89117424359E+03  0.00000000000E+00 0.  1.
         21   -1    0    0  501  502  0.00000000000E+00 -0.00000000000E+00 -0.36907512150E+02  0.36907512150E+02  0.00000000000E+00 0. -1.
         24    2    1    2    0    0  0.63190860489E+02  0.84484437773E+01  0.28362525046E+03  0.30151511350E+03  0.80022621300E+02 0.  0.
         23    2    1    2    0    0  0.50435914430E+02  0.69192004550E+02  0.25312846515E+03  0.28051231353E+03  0.85333599572E+02 0.  0.
        -13    1    3    3    0    0  0.66989595894E+02  0.29416750886E+02  0.25807116976E+03  0.26824183091E+03  0.00000000000E+00 0.  1.
         14    1    3    3    0    0 -0.37987354050E+01 -0.20968307109E+02  0.25554080695E+02  0.33273282583E+02  0.00000000000E+00 0. -1.
        -11    1    4    4    0    0 -0.18230587237E+02  0.37204202619E+02  0.12476041051E+03  0.13145975443E+03  0.00000000000E+00 0.  1.
         11    1    4    4    0    0  0.68666501667E+02  0.31987801930E+02  0.12836805464E+03  0.14905255911E+03  0.00000000000E+00 0. -1.
         -2    1    1    2    0  502 -0.11362677492E+03 -0.77640448327E+02  0.31751301583E+03  0.34605432870E+03  0.00000000000E+00 0.  1.
<scales pt_clust_5="13000.00000" pt_clust_6="13000.00000" pt_clust_7="13000.00000" pt_clust_8="13000.00000" pt_clust_9="137.61934"></scales>
<clustering>
<clus scale="   80.023">  5  6 -1 -1</clus>
<clus scale="   85.334">  7  8 -1 -1</clus>
<clus scale="  102.130">  5  7 -1 -1</clus>
<clus scale="  137.619">  2  9  1 -1</clus>
<clus scale="  137.619">  2  5  1 -1</clus>
</clustering>
</event>
<event>
 9    2  0.1302972E-004  0.4851723E+03  0.7546771E-02  0.1017885E+00
          2   -1    0    0  502    0 -0.00000000000E+00  0.00000000000E+00  0.23456442399E+04  0.23456442399E+04  0.00000000000E+00 0. -1.
         21   -1    0    0  501  502  0.00000000000E+00 -0.00000000000E+00 -0.15287115117E+03  0.15287115117E+03  0.00000000000E+00 0.  1.
         23    2    1    2    0    0  0.24197440391E+03 -0.39559517632E+03  0.15029707343E+04  0.15756473567E+04  0.93254538118E+02 0.  0.
         24    2    1    2    0    0 -0.25017635159E+03  0.45007812921E+03  0.48889553542E+03  0.71454325420E+03  0.79966794933E+02 0.  0.
        -13    1    4    4    0    0 -0.21881536016E+03  0.41108519238E+03  0.40655142379E+03  0.61818707316E+03  0.00000000000E+00 0.  1.
         14    1    4    4    0    0 -0.31360991431E+02  0.38992936826E+02  0.82344111622E+02  0.96356181040E+02  0.00000000000E+00 0. -1.
        -13    1    3    3    0    0  0.10957270113E+03 -0.14357212044E+03  0.45053509808E+03  0.48538747945E+03  0.00000000000E+00 0.  1.
         13    1    3    3    0    0  0.13240170278E+03 -0.25202305588E+03  0.10524356362E+04  0.10902598772E+04  0.00000000000E+00 0. -1.
          1    1    1    2  501    0  0.82019476795E+01 -0.54482952885E+02  0.20090681905E+03  0.20832478019E+03  0.00000000000E+00 0. -1.
<scales pt_clust_5="13000.00000" pt_clust_6="13000.00000" pt_clust_7="13000.00000" pt_clust_8="13000.00000" pt_clust_9="55.09689"></scales>
<clustering>
<clus scale="   55.097">  2  9  1 -1</clus>
<clus scale="   79.967">  5  6 -1 -1</clus>
<clus scale="   93.255">  7  8 -1 -1</clus>
<clus scale="  482.794">  2  5  1 -1</clus>
<clus scale="   55.097">  2  5  1 -1</clus>
</clustering>
</event>
<event>
 9    2  0.1302972E-004  0.1017603E+03  0.7546771E-02  0.1281235E+00
         21   -1    0    0  501  502  0.00000000000E+00  0.00000000000E+00  0.10104756705E+03  0.10104756705E+03  0.00000000000E+00 0.  1.
          2   -1    0    0  502    0 -0.00000000000E+00 -0.00000000000E+00 -0.20174255425E+03  0.20174255425E+03  0.00000000000E+00 0. -1.
         24    2    1    2    0    0  0.20941988566E+02 -0.33505794428E+02 -0.99991411548E+02  0.13501209620E+03  0.81662589911E+02 0.  0.
         23    2    1    2    0    0 -0.48504101497E+02  0.50515044381E+02  0.34326785251E+02  0.12006942170E+03  0.91290307644E+02 0.  0.
        -11    1    3    3    0    0 -0.29142810687E+02  0.21737914792E+01 -0.32565013552E+02  0.43755101323E+02  0.00000000000E+00 0.  1.
         12    1    3    3    0    0  0.50084799253E+02 -0.35679585907E+02 -0.67426397996E+02  0.91256994875E+02  0.00000000000E+00 0. -1.
        -11    1    4    4    0    0 -0.12826967386E+02  0.19603869724E+02  0.61353776234E+02  0.65674414033E+02  0.00000000000E+00 0.  1.
         11    1    4    4    0    0 -0.35677134111E+02  0.30911174657E+02 -0.27026990982E+02  0.54395007662E+02  0.00000000000E+00 0. -1.
          1    1    1    2  501    0  0.27562112931E+02 -0.17009249953E+02 -0.35030360907E+02  0.47708603401E+02  0.00000000000E+00 0. -1.
<scales pt_clust_5="13000.00000" pt_clust_6="13000.00000" pt_clust_7="13000.00000" pt_clust_8="13000.00000" pt_clust_9="32.38805"></scales>
<clustering>
<clus scale="   32.388">  1  9  2 -1</clus>
<clus scale="   81.663">  5  6 -1 -1</clus>
<clus scale="   91.290">  7  8 -1 -1</clus>
<clus scale="   93.220">  2  5  1 -1</clus>
<clus scale="   32.388">  1  5  2 -1</clus>
</clustering>
</event>
<event>
 9    2  0.1302972E-004  0.9641075E+02  0.7546771E-02  0.1296269E+00
         21   -1    0    0  501  502  0.00000000000E+00  0.00000000000E+00  0.13423532211E+03  0.13423532211E+03  0.00000000000E+00 0. -1.
          2   -1    0    0  502    0 -0.00000000000E+00 -0.00000000000E+00 -0.33193740713E+03  0.33193740713E+03  0.00000000000E+00 0. -1.
         23    2    1    2    0    0  0.15995240097E+02 -0.21290569075E+02 -0.23534631562E+03  0.25357070690E+03  0.90559809437E+02 0.  0.
         24    2    1    2    0    0 -0.10485214608E+02  0.53370879689E+02 -0.59177653857E+02  0.11045514760E+03  0.75762486702E+02 0.  0.
        -13    1    4    4    0    0 -0.37138319777E+02  0.32062676731E+02 -0.58464352400E+02  0.76323984019E+02  0.00000000000E+00 0.  1.
         14    1    4    4    0    0  0.26653105169E+02  0.21308202958E+02 -0.71330145775E+00  0.34131163582E+02  0.00000000000E+00 0. -1.
        -11    1    3    3    0    0  0.49538274690E+02  0.71317880866E+01 -0.13655920214E+03  0.14544180537E+03  0.00000000000E+00 0. -1.
         11    1    3    3    0    0 -0.33543034594E+02 -0.28422357161E+02 -0.98787113474E+02  0.10812890152E+03  0.00000000000E+00 0.  1.
          1    1    1    2  501    0 -0.55100254887E+01 -0.32080310614E+02  0.96821884455E+02  0.10214687474E+03  0.00000000000E+00 0. -1.
<scales pt_clust_5="13000.00000" pt_clust_6="13000.00000" pt_clust_7="13000.00000" pt_clust_8="13000.00000" pt_clust_9="32.55006"></scales>
<clustering>
<clus scale="   32.550">  1  9  2 -1</clus>
<clus scale="   75.762">  5  6 -1 -1</clus>
<clus scale="   82.667">  1  5  2 -1</clus>
<clus scale="   90.560">  7  8 -1 -1</clus>
<clus scale="   32.550">  1  5  2 -1</clus>
</clustering>
</event>
<event>
 9    2  0.1302972E-004  0.1253908E+03  0.7546771E-02  0.1253671E+00
          2   -1    0    0  502    0 -0.00000000000E+00  0.00000000000E+00  0.94424737555E+03  0.94424737555E+03  0.00000000000E+00 0. -1.
         21   -1    0    0  501  502  0.00000000000E+00 -0.00000000000E+00 -0.28311439626E+02  0.28311439626E+02  0.00000000000E+00 0. -1.
         24    2    1    2    0    0  0.16351958207E+02  0.21877287140E+02  0.46459204293E+03  0.47232194773E+03  0.80599340705E+02 0.  0.
         23    2    1    2    0    0  0.44713051888E+01  0.68082406493E+02  0.31709048812E+03  0.33729414285E+03  0.92551361443E+02 0.  0.
        -11    1    3    3    0    0 -0.26430610729E+02  0.72066478755E+01  0.70380181347E+02  0.75524054999E+02  0.00000000000E+00 0.  1.
         12    1    3    3    0    0  0.42782568937E+02  0.14670639265E+02  0.39421186158E+03  0.39679789273E+03  0.00000000000E+00 0. -1.
        -11    1    4    4    0    0  0.35857276927E+02  0.57495474282E+02  0.27760504296E+03  0.28575519899E+03  0.00000000000E+00 0.  1.
         11    1    4    4    0    0 -0.31385971738E+02  0.10586932212E+02  0.39485445160E+02  0.51538943869E+02  0.00000000000E+00 0. -1.
          1    1    1    2  501    0 -0.20823263396E+02 -0.89959693633E+02  0.13425340488E+03  0.16294272459E+03  0.00000000000E+00 0. -1.
<scales pt_clust_5="13000.00000" pt_clust_6="13000.00000" pt_clust_7="13000.00000" pt_clust_8="13000.00000" pt_clust_9="84.59965"></scales>
<clustering>
<clus scale="   80.599">  5  6 -1 -1</clus>
<clus scale="   85.101">  1  5  2 -1</clus>
<clus scale="   84.600">  2  9  1 -1</clus>
<clus scale="   92.551">  7  8 -1 -1</clus>
<clus scale="   84.600">  2  5  1 -1</clus>
</clustering>
</event>
<event>
 9    2  0.1302972E-004  0.1149466E+03  0.7546771E-02  0.1256353E+00
          2   -1    0    0  502    0 -0.00000000000E+00  0.00000000000E+00  0.64946736287E+03  0.64946736287E+03  0.00000000000E+00 0. -1.
         21   -1    0    0  501  502  0.00000000000E+00 -0.00000000000E+00 -0.28039347759E+02  0.28039347759E+02  0.00000000000E+00 0. -1.
         24    2    1    2    0    0  0.49933597676E+02 -0.38768207532E+02  0.33165256104E+03  0.34717076090E+03  0.80856526545E+02 0.  0.
         23    2    1    2    0    0 -0.71132366187E+02  0.29074506184E+02  0.17273496654E+03  0.21099680546E+03  0.93686406820E+02 0.  0.
        -13    1    3    3    0    0 -0.19635337533E+02 -0.18903383683E+02  0.57508490507E+02  0.63640481418E+02  0.00000000000E+00 0.  1.
         14    1    3    3    0    0  0.69568935209E+02 -0.19864823849E+02  0.27414407054E+03  0.28353027948E+03  0.00000000000E+00 0. -1.
        -11    1    4    4    0    0  0.23033996113E+02  0.93597126861E+01  0.39010762602E+02  0.46260229109E+02  0.00000000000E+00 0.  1.
         11    1    4    4    0    0 -0.94166362299E+02  0.19714793498E+02  0.13372420393E+03  0.16473657635E+03  0.00000000000E+00 0. -1.
          1    1    1    2  501    0  0.21198768511E+02  0.96937013476E+01  0.11704048754E+03  0.11933914427E+03  0.00000000000E+00 0. -1.
<scales pt_clust_5="13000.00000" pt_clust_6="13000.00000" pt_clust_7="13000.00000" pt_clust_8="13000.00000" pt_clust_9="23.31000"></scales>
<clustering>
<clus scale="   23.310">  2  9  1 -1</clus>
<clus scale="   80.857">  5  6 -1 -1</clus>
<clus scale="   93.686">  7  8 -1 -1</clus>
<clus scale="  104.754">  1  5  2 -1</clus>
<clus scale="   23.310">  2  5  1 -1</clus>
</clustering>
</event>
<event>
 9    2  0.1302972E-004  0.1549828E+03  0.7546771E-02  0.1213846E+00
         21   -1    0    0  501  502  0.00000000000E+00  0.00000000000E+00  0.57988524444E+02  0.57988524444E+02  0.00000000000E+00 0. -1.
          2   -1    0    0  502    0 -0.00000000000E+00 -0.00000000000E+00 -0.12887863448E+04  0.12887863448E+04  0.00000000000E+00 0. -1.
         24    2    1    2    0    0 -0.44864876223E+02  0.45951556407E+02 -0.82552955412E+03  0.83181574001E+03  0.79334594882E+02 0.  0.
         23    2    1    2    0    0  0.95821951011E+02  0.74691936625E+02 -0.33185341540E+03  0.36482180473E+03  0.90595409392E+02 0.  0.
        -13    1    3    3    0    0  0.21393566793E+02  0.18400946231E+02 -0.16450094611E+03  0.16690368718E+03  0.00000000000E+00 0.  1.
         14    1    3    3    0    0 -0.66258443016E+02  0.27550610176E+02 -0.66102860801E+03  0.66491205283E+03  0.00000000000E+00 0. -1.
        -13    1    4    4    0    0 -0.12831042908E+02  0.31687717869E+02 -0.63168936789E+02  0.71826608586E+02  0.00000000000E+00 0.  1.
         13    1    4    4    0    0  0.10865299392E+03  0.43004218756E+02 -0.26868447861E+03  0.29299519614E+03  0.00000000000E+00 0. -1.
          1    1    1    2  501    0 -0.50957074788E+02 -0.12064349303E+03 -0.73414850808E+02  0.15013732448E+03  0.00000000000E+00 0. -1.
<scales pt_clust_5="13000.00000" pt_clust_6="13000.00000" pt_clust_7="13000.00000" pt_clust_8="13000.00000" pt_clust_9="125.74636"></scales>
<clustering>
<clus scale="   79.335">  5  6 -1 -1</clus>
<clus scale="   90.595">  7  8 -1 -1</clus>
<clus scale="  102.070">  2  5  1 -1</clus>
<clus scale="  125.746">  1  9  2 -1</clus>
<clus scale="  125.746">  1  5  2 -1</clus>
</clustering>
</event>
<event>
 9    2  0.1302972E-004  0.1431054E+03  0.7546771E-02  0.1211351E+00
         21   -1    0    0  501  502  0.00000000000E+00  0.00000000000E+00  0.42776015000E+03  0.42776015000E+03  0.00000000000E+00 0.  1.
          2   -1    0    0  502    0 -0.00000000000E+00 -0.00000000000E+00 -0.25855519755E+03  0.25855519755E+03  0.00000000000E+00 0. -1.
         24    2    1    2    0    0 -0.10057899976E+03  0.49641402405E+02  0.16738828945E+03  0.21710639152E+03  0.80845171601E+02 0.  0.
         23    2    1    2    0    0  0.11234006346E+03 -0.76924406598E+01  0.21075560327E+03  0.25577625289E+03  0.91236526302E+02 0.  0.
        -11    1    3    3    0    0 -0.41292416689E+02  0.60437723944E+02  0.63012084563E+02  0.96583150458E+02  0.00000000000E+00 0.  1.
         12    1    3    3    0    0 -0.59286583071E+02 -0.10796321538E+02  0.10437620489E+03  0.12052324107E+03  0.00000000000E+00 0. -1.
        -11    1    4    4    0    0 -0.54420355778E+01  0.22152817859E+02  0.25334997074E+02  0.34091423658E+02  0.00000000000E+00 0. -1.
         11    1    4    4    0    0  0.11778209903E+03 -0.29845258519E+02  0.18542060619E+03  0.22168482923E+03  0.00000000000E+00 0.  1.
          1    1    1    2  501    0 -0.11761063696E+02 -0.41948961745E+02 -0.20893894027E+03  0.21343270314E+03  0.00000000000E+00 0. -1.
<scales pt_clust_5="13000.00000" pt_clust_6="13000.00000" pt_clust_7="13000.00000" pt_clust_8="13000.00000" pt_clust_9="43.56650"></scales>
<clustering>
<clus scale="   43.566">  1  9  2 -1</clus>
<clus scale="   80.845">  5  6 -1 -1</clus>
<clus scale="   91.237">  7  8 -1 -1</clus>
<clus scale="  136.715">  2  5  1 -1</clus>
<clus scale="   43.566">  1  5  2 -1</clus>
</clustering>
</event>
<event>
 9    2  0.1302972E-004  0.1524856E+03  0.7546771E-02  0.1198789E+00
          2   -1    0    0  502    0 -0.00000000000E+00  0.00000000000E+00  0.40763795120E+03  0.40763795120E+03  0.00000000000E+00 0. -1.
         21   -1    0    0  501  502  0.00000000000E+00 -0.00000000000E+00 -0.94502324909E+02  0.94502324909E+02  0.00000000000E+00 0. -1.
         24    2    1    2    0    0 -0.12398582760E+02 -0.13999046547E+03  0.23365151634E+03  0.28445138269E+03  0.81046300051E+02 0.  0.
         23    2    1    2    0    0 -0.12685274598E+02  0.86711812200E+02  0.79197313787E+01  0.12501055142E+03  0.88797867405E+02 0.  0.
        -13    1    3    3    0    0 -0.37520447275E+02 -0.50728296145E+02  0.57420518179E+02  0.85312718286E+02  0.00000000000E+00 0.  1.
         14    1    3    3    0    0  0.25121864515E+02 -0.89262169321E+02  0.17623099816E+03  0.19913866441E+03  0.00000000000E+00 0. -1.
        -13    1    4    4    0    0 -0.18393440918E+02  0.45730340534E+02  0.46991489462E+02  0.68101268682E+02  0.00000000000E+00 0.  1.
         13    1    4    4    0    0  0.57081663198E+01  0.40981471666E+02 -0.39071758083E+02  0.56909282743E+02  0.00000000000E+00 0. -1.
          1    1    1    2  501    0  0.25083857358E+02  0.53278653266E+02  0.71564378565E+02  0.92678341986E+02  0.00000000000E+00 0. -1.
<scales pt_clust_5="13000.00000" pt_clust_6="13000.00000" pt_clust_7="13000.00000" pt_clust_8="13000.00000" pt_clust_9="58.88818"></scales>
<clustering>
<clus scale="   58.888">  2  9  1 -1</clus>
<clus scale="   81.046">  5  6 -1 -1</clus>
<clus scale="   88.798">  7  8 -1 -1</clus>
<clus scale="  148.106">  1  5  2 -1</clus>
<clus scale="   58.888">  2  5  1 -1</clus>
</clustering>
</event>
<event>
 9    2  0.1302972E-004  0.1290578E+03  0.7546771E-02  0.1237200E+00
         21   -1    0    0  501  502  0.00000000000E+00  0.00000000000E+00  0.14787939854E+03  0.14787939854E+03  0.00000000000E+00 0.  1.
         -1   -1    0    0    0  501 -0.00000000000E+00 -0.00000000000E+00 -0.15528406290E+03  0.15528406290E+03  0.00000000000E+00 0.  1.
         23    2    1    2    0    0  0.92752097343E+02  0.26628899964E+02 -0.53540285590E+02  0.14562128031E+03  0.95010237463E+02 0.  0.
         24    2    1    2    0    0 -0.75494041565E+02  0.14471151702E+02  0.50979799976E+02  0.11270334969E+03  0.64763728147E+02 0.  0.
        -11    1    4    4    0    0 -0.35199178714E+02  0.10277290395E+02  0.60814547349E+02  0.71014182029E+02  0.00000000000E+00 0.  1.
         12    1    4    4    0    0 -0.40294862851E+02  0.41938613069E+01 -0.98347473723E+01  0.41689167666E+02  0.00000000000E+00 0. -1.
        -11    1    3    3    0    0  0.94031346104E+02  0.51595676001E+02 -0.30218435027E+02  0.11143231869E+03  0.00000000000E+00 0.  1.
         11    1    3    3    0    0 -0.12792487615E+01 -0.24966776038E+02 -0.23321850563E+02  0.34188961622E+02  0.00000000000E+00 0. -1.
         -2    1    1    2    0  502 -0.17258055778E+02 -0.41100051665E+02 -0.48441787478E+01  0.44838831429E+02  0.00000000000E+00 0.  1.
<scales pt_clust_5="13000.00000" pt_clust_6="13000.00000" pt_clust_7="13000.00000" pt_clust_8="13000.00000" pt_clust_9="44.57641"></scales>
<clustering>
<clus scale="   44.576">  1  9  2 -1</clus>
<clus scale="   64.764">  5  6 -1 -1</clus>
<clus scale="   95.010">  7  8 -1 -1</clus>
<clus scale="  108.735">  1  5  2 -1</clus>
<clus scale="   44.576">  1  5  2 -1</clus>
</clustering>
</event>
<event>
 9    2  0.1302972E-004  0.1039045E+03  0.7546771E-02  0.1277619E+00
          4   -1    0    0  502    0 -0.00000000000E+00  0.00000000000E+00  0.30622333240E+03  0.30622333240E+03  0.00000000000E+00 0. -1.
         21   -1    0    0  501  502  0.00000000000E+00 -0.00000000000E+00 -0.11007532255E+03  0.11007532255E+03  0.00000000000E+00 0. -1.
         24    2    1    2    0    0  0.56216300450E+02 -0.38384333578E+02  0.19051739837E+03  0.21731575499E+03  0.79344998469E+02 0.  0.
         23    2    1    2    0    0  0.35162224594E+02  0.32793735093E+02  0.23712009342E+02  0.10566502076E+03  0.91055071940E+02 0.  0.
        -13    1    3    3    0    0  0.20830814592E+02 -0.19694680394E+02  0.70318143065E+01  0.29516938947E+02  0.00000000000E+00 0.  1.
         14    1    3    3    0    0  0.35385485858E+02 -0.18689653184E+02  0.18348558407E+03  0.18779881604E+03  0.00000000000E+00 0. -1.
        -13    1    4    4    0    0  0.59895853808E+02 -0.23911399894E+01  0.14781373324E+02  0.61739127393E+02  0.00000000000E+00 0. -1.
         13    1    4    4    0    0 -0.24733629214E+02  0.35184875082E+02  0.89306360183E+01  0.43925893370E+02  0.00000000000E+00 0.  1.
          3    1    1    2  501    0 -0.91378525044E+02  0.55905984854E+01 -0.18081397863E+02  0.93317879205E+02  0.00000000000E+00 0. -1.
<scales pt_clust_5="13000.00000" pt_clust_6="13000.00000" pt_clust_7="13000.00000" pt_clust_8="13000.00000" pt_clust_9="91.54938"></scales>
<clustering>
<clus scale="   79.345">  5  6 -1 -1</clus>
<clus scale="   91.055">  7  8 -1 -1</clus>
<clus scale="   91.549">  2  9  1 -1</clus>
<clus scale="   93.812">  1  5  2 -1</clus>
<clus scale="   91.549">  2  5  1 -1</clus>
</clustering>
</event>
<event>
 9    2  0.1302972E-004  0.2223928E+03  0.7546771E-02  0.1132681E+00
         21   -1    0    0  501  502  0.00000000000E+00  0.00000000000E+00  0.14381102651E+03  0.14381102651E+03  0.00000000000E+00 0.  1.
          2   -1    0    0  502    0 -0.00000000000E+00 -0.00000000000E+00 -0.10227101543E+04  0.10227101543E+04  0.00000000000E+00 0. -1.
         24    2    1    2    0    0 -0.15926103432E+03 -0.11532170171E+03 -0.61311194655E+03  0.64940796633E+03  0.84624321495E+02 0.  0.
         23    2    1    2    0    0  0.26859908344E+03  0.48998412430E+01 -0.13740888632E+03  0.31554738685E+03  0.92301003466E+02 0.  0.
        -11    1    3    3    0    0 -0.10593294469E+03 -0.46401927269E+02 -0.24217154350E+03  0.26836911913E+03  0.00000000000E+00 0.  1.
         12    1    3    3    0    0 -0.53328089625E+02 -0.68919774443E+02 -0.37094040305E+03  0.38103884719E+03  0.00000000000E+00 0. -1.
        -13    1    4    4    0    0  0.58563728223E+02  0.32295166471E+02 -0.80627539360E+01  0.67362423070E+02  0.00000000000E+00 0. -1.
         13    1    4    4    0    0  0.21003535522E+03 -0.27395325228E+02 -0.12934613238E+03  0.24818496378E+03  0.00000000000E+00 0.  1.
          1    1    1    2  501    0 -0.10933804912E+03  0.11042186047E+03 -0.12837829488E+03  0.20156582759E+03  0.00000000000E+00 0. -1.
<scales pt_clust_5="13000.00000" pt_clust_6="13000.00000" pt_clust_7="13000.00000" pt_clust_8="13000.00000" pt_clust_9="155.39561"></scales>
<clustering>
<clus scale="   84.624">  5  6 -1 -1</clus>
<clus scale="   92.301">  7  8 -1 -1</clus>
<clus scale="  155.396">  1  9  2 -1</clus>
<clus scale="  219.318">  2  5  1 -1</clus>
<clus scale="  155.396">  1  5  2 -1</clus>
</clustering>
</event>
<event>
 9    2  0.1302972E-004  0.1617128E+03  0.7546771E-02  0.1188995E+00
         21   -1    0    0  501  502  0.00000000000E+00  0.00000000000E+00  0.69900872699E+02  0.69900872699E+02  0.00000000000E+00 0.  1.
          2   -1    0    0  502    0 -0.00000000000E+00 -0.00000000000E+00 -0.70044691443E+03  0.70044691443E+03  0.00000000000E+00 0. -1.
         23    2    1    2    0    0 -0.83788959877E+02 -0.10898370308E+03 -0.54625593846E+03  0.57053642604E+03  0.90654430693E+02 0.  0.
         24    2    1    2    0    0  0.92472546022E+02  0.82335041241E+02 -0.90456068247E+02  0.17111336517E+03  0.75942429983E+02 0.  0.
        -11    1    4    4    0    0  0.65429403402E+02  0.17461919160E+02 -0.17787639595E+02  0.70016609263E+02  0.00000000000E+00 0.  1.
         12    1    4    4    0    0  0.27043142619E+02  0.64873122081E+02 -0.72668428652E+02  0.10109675590E+03  0.00000000000E+00 0. -1.
        -13    1    3    3    0    0 -0.30452004731E+02 -0.96300610585E+02 -0.43414030820E+03  0.44573415777E+03  0.00000000000E+00 0. -1.
         13    1    3    3    0    0 -0.53336955146E+02 -0.12683092496E+02 -0.11211563025E+03  0.12480226827E+03  0.00000000000E+00 0.  1.
          1    1    1    2  501    0 -0.86835861447E+01  0.26648661840E+02  0.61659649706E+01  0.28697995927E+02  0.00000000000E+00 0. -1.
<scales pt_clust_5="13000.00000" pt_clust_6="13000.00000" pt_clust_7="13000.00000" pt_clust_8="13000.00000" pt_clust_9="28.02777"></scales>
<clustering>
<clus scale="   28.028">  1  9  2 -1</clus>
<clus scale="   75.942">  5  6 -1 -1</clus>
<clus scale="   90.654">  7  8 -1 -1</clus>
<clus scale="  153.948">  1  5  2 -1</clus>
<clus scale="   28.028">  1  5  2 -1</clus>
</clustering>
</event>
<event>
 9    2  0.1302972E-004  0.5664409E+03  0.7546771E-02  0.9977585E-01
          2   -1    0    0  502    0 -0.00000000000E+00  0.00000000000E+00  0.15762326852E+04  0.15762326852E+04  0.00000000000E+00 0. -1.
         21   -1    0    0  501  502  0.00000000000E+00 -0.00000000000E+00 -0.19028389044E+03  0.19028389044E+03  0.00000000000E+00 0. -1.
         24    2    1    2    0    0 -0.50920341521E+02  0.10631705037E+03  0.27029290439E+03  0.30612279399E+03  0.82199236321E+02 0.  0.
         23    2    1    2    0    0  0.28117391433E+02  0.40865926411E+03  0.59210886035E+03  0.72566793371E+03  0.90598375667E+02 0.  0.
        -13    1    3    3    0    0 -0.40187052258E+02  0.55567614459E+02  0.65388221444E+02  0.94754305704E+02  0.00000000000E+00 0.  1.
         14    1    3    3    0    0 -0.10733289263E+02  0.50749435915E+02  0.20490468295E+03  0.21136848828E+03  0.00000000000E+00 0. -1.
        -13    1    4    4    0    0 -0.16854023354E+02  0.15962347068E+02  0.46001179190E+02  0.51526334180E+02  0.00000000000E+00 0.  1.
         13    1    4    4    0    0  0.44971414787E+02  0.39269691704E+03  0.54610768116E+03  0.67414159953E+03  0.00000000000E+00 0. -1.
          1    1    1    2  501    0  0.22802950088E+02 -0.51497631448E+03  0.52354703004E+03  0.73472584797E+03  0.00000000000E+00 0. -1.
<scales pt_clust_5="13000.00000" pt_clust_6="13000.00000" pt_clust_7="13000.00000" pt_clust_8="13000.00000" pt_clust_9="515.48092"></scales>
<clustering>
<clus scale="   82.199">  5  6 -1 -1</clus>
<clus scale="   90.598">  7  8 -1 -1</clus>
<clus scale="  114.799">  5  7 -1 -1</clus>
<clus scale="  515.481">  2  9  1 -1</clus>
<clus scale="  515.481">  2  5  1 -1</clus>
</clustering>
</event>
<event>
 9    2  0.1302972E-004  0.1274069E+03  0.7546771E-02  0.1233985E+00
          2   -1    0    0  502    0 -0.00000000000E+00  0.00000000000E+00  0.16057857270E+04  0.16057857270E+04  0.00000000000E+00 0. -1.
         21   -1    0    0  501  502  0.00000000000E+00 -0.00000000000E+00 -0.20935036657E+02  0.20935036657E+02  0.00000000000E+00 0.  1.
         24    2    1    2    0    0 -0.41890341401E+02  0.83061563642E+02  0.12271231434E+04  0.12334128635E+04  0.82595755478E+02 0.  0.
         23    2    1    2    0    0  0.26769622915E+02 -0.67956728580E+02  0.35209933145E+03  0.37120656579E+03  0.92117564054E+02 0.  0.
        -11    1    3    3    0    0 -0.11208804547E+02  0.61700743953E+02  0.35552772087E+03  0.36101603761E+03  0.00000000000E+00 0.  1.
         12    1    3    3    0    0 -0.30681536854E+02  0.21360819690E+02  0.87159542250E+03  0.87239682590E+03  0.00000000000E+00 0. -1.
        -13    1    4    4    0    0 -0.14036807490E+02  0.16843334361E+02  0.92895161033E+02  0.95447581532E+02  0.00000000000E+00 0. -1.
         13    1    4    4    0    0  0.40806430405E+02 -0.84800062941E+02  0.25920417042E+03  0.27575898426E+03  0.00000000000E+00 0.  1.
          1    1    1    2  501    0  0.15120718486E+02 -0.15104835063E+02  0.56282155070E+01  0.22101334340E+02  0.00000000000E+00 0. -1.
<scales pt_clust_5="13000.00000" pt_clust_6="13000.00000" pt_clust_7="13000.00000" pt_clust_8="13000.00000" pt_clust_9="21.37270"></scales>
<clustering>
<clus scale="   21.373">  2  9  1 -1</clus>
<clus scale="   82.596">  5  6 -1 -1</clus>
<clus scale="   92.118">  7  8 -1 -1</clus>
<clus scale="  120.702">  1  5  2 -1</clus>
<clus scale="   21.373">  2  5  1 -1</clus>
</clustering>
</event>
<event>
 9    2  0.1302972E-004  0.1106438E+03  0.7546771E-02  0.1269660E+00
         21   -1    0    0  501  502  0.00000000000E+00  0.00000000000E+00  0.28916253102E+02  0.28916253102E+02  0.00000000000E+00 0.  1.
         -3   -1    0    0    0  501 -0.00000000000E+00 -0.00000000000E+00 -0.76030233953E+03  0.76030233953E+03  0.00000000000E+00 0.  1.
         23    2    1    2    0    0  0.40569082137E+02  0.59397788637E+02 -0.38490170152E+03  0.40205183361E+03  0.91227240234E+02 0.  0.
         24    2    1    2    0    0 -0.66908363736E+02  0.13712278017E+01 -0.12598186884E+03  0.15693211630E+03  0.65403734192E+02 0.  0.
        -13    1    4    4    0    0 -0.20750890557E+02 -0.92162972825E+01 -0.39015935586E+00  0.22708848910E+02  0.00000000000E+00 0.  1.
         14    1    4    4    0    0 -0.46157473179E+02  0.10587525084E+02 -0.12559170948E+03  0.13422326739E+03  0.00000000000E+00 0. -1.
        -11    1    3    3    0    0  0.37346411728E+01 -0.21922970733E+02 -0.13189694383E+03  0.13375861834E+03  0.00000000000E+00 0. -1.
         11    1    3    3    0    0  0.36834440964E+02  0.81320759370E+02 -0.25300475769E+03  0.26829321527E+03  0.00000000000E+00 0.  1.
         -4    1    1    2    0  502  0.26339281599E+02 -0.60769016438E+02 -0.22050251607E+03  0.23023464272E+03  0.00000000000E+00 0.  1.
<scales pt_clust_5="13000.00000" pt_clust_6="13000.00000" pt_clust_7="13000.00000" pt_clust_8="13000.00000" pt_clust_9="66.23168"></scales>
<clustering>
<clus scale="   65.404">  5  6 -1 -1</clus>
<clus scale="   66.232">  1  9  2 -1</clus>
<clus scale="   90.539">  1  5  2 -1</clus>
<clus scale="   91.227">  7  8 -1 -1</clus>
<clus scale="   66.232">  1  5  2 -1</clus>
</clustering>
</event>
<event>
 9    2  0.1302972E-004  0.9069720E+02  0.7546771E-02  0.1315694E+00
         21   -1    0    0  501  502  0.00000000000E+00  0.00000000000E+00  0.93395785488E+02  0.93395785488E+02  0.00000000000E+00 0.  1.
         -1   -1    0    0    0  501 -0.00000000000E+00 -0.00000000000E+00 -0.12381951472E+03  0.12381951472E+03  0.00000000000E+00 0.  1.
         23    2    1    2    0    0 -0.20735342553E+01 -0.10605384878E+02 -0.43134405398E+02  0.10035429939E+03  0.89964630519E+02 0.  0.
         24    2    1    2    0    0 -0.31408922609E+02 -0.26217027750E+01  0.23738958955E+02  0.79209257343E+02  0.68681689930E+02 0.  0.
        -11    1    4    4    0    0 -0.47684615047E+02  0.23932800406E+01  0.34641186976E+02  0.58987813458E+02  0.00000000000E+00 0.  1.
         12    1    4    4    0    0  0.16275692437E+02 -0.50149828156E+01 -0.10902228021E+02  0.20221443884E+02  0.00000000000E+00 0. -1.
        -11    1    3    3    0    0 -0.12251108837E+02  0.38287375224E+02 -0.24339596153E+02  0.46993922056E+02  0.00000000000E+00 0.  1.
         11    1    3    3    0    0  0.10177574582E+02 -0.48892760102E+02 -0.18794809245E+02  0.53360377335E+02  0.00000000000E+00 0. -1.
         -2    1    1    2    0  502  0.33482456865E+02  0.13227087653E+02 -0.11028282790E+02  0.37651743476E+02  0.00000000000E+00 0.  1.
<scales pt_clust_5="13000.00000" pt_clust_6="13000.00000" pt_clust_7="13000.00000" pt_clust_8="13000.00000" pt_clust_9="36.00045"></scales>
<clustering>
<clus scale="   36.000">  1  9  2 -1</clus>
<clus scale="   68.682">  5  6 -1 -1</clus>
<clus scale="   69.639">  1  5  2 -1</clus>
<clus scale="   89.965">  7  8 -1 -1</clus>
<clus scale="   36.000">  1  5  2 -1</clus>
</clustering>
</event>
<event>
 9    2  0.1302972E-004  0.1459175E+03  0.7546771E-02  0.1209451E+00
         21   -1    0    0  501  502  0.00000000000E+00  0.00000000000E+00  0.11421125819E+03  0.11421125819E+03  0.00000000000E+00 0.  1.
         -1   -1    0    0    0  501 -0.00000000000E+00 -0.00000000000E+00 -0.29366593340E+03  0.29366593340E+03  0.00000000000E+00 0.  1.
         24    2    1    2    0    0 -0.33962439261E+02  0.10826100562E+03 -0.14991121529E+03  0.20432682617E+03  0.80013666373E+02 0.  0.
         23    2    1    2    0    0 -0.50473226788E+01 -0.96022568730E+02  0.20409505636E+02  0.13899930321E+03  0.98277409412E+02 0.  0.
        -13    1    3    3    0    0 -0.12240051552E+02  0.99716826658E+02 -0.73640106903E+02  0.12456375767E+03  0.00000000000E+00 0.  1.
         14    1    3    3    0    0 -0.21722387708E+02  0.85441789568E+01 -0.76271108389E+02  0.79763068501E+02  0.00000000000E+00 0. -1.
        -13    1    4    4    0    0  0.40025506128E+02 -0.74389833531E+02  0.26738506531E+02  0.88604944586E+02  0.00000000000E+00 0.  1.
         13    1    4    4    0    0 -0.45072828807E+02 -0.21632735199E+02 -0.63290008945E+01  0.50394358624E+02  0.00000000000E+00 0. -1.
         -2    1    1    2    0  502  0.39009761940E+02 -0.12238436885E+02 -0.49952965554E+02  0.64551062204E+02  0.00000000000E+00 0.  1.
<scales pt_clust_5="13000.00000" pt_clust_6="13000.00000" pt_clust_7="13000.00000" pt_clust_8="13000.00000" pt_clust_9="40.88450"></scales>
<clustering>
<clus scale="   40.885">  1  9  2 -1</clus>
<clus scale="   80.014">  5  6 -1 -1</clus>
<clus scale="   98.277">  7  8 -1 -1</clus>
<clus scale="  134.297">  2  5  1 -1</clus>
<clus scale="   40.885">  1  5  2 -1</clus>
</clustering>
</event>
<event>
 9    2  0.1302972E-004  0.1761149E+03  0.7546771E-02  0.1173135E+00
         -3   -1    0    0    0  501 -0.00000000000E+00  0.00000000000E+00  0.24194646198E+03  0.24194646198E+03  0.00000000000E+00 0.  1.
         21   -1    0    0  501  502  0.00000000000E+00 -0.00000000000E+00 -0.36551076932E+03  0.36551076932E+03  0.00000000000E+00 0. -1.
         24    2    1    2    0    0  0.10748878012E+03 -0.10337800355E+03  0.16996058266E+03  0.24023011161E+03  0.81136042527E+02 0.  0.
         23    2    1    2    0    0 -0.13386408161E+03  0.80835978166E+02 -0.26890696059E+03  0.32468488321E+03  0.93033715514E+02 0.  0.
        -11    1    3    3    0    0  0.91249711217E+02 -0.74169052950E+02  0.17012600369E+03  0.20681009488E+03  0.00000000000E+00 0.  1.
         12    1    3    3    0    0  0.16239068902E+02 -0.29208950597E+02 -0.16542103590E+00  0.33420016725E+02  0.00000000000E+00 0. -1.
        -13    1    4    4    0    0 -0.44610814283E+02  0.77794277843E+02 -0.10547853673E+03  0.13844781012E+03  0.00000000000E+00 0.  1.
         13    1    4    4    0    0 -0.89253267323E+02  0.30417003232E+01 -0.16342842386E+03  0.18623707309E+03  0.00000000000E+00 0. -1.
         -4    1    1    2    0  502  0.26375301487E+02  0.22542025381E+02 -0.24617929404E+02  0.42542236483E+02  0.00000000000E+00 0.  1.
<scales pt_clust_5="13000.00000" pt_clust_6="13000.00000" pt_clust_7="13000.00000" pt_clust_8="13000.00000" pt_clust_9="34.69581"></scales>
<clustering>
<clus scale="   34.696">  2  9  1 -1</clus>
<clus scale="   81.136">  5  6 -1 -1</clus>
<clus scale="   93.034">  7  8 -1 -1</clus>
<clus scale="  170.130">  1  5  2 -1</clus>
<clus scale="   34.696">  2  5  1 -1</clus>
</clustering>
</event>
<event>
 9    2  0.1302972E-004  0.1112285E+03  0.7546771E-02  0.1261330E+00
         21   -1    0    0  501  502  0.00000000000E+00  0.00000000000E+00  0.24667491144E+03  0.24667491144E+03  0.00000000000E+00 0.  1.
         -3   -1    0    0    0  501 -0.00000000000E+00 -0.00000000000E+00 -0.39595370063E+03  0.39595370063E+03  0.00000000000E+00 0.  1.
         24    2    1    2    0    0  0.62476051270E+02 -0.27585132179E+02 -0.35232377126E+03  0.36819354552E+03  0.82281532955E+02 0.  0.
         23    2    1    2    0    0 -0.22309707703E+02  0.32736283425E+02  0.39966050787E+02  0.10640350003E+03  0.90305217419E+02 0.  0.
        -13    1    3    3    0    0 -0.21708232870E+01 -0.34317563838E+02 -0.19439565905E+03  0.19741347451E+03  0.00000000000E+00 0.  1.
         14    1    3    3    0    0  0.64646874557E+02  0.67324316591E+01 -0.15792811222E+03  0.17078007101E+03  0.00000000000E+00 0. -1.
        -11    1    4    4    0    0 -0.41427463806E+02 -0.13085002412E+02  0.12836238320E+01  0.43463774982E+02  0.00000000000E+00 0. -1.
         11    1    4    4    0    0  0.19117756103E+02  0.45821285837E+02  0.38682426955E+02  0.62939725049E+02  0.00000000000E+00 0.  1.
         -4    1    1    2    0  502 -0.40166343567E+02 -0.51511512460E+01  0.16307893129E+03  0.16803156651E+03  0.00000000000E+00 0.  1.
<scales pt_clust_5="13000.00000" pt_clust_6="13000.00000" pt_clust_7="13000.00000" pt_clust_8="13000.00000" pt_clust_9="40.49530"></scales>
<clustering>
<clus scale="   40.495">  1  9  2 -1</clus>
<clus scale="   82.282">  5  6 -1 -1</clus>
<clus scale="   90.305">  7  8 -1 -1</clus>
<clus scale="  104.819">  2  5  1 -1</clus>
<clus scale="   40.495">  1  5  2 -1</clus>
</clustering>
</event>
<event>
 9    2  0.1302972E-004  0.1634656E+03  0.7546771E-02  0.1206735E+00
          2   -1    0    0  502    0 -0.00000000000E+00  0.00000000000E+00  0.13205149722E+04  0.13205149722E+04  0.00000000000E+00 0. -1.
         21   -1    0    0  501  502  0.00000000000E+00 -0.00000000000E+00 -0.44697022639E+02  0.44697022639E+02  0.00000000000E+00 0.  1.
         24    2    1    2    0    0 -0.37602117813E+02  0.50183233801E+02  0.65892692726E+03  0.66666001151E+03  0.79489617268E+02 0.  0.
         23    2    1    2    0    0  0.11837697024E+03 -0.13778676752E+03  0.45022798756E+03  0.49367269435E+03  0.89494066719E+02 0.  0.
        -11    1    3    3    0    0 -0.16525708748E+01  0.61872338550E+02  0.35022687382E+03  0.35565401785E+03  0.00000000000E+00 0.  1.
         12    1    3    3    0    0 -0.35949546938E+02 -0.11689104749E+02  0.30870005344E+03  0.31100599365E+03  0.00000000000E+00 0. -1.
        -11    1    4    4    0    0  0.90321827201E+02 -0.37633425759E+02  0.19859493453E+03  0.22139163314E+03  0.00000000000E+00 0. -1.
         11    1    4    4    0    0  0.28055143039E+02 -0.10015334176E+03  0.25163305303E+03  0.27228106121E+03  0.00000000000E+00 0.  1.
          1    1    1    2  501    0 -0.80774852428E+02  0.87603533718E+02  0.16666303474E+03  0.20487928898E+03  0.00000000000E+00 0. -1.
<scales pt_clust_5="13000.00000" pt_clust_6="13000.00000" pt_clust_7="13000.00000" pt_clust_8="13000.00000" pt_clust_9="136.79112"></scales>
<clustering>
<clus scale="   79.490">  5  6 -1 -1</clus>
<clus scale="   89.494">  7  8 -1 -1</clus>
<clus scale="  101.247">  1  5  2 -1</clus>
<clus scale="  136.791">  2  9  1 -1</clus>
<clus scale="  136.791">  2  5  1 -1</clus>
</clustering>
</event>
<event>
 9    2  0.1302972E-004  0.9730152E+02  0.7546771E-02  0.1291164E+00
         21   -1    0    0  501  502  0.00000000000E+00  0.00000000000E+00  0.10745075386E+04  0.10745075386E+04  0.00000000000E+00 0. -1.
          4   -1    0    0  502    0 -0.00000000000E+00 -0.00000000000E+00 -0.15489058918E+02  0.15489058918E+02  0.00000000000E+00 0. -1.
         23    2    1    2    0    0  0.25510628866E+02  0.23082295677E+02  0.19519426572E+03  0.21813869305E+03  0.91104903704E+02 0.  0.
         24    2    1    2    0    0 -0.52682096377E+01 -0.40406883739E+02  0.69158716195E+03  0.69757222240E+03  0.81570414969E+02 0.  0.
        -11    1    4    4    0    0  0.12543290042E+02 -0.27615922530E+02  0.79455707703E+02  0.85048120431E+02  0.00000000000E+00 0.  1.
         12    1    4    4    0    0 -0.17811499680E+02 -0.12790961209E+02  0.61213145425E+03  0.61252410197E+03  0.00000000000E+00 0. -1.
        -13    1    3    3    0    0 -0.32926976650E+02  0.23851741487E+01  0.46398270664E+02  0.56944484962E+02  0.00000000000E+00 0.  1.
         13    1    3    3    0    0  0.58437605515E+02  0.20697121528E+02  0.14879599505E+03  0.16119420809E+03  0.00000000000E+00 0. -1.
          3    1    1    2  501    0 -0.20242419228E+02  0.17324588062E+02  0.17223705201E+03  0.17428568206E+03  0.00000000000E+00 0. -1.
<scales pt_clust_5="13000.00000" pt_clust_6="13000.00000" pt_clust_7="13000.00000" pt_clust_8="13000.00000" pt_clust_9="26.64389"></scales>
<clustering>
<clus scale="   26.644">  1  9  2 -1</clus>
<clus scale="   81.570">  5  6 -1 -1</clus>
<clus scale="   88.438">  1  5  2 -1</clus>
<clus scale="   91.105">  7  8 -1 -1</clus>
<clus scale="   26.644">  1  5  2 -1</clus>
</clustering>
</event>
<event>
 9    2  0.1302972E-004  0.1253983E+03  0.7546771E-02  0.1247227E+00
         21   -1    0    0  501  502  0.00000000000E+00  0.00000000000E+00  0.26119689273E+03  0.26119689273E+03  0.00000000000E+00 0. -1.
         -1   -1    0    0    0  501 -0.00000000000E+00 -0.00000000000E+00 -0.25100838006E+03  0.25100838006E+03  0.00000000000E+00 0.  1.
         23    2    1    2    0    0  0.16902175080E+02 -0.43361495946E+02 -0.18603558949E+03  0.20969786038E+03  0.84841317977E+02 0.  0.
         24    2    1    2    0    0  0.49248808710E+02 -0.55418160884E+02  0.10291804553E+03  0.15138033521E+03  0.82627259887E+02 0.  0.
        -11    1    4    4    0    0  0.46633460065E+02  0.17142345154E+01  0.73508435232E+02  0.87069559824E+02  0.00000000000E+00 0.  1.
         12    1    4    4    0    0  0.26153486446E+01 -0.57132395400E+02  0.29409610302E+02  0.64310775386E+02  0.00000000000E+00 0. -1.
        -13    1    3    3    0    0 -0.27625065700E+02 -0.17082787942E+01 -0.10316602428E+03  0.10681428293E+03  0.00000000000E+00 0. -1.
         13    1    3    3    0    0  0.44527240780E+02 -0.41653217151E+02 -0.82869565208E+02  0.10288357745E+03  0.00000000000E+00 0.  1.
         -2    1    1    2    0  502 -0.66150983789E+02  0.98779656830E+02  0.93306056634E+02  0.15112707720E+03  0.00000000000E+00 0.  1.
<scales pt_clust_5="13000.00000" pt_clust_6="13000.00000" pt_clust_7="13000.00000" pt_clust_8="13000.00000" pt_clust_9="94.32642"></scales>
<clustering>
<clus scale="   82.627">  5  6 -1 -1</clus>
<clus scale="   84.841">  7  8 -1 -1</clus>
<clus scale="   96.768">  2  7  1 -1</clus>
<clus scale="   94.326">  1  9  2 -1</clus>
<clus scale="   94.326">  1  5  2 -1</clus>
</clustering>
</event>
<event>
 9    2  0.1302972E-004  0.9231334E+02  0.7546771E-02  0.1303969E+00
          2   -1    0    0  502    0 -0.00000000000E+00  0.00000000000E+00  0.36535427081E+03  0.36535427081E+03  0.00000000000E+00 0. -1.
         21   -1    0    0  501  502  0.00000000000E+00 -0.00000000000E+00 -0.16573100946E+03  0.16573100946E+03  0.00000000000E+00 0. -1.
         23    2    1    2    0    0 -0.77903097663E+01  0.32488618800E+01  0.27619295826E+03  0.29114846585E+03  0.91725868466E+02 0.  0.
         24    2    1    2    0    0  0.32236182967E+02 -0.45756375475E+02 -0.13279326781E+03  0.16533400379E+03  0.81046057560E+02 0.  0.
        -11    1    4    4    0    0 -0.23883966296E+02 -0.19907134110E+02 -0.20740789818E+02  0.37375368851E+02  0.00000000000E+00 0.  1.
         12    1    4    4    0    0  0.56120149263E+02 -0.25849241365E+02 -0.11205247799E+03  0.12795863494E+03  0.00000000000E+00 0. -1.
        -13    1    3    3    0    0 -0.10837655376E+02 -0.40018593544E+02  0.78748773021E+02  0.88996133937E+02  0.00000000000E+00 0.  1.
         13    1    3    3    0    0  0.30473456100E+01  0.43267455424E+02  0.19744418524E+03  0.20215233192E+03  0.00000000000E+00 0. -1.
          1    1    1    2  501    0 -0.24445873201E+02  0.42507513595E+02  0.56223570895E+02  0.74602810622E+02  0.00000000000E+00 0. -1.
<scales pt_clust_5="13000.00000" pt_clust_6="13000.00000" pt_clust_7="13000.00000" pt_clust_8="13000.00000" pt_clust_9="49.03562"></scales>
<clustering>
<clus scale="   49.036">  2  9  1 -1</clus>
<clus scale="   81.046">  5  6 -1 -1</clus>
<clus scale="   81.710">  2  5  1 -1</clus>
<clus scale="   91.726">  7  8 -1 -1</clus>
<clus scale="   49.036">  2  5  1 -1</clus>
</clustering>
</event>
<event>
 9    2  0.1302972E-004  0.1086853E+03  0.7546771E-02  0.1275041E+00
         21   -1    0    0  501  502  0.00000000000E+00  0.00000000000E+00  0.75785749712E+02  0.75785749712E+02  0.00000000000E+00 0. -1.
          2   -1    0    0  502    0 -0.00000000000E+00 -0.00000000000E+00 -0.27000045614E+03  0.27000045614E+03  0.00000000000E+00 0. -1.
         23    2    1    2    0    0 -0.25451782601E+02  0.91041160075E+01 -0.17097555709E+03  0.20108674946E+03  0.10233553401E+03 0.  0.
         24    2    1    2    0    0  0.65736294678E+02 -0.79051136429E+01 -0.12830738882E+02  0.10307476987E+03  0.77948887503E+02 0.  0.
        -11    1    4    4    0    0  0.74619091543E+02 -0.53919854405E+01 -0.32330238946E+02  0.81500470428E+02  0.00000000000E+00 0.  1.
         12    1    4    4    0    0 -0.88827968648E+01 -0.25131282024E+01  0.19499500064E+02  0.21574299438E+02  0.00000000000E+00 0. -1.
        -11    1    3    3    0    0  0.28903695455E+02  0.36281320043E+01 -0.12884689641E+03  0.13209886323E+03  0.00000000000E+00 0. -1.
         11    1    3    3    0    0 -0.54355478056E+02  0.54759840032E+01 -0.42128660681E+02  0.68987886229E+02  0.00000000000E+00 0.  1.
          1    1    1    2  501    0 -0.40284512077E+02 -0.11990023646E+01 -0.10408410454E+02  0.41624686523E+02  0.00000000000E+00 0. -1.
<scales pt_clust_5="13000.00000" pt_clust_6="13000.00000" pt_clust_7="13000.00000" pt_clust_8="13000.00000" pt_clust_9="40.30235"></scales>
<clustering>
<clus scale="   40.302">  1  9  2 -1</clus>
<clus scale="   77.949">  5  6 -1 -1</clus>
<clus scale="   86.116">  1  5  2 -1</clus>
<clus scale="  102.336">  7  8 -1 -1</clus>
<clus scale="   40.302">  1  5  2 -1</clus>
</clustering>
</event>
<event>
 9    2  0.1302972E-004  0.2172478E+03  0.7546771E-02  0.1166650E+00
          2   -1    0    0  502    0 -0.00000000000E+00  0.00000000000E+00  0.32987412297E+03  0.32987412297E+03  0.00000000000E+00 0. -1.
         21   -1    0    0  501  502  0.00000000000E+00 -0.00000000000E+00 -0.27942468302E+03  0.27942468302E+03  0.00000000000E+00 0.  1.
         24    2    1    2    0    0  0.21610648059E+02  0.63891272189E+02 -0.12283328226E+02  0.10584686488E+03  0.80644676708E+02 0.  0.
         23    2    1    2    0    0 -0.20192885269E+03 -0.84982702741E+01 -0.10987041709E+03  0.24776678482E+03  0.92029283163E+02 0.  0.
        -11    1    3    3    0    0 -0.15672753530E+01  0.53112638387E+02 -0.41210772546E+02  0.67243858324E+02  0.00000000000E+00 0.  1.
         12    1    3    3    0    0  0.23177923412E+02  0.10778633802E+02  0.28927444320E+02  0.38603006556E+02  0.00000000000E+00 0. -1.
        -13    1    4    4    0    0 -0.15377376916E+03 -0.45249458922E+00 -0.12333158452E+03  0.19712244056E+03  0.00000000000E+00 0.  1.
         13    1    4    4    0    0 -0.48155083530E+02 -0.80457756849E+01  0.13461167430E+02  0.50644344252E+02  0.00000000000E+00 0. -1.
          1    1    1    2  501    0  0.18031820463E+03 -0.55393001915E+02  0.17260318527E+03  0.25568515629E+03  0.00000000000E+00 0. -1.
<scales pt_clust_5="13000.00000" pt_clust_6="13000.00000" pt_clust_7="13000.00000" pt_clust_8="13000.00000" pt_clust_9="196.79238"></scales>
<clustering>
<clus scale="   80.645">  5  6 -1 -1</clus>
<clus scale="   92.029">  7  8 -1 -1</clus>
<clus scale="  105.132">  1  5  2 -1</clus>
<clus scale="  196.792">  2  9  1 -1</clus>
<clus scale="  196.792">  2  5  1 -1</clus>
</clustering>
</event>
<event>
 9    2  0.1302972E-004  0.1222301E+03  0.7546771E-02  0.1240838E+00
         21   -1    0    0  501  502  0.00000000000E+00  0.00000000000E+00  0.57095079398E+02  0.57095079398E+02  0.00000000000E+00 0.  1.
         -3   -1    0    0    0  501 -0.00000000000E+00 -0.00000000000E+00 -0.44878011249E+03  0.44878011249E+03  0.00000000000E+00 0.  1.
         24    2    1    2    0    0  0.97740322326E+02 -0.24781494989E+02 -0.20056182244E+03  0.24366614184E+03  0.94767351754E+02 0.  0.
         23    2    1    2    0    0 -0.52875660445E+02 -0.25482388101E+02 -0.88534913257E+02  0.13947496924E+03  0.90386108488E+02 0.  0.
        -11    1    3    3    0    0  0.93851054031E+02  0.30903174226E+01 -0.91788915783E+02  0.13131174915E+03  0.00000000000E+00 0.  1.
         12    1    3    3    0    0  0.38892682956E+01 -0.27871812411E+02 -0.10877290666E+03  0.11235439269E+03  0.00000000000E+00 0. -1.
        -11    1    4    4    0    0 -0.19933965779E+02  0.29959871261E+02 -0.57676856956E+02  0.67982179326E+02  0.00000000000E+00 0.  1.
         11    1    4    4    0    0 -0.32941694666E+02 -0.55442259362E+02 -0.30858056301E+02  0.71492789911E+02  0.00000000000E+00 0. -1.
         -4    1    1    2    0  502 -0.44864661881E+02  0.50263883090E+02 -0.10258829739E+03  0.12273408080E+03  0.00000000000E+00 0.  1.
<scales pt_clust_5="13000.00000" pt_clust_6="13000.00000" pt_clust_7="13000.00000" pt_clust_8="13000.00000" pt_clust_9="67.37433"></scales>
<clustering>
<clus scale="   67.374">  1  9  2 -1</clus>
<clus scale="   90.386">  7  8 -1 -1</clus>
<clus scale="   94.767">  5  6 -1 -1</clus>
<clus scale="  118.865">  1  7  2 -1</clus>
<clus scale="   67.374">  1  5  2 -1</clus>
</clustering>
</event>
<event>
 9    2  0.1302972E-004  0.1824208E+03  0.7546771E-02  0.1179251E+00
         21   -1    0    0  501  502  0.00000000000E+00  0.00000000000E+00  0.25817546210E+03  0.25817546210E+03  0.00000000000E+00 0. -1.
          2   -1    0    0  502    0 -0.00000000000E+00 -0.00000000000E+00 -0.84886027741E+03  0.84886027741E+03  0.00000000000E+00 0. -1.
         23    2    1    2    0    0  0.95607944293E+02 -0.25561586433E+02  0.80616147234E+01  0.13354635866E+03  0.89304907857E+02 0.  0.
         24    2    1    2    0    0 -0.25333752534E+03  0.33809296969E+02 -0.72380113008E+03  0.77203138654E+03  0.82591861517E+02 0.  0.
        -11    1    4    4    0    0 -0.15915740007E+03 -0.15128748626E+02 -0.48596915024E+03  0.51159160667E+03  0.00000000000E+00 0.  1.
         12    1    4    4    0    0 -0.94180125271E+02  0.48938045595E+02 -0.23783197985E+03  0.26043977987E+03  0.00000000000E+00 0. -1.
        -11    1    3    3    0    0  0.88953222360E+02 -0.53928056580E+02  0.88472402810E+01  0.10439916051E+03  0.00000000000E+00 0. -1.
         11    1    3    3    0    0  0.66547219327E+01  0.28366470147E+02 -0.78562555766E+00  0.29147198152E+02  0.00000000000E+00 0.  1.
          1    1    1    2  501    0  0.15772958105E+03 -0.82477105361E+01  0.12505470004E+03  0.20145799430E+03  0.00000000000E+00 0. -1.
<scales pt_clust_5="13000.00000" pt_clust_6="13000.00000" pt_clust_7="13000.00000" pt_clust_8="13000.00000" pt_clust_9="162.65276"></scales>
<clustering>
<clus scale="   82.592">  5  6 -1 -1</clus>
<clus scale="   89.305">  7  8 -1 -1</clus>
<clus scale="  133.303">  2  7  1 -1</clus>
<clus scale="  162.653">  1  9  2 -1</clus>
<clus scale="  162.653">  1  5  2 -1</clus>
</clustering>
</event>
<event>
 9    2  0.1302972E-004  0.1162403E+03  0.7546771E-02  0.1254298E+00
         -1   -1    0    0    0  501 -0.00000000000E+00  0.00000000000E+00  0.22169815079E+03  0.22169815079E+03  0.00000000000E+00 0.  1.
         21   -1    0    0  501  502  0.00000000000E+00 -0.00000000000E+00 -0.11050627641E+03  0.11050627641E+03  0.00000000000E+00 0.  1.
         23    2    1    2    0    0  0.50836741613E+02  0.36938533885E+02  0.28780359192E+02  0.11619401442E+03  0.93401875397E+02 0.  0.
         24    2    1    2    0    0  0.17322287332E+01 -0.92617825477E+02  0.40414374098E+02  0.12867519644E+03  0.79642465632E+02 0.  0.
        -11    1    4    4    0    0  0.68792731483E+01 -0.10373737423E+03  0.21541277298E+02  0.10617341399E+03  0.00000000000E+00 0.  1.
         12    1    4    4    0    0 -0.51470444151E+01  0.11119548748E+02  0.18873096799E+02  0.22501782449E+02  0.00000000000E+00 0. -1.
        -11    1    3    3    0    0  0.15299447228E+02  0.63799709276E+02  0.28789576872E+02  0.71647161323E+02  0.00000000000E+00 0.  1.
         11    1    3    3    0    0  0.35537294385E+02 -0.26861175391E+02 -0.92176797294E-02  0.44546853094E+02  0.00000000000E+00 0. -1.
         -2    1    1    2    0  502 -0.52568970346E+02  0.55679291592E+02  0.41997141093E+02  0.87335216353E+02  0.00000000000E+00 0.  1.
<scales pt_clust_5="13000.00000" pt_clust_6="13000.00000" pt_clust_7="13000.00000" pt_clust_8="13000.00000" pt_clust_9="76.57471"></scales>
<clustering>
<clus scale="   76.575">  2  9  1 -1</clus>
<clus scale="   79.642">  5  6 -1 -1</clus>
<clus scale="   93.402">  7  8 -1 -1</clus>
<clus scale="  105.503">  2  5  1 -1</clus>
<clus scale="   76.575">  2  5  1 -1</clus>
</clustering>
</event>
<event>
 9    2  0.1302972E-004  0.1468807E+03  0.7546771E-02  0.1205671E+00
          2   -1    0    0  502    0 -0.00000000000E+00  0.00000000000E+00  0.67448696108E+03  0.67448696108E+03  0.00000000000E+00 0. -1.
         21   -1    0    0  501  502  0.00000000000E+00 -0.00000000000E+00 -0.71630760221E+02  0.71630760221E+02  0.00000000000E+00 0.  1.
         23    2    1    2    0    0 -0.49150753067E+02 -0.11865141333E+03  0.14740034614E+03  0.21465033511E+03  0.88622513572E+02 0.  0.
         24    2    1    2    0    0  0.76712708992E+02  0.78025378894E+02  0.91831957908E+02  0.16454440459E+03  0.81663658481E+02 0.  0.
        -13    1    4    4    0    0  0.62835878605E+02  0.92161515135E+02  0.92223230568E+02  0.14473153343E+03  0.00000000000E+00 0.  1.
         14    1    4    4    0    0  0.13876830387E+02 -0.14136136241E+02 -0.39127265954E+00  0.19812871163E+02  0.00000000000E+00 0. -1.
        -11    1    3    3    0    0 -0.72175761295E+02 -0.10610911761E+03  0.11028377403E+03  0.16920696255E+03  0.00000000000E+00 0.  1.
         11    1    3    3    0    0  0.23025008227E+02 -0.12542295714E+02  0.37116572102E+02  0.45443372567E+02  0.00000000000E+00 0. -1.
          1    1    1    2  501    0 -0.27561955925E+02  0.40626034435E+02  0.36362389681E+03  0.36692298159E+03  0.00000000000E+00 0. -1.
<scales pt_clust_5="13000.00000" pt_clust_6="13000.00000" pt_clust_7="13000.00000" pt_clust_8="13000.00000" pt_clust_9="49.09316"></scales>
<clustering>
<clus scale="   49.093">  2  9  1 -1</clus>
<clus scale="   81.664">  5  6 -1 -1</clus>
<clus scale="   88.623">  7  8 -1 -1</clus>
<clus scale="  142.790">  2  5  1 -1</clus>
<clus scale="   49.093">  2  5  1 -1</clus>
</clustering>
</event>
<event>
 9    2  0.1302972E-004  0.9929125E+02  0.7546771E-02  0.1286862E+00
         21   -1    0    0  501  502  0.00000000000E+00  0.00000000000E+00  0.24579817644E+02  0.24579817644E+02  0.00000000000E+00 0.  1.
         -1   -1    0    0    0  501 -0.00000000000E+00 -0.00000000000E+00 -0.47392803282E+03  0.47392803282E+03  0.00000000000E+00 0.  1.
         23    2    1    2    0    0  0.40180380160E+02 -0.26194258190E+02 -0.25264210685E+03  0.27292115667E+03  0.91418387043E+02 0.  0.
         24    2    1    2    0    0 -0.23961425857E+02  0.12847351641E+02 -0.13137257055E+03  0.15695969073E+03  0.81476302357E+02 0.  0.
        -13    1    4    4    0    0 -0.16757436042E+02  0.28735822293E+02 -0.10569954092E+02  0.34903912031E+02  0.00000000000E+00 0.  1.
         14    1    4    4    0    0 -0.72039898154E+01 -0.15888470653E+02 -0.12080261646E+03  0.12205577870E+03  0.00000000000E+00 0. -1.
        -13    1    3    3    0    0  0.59577100509E+02 -0.35396879794E+01 -0.92901602327E+02  0.11042041483E+03  0.00000000000E+00 0.  1.
         13    1    3    3    0    0 -0.19396720350E+02 -0.22654570210E+02 -0.15974050453E+03  0.16250074184E+03  0.00000000000E+00 0. -1.
         -2    1    1    2    0  502 -0.16218954303E+02  0.13346906549E+02 -0.65333537771E+02  0.68627003073E+02  0.00000000000E+00 0.  1.
<scales pt_clust_5="13000.00000" pt_clust_6="13000.00000" pt_clust_7="13000.00000" pt_clust_8="13000.00000" pt_clust_9="21.00464"></scales>
<clustering>
<clus scale="   21.005">  1  9  2 -1</clus>
<clus scale="   81.476">  5  6 -1 -1</clus>
<clus scale="   90.221">  1  5  2 -1</clus>
<clus scale="   91.418">  7  8 -1 -1</clus>
<clus scale="   21.005">  1  5  2 -1</clus>
</clustering>
</event>
<event>
 9    2  0.1302972E-004  0.1635060E+03  0.7546771E-02  0.1217936E+00
          2   -1    0    0  502    0 -0.00000000000E+00  0.00000000000E+00  0.69203948822E+03  0.69203948822E+03  0.00000000000E+00 0. -1.
         21   -1    0    0  501  502  0.00000000000E+00 -0.00000000000E+00 -0.85704827917E+02  0.85704827917E+02  0.00000000000E+00 0.  1.
         24    2    1    2    0    0 -0.72907334255E+01  0.11780560194E+01 -0.82797235653E+01  0.80152828257E+02  0.79381228546E+02 0.  0.
         23    2    1    2    0    0  0.58269695515E+02 -0.12324838687E+03  0.18295933566E+03  0.24612044684E+03  0.92280190550E+02 0.  0.
        -11    1    3    3    0    0  0.26622133728E+01  0.37599362290E+02 -0.17082160673E+02  0.41383567245E+02  0.00000000000E+00 0.  1.
         12    1    3    3    0    0 -0.99529467983E+01 -0.36421306270E+02  0.88024371081E+01  0.38769261012E+02  0.00000000000E+00 0. -1.
        -11    1    4    4    0    0  0.82980290505E+02 -0.83830063667E+02  0.13581752803E+03  0.17988776808E+03  0.00000000000E+00 0.  1.
         11    1    4    4    0    0 -0.24710594990E+02 -0.39418323203E+02  0.47141807631E+02  0.66232678759E+02  0.00000000000E+00 0. -1.
          1    1    1    2  501    0 -0.50978962090E+02  0.12207033085E+03  0.43165504821E+03  0.45147104103E+03  0.00000000000E+00 0. -1.
<scales pt_clust_5="13000.00000" pt_clust_6="13000.00000" pt_clust_7="13000.00000" pt_clust_8="13000.00000" pt_clust_9="134.97625"></scales>
<clustering>
<clus scale="   79.381">  5  6 -1 -1</clus>
<clus scale="   79.724">  1  5  2 -1</clus>
<clus scale="   92.280">  7  8 -1 -1</clus>
<clus scale="  134.976">  2  9  1 -1</clus>
<clus scale="  134.976">  2  5  1 -1</clus>
</clustering>
</event>
<event>
 9    2  0.1302972E-004  0.9159668E+02  0.7546771E-02  0.1304481E+00
          2   -1    0    0  502    0 -0.00000000000E+00  0.00000000000E+00  0.32049885785E+03  0.32049885785E+03  0.00000000000E+00 0. -1.
         21   -1    0    0  501  502  0.00000000000E+00 -0.00000000000E+00 -0.86610567078E+02  0.86610567078E+02  0.00000000000E+00 0. -1.
         24    2    1    2    0    0 -0.10318655049E+02 -0.18388560314E+02  0.18510409941E+03  0.20325089585E+03  0.81257524273E+02 0.  0.
         23    2    1    2    0    0 -0.42866585633E+02  0.80977382877E+01  0.90893634681E+02  0.13524529376E+03  0.90147208101E+02 0.  0.
        -11    1    3    3    0    0 -0.97169981157E+01 -0.45146506882E+02  0.62216351625E+02  0.77482266007E+02  0.00000000000E+00 0.  1.
         12    1    3    3    0    0 -0.60165693361E+00  0.26757946569E+02  0.12288774779E+03  0.12576862984E+03  0.00000000000E+00 0. -1.
        -11    1    4    4    0    0 -0.46828797283E+02 -0.16429321204E+02  0.10003184086E+02  0.50625315229E+02  0.00000000000E+00 0. -1.
         11    1    4    4    0    0  0.39622116500E+01  0.24527059492E+02  0.80890450594E+02  0.84619978526E+02  0.00000000000E+00 0.  1.
          1    1    1    2  501    0  0.53185240682E+02  0.10290822026E+02 -0.42109443325E+02  0.68613235323E+02  0.00000000000E+00 0. -1.
<scales pt_clust_5="13000.00000" pt_clust_6="13000.00000" pt_clust_7="13000.00000" pt_clust_8="13000.00000" pt_clust_9="54.17168"></scales>
<clustering>
<clus scale="   54.172">  2  9  1 -1</clus>
<clus scale="   81.258">  5  6 -1 -1</clus>
<clus scale="   82.863">  1  5  2 -1</clus>
<clus scale="   90.147">  7  8 -1 -1</clus>
<clus scale="   54.172">  2  5  1 -1</clus>
</clustering>
</event>
<event>
 9    2  0.1302972E-004  0.3303231E+03  0.7546771E-02  0.1072057E+00
         21   -1    0    0  501  502  0.00000000000E+00  0.00000000000E+00  0.64225689032E+03  0.64225689032E+03  0.00000000000E+00 0. -1.
          2   -1    0    0  502    0 -0.00000000000E+00 -0.00000000000E+00 -0.35901384352E+03  0.35901384352E+03  0.00000000000E+00 0. -1.
         23    2    1    2    0    0  0.32042093658E+03  0.12163267182E+03 -0.14815800430E+03  0.38979098205E+03  0.11190233240E+03 0.  0.
         24    2    1    2    0    0 -0.24041219611E+03 -0.83939999024E+02  0.12892488812E+03  0.29633856865E+03  0.79692992285E+02 0.  0.
        -11    1    4    4    0    0 -0.23200236343E+03 -0.96311342268E+02  0.12625577706E+03  0.28114318865E+03  0.00000000000E+00 0.  1.
         12    1    4    4    0    0 -0.84098326820E+01  0.12371343244E+02  0.26691110565E+01  0.15195379996E+02  0.00000000000E+00 0. -1.
        -11    1    3    3    0    0  0.99934775260E+02  0.90181161575E+02 -0.30978389516E+02  0.13812770115E+03  0.00000000000E+00 0.  1.
         11    1    3    3    0    0  0.22048616132E+03  0.31451510245E+02 -0.11717961478E+03  0.25166328090E+03  0.00000000000E+00 0. -1.
          1    1    1    2  501    0 -0.80008740474E+02 -0.37692672796E+02  0.30247616298E+03  0.31514118313E+03  0.00000000000E+00 0. -1.
<scales pt_clust_5="13000.00000" pt_clust_6="13000.00000" pt_clust_7="13000.00000" pt_clust_8="13000.00000" pt_clust_9="88.44284"></scales>
<clustering>
<clus scale="   79.693">  5  6 -1 -1</clus>
<clus scale="   88.443">  1  9  2 -1</clus>
<clus scale="  111.902">  7  8 -1 -1</clus>
<clus scale="  320.846">  1  5  2 -1</clus>
<clus scale="   88.443">  1  5  2 -1</clus>
</clustering>
</event>
<event>
 9    2  0.1302972E-004  0.1004712E+03  0.7546771E-02  0.1289224E+00
         21   -1    0    0  501  502  0.00000000000E+00  0.00000000000E+00  0.66347951763E+02  0.66347951763E+02  0.00000000000E+00 0.  1.
          2   -1    0    0  502    0 -0.00000000000E+00 -0.00000000000E+00 -0.28897845171E+03  0.28897845171E+03  0.00000000000E+00 0. -1.
         23    2    1    2    0    0 -0.89455236792E+01 -0.29169120175E+02 -0.10361569190E+03  0.14524759469E+03  0.97107117091E+02 0.  0.
         24    2    1    2    0    0 -0.30352269540E+02  0.17962797784E+02 -0.26501796260E+01  0.86747446344E+02  0.79209681383E+02 0.  0.
        -11    1    4    4    0    0 -0.47090112640E+02  0.23771106954E+02  0.21358134689E+02  0.56909701736E+02  0.00000000000E+00 0.  1.
         12    1    4    4    0    0  0.16737843100E+02 -0.58083091704E+01 -0.24008314315E+02  0.29837744608E+02  0.00000000000E+00 0. -1.
        -11    1    3    3    0    0 -0.40984400087E+02 -0.33462052688E+02 -0.99458434600E+02  0.11265615932E+03  0.00000000000E+00 0.  1.
         11    1    3    3    0    0  0.32038876408E+02  0.42929325137E+01 -0.41572573018E+01  0.32591435367E+02  0.00000000000E+00 0. -1.
          1    1    1    2  501    0  0.39297793219E+02  0.11206322391E+02 -0.11636462842E+03  0.12333136244E+03  0.00000000000E+00 0. -1.
<scales pt_clust_5="13000.00000" pt_clust_6="13000.00000" pt_clust_7="13000.00000" pt_clust_8="13000.00000" pt_clust_9="40.86441"></scales>
<clustering>
<clus scale="   40.864">  1  9  2 -1</clus>
<clus scale="   79.210">  5  6 -1 -1</clus>
<clus scale="   83.300">  1  5  2 -1</clus>
<clus scale="   97.107">  7  8 -1 -1</clus>
<clus scale="   40.864">  1  5  2 -1</clus>
</clustering>
</event>
<event>
 9    2  0.1302972E-004  0.2157168E+03  0.7546771E-02  0.1173929E+00
         21   -1    0    0  501  502  0.00000000000E+00  0.00000000000E+00  0.12283842984E+04  0.12283842984E+04  0.00000000000E+00 0. -1.
          2   -1    0    0  502    0 -0.00000000000E+00 -0.00000000000E+00 -0.62078501561E+02  0.62078501561E+02  0.00000000000E+00 0. -1.
         23    2    1    2    0    0  0.25723185566E+02 -0.70043367131E+01  0.14913693969E+03  0.17466812721E+03  0.86927469033E+02 0.  0.
         24    2    1    2    0    0 -0.12415474632E+02  0.20318419687E+03  0.76819920838E+03  0.79854158971E+03  0.78106881055E+02 0.  0.
        -11    1    4    4    0    0  0.31623743468E+02  0.60034762170E+02  0.26270347629E+03  0.27132517442E+03  0.00000000000E+00 0.  1.
         12    1    4    4    0    0 -0.44039218100E+02  0.14314943470E+03  0.50549573210E+03  0.52721641529E+03  0.00000000000E+00 0. -1.
        -13    1    3    3    0    0  0.25093640569E+02  0.38053216688E+02  0.81837281443E+02  0.93675390212E+02  0.00000000000E+00 0. -1.
         13    1    3    3    0    0  0.62954499769E+00 -0.45057553401E+02  0.67299658248E+02  0.80992736993E+02  0.00000000000E+00 0.  1.
          1    1    1    2  501    0 -0.13307710934E+02 -0.19617986016E+03  0.24896964881E+03  0.31725308309E+03  0.00000000000E+00 0. -1.
<scales pt_clust_5="13000.00000" pt_clust_6="13000.00000" pt_clust_7="13000.00000" pt_clust_8="13000.00000" pt_clust_9="201.07980"></scales>
<clustering>
<clus scale="   78.107">  5  6 -1 -1</clus>
<clus scale="   86.927">  7  8 -1 -1</clus>
<clus scale="   90.924">  2  7  1 -1</clus>
<clus scale="  201.080">  1  9  2 -1</clus>
<clus scale="  201.080">  1  5  2 -1</clus>
</clustering>
</event>
<event>
 9    2  0.1302972E-004  0.2392160E+03  0.7546771E-02  0.1171623E+00
          2   -1    0    0  502    0 -0.00000000000E+00  0.00000000000E+00  0.11805883680E+04  0.11805883680E+04  0.00000000000E+00 0. -1.
         21   -1    0    0  501  502  0.00000000000E+00 -0.00000000000E+00 -0.66864591719E+02  0.66864591719E+02  0.00000000000E+00 0.  1.
         24    2    1    2    0    0 -0.11434099717E+02 -0.46546874968E+02  0.52959189244E+02  0.87989665592E+02  0.51382441748E+02 0.  0.
         23    2    1    2    0    0 -0.21500511466E+03  0.33566888845E+02  0.45963193156E+03  0.51696530399E+03  0.92939107301E+02 0.  0.
        -13    1    3    3    0    0 -0.21878709298E+02 -0.45408875595E+02  0.21457302609E+02  0.54781928942E+02  0.00000000000E+00 0.  1.
         14    1    3    3    0    0  0.10444609581E+02 -0.11379993735E+01  0.31501886635E+02  0.33207736650E+02  0.00000000000E+00 0. -1.
        -11    1    4    4    0    0 -0.13377774391E+03 -0.93628128063E+01  0.19355560878E+03  0.23547382173E+03  0.00000000000E+00 0.  1.
         11    1    4    4    0    0 -0.81227370750E+02  0.42929701651E+02  0.26607632278E+03  0.28149148226E+03  0.00000000000E+00 0. -1.
          1    1    1    2  501    0  0.22643921438E+03  0.12979986123E+02  0.60113265551E+03  0.64249799017E+03  0.00000000000E+00 0. -1.
<scales pt_clust_5="13000.00000" pt_clust_6="13000.00000" pt_clust_7="13000.00000" pt_clust_8="13000.00000" pt_clust_9="220.42385"></scales>
<clustering>
<clus scale="   51.382">  5  6 -1 -1</clus>
<clus scale="   70.267">  1  5  2 -1</clus>
<clus scale="   92.939">  7  8 -1 -1</clus>
<clus scale="  220.424">  2  9  1 -1</clus>
<clus scale="  220.424">  2  5  1 -1</clus>
</clustering>
</event>
<event>
 9    2  0.1302972E-004  0.1610981E+03  0.7546771E-02  0.1188999E+00
         21   -1    0    0  501  502  0.00000000000E+00  0.00000000000E+00  0.52989909259E+02  0.52989909259E+02  0.00000000000E+00 0.  1.
          2   -1    0    0  502    0 -0.00000000000E+00 -0.00000000000E+00 -0.10613027068E+04  0.10613027068E+04  0.00000000000E+00 0. -1.
         24    2    1    2    0    0 -0.67750561364E+02  0.68002700936E+02 -0.28716944399E+03  0.31302520939E+03  0.79397646407E+02 0.  0.
         23    2    1    2    0    0  0.81132236523E+02 -0.16582648755E+03 -0.64422856803E+03  0.67610971936E+03  0.89515590659E+02 0.  0.
        -11    1    3    3    0    0  0.22339817909E+01  0.50499161225E+02 -0.92364282243E+02  0.10529157893E+03  0.00000000000E+00 0.  1.
         12    1    3    3    0    0 -0.69984543155E+02  0.17503539711E+02 -0.19480516175E+03  0.20773363047E+03  0.00000000000E+00 0. -1.
        -13    1    4    4    0    0  0.50435424802E+02 -0.17276339943E+02 -0.17975732203E+03  0.18749639682E+03  0.00000000000E+00 0.  1.
         13    1    4    4    0    0  0.30696811721E+02 -0.14855014760E+03 -0.46447124599E+03  0.48861332253E+03  0.00000000000E+00 0. -1.
          1    1    1    2  501    0 -0.13381675159E+02  0.97823786610E+02 -0.76914785491E+02  0.12515768727E+03  0.00000000000E+00 0. -1.
<scales pt_clust_5="13000.00000" pt_clust_6="13000.00000" pt_clust_7="13000.00000" pt_clust_8="13000.00000" pt_clust_9="98.73481"></scales>
<clustering>
<clus scale="   79.398">  5  6 -1 -1</clus>
<clus scale="   89.516">  7  8 -1 -1</clus>
<clus scale="   98.735">  1  9  2 -1</clus>
<clus scale="  155.703">  2  5  1 -1</clus>
<clus scale="   98.735">  1  5  2 -1</clus>
</clustering>
</event>
<event>
 9    2  0.1302972E-004  0.1059860E+03  0.7546771E-02  0.1271871E+00
          4   -1    0    0  502    0 -0.00000000000E+00  0.00000000000E+00  0.76309345418E+02  0.76309345418E+02  0.00000000000E+00 0. -1.
         21   -1    0    0  501  502  0.00000000000E+00 -0.00000000000E+00 -0.47566015230E+03  0.47566015230E+03  0.00000000000E+00 0. -1.
         24    2    1    2    0    0 -0.33844239307E+02  0.63014669130E+02  0.18326554675E+02  0.10628787091E+03  0.76452389348E+02 0.  0.
         23    2    1    2    0    0 -0.11321036055E+02 -0.13506159756E+02 -0.26152367428E+03  0.27575526438E+03  0.85649001236E+02 0.  0.
        -13    1    3    3    0    0 -0.29228584746E+02 -0.21230438991E+00 -0.16899569725E+02  0.33763155899E+02  0.00000000000E+00 0.  1.
         14    1    3    3    0    0 -0.46156545614E+01  0.63226973520E+02  0.35226124400E+02  0.72524715013E+02  0.00000000000E+00 0. -1.
        -13    1    4    4    0    0  0.28264297945E+02 -0.23993952093E+02 -0.63409865809E+02  0.73453327748E+02  0.00000000000E+00 0.  1.
         13    1    4    4    0    0 -0.39585334000E+02  0.10487792337E+02 -0.19811380848E+03  0.20230193663E+03  0.00000000000E+00 0. -1.
          3    1    1    2  501    0  0.45165275362E+02 -0.49508509374E+02 -0.15615368727E+03  0.16992636243E+03  0.00000000000E+00 0. -1.
<scales pt_clust_5="13000.00000" pt_clust_6="13000.00000" pt_clust_7="13000.00000" pt_clust_8="13000.00000" pt_clust_9="67.01488"></scales>
<clustering>
<clus scale="   67.015">  2  9  1 -1</clus>
<clus scale="   76.452">  5  6 -1 -1</clus>
<clus scale="   85.649">  7  8 -1 -1</clus>
<clus scale="   98.703">  1  5  2 -1</clus>
<clus scale="   67.015">  2  5  1 -1</clus>
</clustering>
</event>
<event>
 9    2  0.1302972E-004  0.1665884E+03  0.7546771E-02  0.1182863E+00
         21   -1    0    0  501  502  0.00000000000E+00  0.00000000000E+00  0.10740843387E+03  0.10740843387E+03  0.00000000000E+00 0. -1.
          2   -1    0    0  502    0 -0.00000000000E+00 -0.00000000000E+00 -0.62978129473E+03  0.62978129473E+03  0.00000000000E+00 0. -1.
         23    2    1    2    0    0  0.13642164808E+03  0.11097247493E+03 -0.23747277388E+03  0.30874778958E+03  0.89476941080E+02 0.  0.
         24    2    1    2    0    0 -0.13159708889E+03  0.43186481604E+02 -0.10320213726E+03  0.19010938734E+03  0.79423120202E+02 0.  0.
        -13    1    4    4    0    0 -0.87695272293E+02  0.26693908742E+02 -0.10948431873E+03  0.14279300261E+03  0.00000000000E+00 0.  1.
         14    1    4    4    0    0 -0.43901816598E+02  0.16492572862E+02  0.62821814687E+01  0.47316384734E+02  0.00000000000E+00 0. -1.
        -11    1    3    3    0    0  0.20367744763E+02  0.28176432270E+02 -0.37380337583E+01  0.34967545790E+02  0.00000000000E+00 0.  1.
         11    1    3    3    0    0  0.11605390331E+03  0.82796042662E+02 -0.23373474012E+03  0.27378024380E+03  0.00000000000E+00 0. -1.
          1    1    1    2  501    0 -0.48245591854E+01 -0.15415895654E+03 -0.18169794973E+03  0.23833255167E+03  0.00000000000E+00 0. -1.
<scales pt_clust_5="13000.00000" pt_clust_6="13000.00000" pt_clust_7="13000.00000" pt_clust_8="13000.00000" pt_clust_9="154.23451"></scales>
<clustering>
<clus scale="   79.423">  5  6 -1 -1</clus>
<clus scale="   89.477">  7  8 -1 -1</clus>
<clus scale="  154.235">  1  9  2 -1</clus>
<clus scale="  161.411">  1  5  2 -1</clus>
<clus scale="  154.235">  1  5  2 -1</clus>
</clustering>
</event>
<event>
 9    2  0.1302972E-004  0.3052135E+03  0.7546771E-02  0.1108870E+00
         21   -1    0    0  501  502  0.00000000000E+00  0.00000000000E+00  0.91573003114E+02  0.91573003114E+02  0.00000000000E+00 0. -1.
          2   -1    0    0  502    0 -0.00000000000E+00 -0.00000000000E+00 -0.18986552631E+04  0.18986552631E+04  0.00000000000E+00 0. -1.
         24    2    1    2    0    0 -0.10257540216E+03 -0.81686511566E+02 -0.28879133516E+03  0.32718548553E+03  0.80346172142E+02 0.  0.
         23    2    1    2    0    0 -0.91820655573E+02  0.29865985767E+03 -0.11403298729E+04  0.11858407093E+04  0.90759161361E+02 0.  0.
        -11    1    3    3    0    0  0.95544078710E+01 -0.22011320853E+02 -0.26457930010E+02  0.35718440838E+02  0.00000000000E+00 0.  1.
         12    1    3    3    0    0 -0.11212981003E+03 -0.59675190713E+02 -0.26233340515E+03  0.29146704469E+03  0.00000000000E+00 0. -1.
        -13    1    4    4    0    0 -0.68689140770E+02  0.25862816325E+03 -0.10590221802E+04  0.10923070553E+04  0.00000000000E+00 0. -1.
         13    1    4    4    0    0 -0.23131514802E+02  0.40031694418E+02 -0.81307692705E+02  0.93533653986E+02  0.00000000000E+00 0.  1.
          1    1    1    2  501    0  0.19439605773E+03 -0.21697334611E+03 -0.37796105190E+03  0.47720207139E+03  0.00000000000E+00 0. -1.
<scales pt_clust_5="13000.00000" pt_clust_6="13000.00000" pt_clust_7="13000.00000" pt_clust_8="13000.00000" pt_clust_9="291.40707"></scales>
<clustering>
<clus scale="   80.346">  5  6 -1 -1</clus>
<clus scale="   90.759">  7  8 -1 -1</clus>
<clus scale="  153.785">  2  5  1 -1</clus>
<clus scale="  291.407">  1  9  2 -1</clus>
<clus scale="  291.407">  1  5  2 -1</clus>
</clustering>
</event>
<event>
 9    2  0.1414398E-004  0.9890363E+02  0.7546771E-02  0.1289804E+00
         21   -1    0    0  501  502  0.00000000000E+00  0.00000000000E+00  0.15653531212E+03  0.15653531212E+03  0.00000000000E+00 0. -1.
         -3   -1    0    0    0  501 -0.00000000000E+00 -0.00000000000E+00 -0.27179361821E+03  0.27179361821E+03  0.00000000000E+00 0.  1.
         23    2    1    2    0    0  0.19643548290E+02 -0.33713327069E+02 -0.21180796800E+03  0.23400558194E+03  0.91507047036E+02 0.  0.
         24    2    1    2    0    0 -0.22644157371E+02  0.80675708013E+01  0.12918550460E+03  0.15270836675E+03  0.77801716657E+02 0.  0.
        -11    1    4    4    0    0  0.28580096648E+02  0.17138602750E+01  0.59062273111E+02  0.65636204540E+02  0.00000000000E+00 0.  1.
         12    1    4    4    0    0 -0.51224254019E+02  0.63537105263E+01  0.70123231484E+02  0.87072162205E+02  0.00000000000E+00 0. -1.
        -11    1    3    3    0    0  0.51531384461E+02 -0.67981822346E+01 -0.15524951974E+03  0.16371961473E+03  0.00000000000E+00 0.  1.
         11    1    3    3    0    0 -0.31887836171E+02 -0.26915144834E+02 -0.56558448260E+02  0.70285967210E+02  0.00000000000E+00 0. -1.
         -4    1    1    2    0  502  0.30006090813E+01  0.25645756267E+02 -0.32635842680E+02  0.41614981639E+02  0.00000000000E+00 0.  1.
<scales pt_clust_5="13000.00000" pt_clust_6="13000.00000" pt_clust_7="13000.00000" pt_clust_8="13000.00000" pt_clust_9="25.82071"></scales>
<clustering>
<clus scale="   25.821">  1  9  2 -1</clus>
<clus scale="   77.802">  5  6 -1 -1</clus>
<clus scale="   86.380">  1  5  2 -1</clus>
<clus scale="   91.507">  7  8 -1 -1</clus>
<clus scale="   25.821">  1  5  2 -1</clus>
</clustering>
</event>
<event>
 9    2  0.1302972E-004  0.1206694E+03  0.7546771E-02  0.1244678E+00
         21   -1    0    0  501  502  0.00000000000E+00  0.00000000000E+00  0.52087688760E+03  0.52087688760E+03  0.00000000000E+00 0.  1.
         -3   -1    0    0    0  501 -0.00000000000E+00 -0.00000000000E+00 -0.47306510154E+02  0.47306510154E+02  0.00000000000E+00 0.  1.
         24    2    1    2    0    0 -0.30696531417E+02  0.90001031709E+02  0.11254886491E+03  0.16870108133E+03  0.82160483817E+02 0.  0.
         23    2    1    2    0    0  0.26202856805E+02 -0.55122536516E+02  0.15062319175E+03  0.18616528492E+03  0.90802443137E+02 0.  0.
        -11    1    3    3    0    0 -0.21487332236E+02  0.10514814037E+03  0.10207058987E+03  0.14810888625E+03  0.00000000000E+00 0.  1.
         12    1    3    3    0    0 -0.92091991808E+01 -0.15147108665E+02  0.10478275039E+02  0.20592195081E+02  0.00000000000E+00 0. -1.
        -13    1    4    4    0    0  0.22485124517E+02 -0.23241759429E+02  0.15063642530E+03  0.15406846800E+03  0.00000000000E+00 0.  1.
         13    1    4    4    0    0  0.37177322874E+01 -0.31880777087E+02 -0.13233549957E-01  0.32096816916E+02  0.00000000000E+00 0. -1.
         -4    1    1    2    0  502  0.44936746121E+01 -0.34878495192E+02  0.21039832079E+03  0.21331703150E+03  0.00000000000E+00 0.  1.
<scales pt_clust_5="13000.00000" pt_clust_6="13000.00000" pt_clust_7="13000.00000" pt_clust_8="13000.00000" pt_clust_9="35.16678"></scales>
<clustering>
<clus scale="   35.167">  1  9  2 -1</clus>
<clus scale="   82.160">  5  6 -1 -1</clus>
<clus scale="   90.802">  7  8 -1 -1</clus>
<clus scale="  114.308">  2  5  1 -1</clus>
<clus scale="   35.167">  1  5  2 -1</clus>
</clustering>
</event>
<event>
 9    2  0.1302972E-004  0.1024569E+03  0.7546771E-02  0.1280672E+00
         -1   -1    0    0    0  501 -0.00000000000E+00  0.00000000000E+00  0.24516418958E+03  0.24516418958E+03  0.00000000000E+00 0.  1.
         21   -1    0    0  501  502  0.00000000000E+00 -0.00000000000E+00 -0.11267046808E+03  0.11267046808E+03  0.00000000000E+00 0.  1.
         24    2    1    2    0    0  0.66483866929E+02 -0.12283326209E+02  0.31401317263E+02  0.10947882135E+03  0.80178456790E+02 0.  0.
         23    2    1    2    0    0 -0.10324949953E+02 -0.16736637727E+02 -0.33575437737E+02  0.99589543338E+02  0.91673592103E+02 0.  0.
        -11    1    3    3    0    0  0.49770996421E+02 -0.29761550456E+02  0.51864527204E+02  0.77799943139E+02  0.00000000000E+00 0.  1.
         12    1    3    3    0    0  0.16712870508E+02  0.17478224247E+02 -0.20463209942E+02  0.31678878209E+02  0.00000000000E+00 0. -1.
        -13    1    4    4    0    0 -0.46548975351E+02  0.85366930256E+01 -0.64673792401E+01  0.47765146585E+02  0.00000000000E+00 0. -1.
         13    1    4    4    0    0  0.36224025398E+02 -0.25273330753E+02 -0.27108058497E+02  0.51824396753E+02  0.00000000000E+00 0.  1.
         -2    1    1    2    0  502 -0.56158916976E+02  0.29019963936E+02  0.13466784198E+03  0.14876629298E+03  0.00000000000E+00 0.  1.
<scales pt_clust_5="13000.00000" pt_clust_6="13000.00000" pt_clust_7="13000.00000" pt_clust_8="13000.00000" pt_clust_9="63.21381"></scales>
<clustering>
<clus scale="   63.214">  2  9  1 -1</clus>
<clus scale="   80.178">  5  6 -1 -1</clus>
<clus scale="   91.674">  7  8 -1 -1</clus>
<clus scale="   92.314">  1  5  2 -1</clus>
<clus scale="   63.214">  2  5  1 -1</clus>
</clustering>
</event>
<event>
 9    2  0.1302972E-004  0.2206080E+03  0.7546771E-02  0.1165982E+00
          2   -1    0    0  502    0 -0.00000000000E+00  0.00000000000E+00  0.69721492127E+03  0.69721492127E+03  0.00000000000E+00 0. -1.
         21   -1    0    0  501  502  0.00000000000E+00 -0.00000000000E+00 -0.14410543081E+03  0.14410543081E+03  0.00000000000E+00 0.  1.
         23    2    1    2    0    0  0.17957289012E+02 -0.50741430439E+02  0.32073191991E+03  0.33654742091E+03  0.86591252891E+02 0.  0.
         24    2    1    2    0    0  0.14821395811E+03  0.16134061611E+03  0.18843321210E+03  0.30038073493E+03  0.81995967649E+02 0.  0.
        -11    1    4    4    0    0  0.66961056221E+02  0.67672056453E+02  0.31301195970E+02  0.10021504450E+03  0.00000000000E+00 0.  1.
         12    1    4    4    0    0  0.81252901889E+02  0.93668559661E+02  0.15713201613E+03  0.20016569044E+03  0.00000000000E+00 0. -1.
        -13    1    3    3    0    0  0.15883961195E+02  0.21218680634E+02  0.52343829817E+02  0.58672047442E+02  0.00000000000E+00 0.  1.
         13    1    3    3    0    0  0.20733278176E+01 -0.71960111073E+02  0.26838809009E+03  0.27787537347E+03  0.00000000000E+00 0. -1.
          1    1    1    2  501    0 -0.16617124712E+03 -0.11059918567E+03  0.43944358447E+02  0.20439219623E+03  0.00000000000E+00 0. -1.
<scales pt_clust_5="13000.00000" pt_clust_6="13000.00000" pt_clust_7="13000.00000" pt_clust_8="13000.00000" pt_clust_9="204.80364"></scales>
<clustering>
<clus scale="   81.996">  5  6 -1 -1</clus>
<clus scale="   86.591">  7  8 -1 -1</clus>
<clus scale="  101.957">  1  7  2 -1</clus>
<clus scale="  204.804">  2  9  1 -1</clus>
<clus scale="  204.804">  2  5  1 -1</clus>
</clustering>
</event>
<event>
 9    2  0.1302972E-004  0.2069538E+03  0.7546771E-02  0.1144001E+00
         21   -1    0    0  501  502  0.00000000000E+00  0.00000000000E+00  0.32852811664E+03  0.32852811664E+03  0.00000000000E+00 0.  1.
         -1   -1    0    0    0  501 -0.00000000000E+00 -0.00000000000E+00 -0.97498116169E+02  0.97498116169E+02  0.00000000000E+00 0.  1.
         24    2    1    2    0    0 -0.38875940400E+01 -0.65739354774E+02  0.19779851042E+02  0.10401559822E+03  0.78046306845E+02 0.  0.
         23    2    1    2    0    0  0.20045277530E+02 -0.43968082539E+02  0.28894291071E+02  0.10858511687E+03  0.92848490108E+02 0.  0.
        -11    1    3    3    0    0  0.11169746808E+01 -0.83448797163E+02  0.13324581230E+02  0.84513276148E+02  0.00000000000E+00 0.  1.
         12    1    3    3    0    0 -0.50045687208E+01  0.17709442389E+02  0.64552698122E+01  0.19502322071E+02  0.00000000000E+00 0. -1.
        -13    1    4    4    0    0 -0.35247036453E+02 -0.23528616309E+01  0.71061359176E+01  0.36033133423E+02  0.00000000000E+00 0.  1.
         13    1    4    4    0    0  0.55292313983E+02 -0.41615220908E+02  0.21788155153E+02  0.72551983445E+02  0.00000000000E+00 0. -1.
         -2    1    1    2    0  502 -0.16157683490E+02  0.10970743731E+03  0.18235585836E+03  0.21342551772E+03  0.00000000000E+00 0.  1.
<scales pt_clust_5="13000.00000" pt_clust_6="13000.00000" pt_clust_7="13000.00000" pt_clust_8="13000.00000" pt_clust_9="110.89090"></scales>
<clustering>
<clus scale="   78.046">  5  6 -1 -1</clus>
<clus scale="   92.848">  7  8 -1 -1</clus>
<clus scale="   95.774">  5  7 -1 -1</clus>
<clus scale="  110.891">  1  9  2 -1</clus>
<clus scale="  110.891">  1  5  2 -1</clus>
</clustering>
</event>
<event>
 9    2  0.1302972E-004  0.1027433E+03  0.7546771E-02  0.1279997E+00
          2   -1    0    0  502    0 -0.00000000000E+00  0.00000000000E+00  0.12165837115E+04  0.12165837115E+04  0.00000000000E+00 0. -1.
         21   -1    0    0  501  502  0.00000000000E+00 -0.00000000000E+00 -0.20075231465E+02  0.20075231465E+02  0.00000000000E+00 0. -1.
         24    2    1    2    0    0 -0.12291689941E+02  0.43968105446E+02  0.91053501529E+03  0.91517589251E+03  0.79928844754E+02 0.  0.
         23    2    1    2    0    0  0.46619430114E+02 -0.41136934225E+02  0.23821509071E+03  0.26259950805E+03  0.91358927099E+02 0.  0.
        -11    1    3    3    0    0 -0.25233846069E+02 -0.38633583793E+01  0.10279250072E+03  0.10591492213E+03  0.00000000000E+00 0.  1.
         12    1    3    3    0    0  0.12942156128E+02  0.47831463825E+02  0.80774251457E+03  0.80926097038E+03  0.00000000000E+00 0. -1.
        -13    1    4    4    0    0  0.14952547913E+02  0.24801783886E+02  0.12112200827E+03  0.12453613154E+03  0.00000000000E+00 0.  1.
         13    1    4    4    0    0  0.31666882201E+02 -0.65938718112E+02  0.11709308245E+03  0.13806337650E+03  0.00000000000E+00 0. -1.
          1    1    1    2  501    0 -0.34327740173E+02 -0.28311712208E+01  0.47758373999E+02  0.58883542378E+02  0.00000000000E+00 0. -1.
<scales pt_clust_5="13000.00000" pt_clust_6="13000.00000" pt_clust_7="13000.00000" pt_clust_8="13000.00000" pt_clust_9="34.44429"></scales>
<clustering>
<clus scale="   34.444">  2  9  1 -1</clus>
<clus scale="   79.929">  5  6 -1 -1</clus>
<clus scale="   91.359">  7  8 -1 -1</clus>
<clus scale="   92.727">  1  5  2 -1</clus>
<clus scale="   34.444">  2  5  1 -1</clus>
</clustering>
</event>
<event>
 9    2  0.1302972E-004  0.1406211E+03  0.7546771E-02  0.1237151E+00
         21   -1    0    0  501  502  0.00000000000E+00  0.00000000000E+00  0.21547754129E+03  0.21547754129E+03  0.00000000000E+00 0. -1.
          2   -1    0    0  502    0 -0.00000000000E+00 -0.00000000000E+00 -0.23425822301E+03  0.23425822301E+03  0.00000000000E+00 0. -1.
         24    2    1    2    0    0 -0.19864845304E+02  0.20381198356E+02 -0.87805236574E+02  0.12161207135E+03  0.79181632986E+02 0.  0.
         23    2    1    2    0    0 -0.10795061647E+03 -0.37846364992E+02  0.12611484293E+03  0.18705234467E+03  0.77446388541E+02 0.  0.
        -11    1    3    3    0    0 -0.19173492014E+02  0.47715134141E+02 -0.35174289071E+02  0.62302387063E+02  0.00000000000E+00 0.  1.
         12    1    3    3    0    0 -0.69135329011E+00 -0.27333935785E+02 -0.52630947503E+02  0.59309684285E+02  0.00000000000E+00 0. -1.
        -13    1    4    4    0    0 -0.22608822391E+02 -0.18701061635E+01  0.80841088985E+02  0.83963907814E+02  0.00000000000E+00 0.  1.
         13    1    4    4    0    0 -0.85341794083E+02 -0.35976258828E+02  0.45273753942E+02  0.10308843685E+03  0.00000000000E+00 0. -1.
          1    1    1    2  501    0  0.12781546178E+03  0.17465166636E+02 -0.57090288071E+02  0.14107134829E+03  0.00000000000E+00 0. -1.
<scales pt_clust_5="13000.00000" pt_clust_6="13000.00000" pt_clust_7="13000.00000" pt_clust_8="13000.00000" pt_clust_9="117.37276"></scales>
<clustering>
<clus scale="   77.446">  7  8 -1 -1</clus>
<clus scale="   79.182">  5  6 -1 -1</clus>
<clus scale="   84.141">  2  5  1 -1</clus>
<clus scale="  117.373">  1  9  2 -1</clus>
<clus scale="  117.373">  1  5  2 -1</clus>
</clustering>
</event>
<event>
 9    2  0.1302972E-004  0.1021843E+03  0.7546771E-02  0.1283571E+00
         21   -1    0    0  501  502  0.00000000000E+00  0.00000000000E+00  0.24984631901E+03  0.24984631901E+03  0.00000000000E+00 0. -1.
          2   -1    0    0  502    0 -0.00000000000E+00 -0.00000000000E+00 -0.19391847530E+03  0.19391847530E+03  0.00000000000E+00 0. -1.
         23    2    1    2    0    0 -0.43299518144E+02 -0.20218030635E+02 -0.13306651651E+03  0.16995900607E+03  0.94317277806E+02 0.  0.
         24    2    1    2    0    0  0.14150476902E+02  0.17542485457E+02 -0.58862392426E+00  0.81976350911E+02  0.78814978513E+02 0.  0.
        -11    1    4    4    0    0  0.35109088914E+02  0.35783858727E+02  0.11883519664E+02  0.51520391200E+02  0.00000000000E+00 0.  1.
         12    1    4    4    0    0 -0.20958612013E+02 -0.18241373269E+02 -0.12472143588E+02  0.30455959711E+02  0.00000000000E+00 0. -1.
        -11    1    3    3    0    0  0.12528075047E+02  0.26814992905E+02 -0.21298438268E+02  0.36463954552E+02  0.00000000000E+00 0.  1.
         11    1    3    3    0    0 -0.55827593192E+02 -0.47033023540E+02 -0.11176807825E+03  0.13349505152E+03  0.00000000000E+00 0. -1.
          1    1    1    2  501    0  0.29149041243E+02  0.26755451779E+01  0.18958298415E+03  0.19182943733E+03  0.00000000000E+00 0. -1.
<scales pt_clust_5="13000.00000" pt_clust_6="13000.00000" pt_clust_7="13000.00000" pt_clust_8="13000.00000" pt_clust_9="29.27158"></scales>
<clustering>
<clus scale="   29.272">  1  9  2 -1</clus>
<clus scale="   78.815">  5  6 -1 -1</clus>
<clus scale="   88.078">  1  5  2 -1</clus>
<clus scale="   94.317">  7  8 -1 -1</clus>
<clus scale="   29.272">  1  5  2 -1</clus>
</clustering>
</event>
<event>
 9    2  0.1302972E-004  0.1296334E+03  0.7546771E-02  0.1252524E+00
         -1   -1    0    0    0  501 -0.00000000000E+00  0.00000000000E+00  0.12492375456E+03  0.12492375456E+03  0.00000000000E+00 0.  1.
         21   -1    0    0  501  502  0.00000000000E+00 -0.00000000000E+00 -0.27101009764E+03  0.27101009764E+03  0.00000000000E+00 0.  1.
         24    2    1    2    0    0 -0.11485642385E+02  0.18194328707E+02  0.44777510646E+02  0.90627190884E+02  0.75797814545E+02 0.  0.
         23    2    1    2    0    0  0.99430227098E+02 -0.91087929569E+01 -0.63294535097E+02  0.15009478034E+03  0.92481915759E+02 0.  0.
        -11    1    3    3    0    0  0.29606156764E+02  0.21481079891E+02  0.13932571709E+02  0.39141766261E+02  0.00000000000E+00 0.  1.
         12    1    3    3    0    0 -0.41091799148E+02 -0.32867511842E+01  0.30844938937E+02  0.51485424623E+02  0.00000000000E+00 0. -1.
        -11    1    4    4    0    0  0.85424897615E+02 -0.36028870116E+02 -0.73251286221E+02  0.11815770626E+03  0.00000000000E+00 0.  1.
         11    1    4    4    0    0  0.14005329483E+02  0.26920077159E+02  0.99567511243E+01  0.31937074086E+02  0.00000000000E+00 0. -1.
         -2    1    1    2    0  502 -0.87944584714E+02 -0.90855357502E+01 -0.12756931863E+03  0.15521188097E+03  0.00000000000E+00 0.  1.
<scales pt_clust_5="13000.00000" pt_clust_6="13000.00000" pt_clust_7="13000.00000" pt_clust_8="13000.00000" pt_clust_9="90.84003"></scales>
<clustering>
<clus scale="   75.798">  5  6 -1 -1</clus>
<clus scale="   78.793">  1  5  2 -1</clus>
<clus scale="   90.840">  2  9  1 -1</clus>
<clus scale="   92.482">  7  8 -1 -1</clus>
<clus scale="   90.840">  2  5  1 -1</clus>
</clustering>
</event>
<event>
 9    2  0.1302972E-004  0.1418232E+03  0.7546771E-02  0.1232732E+00
          2   -1    0    0  502    0 -0.00000000000E+00  0.00000000000E+00  0.12974497749E+04  0.12974497749E+04  0.00000000000E+00 0. -1.
         21   -1    0    0  501  502  0.00000000000E+00 -0.00000000000E+00 -0.32745564673E+02  0.32745564673E+02  0.00000000000E+00 0. -1.
         23    2    1    2    0    0  0.14502770350E+02  0.16283377565E+02  0.97503845872E+02  0.13254877951E+03  0.87101666211E+02 0.  0.
         24    2    1    2    0    0 -0.98371116433E+02 -0.88414324994E+02  0.77511211965E+03  0.79025244538E+03  0.78779184909E+02 0.  0.
        -13    1    4    4    0    0 -0.57315881691E+02 -0.73242217126E+01  0.20690910411E+03  0.21482581753E+03  0.00000000000E+00 0.  1.
         14    1    4    4    0    0 -0.41055234743E+02 -0.81090103281E+02  0.56820301555E+03  0.57542662784E+03  0.00000000000E+00 0. -1.
        -11    1    3    3    0    0  0.26196959351E+02 -0.99329655279E+01 -0.28579799003E+01  0.28162253684E+02  0.00000000000E+00 0. -1.
         11    1    3    3    0    0 -0.11694189001E+02  0.26216343093E+02  0.10036182577E+03  0.10438652583E+03  0.00000000000E+00 0.  1.
          1    1    1    2  501    0  0.83868346083E+02  0.72130947428E+02  0.39208824474E+03  0.40739411473E+03  0.00000000000E+00 0. -1.
<scales pt_clust_5="13000.00000" pt_clust_6="13000.00000" pt_clust_7="13000.00000" pt_clust_8="13000.00000" pt_clust_9="117.93078"></scales>
<clustering>
<clus scale="   78.779">  5  6 -1 -1</clus>
<clus scale="   87.102">  7  8 -1 -1</clus>
<clus scale="   89.790">  1  7  2 -1</clus>
<clus scale="  117.931">  2  9  1 -1</clus>
<clus scale="  117.931">  2  5  1 -1</clus>
</clustering>
</event>
<event>
 9    2  0.1302972E-004  0.9567951E+02  0.7546771E-02  0.1295390E+00
         21   -1    0    0  501  502  0.00000000000E+00  0.00000000000E+00  0.53633588851E+02  0.53633588851E+02  0.00000000000E+00 0.  1.
         -3   -1    0    0    0  501 -0.00000000000E+00 -0.00000000000E+00 -0.24594520764E+03  0.24594520764E+03  0.00000000000E+00 0.  1.
         24    2    1    2    0    0 -0.16879066514E+02 -0.36272659714E+01 -0.81143652790E+02  0.11558340228E+03  0.80480870705E+02 0.  0.
         23    2    1    2    0    0  0.45017764889E+02 -0.11996782302E+02 -0.11237339195E+03  0.15178747154E+03  0.90780699262E+02 0.  0.
        -13    1    3    3    0    0 -0.34536347618E+01 -0.30770349536E+02 -0.79431528946E+02  0.85253209876E+02  0.00000000000E+00 0.  1.
         14    1    3    3    0    0 -0.13425431752E+02  0.27143083564E+02 -0.17121238446E+01  0.30330192402E+02  0.00000000000E+00 0. -1.
        -13    1    4    4    0    0 -0.55754206905E+01 -0.20979045206E+02  0.61862873381E+01  0.22571570717E+02  0.00000000000E+00 0.  1.
         13    1    4    4    0    0  0.50593185580E+02  0.89822629037E+01 -0.11855967929E+03  0.12921590083E+03  0.00000000000E+00 0. -1.
         -4    1    1    2    0  502 -0.28138698376E+02  0.15624048273E+02  0.12054259524E+01  0.32207922666E+02  0.00000000000E+00 0.  1.
<scales pt_clust_5="13000.00000" pt_clust_6="13000.00000" pt_clust_7="13000.00000" pt_clust_8="13000.00000" pt_clust_9="32.18536"></scales>
<clustering>
<clus scale="   32.185">  1  9  2 -1</clus>
<clus scale="   80.481">  5  6 -1 -1</clus>
<clus scale="   85.969">  2  5  1 -1</clus>
<clus scale="   90.781">  7  8 -1 -1</clus>
<clus scale="   32.185">  1  5  2 -1</clus>
</clustering>
</event>
<event>
 9    2  0.1302972E-004  0.1133331E+03  0.7546771E-02  0.1262604E+00
         21   -1    0    0  501  502  0.00000000000E+00  0.00000000000E+00  0.26673934779E+03  0.26673934779E+03  0.00000000000E+00 0. -1.
         -3   -1    0    0    0  501 -0.00000000000E+00 -0.00000000000E+00 -0.78962775584E+02  0.78962775584E+02  0.00000000000E+00 0.  1.
         24    2    1    2    0    0  0.46369999121E+02  0.48754813564E+02  0.71552332070E+02  0.12687162455E+03  0.80308556369E+02 0.  0.
         23    2    1    2    0    0 -0.41448288130E+02 -0.23262068655E+01  0.13103962059E+03  0.16984749916E+03  0.99766823047E+02 0.  0.
        -11    1    3    3    0    0  0.50301985214E+02 -0.16893275992E+01  0.18666917317E+02  0.53680511793E+02  0.00000000000E+00 0.  1.
         12    1    3    3    0    0 -0.39319860931E+01  0.50444141163E+02  0.52885414754E+02  0.73191112753E+02  0.00000000000E+00 0. -1.
        -13    1    4    4    0    0 -0.29886882855E+02 -0.44044326694E+02  0.10892749510E+03  0.12123665976E+03  0.00000000000E+00 0. -1.
         13    1    4    4    0    0 -0.11561405275E+02  0.41718119828E+02  0.22112125486E+02  0.48610839403E+02  0.00000000000E+00 0.  1.
         -4    1    1    2    0  502 -0.49217109908E+01 -0.46428606698E+02 -0.14815380446E+02  0.48982999671E+02  0.00000000000E+00 0.  1.
<scales pt_clust_5="13000.00000" pt_clust_6="13000.00000" pt_clust_7="13000.00000" pt_clust_8="13000.00000" pt_clust_9="46.68877"></scales>
<clustering>
<clus scale="   46.689">  1  9  2 -1</clus>
<clus scale="   80.309">  5  6 -1 -1</clus>
<clus scale="   96.646">  2  5  1 -1</clus>
<clus scale="   99.767">  7  8 -1 -1</clus>
<clus scale="   46.689">  1  5  2 -1</clus>
</clustering>
</event>
<event>
 9    2  0.1302972E-004  0.9637636E+02  0.7546771E-02  0.1295155E+00
         21   -1    0    0  501  502  0.00000000000E+00  0.00000000000E+00  0.14973129288E+03  0.14973129288E+03  0.00000000000E+00 0. -1.
          2   -1    0    0  502    0 -0.00000000000E+00 -0.00000000000E+00 -0.34234036176E+03  0.34234036176E+03  0.00000000000E+00 0. -1.
         24    2    1    2    0    0  0.33987286681E+02  0.92732000334E+01 -0.24249824039E+03  0.25707306315E+03  0.77717664079E+02 0.  0.
         23    2    1    2    0    0  0.24118675095E+02 -0.70554056222E+02  0.83661387438E+02  0.14404690817E+03  0.90502478798E+02 0.  0.
        -13    1    3    3    0    0  0.53639683840E+02  0.19784787950E+01 -0.21944441002E+03  0.22591365419E+03  0.00000000000E+00 0.  1.
         14    1    3    3    0    0 -0.19652397159E+02  0.72947212384E+01 -0.23053830379E+02  0.31159408968E+02  0.00000000000E+00 0. -1.
        -13    1    4    4    0    0 -0.17781854013E+02  0.13076502017E+02  0.71514702313E+01  0.23201999130E+02  0.00000000000E+00 0.  1.
         13    1    4    4    0    0  0.41900529107E+02 -0.83630558240E+02  0.76509917206E+02  0.12084490904E+03  0.00000000000E+00 0. -1.
          1    1    1    2  501    0 -0.58105961776E+02  0.61280856189E+02 -0.33772215928E+02  0.90951683315E+02  0.00000000000E+00 0. -1.
<scales pt_clust_5="13000.00000" pt_clust_6="13000.00000" pt_clust_7="13000.00000" pt_clust_8="13000.00000" pt_clust_9="84.44907"></scales>
<clustering>
<clus scale="   77.718">  5  6 -1 -1</clus>
<clus scale="   84.449">  1  9  2 -1</clus>
<clus scale="   84.485">  2  5  1 -1</clus>
<clus scale="   90.502">  7  8 -1 -1</clus>
<clus scale="   84.449">  1  5  2 -1</clus>
</clustering>
</event>
<event>
 9    2  0.1302972E-004  0.1011726E+03  0.7546771E-02  0.1283011E+00
         21   -1    0    0  501  502  0.00000000000E+00  0.00000000000E+00  0.19702578682E+02  0.19702578682E+02  0.00000000000E+00 0. -1.
          2   -1    0    0  502    0 -0.00000000000E+00 -0.00000000000E+00 -0.87855727801E+03  0.87855727801E+03  0.00000000000E+00 0. -1.
         24    2    1    2    0    0  0.39207580022E+02  0.30664025709E+02 -0.59633284422E+03  0.60372074284E+03  0.79927200886E+02 0.  0.
         23    2    1    2    0    0 -0.34522107308E+02 -0.85599784896E+01 -0.25090914866E+03  0.26913443890E+03  0.90625030748E+02 0.  0.
        -11    1    3    3    0    0  0.54050666677E+02 -0.18889993909E+00 -0.25443085037E+03  0.26010876162E+03  0.00000000000E+00 0.  1.
         12    1    3    3    0    0 -0.14843086656E+02  0.30852925648E+02 -0.34190199384E+03  0.34361198122E+03  0.00000000000E+00 0. -1.
        -11    1    4    4    0    0 -0.15778961312E+01 -0.38494556505E+02 -0.18898275775E+03  0.19286991306E+03  0.00000000000E+00 0.  1.
         11    1    4    4    0    0 -0.32944211177E+02  0.29934578015E+02 -0.61926390903E+02  0.76264525838E+02  0.00000000000E+00 0. -1.
          1    1    1    2  501    0 -0.46854727133E+01 -0.22104047220E+02 -0.11612706451E+02  0.25404674947E+02  0.00000000000E+00 0. -1.
<scales pt_clust_5="13000.00000" pt_clust_6="13000.00000" pt_clust_7="13000.00000" pt_clust_8="13000.00000" pt_clust_9="22.59519"></scales>
<clustering>
<clus scale="   22.595">  1  9  2 -1</clus>
<clus scale="   79.927">  5  6 -1 -1</clus>
<clus scale="   90.625">  7  8 -1 -1</clus>
<clus scale="   91.713">  2  5  1 -1</clus>
<clus scale="   22.595">  1  5  2 -1</clus>
</clustering>
</event>
<event>
 9    2  0.1302972E-004  0.3002520E+03  0.7546771E-02  0.1085406E+00
         -1   -1    0    0    0  501 -0.00000000000E+00  0.00000000000E+00  0.27576996590E+03  0.27576996590E+03  0.00000000000E+00 0.  1.
         21   -1    0    0  501  502  0.00000000000E+00 -0.00000000000E+00 -0.12825231382E+04  0.12825231382E+04  0.00000000000E+00 0.  1.
         23    2    1    2    0    0  0.20731728654E+03  0.20272181323E+03  0.13204702931E+03  0.33090975063E+03  0.89377034248E+02 0.  0.
         24    2    1    2    0    0 -0.10226989569E+03 -0.27126210571E+03 -0.56683994763E+03  0.64183125660E+03  0.81225452621E+02 0.  0.
        -11    1    4    4    0    0 -0.20579067353E+02 -0.15716071775E+03 -0.26146563502E+03  0.30575687648E+03  0.00000000000E+00 0.  1.
         12    1    4    4    0    0 -0.81690828341E+02 -0.11410138796E+03 -0.30537431261E+03  0.33607438012E+03  0.00000000000E+00 0. -1.
        -11    1    3    3    0    0  0.19917852199E+03  0.15258987705E+03  0.12255957355E+03  0.27924291086E+03  0.00000000000E+00 0.  1.
         11    1    3    3    0    0  0.81387645507E+01  0.50131936187E+02  0.94874557607E+01  0.51666839763E+02  0.00000000000E+00 0. -1.
         -2    1    1    2    0  502 -0.10504739084E+03  0.68540292479E+02 -0.57196025403E+03  0.58555209692E+03  0.00000000000E+00 0.  1.
<scales pt_clust_5="13000.00000" pt_clust_6="13000.00000" pt_clust_7="13000.00000" pt_clust_8="13000.00000" pt_clust_9="125.43016"></scales>
<clustering>
<clus scale="   81.225">  5  6 -1 -1</clus>
<clus scale="   89.377">  7  8 -1 -1</clus>
<clus scale="  125.430">  2  9  1 -1</clus>
<clus scale="  297.927">  2  5  1 -1</clus>
<clus scale="  125.430">  2  5  1 -1</clus>
</clustering>
</event>
<event>
 9    2  0.1302972E-004  0.9672153E+02  0.7546771E-02  0.1292502E+00
          2   -1    0    0  502    0 -0.00000000000E+00  0.00000000000E+00  0.41021069599E+03  0.41021069599E+03  0.00000000000E+00 0. -1.
         21   -1    0    0  501  502  0.00000000000E+00 -0.00000000000E+00 -0.99033246921E+02  0.99033246921E+02  0.00000000000E+00 0.  1.
         23    2    1    2    0    0 -0.68301708691E+01  0.30862562971E+02  0.29678618058E+03  0.31174912559E+03  0.90035166992E+02 0.  0.
         24    2    1    2    0    0 -0.80741306209E+01 -0.79092846954E+02 -0.43086834624E+02  0.12099624980E+03  0.80391212968E+02 0.  0.
        -11    1    4    4    0    0 -0.14559087296E+02 -0.64774131197E+02 -0.65735026772E+02  0.93427773387E+02  0.00000000000E+00 0.  1.
         12    1    4    4    0    0  0.64849566748E+01 -0.14318715757E+02  0.22648192148E+02  0.27568476410E+02  0.00000000000E+00 0. -1.
        -11    1    3    3    0    0 -0.22545381312E+02 -0.26950892040E+02  0.12332935945E+03  0.12823718534E+03  0.00000000000E+00 0.  1.
         11    1    3    3    0    0  0.15715210442E+02  0.57813455011E+02  0.17345682113E+03  0.18351194025E+03  0.00000000000E+00 0. -1.
          1    1    1    2  501    0  0.14904301490E+02  0.48230283983E+02  0.57478103115E+02  0.76498567527E+02  0.00000000000E+00 0. -1.
<scales pt_clust_5="13000.00000" pt_clust_6="13000.00000" pt_clust_7="13000.00000" pt_clust_8="13000.00000" pt_clust_9="50.48070"></scales>
<clustering>
<clus scale="   50.481">  2  9  1 -1</clus>
<clus scale="   80.391">  5  6 -1 -1</clus>
<clus scale="   87.815">  2  5  1 -1</clus>
<clus scale="   90.035">  7  8 -1 -1</clus>
<clus scale="   50.481">  2  5  1 -1</clus>
</clustering>
</event>
<event>
 9    2  0.1302972E-004  0.1601953E+03  0.7546771E-02  0.1189756E+00
         21   -1    0    0  501  502  0.00000000000E+00  0.00000000000E+00  0.44678145440E+03  0.44678145440E+03  0.00000000000E+00 0.  1.
         -1   -1    0    0    0  501 -0.00000000000E+00 -0.00000000000E+00 -0.24588255558E+03  0.24588255558E+03  0.00000000000E+00 0.  1.
         23    2    1    2    0    0 -0.14068449600E+03  0.96229409430E+01 -0.19166628031E+03  0.25449913170E+03  0.90272457707E+02 0.  0.
         24    2    1    2    0    0  0.65999368808E+02 -0.41252988057E+02  0.21438221195E+03  0.24239077914E+03  0.82072110378E+02 0.  0.
        -13    1    4    4    0    0  0.66758234499E+02 -0.11955144425E+02  0.19692836824E+03  0.20827954669E+03  0.00000000000E+00 0.  1.
         14    1    4    4    0    0 -0.75886569094E+00 -0.29297843632E+02  0.17453843710E+02  0.34111232444E+02  0.00000000000E+00 0. -1.
        -11    1    3    3    0    0 -0.12337149541E+03  0.38488398064E+02 -0.17321515037E+03  0.21611425446E+03  0.00000000000E+00 0.  1.
         11    1    3    3    0    0 -0.17313000590E+02 -0.28865457121E+02 -0.18451129940E+02  0.38384877234E+02  0.00000000000E+00 0. -1.
         -2    1    1    2    0  502  0.74685127196E+02  0.31630047114E+02  0.17818296718E+03  0.19577409915E+03  0.00000000000E+00 0.  1.
<scales pt_clust_5="13000.00000" pt_clust_6="13000.00000" pt_clust_7="13000.00000" pt_clust_8="13000.00000" pt_clust_9="81.10689"></scales>
<clustering>
<clus scale="   81.107">  1  9  2 -1</clus>
<clus scale="   82.072">  5  6 -1 -1</clus>
<clus scale="   90.272">  7  8 -1 -1</clus>
<clus scale="  155.722">  1  5  2 -1</clus>
<clus scale="   81.107">  1  5  2 -1</clus>
</clustering>
</event>
<event>
 9    2  0.1302972E-004  0.1366727E+03  0.7546771E-02  0.1223403E+00
          2   -1    0    0  502    0 -0.00000000000E+00  0.00000000000E+00  0.17252649239E+03  0.17252649239E+03  0.00000000000E+00 0. -1.
         21   -1    0    0  501  502  0.00000000000E+00 -0.00000000000E+00 -0.13886069686E+03  0.13886069686E+03  0.00000000000E+00 0. -1.
         23    2    1    2    0    0  0.90402413928E+02  0.62020015784E+02  0.41357483162E+02  0.15343626029E+03  0.99061424161E+02 0.  0.
         24    2    1    2    0    0 -0.62032111806E+02 -0.39897706315E+02 -0.35515022139E+02  0.11247116905E+03  0.77127408911E+02 0.  0.
        -11    1    4    4    0    0 -0.50997937915E+02 -0.38553399009E+02  0.10803720760E+02  0.64837293505E+02  0.00000000000E+00 0.  1.
         12    1    4    4    0    0 -0.11034173892E+02 -0.13443073056E+01 -0.46318742899E+02  0.47633875544E+02  0.00000000000E+00 0. -1.
        -13    1    3    3    0    0  0.34550770445E+02  0.15469427495E+02  0.66486970935E+02  0.76508667675E+02  0.00000000000E+00 0. -1.
         13    1    3    3    0    0  0.55851643483E+02  0.46550588290E+02 -0.25129487774E+02  0.76927592615E+02  0.00000000000E+00 0.  1.
          1    1    1    2  501    0 -0.28370302121E+02 -0.22122309469E+02  0.27823334507E+02  0.45479759914E+02  0.00000000000E+00 0. -1.
<scales pt_clust_5="13000.00000" pt_clust_6="13000.00000" pt_clust_7="13000.00000" pt_clust_8="13000.00000" pt_clust_9="35.97599"></scales>
<clustering>
<clus scale="   35.976">  2  9  1 -1</clus>
<clus scale="   77.127">  5  6 -1 -1</clus>
<clus scale="   99.061">  7  8 -1 -1</clus>
<clus scale="  121.716">  2  5  1 -1</clus>
<clus scale="   35.976">  2  5  1 -1</clus>
</clustering>
</event>
<event>
 9    2  0.1570300E-004  0.9317459E+02  0.7546771E-02  0.1300742E+00
          4   -1    0    0  502    0 -0.00000000000E+00  0.00000000000E+00  0.13889028746E+03  0.13889028746E+03  0.00000000000E+00 0. -1.
         21   -1    0    0  501  502  0.00000000000E+00 -0.00000000000E+00 -0.25817964037E+03  0.25817964037E+03  0.00000000000E+00 0.  1.
         23    2    1    2    0    0 -0.34782024742E+01  0.24633373848E+02  0.10916635218E+03  0.14360547289E+03  0.89924070170E+02 0.  0.
         24    2    1    2    0    0  0.21486800413E+02 -0.14942340440E+02 -0.20752997679E+03  0.22420506614E+03  0.80710992349E+02 0.  0.
        -13    1    4    4    0    0  0.36297897182E+02 -0.28860471427E+02 -0.19475349222E+03  0.20019836883E+03  0.00000000000E+00 0.  1.
         14    1    4    4    0    0 -0.14811096769E+02  0.13918130987E+02 -0.12776484572E+02  0.24006697309E+02  0.00000000000E+00 0. -1.
        -11    1    3    3    0    0 -0.14012965630E+02 -0.19540140095E+02 -0.13901321000E+01  0.24085529845E+02  0.00000000000E+00 0.  1.
         11    1    3    3    0    0  0.10534763156E+02  0.44173513943E+02  0.11055648428E+03  0.11951994305E+03  0.00000000000E+00 0. -1.
          3    1    1    2  501    0 -0.18008597938E+02 -0.96910334078E+01 -0.20925728300E+02  0.29259388803E+02  0.00000000000E+00 0. -1.
<scales pt_clust_5="13000.00000" pt_clust_6="13000.00000" pt_clust_7="13000.00000" pt_clust_8="13000.00000" pt_clust_9="20.45057"></scales>
<clustering>
<clus scale="   20.451">  2  9  1 -1</clus>
<clus scale="   80.711">  5  6 -1 -1</clus>
<clus scale="   84.317">  2  5  1 -1</clus>
<clus scale="   89.924">  7  8 -1 -1</clus>
<clus scale="   20.451">  2  5  1 -1</clus>
</clustering>
</event>
<event>
 9    2  0.1302972E-004  0.1427656E+03  0.7546771E-02  0.1212621E+00
         21   -1    0    0  501  502  0.00000000000E+00  0.00000000000E+00  0.71586756599E+03  0.71586756599E+03  0.00000000000E+00 0. -1.
         -1   -1    0    0    0  501 -0.00000000000E+00 -0.00000000000E+00 -0.92683998806E+02  0.92683998806E+02  0.00000000000E+00 0.  1.
         24    2    1    2    0    0  0.78205722500E+02  0.69876710897E+02  0.23027706421E+03  0.26492097113E+03  0.78464672878E+02 0.  0.
         23    2    1    2    0    0 -0.63510132970E+02 -0.10008887321E+03  0.45160400511E+03  0.47599826514E+03  0.92611292262E+02 0.  0.
        -13    1    3    3    0    0 -0.11089137194E+01  0.28524812542E+02  0.11782051523E+03  0.12122940415E+03  0.00000000000E+00 0.  1.
         14    1    3    3    0    0  0.79314636219E+02  0.41351898355E+02  0.11245654897E+03  0.14369156699E+03  0.00000000000E+00 0. -1.
        -13    1    4    4    0    0 -0.27704185505E+02 -0.27442052817E+02  0.37680729242E+02  0.54225690531E+02  0.00000000000E+00 0.  1.
         13    1    4    4    0    0 -0.35805947465E+02 -0.72646820395E+02  0.41392327587E+03  0.42177257461E+03  0.00000000000E+00 0. -1.
         -2    1    1    2    0  502 -0.14695589530E+02  0.30212162315E+02 -0.58697502137E+02  0.67632328516E+02  0.00000000000E+00 0.  1.
<scales pt_clust_5="13000.00000" pt_clust_6="13000.00000" pt_clust_7="13000.00000" pt_clust_8="13000.00000" pt_clust_9="33.59667"></scales>
<clustering>
<clus scale="   33.597">  1  9  2 -1</clus>
<clus scale="   78.465">  5  6 -1 -1</clus>
<clus scale="   92.611">  7  8 -1 -1</clus>
<clus scale="  134.022">  2  5  1 -1</clus>
<clus scale="   33.597">  1  5  2 -1</clus>
</clustering>
</event>
<event>
 9    2  0.1302972E-004  0.9494953E+02  0.7546771E-02  0.1296629E+00
          2   -1    0    0  502    0 -0.00000000000E+00  0.00000000000E+00  0.25438808752E+03  0.25438808752E+03  0.00000000000E+00 0. -1.
         21   -1    0    0  501  502  0.00000000000E+00 -0.00000000000E+00 -0.65196087057E+02  0.65196087057E+02  0.00000000000E+00 0.  1.
         23    2    1    2    0    0  0.41613820276E+02  0.41422084794E+02  0.11924665923E+03  0.16031554458E+03  0.89631517616E+02 0.  0.
         24    2    1    2    0    0  0.14300498819E+01  0.41023952683E+01  0.34453401427E+02  0.87262166161E+02  0.80054819241E+02 0.  0.
        -11    1    4    4    0    0  0.16972042492E+01  0.19986919649E+02 -0.21318463242E+02  0.29271732684E+02  0.00000000000E+00 0.  1.
         12    1    4    4    0    0 -0.26715436739E+00 -0.15884524381E+02  0.55771864669E+02  0.57990433477E+02  0.00000000000E+00 0. -1.
        -13    1    3    3    0    0 -0.54031887361E+01  0.31802808039E+02  0.52696436547E+00  0.32262838361E+02  0.00000000000E+00 0. -1.
         13    1    3    3    0    0  0.47017009012E+02  0.96192767559E+01  0.11871969486E+03  0.12805270622E+03  0.00000000000E+00 0.  1.
          1    1    1    2  501    0 -0.43043870158E+02 -0.45524480063E+02  0.35491939813E+02  0.72006463840E+02  0.00000000000E+00 0. -1.
<scales pt_clust_5="13000.00000" pt_clust_6="13000.00000" pt_clust_7="13000.00000" pt_clust_8="13000.00000" pt_clust_9="62.65184"></scales>
<clustering>
<clus scale="   62.652">  2  9  1 -1</clus>
<clus scale="   80.055">  5  6 -1 -1</clus>
<clus scale="   85.967">  2  5  1 -1</clus>
<clus scale="   89.632">  7  8 -1 -1</clus>
<clus scale="   62.652">  2  5  1 -1</clus>
</clustering>
</event>
<event>
 9    2  0.1302972E-004  0.1508922E+03  0.7546771E-02  0.1225224E+00
          2   -1    0    0  502    0 -0.00000000000E+00  0.00000000000E+00  0.89070785155E+03  0.89070785155E+03  0.00000000000E+00 0. -1.
         21   -1    0    0  501  502  0.00000000000E+00 -0.00000000000E+00 -0.51665109234E+02  0.51665109234E+02  0.00000000000E+00 0.  1.
         24    2    1    2    0    0  0.28343913902E+02 -0.23491601166E+02  0.76078267284E+02  0.11563012557E+03  0.78912549098E+02 0.  0.
         23    2    1    2    0    0  0.11314407874E+03  0.12361150550E+02  0.20502552511E+03  0.25103578225E+03  0.89605342635E+02 0.  0.
        -11    1    3    3    0    0  0.46819620017E+02 -0.16746368354E+02  0.15723159763E+02  0.52151082679E+02  0.00000000000E+00 0.  1.
         12    1    3    3    0    0 -0.18475706115E+02 -0.67452328122E+01  0.60355107521E+02  0.63479042889E+02  0.00000000000E+00 0. -1.
        -13    1    4    4    0    0  0.90027190672E+02  0.47953641040E+02  0.15318607922E+03  0.18403918500E+03  0.00000000000E+00 0.  1.
         13    1    4    4    0    0  0.23116888066E+02 -0.35592490490E+02  0.51839445888E+02  0.66996597250E+02  0.00000000000E+00 0. -1.
          1    1    1    2  501    0 -0.14148799264E+03  0.11130450616E+02  0.55793894992E+03  0.57570705296E+03  0.00000000000E+00 0. -1.
<scales pt_clust_5="13000.00000" pt_clust_6="13000.00000" pt_clust_7="13000.00000" pt_clust_8="13000.00000" pt_clust_9="121.40578"></scales>
<clustering>
<clus scale="   78.913">  5  6 -1 -1</clus>
<clus scale="   87.077">  1  5  2 -1</clus>
<clus scale="   89.605">  7  8 -1 -1</clus>
<clus scale="  121.406">  2  9  1 -1</clus>
<clus scale="  121.406">  2  5  1 -1</clus>
</clustering>
</event>
<event>
 9    2  0.1302972E-004  0.1097693E+03  0.7546771E-02  0.1263131E+00
         21   -1    0    0  501  502  0.00000000000E+00  0.00000000000E+00  0.52255503593E+02  0.52255503593E+02  0.00000000000E+00 0. -1.
          4   -1    0    0  502    0 -0.00000000000E+00 -0.00000000000E+00 -0.67097328170E+03  0.67097328170E+03  0.00000000000E+00 0. -1.
         24    2    1    2    0    0  0.32487891353E+02 -0.61008263484E+02 -0.55444767946E+03  0.56444607726E+03  0.80060437025E+02 0.  0.
         23    2    1    2    0    0 -0.58566482774E+02  0.38913627814E+02 -0.48045768816E+02  0.12094760880E+03  0.85881458058E+02 0.  0.
        -11    1    3    3    0    0  0.39319364443E+02  0.47585042180E+01 -0.20002005050E+03  0.20390359581E+03  0.00000000000E+00 0.  1.
         12    1    3    3    0    0 -0.68314730904E+01 -0.65766767702E+02 -0.35442762896E+03  0.36054248145E+03  0.00000000000E+00 0. -1.
        -13    1    4    4    0    0 -0.41114579955E+02  0.65253809695E+02 -0.22573817757E+02  0.80361966208E+02  0.00000000000E+00 0.  1.
         13    1    4    4    0    0 -0.17451902819E+02 -0.26340181882E+02 -0.25471951059E+02  0.40585642588E+02  0.00000000000E+00 0. -1.
          3    1    1    2  501    0  0.26078591421E+02  0.22094635670E+02 -0.16224329832E+02  0.37835099239E+02  0.00000000000E+00 0. -1.
<scales pt_clust_5="13000.00000" pt_clust_6="13000.00000" pt_clust_7="13000.00000" pt_clust_8="13000.00000" pt_clust_9="34.17990"></scales>
<clustering>
<clus scale="   34.180">  1  9  2 -1</clus>
<clus scale="   80.060">  5  6 -1 -1</clus>
<clus scale="   85.881">  7  8 -1 -1</clus>
<clus scale="  105.278">  2  5  1 -1</clus>
<clus scale="   34.180">  1  5  2 -1</clus>
</clustering>
</event>
<event>
 9    2  0.1302972E-004  0.2107522E+03  0.7546771E-02  0.1141937E+00
         21   -1    0    0  501  502  0.00000000000E+00  0.00000000000E+00  0.16115526838E+03  0.16115526838E+03  0.00000000000E+00 0. -1.
          2   -1    0    0  502    0 -0.00000000000E+00 -0.00000000000E+00 -0.41119422656E+03  0.41119422656E+03  0.00000000000E+00 0. -1.
         24    2    1    2    0    0  0.38120069894E+01 -0.19509019552E+03 -0.10049961368E+03  0.23371442498E+03  0.80296602087E+02 0.  0.
         23    2    1    2    0    0 -0.79076000628E+02  0.17457809185E+03 -0.62136063493E+02  0.22148239749E+03  0.91994771486E+02 0.  0.
        -11    1    3    3    0    0  0.27719996251E+02 -0.80031918395E+02 -0.97876971990E+01  0.85260220329E+02  0.00000000000E+00 0.  1.
         12    1    3    3    0    0 -0.23907989261E+02 -0.11505827713E+03 -0.90711916485E+02  0.14845420465E+03  0.00000000000E+00 0. -1.
        -11    1    4    4    0    0  0.19731291898E+02  0.15949944312E+02 -0.11521729681E+02  0.27865298462E+02  0.00000000000E+00 0.  1.
         11    1    4    4    0    0 -0.98807292526E+02  0.15862814754E+03 -0.50614333812E+02  0.19361709903E+03  0.00000000000E+00 0. -1.
          1    1    1    2  501    0  0.75263993639E+02  0.20512103674E+02 -0.87403281003E+02  0.11715267246E+03  0.00000000000E+00 0. -1.
<scales pt_clust_5="13000.00000" pt_clust_6="13000.00000" pt_clust_7="13000.00000" pt_clust_8="13000.00000" pt_clust_9="78.00911"></scales>
<clustering>
<clus scale="   78.009">  1  9  2 -1</clus>
<clus scale="   80.297">  5  6 -1 -1</clus>
<clus scale="   91.995">  7  8 -1 -1</clus>
<clus scale="  205.915">  2  5  1 -1</clus>
<clus scale="   78.009">  1  5  2 -1</clus>
</clustering>
</event>
<event>
 9    2  0.1302972E-004  0.1349357E+03  0.7546771E-02  0.1253354E+00
         -1   -1    0    0    0  501 -0.00000000000E+00  0.00000000000E+00  0.50519301686E+03  0.50519301686E+03  0.00000000000E+00 0.  1.
         21   -1    0    0  501  502  0.00000000000E+00 -0.00000000000E+00 -0.42915200584E+02  0.42915200584E+02  0.00000000000E+00 0. -1.
         24    2    1    2    0    0  0.42018186677E+02 -0.17333624095E+02  0.62788677737E+02  0.93086270695E+02  0.51542731825E+02 0.  0.
         23    2    1    2    0    0 -0.61756311171E+01  0.85798037481E+02  0.27153166231E+03  0.30553890285E+03  0.11056733633E+03 0.  0.
        -11    1    3    3    0    0  0.24941704156E+02 -0.33551351892E+02  0.53194067969E+02  0.67656416451E+02  0.00000000000E+00 0.  1.
         12    1    3    3    0    0  0.17076482522E+02  0.16217727798E+02  0.95946097683E+01  0.25429854243E+02  0.00000000000E+00 0. -1.
        -13    1    4    4    0    0 -0.92332002337E+01  0.10952713081E+03  0.25099958124E+03  0.27401137596E+03  0.00000000000E+00 0. -1.
         13    1    4    4    0    0  0.30575691167E+01 -0.23729093330E+02  0.20532081070E+02  0.31527526897E+02  0.00000000000E+00 0.  1.
         -2    1    1    2    0  502 -0.35842555560E+02 -0.68464413386E+02  0.12795747623E+03  0.14948304389E+03  0.00000000000E+00 0.  1.
<scales pt_clust_5="13000.00000" pt_clust_6="13000.00000" pt_clust_7="13000.00000" pt_clust_8="13000.00000" pt_clust_9="77.34669"></scales>
<clustering>
<clus scale="   51.543">  5  6 -1 -1</clus>
<clus scale="   68.721">  1  5  2 -1</clus>
<clus scale="   77.347">  2  9  1 -1</clus>
<clus scale="  110.567">  7  8 -1 -1</clus>
<clus scale="   77.347">  2  5  1 -1</clus>
</clustering>
</event>
<event>
 9    2  0.1302972E-004  0.9496011E+02  0.7546771E-02  0.1298693E+00
          2   -1    0    0  502    0 -0.00000000000E+00  0.00000000000E+00  0.42837270564E+03  0.42837270564E+03  0.00000000000E+00 0. -1.
         21   -1    0    0  501  502  0.00000000000E+00 -0.00000000000E+00 -0.77438317241E+02  0.77438317241E+02  0.00000000000E+00 0. -1.
         24    2    1    2    0    0 -0.76856092701E+01  0.60872554175E+01  0.13202650753E+03  0.15573303104E+03  0.82010090825E+02 0.  0.
         23    2    1    2    0    0  0.55573093043E+01  0.76452375612E+02  0.59840643161E+01  0.12170576935E+03  0.94343181226E+02 0.  0.
        -11    1    3    3    0    0 -0.26070330842E+01  0.42942209057E+02  0.89001669576E+02  0.98854069859E+02  0.00000000000E+00 0.  1.
         12    1    3    3    0    0 -0.50785761859E+01 -0.36854953640E+02  0.43024837954E+02  0.56878961179E+02  0.00000000000E+00 0. -1.
        -13    1    4    4    0    0  0.25601459749E+02 -0.63525437200E+01  0.22799783600E+02  0.34865737984E+02  0.00000000000E+00 0.  1.
         13    1    4    4    0    0 -0.20044150444E+02  0.82804919332E+02 -0.16815719284E+02  0.86840031366E+02  0.00000000000E+00 0. -1.
          1    1    1    2  501    0  0.21282999658E+01 -0.82539631030E+02  0.21292381656E+03  0.22837222250E+03  0.00000000000E+00 0. -1.
<scales pt_clust_5="13000.00000" pt_clust_6="13000.00000" pt_clust_7="13000.00000" pt_clust_8="13000.00000" pt_clust_9="82.56711"></scales>
<clustering>
<clus scale="   82.010">  5  6 -1 -1</clus>
<clus scale="   82.567">  2  9  1 -1</clus>
<clus scale="   82.719">  1  5  2 -1</clus>
<clus scale="   94.343">  7  8 -1 -1</clus>
<clus scale="   82.567">  2  5  1 -1</clus>
</clustering>
</event>
<event>
 9    2  0.1302972E-004  0.1218523E+03  0.7546771E-02  0.1242914E+00
          2   -1    0    0  502    0 -0.00000000000E+00  0.00000000000E+00  0.82512934240E+03  0.82512934240E+03  0.00000000000E+00 0. -1.
         21   -1    0    0  501  502  0.00000000000E+00 -0.00000000000E+00 -0.58343264962E+02  0.58343264962E+02  0.00000000000E+00 0. -1.
         24    2    1    2    0    0  0.52113360364E+02 -0.43959970578E+02  0.44845393115E+03  0.46073490821E+03  0.80730700108E+02 0.  0.
         23    2    1    2    0    0 -0.12938384374E+03  0.37888961525E+02  0.30306550196E+03  0.34373988158E+03  0.90181235756E+02 0.  0.
        -13    1    3    3    0    0  0.61545943556E+02 -0.83403681589E+01  0.19597337379E+03  0.20557973671E+03  0.00000000000E+00 0.  1.
         14    1    3    3    0    0 -0.94325831911E+01 -0.35619602419E+02  0.25248055735E+03  0.25515517150E+03  0.00000000000E+00 0. -1.
        -11    1    4    4    0    0 -0.11689983116E+03  0.63924727135E+02  0.25331744274E+03  0.28621961509E+03  0.00000000000E+00 0. -1.
         11    1    4    4    0    0 -0.12484012583E+02 -0.26035765610E+02  0.49748059217E+02  0.57520266488E+02  0.00000000000E+00 0.  1.
          1    1    1    2  501    0  0.77270483378E+02  0.60710090531E+01  0.15266644332E+02  0.78997817574E+02  0.00000000000E+00 0. -1.
<scales pt_clust_5="13000.00000" pt_clust_6="13000.00000" pt_clust_7="13000.00000" pt_clust_8="13000.00000" pt_clust_9="77.50861"></scales>
<clustering>
<clus scale="   77.509">  2  9  1 -1</clus>
<clus scale="   80.731">  5  6 -1 -1</clus>
<clus scale="   90.181">  7  8 -1 -1</clus>
<clus scale="  115.034">  1  5  2 -1</clus>
<clus scale="   77.509">  2  5  1 -1</clus>
</clustering>
</event>
<event>
 9    2  0.1302972E-004  0.1876963E+03  0.7546771E-02  0.1184469E+00
         21   -1    0    0  501  502  0.00000000000E+00  0.00000000000E+00  0.35579557098E+03  0.35579557098E+03  0.00000000000E+00 0. -1.
         -3   -1    0    0    0  501 -0.00000000000E+00 -0.00000000000E+00 -0.28086995075E+03  0.28086995075E+03  0.00000000000E+00 0.  1.
         23    2    1    2    0    0 -0.35145779044E+02  0.49227988878E+02  0.18920744350E+03  0.21829446165E+03  0.90522895674E+02 0.  0.
         24    2    1    2    0    0 -0.90692313634E+02 -0.15061707857E+03  0.37012770776E+02  0.19700026873E+03  0.80799508466E+02 0.  0.
        -11    1    4    4    0    0 -0.69722178913E+02 -0.15553079227E+03  0.40480652389E+02  0.17518473904E+03  0.00000000000E+00 0.  1.
         12    1    4    4    0    0 -0.20970134720E+02  0.49137136965E+01 -0.34678816129E+01  0.21815529683E+02  0.00000000000E+00 0. -1.
        -13    1    3    3    0    0 -0.51142110912E+02  0.22814593881E+02  0.17602598152E+03  0.18471915811E+03  0.00000000000E+00 0. -1.
         13    1    3    3    0    0  0.15996331867E+02  0.26413394997E+02  0.13181461980E+02  0.33575303549E+02  0.00000000000E+00 0.  1.
         -4    1    1    2    0  502  0.12583809268E+03  0.10138908969E+03 -0.15129459404E+03  0.22137079135E+03  0.00000000000E+00 0.  1.
<scales pt_clust_5="13000.00000" pt_clust_6="13000.00000" pt_clust_7="13000.00000" pt_clust_8="13000.00000" pt_clust_9="169.41481"></scales>
<clustering>
<clus scale="   80.800">  5  6 -1 -1</clus>
<clus scale="   90.523">  7  8 -1 -1</clus>
<clus scale="  108.872">  2  7  1 -1</clus>
<clus scale="  169.415">  1  9  2 -1</clus>
<clus scale="  169.415">  1  5  2 -1</clus>
</clustering>
</event>
<event>
 9    2  0.1302972E-004  0.1409155E+03  0.7546771E-02  0.1232785E+00
          4   -1    0    0  502    0 -0.00000000000E+00  0.00000000000E+00  0.32451358333E+03  0.32451358333E+03  0.00000000000E+00 0. -1.
         21   -1    0    0  501  502  0.00000000000E+00 -0.00000000000E+00 -0.13826608354E+03  0.13826608354E+03  0.00000000000E+00 0. -1.
         24    2    1    2    0    0  0.12031074655E+02  0.21907971068E+02 -0.10700775268E+02  0.92058738686E+02  0.87952253089E+02 0.  0.
         23    2    1    2    0    0  0.72516764928E+02  0.49451897236E+02  0.22344293101E+03  0.25695566645E+03  0.91625868441E+02 0.  0.
        -13    1    3    3    0    0  0.82517018113E+01 -0.29933416953E+02 -0.23004623955E+02  0.38643405086E+02  0.00000000000E+00 0.  1.
         14    1    3    3    0    0  0.37793728440E+01  0.51841388022E+02  0.12303848687E+02  0.53415333600E+02  0.00000000000E+00 0. -1.
        -13    1    4    4    0    0  0.23047554393E+02  0.12118402579E+02  0.10195537298E+01  0.26059258132E+02  0.00000000000E+00 0.  1.
         13    1    4    4    0    0  0.49469210535E+02  0.37333494657E+02  0.22242337728E+03  0.23089640832E+03  0.00000000000E+00 0. -1.
          3    1    1    2  501    0 -0.84547839583E+02 -0.71359868305E+02 -0.26494655956E+02  0.11376526173E+03  0.00000000000E+00 0. -1.
<scales pt_clust_5="13000.00000" pt_clust_6="13000.00000" pt_clust_7="13000.00000" pt_clust_8="13000.00000" pt_clust_9="107.06022"></scales>
<clustering>
<clus scale="   87.952">  5  6 -1 -1</clus>
<clus scale="   91.435">  1  5  2 -1</clus>
<clus scale="   91.626">  7  8 -1 -1</clus>
<clus scale="  107.060">  2  9  1 -1</clus>
<clus scale="  107.060">  2  5  1 -1</clus>
</clustering>
</event>
<event>
 9    2  0.1302972E-004  0.9787285E+02  0.7546771E-02  0.1287988E+00
          2   -1    0    0  502    0 -0.00000000000E+00  0.00000000000E+00  0.32500842325E+03  0.32500842325E+03  0.00000000000E+00 0. -1.
         21   -1    0    0  501  502  0.00000000000E+00 -0.00000000000E+00 -0.95661096525E+02  0.95661096525E+02  0.00000000000E+00 0. -1.
         23    2    1    2    0    0 -0.45312349218E+02  0.24060273486E+01  0.27446462347E+03  0.29144597878E+03  0.86896093446E+02 0.  0.
         24    2    1    2    0    0  0.39928028317E+02 -0.28292636329E+02 -0.39781732825E+02  0.10224993021E+03  0.80484416167E+02 0.  0.
        -11    1    4    4    0    0 -0.24076026061E+02 -0.36727460509E+01 -0.33097385833E+01  0.24578414594E+02  0.00000000000E+00 0.  1.
         12    1    4    4    0    0  0.64004054378E+02 -0.24619890278E+02 -0.36471994242E+02  0.77671515616E+02  0.00000000000E+00 0. -1.
        -13    1    3    3    0    0  0.48768836920E+01  0.34633117847E+02  0.67022038227E+02  0.75598878659E+02  0.00000000000E+00 0.  1.
         13    1    3    3    0    0 -0.50189232910E+02 -0.32227090499E+02  0.20744258524E+03  0.21584710012E+03  0.00000000000E+00 0. -1.
          1    1    1    2  501    0  0.53843209009E+01  0.25886608981E+02 -0.53355639184E+01  0.26973610778E+02  0.00000000000E+00 0. -1.
<scales pt_clust_5="13000.00000" pt_clust_6="13000.00000" pt_clust_7="13000.00000" pt_clust_8="13000.00000" pt_clust_9="26.44064"></scales>
<clustering>
<clus scale="   26.441">  2  9  1 -1</clus>
<clus scale="   80.484">  5  6 -1 -1</clus>
<clus scale="   86.896">  7  8 -1 -1</clus>
<clus scale="   92.227">  2  5  1 -1</clus>
<clus scale="   26.441">  2  5  1 -1</clus>
</clustering>
</event>
<event>
 9    2  0.1302972E-004  0.1440155E+03  0.7546771E-02  0.1216219E+00
         21   -1    0    0  501  502  0.00000000000E+00  0.00000000000E+00  0.10192268810E+03  0.10192268810E+03  0.00000000000E+00 0. -1.
         -3   -1    0    0    0  501 -0.00000000000E+00 -0.00000000000E+00 -0.35266836958E+03  0.35266836958E+03  0.00000000000E+00 0.  1.
         24    2    1    2    0    0 -0.46065443909E+02 -0.10400997551E+03 -0.24822795235E+03  0.27875322227E+03  0.56090484635E+02 0.  0.
         23    2    1    2    0    0  0.30321919836E+02  0.67504079172E+02  0.29384732884E+02  0.12486425304E+03  0.96184196383E+02 0.  0.
        -13    1    3    3    0    0 -0.45644023592E+02 -0.11002569612E+03 -0.24355646982E+03  0.27112503515E+03  0.00000000000E+00 0.  1.
         14    1    3    3    0    0 -0.42142031647E+00  0.60157206122E+01 -0.46714825369E+01  0.76281871149E+01  0.00000000000E+00 0. -1.
        -13    1    4    4    0    0 -0.14860002366E+02  0.25599611453E+02 -0.27937645322E+02  0.40702233391E+02  0.00000000000E+00 0.  1.
         13    1    4    4    0    0  0.45181922202E+02  0.41904467719E+02  0.57322378206E+02  0.84162019652E+02  0.00000000000E+00 0. -1.
         -4    1    1    2    0  502  0.15743524073E+02  0.36505896334E+02 -0.31902462011E+02  0.50973582371E+02  0.00000000000E+00 0.  1.
<scales pt_clust_5="13000.00000" pt_clust_6="13000.00000" pt_clust_7="13000.00000" pt_clust_8="13000.00000" pt_clust_9="39.75601"></scales>
<clustering>
<clus scale="   39.756">  1  9  2 -1</clus>
<clus scale="   56.090">  5  6 -1 -1</clus>
<clus scale="   96.184">  7  8 -1 -1</clus>
<clus scale="  120.976">  2  5  1 -1</clus>
<clus scale="   39.756">  1  5  2 -1</clus>
</clustering>
</event>
<event>
 9    2  0.1302972E-004  0.9195172E+02  0.7546771E-02  0.1303735E+00
         21   -1    0    0  501  502  0.00000000000E+00  0.00000000000E+00  0.29800575470E+03  0.29800575470E+03  0.00000000000E+00 0. -1.
          2   -1    0    0  502    0 -0.00000000000E+00 -0.00000000000E+00 -0.11881427375E+03  0.11881427375E+03  0.00000000000E+00 0. -1.
         24    2    1    2    0    0  0.13068497905E+02  0.12684387346E+02 -0.64125144195E+02  0.10555450388E+03  0.81841553332E+02 0.  0.
         23    2    1    2    0    0 -0.11666083267E+02  0.15651646891E+02  0.32378151863E+02  0.98427705760E+02  0.90876823194E+02 0.  0.
        -11    1    3    3    0    0  0.43351321228E+02 -0.79554968056E+01 -0.49005710271E+02  0.65910443943E+02  0.00000000000E+00 0.  1.
         12    1    3    3    0    0 -0.30282823323E+02  0.20639884152E+02 -0.15119433924E+02  0.39644059938E+02  0.00000000000E+00 0. -1.
        -13    1    4    4    0    0  0.25852832408E+02 -0.10047892534E+02 -0.16007977710E+02  0.32024747278E+02  0.00000000000E+00 0.  1.
         13    1    4    4    0    0 -0.37518915675E+02  0.25699539425E+02  0.48386129572E+02  0.66402958482E+02  0.00000000000E+00 0. -1.
          1    1    1    2  501    0 -0.14024146375E+01 -0.28336034237E+02  0.21093847328E+03  0.21283781880E+03  0.00000000000E+00 0. -1.
<scales pt_clust_5="13000.00000" pt_clust_6="13000.00000" pt_clust_7="13000.00000" pt_clust_8="13000.00000" pt_clust_9="28.37072"></scales>
<clustering>
<clus scale="   28.371">  1  9  2 -1</clus>
<clus scale="   81.842">  5  6 -1 -1</clus>
<clus scale="   83.033">  2  5  1 -1</clus>
<clus scale="   90.877">  7  8 -1 -1</clus>
<clus scale="   28.371">  1  5  2 -1</clus>
</clustering>
</event>
<event>
 9    2  0.1302972E-004  0.1630022E+03  0.7546771E-02  0.1185669E+00
         21   -1    0    0  501  502  0.00000000000E+00  0.00000000000E+00  0.27251424719E+03  0.27251424719E+03  0.00000000000E+00 0.  1.
         -1   -1    0    0    0  501 -0.00000000000E+00 -0.00000000000E+00 -0.43674181407E+03  0.43674181407E+03  0.00000000000E+00 0.  1.
         24    2    1    2    0    0 -0.15372432235E+03  0.18465492573E+02  0.12196524644E+02  0.17930197066E+03  0.89600779964E+02 0.  0.
         23    2    1    2    0    0  0.97914251491E+02  0.86784068317E+02  0.12693035914E+03  0.20404588755E+03  0.91677330881E+02 0.  0.
        -11    1    3    3    0    0 -0.13975891477E+03  0.34961208929E+02  0.34610716108E+02  0.14816457761E+03  0.00000000000E+00 0.  1.
         12    1    3    3    0    0 -0.13965407578E+02 -0.16495716356E+02 -0.22414191465E+02  0.31137393050E+02  0.00000000000E+00 0. -1.
        -11    1    4    4    0    0  0.75755878263E+02  0.80824632634E+02  0.13930051298E+03  0.17797810890E+03  0.00000000000E+00 0.  1.
         11    1    4    4    0    0  0.22158373228E+02  0.59594356823E+01 -0.12370153840E+02  0.26067778651E+02  0.00000000000E+00 0. -1.
         -2    1    1    2    0  502  0.55810070860E+02 -0.10524956089E+03 -0.30335445067E+03  0.32590820305E+03  0.00000000000E+00 0.  1.
<scales pt_clust_5="13000.00000" pt_clust_6="13000.00000" pt_clust_7="13000.00000" pt_clust_8="13000.00000" pt_clust_9="119.13122"></scales>
<clustering>
<clus scale="   89.601">  5  6 -1 -1</clus>
<clus scale="   91.677">  7  8 -1 -1</clus>
<clus scale="  119.131">  1  9  2 -1</clus>
<clus scale="  161.843">  2  5  1 -1</clus>
<clus scale="  119.131">  1  5  2 -1</clus>
</clustering>
</event>
<event>
 9    2  0.1302972E-004  0.9639577E+02  0.7546771E-02  0.1293212E+00
         21   -1    0    0  501  502  0.00000000000E+00  0.00000000000E+00  0.69834310624E+02  0.69834310624E+02  0.00000000000E+00 0. -1.
         -1   -1    0    0    0  501 -0.00000000000E+00 -0.00000000000E+00 -0.32034202936E+03  0.32034202936E+03  0.00000000000E+00 0.  1.
         23    2    1    2    0    0 -0.12266405060E+02  0.55514562310E+02 -0.19508674628E+03  0.22209415681E+03  0.89636179034E+02 0.  0.
         24    2    1    2    0    0 -0.22672047774E+02  0.10523623782E+02 -0.26035869657E+02  0.87800044593E+02  0.80038821293E+02 0.  0.
        -13    1    4    4    0    0  0.16178497319E+02 -0.15609124928E+02 -0.33543482076E+02  0.40380115730E+02  0.00000000000E+00 0.  1.
         14    1    4    4    0    0 -0.38850545093E+02  0.26132748710E+02  0.75076124191E+01  0.47419928864E+02  0.00000000000E+00 0. -1.
        -11    1    3    3    0    0  0.24620216174E+01 -0.21809579191E+02 -0.18303517218E+02  0.28578629034E+02  0.00000000000E+00 0.  1.
         11    1    3    3    0    0 -0.14728426677E+02  0.77324141500E+02 -0.17678322907E+03  0.19351552778E+03  0.00000000000E+00 0. -1.
         -2    1    1    2    0  502  0.34938452834E+02 -0.66038186092E+02 -0.29385102795E+02  0.80282138580E+02  0.00000000000E+00 0.  1.
<scales pt_clust_5="13000.00000" pt_clust_6="13000.00000" pt_clust_7="13000.00000" pt_clust_8="13000.00000" pt_clust_9="74.71103"></scales>
<clustering>
<clus scale="   74.711">  1  9  2 -1</clus>
<clus scale="   80.039">  5  6 -1 -1</clus>
<clus scale="   87.543">  1  5  2 -1</clus>
<clus scale="   89.636">  7  8 -1 -1</clus>
<clus scale="   74.711">  1  5  2 -1</clus>
</clustering>
</event>
<event>
 9    2  0.1302972E-004  0.1155256E+03  0.7546771E-02  0.1254593E+00
         21   -1    0    0  501  502  0.00000000000E+00  0.00000000000E+00  0.18038608984E+03  0.18038608984E+03  0.00000000000E+00 0. -1.
          4   -1    0    0  502    0 -0.00000000000E+00 -0.00000000000E+00 -0.15964996954E+03  0.15964996954E+03  0.00000000000E+00 0. -1.
         24    2    1    2    0    0 -0.60244873714E+02  0.47944631541E+02 -0.86426106956E+02  0.14064460211E+03  0.79895554553E+02 0.  0.
         23    2    1    2    0    0  0.30469151776E+02 -0.25074869858E+02  0.12345160753E+03  0.15846513901E+03  0.91179946097E+02 0.  0.
        -11    1    3    3    0    0  0.19740858411E+02  0.63384805235E+01 -0.14332863639E+02  0.25205332893E+02  0.00000000000E+00 0.  1.
         12    1    3    3    0    0 -0.79985732124E+02  0.41606151018E+02 -0.72093243316E+02  0.11543926922E+03  0.00000000000E+00 0. -1.
        -11    1    4    4    0    0 -0.63066053722E+01 -0.52302108661E+02  0.55293129924E+02  0.76371552678E+02  0.00000000000E+00 0.  1.
         11    1    4    4    0    0  0.36775757148E+02  0.27227238803E+02  0.68158477607E+02  0.82093586329E+02  0.00000000000E+00 0. -1.
          3    1    1    2  501    0  0.29775721938E+02 -0.22869761683E+02 -0.16289380275E+02  0.40926318257E+02  0.00000000000E+00 0. -1.
<scales pt_clust_5="13000.00000" pt_clust_6="13000.00000" pt_clust_7="13000.00000" pt_clust_8="13000.00000" pt_clust_9="37.54492"></scales>
<clustering>
<clus scale="   37.545">  1  9  2 -1</clus>
<clus scale="   79.896">  5  6 -1 -1</clus>
<clus scale="   91.180">  7  8 -1 -1</clus>
<clus scale="  106.844">  2  5  1 -1</clus>
<clus scale="   37.545">  1  5  2 -1</clus>
</clustering>
</event>
<event>
 9    2  0.1484898E-004  0.1471722E+03  0.7546771E-02  0.1206407E+00
          2   -1    0    0  502    0 -0.00000000000E+00  0.00000000000E+00  0.77843343274E+03  0.77843343274E+03  0.00000000000E+00 0. -1.
         21   -1    0    0  501  502  0.00000000000E+00 -0.00000000000E+00 -0.14214524214E+03  0.14214524214E+03  0.00000000000E+00 0. -1.
         23    2    1    2    0    0 -0.11582683383E+03  0.28828837672E+00  0.71460429123E+03  0.72986260388E+03  0.92866511396E+02 0.  0.
         24    2    1    2    0    0  0.87524968250E+02  0.21146655278E+02 -0.92842320183E+02  0.15235641174E+03  0.80529365350E+02 0.  0.
        -13    1    4    4    0    0  0.96845259557E+02  0.22127376658E+02 -0.55369663900E+02  0.11372961258E+03  0.00000000000E+00 0.  1.
         14    1    4    4    0    0 -0.93202913065E+01 -0.98072137977E+00 -0.37472656283E+02  0.38626799160E+02  0.00000000000E+00 0. -1.
        -11    1    3    3    0    0 -0.28209315360E+02  0.42631866520E+02  0.25268319637E+03  0.25780232590E+03  0.00000000000E+00 0.  1.
         11    1    3    3    0    0 -0.87617518475E+02 -0.42343578143E+02  0.46192109487E+03  0.47206027797E+03  0.00000000000E+00 0. -1.
          1    1    1    2  501    0  0.28301865585E+02 -0.21434943655E+02  0.14526219548E+02  0.38359659271E+02  0.00000000000E+00 0. -1.
<scales pt_clust_5="13000.00000" pt_clust_6="13000.00000" pt_clust_7="13000.00000" pt_clust_8="13000.00000" pt_clust_9="35.50285"></scales>
<clustering>
<clus scale="   35.503">  2  9  1 -1</clus>
<clus scale="   80.529">  5  6 -1 -1</clus>
<clus scale="   92.867">  7  8 -1 -1</clus>
<clus scale="  139.716">  2  5  1 -1</clus>
<clus scale="   35.503">  2  5  1 -1</clus>
</clustering>
</event>
<event>
 9    2  0.1302972E-004  0.1358673E+03  0.7546771E-02  0.1226398E+00
         21   -1    0    0  501  502  0.00000000000E+00  0.00000000000E+00  0.17805066161E+03  0.17805066161E+03  0.00000000000E+00 0.  1.
         -3   -1    0    0    0  501 -0.00000000000E+00 -0.00000000000E+00 -0.18545599030E+03  0.18545599030E+03  0.00000000000E+00 0.  1.
         24    2    1    2    0    0  0.85790294742E+01  0.86903575731E+02 -0.97607176124E+02  0.15387994823E+03  0.80783948998E+02 0.  0.
         23    2    1    2    0    0 -0.45909515155E+02 -0.61578005495E+02  0.97624650863E+02  0.16390966441E+03  0.10694050350E+03 0.  0.
        -13    1    3    3    0    0 -0.31326867275E+02  0.50231293728E+02 -0.27522725673E+02  0.65284423190E+02  0.00000000000E+00 0.  1.
         14    1    3    3    0    0  0.39905896749E+02  0.36672282004E+02 -0.70084450451E+02  0.88595525043E+02  0.00000000000E+00 0. -1.
        -11    1    4    4    0    0 -0.98663897603E+01 -0.86863707696E+02  0.60451868161E+02  0.10628771202E+03  0.00000000000E+00 0.  1.
         11    1    4    4    0    0 -0.36043125394E+02  0.25285702201E+02  0.37172782702E+02  0.57621952395E+02  0.00000000000E+00 0. -1.
         -4    1    1    2    0  502  0.37330485680E+02 -0.25325570236E+02 -0.74228034293E+01  0.45717039271E+02  0.00000000000E+00 0.  1.
<scales pt_clust_5="13000.00000" pt_clust_6="13000.00000" pt_clust_7="13000.00000" pt_clust_8="13000.00000" pt_clust_9="45.11044"></scales>
<clustering>
<clus scale="   45.110">  1  9  2 -1</clus>
<clus scale="   80.784">  5  6 -1 -1</clus>
<clus scale="  106.941">  7  8 -1 -1</clus>
<clus scale="  116.403">  2  5  1 -1</clus>
<clus scale="   45.110">  1  5  2 -1</clus>
</clustering>
</event>
<event>
 9    2  0.1302972E-004  0.9767448E+02  0.7546771E-02  0.1289864E+00
          2   -1    0    0  502    0 -0.00000000000E+00  0.00000000000E+00  0.36667859781E+03  0.36667859781E+03  0.00000000000E+00 0. -1.
         21   -1    0    0  501  502  0.00000000000E+00 -0.00000000000E+00 -0.10858585565E+03  0.10858585565E+03  0.00000000000E+00 0.  1.
         23    2    1    2    0    0  0.50009057804E+02 -0.25456866999E+01  0.89095140773E+02  0.13662451052E+03  0.90669324372E+02 0.  0.
         24    2    1    2    0    0  0.14949223148E+02 -0.54931925214E+02 -0.43738487676E+02  0.10890118320E+03  0.81886608899E+02 0.  0.
        -13    1    4    4    0    0  0.32384178852E+02 -0.42565623431E+02  0.69081846403E+01  0.53928567133E+02  0.00000000000E+00 0.  1.
         14    1    4    4    0    0 -0.17434955704E+02 -0.12366301783E+02 -0.50646672316E+02  0.54972616064E+02  0.00000000000E+00 0. -1.
        -11    1    3    3    0    0 -0.26123719812E+02 -0.53573122583E+01  0.30489028491E+02  0.40505930304E+02  0.00000000000E+00 0.  1.
         11    1    3    3    0    0  0.76132777616E+02  0.28116255584E+01  0.58606112282E+02  0.96118580216E+02  0.00000000000E+00 0. -1.
          1    1    1    2  501    0 -0.64958280951E+02  0.57477611914E+02  0.21273608907E+03  0.22973875974E+03  0.00000000000E+00 0. -1.
<scales pt_clust_5="13000.00000" pt_clust_6="13000.00000" pt_clust_7="13000.00000" pt_clust_8="13000.00000" pt_clust_9="86.73674"></scales>
<clustering>
<clus scale="   81.887">  5  6 -1 -1</clus>
<clus scale="   86.737">  2  9  1 -1</clus>
<clus scale="   89.581">  2  5  1 -1</clus>
<clus scale="   90.669">  7  8 -1 -1</clus>
<clus scale="   86.737">  2  5  1 -1</clus>
</clustering>
</event>
<event>
 9    2  0.1302972E-004  0.1550794E+03  0.7546771E-02  0.1195847E+00
         21   -1    0    0  501  502  0.00000000000E+00  0.00000000000E+00  0.33402348588E+03  0.33402348588E+03  0.00000000000E+00 0.  1.
         -1   -1    0    0    0  501 -0.00000000000E+00 -0.00000000000E+00 -0.13786441169E+03  0.13786441169E+03  0.00000000000E+00 0.  1.
         24    2    1    2    0    0  0.14937301709E-01 -0.12677061245E+03  0.89271455007E+02  0.17491786644E+03  0.80969617253E+02 0.  0.
         23    2    1    2    0    0 -0.68176306550E+02  0.11811303744E+03  0.14501750881E+03  0.21839004421E+03  0.89807767809E+02 0.  0.
        -13    1    3    3    0    0 -0.26318984838E+02 -0.31048955439E+02 -0.10283675899E+01  0.40715895381E+02  0.00000000000E+00 0.  1.
         14    1    3    3    0    0  0.26333922140E+02 -0.95721657009E+02  0.90299822596E+02  0.13420197106E+03  0.00000000000E+00 0. -1.
        -11    1    4    4    0    0 -0.25682832722E+01  0.78395106335E+02  0.10733048141E+03  0.13293690615E+03  0.00000000000E+00 0.  1.
         11    1    4    4    0    0 -0.65608023277E+02  0.39717931109E+02  0.37687027394E+02  0.85453138057E+02  0.00000000000E+00 0. -1.
         -2    1    1    2    0  502  0.68161369248E+02  0.86575750027E+01 -0.38129889614E+02  0.78579986922E+02  0.00000000000E+00 0.  1.
<scales pt_clust_5="13000.00000" pt_clust_6="13000.00000" pt_clust_7="13000.00000" pt_clust_8="13000.00000" pt_clust_9="68.70903"></scales>
<clustering>
<clus scale="   68.709">  1  9  2 -1</clus>
<clus scale="   80.970">  5  6 -1 -1</clus>
<clus scale="   89.808">  7  8 -1 -1</clus>
<clus scale="  150.134">  2  5  1 -1</clus>
<clus scale="   68.709">  1  5  2 -1</clus>
</clustering>
</event>
<event>
 9    2  0.1302972E-004  0.1690720E+03  0.7546771E-02  0.1206405E+00
         21   -1    0    0  501  502  0.00000000000E+00  0.00000000000E+00  0.52567651852E+02  0.52567651852E+02  0.00000000000E+00 0.  1.
          2   -1    0    0  502    0 -0.00000000000E+00 -0.00000000000E+00 -0.81096948451E+03  0.81096948451E+03  0.00000000000E+00 0. -1.
         24    2    1    2    0    0  0.36786711737E+02 -0.21129913322E+02 -0.18329914189E+03  0.20516147140E+03  0.81810259332E+02 0.  0.
         23    2    1    2    0    0  0.12108444978E+03 -0.16229139781E+02 -0.23868667344E+03  0.28488571971E+03  0.96248201343E+02 0.  0.
        -11    1    3    3    0    0  0.21416781743E+02  0.93690038836E+01 -0.53714051826E+01  0.23985595002E+02  0.00000000000E+00 0.  1.
         12    1    3    3    0    0  0.15369929994E+02 -0.30498917205E+02 -0.17792773670E+03  0.18117587639E+03  0.00000000000E+00 0. -1.
        -13    1    4    4    0    0  0.38578965780E+02 -0.45261305457E+02 -0.14497212623E+03  0.15669664884E+03  0.00000000000E+00 0. -1.
         13    1    4    4    0    0  0.82505483999E+02  0.29032165676E+02 -0.93714547211E+02  0.12818907088E+03  0.00000000000E+00 0.  1.
          1    1    1    2  501    0 -0.15787116152E+03  0.37359053102E+02 -0.33641601733E+03  0.37348994525E+03  0.00000000000E+00 0. -1.
<scales pt_clust_5="13000.00000" pt_clust_6="13000.00000" pt_clust_7="13000.00000" pt_clust_8="13000.00000" pt_clust_9="139.00233"></scales>
<clustering>
<clus scale="   81.810">  5  6 -1 -1</clus>
<clus scale="   92.156">  2  5  1 -1</clus>
<clus scale="   96.248">  7  8 -1 -1</clus>
<clus scale="  139.002">  1  9  2 -1</clus>
<clus scale="  139.002">  1  5  2 -1</clus>
</clustering>
</event>
<event>
 9    2  0.1302972E-004  0.2121087E+03  0.7546771E-02  0.1174159E+00
         21   -1    0    0  501  502  0.00000000000E+00  0.00000000000E+00  0.30538877698E+03  0.30538877698E+03  0.00000000000E+00 0. -1.
          2   -1    0    0  502    0 -0.00000000000E+00 -0.00000000000E+00 -0.40850699080E+03  0.40850699080E+03  0.00000000000E+00 0. -1.
         23    2    1    2    0    0  0.20460891799E+02  0.17666750346E+02 -0.82734508612E+02  0.12608583769E+03  0.91224324548E+02 0.  0.
         24    2    1    2    0    0  0.15853015066E+03 -0.10229812470E+03 -0.22419689387E+03  0.30366194281E+03  0.79684460894E+02 0.  0.
        -11    1    4    4    0    0  0.41219981926E+02 -0.42776620952E+02 -0.23904366150E+02  0.64033935777E+02  0.00000000000E+00 0.  1.
         12    1    4    4    0    0  0.11731016873E+03 -0.59521503748E+02 -0.20029252772E+03  0.23962800704E+03  0.00000000000E+00 0. -1.
        -13    1    3    3    0    0  0.34658635102E+02  0.39672861431E+02 -0.17045429407E+02  0.55368796130E+02  0.00000000000E+00 0. -1.
         13    1    3    3    0    0 -0.14197743303E+02 -0.22006111084E+02 -0.65689079205E+02  0.70717041558E+02  0.00000000000E+00 0.  1.
          1    1    1    2  501    0 -0.17899104246E+03  0.84631374355E+02  0.20381318865E+03  0.28414798728E+03  0.00000000000E+00 0. -1.
<scales pt_clust_5="13000.00000" pt_clust_6="13000.00000" pt_clust_7="13000.00000" pt_clust_8="13000.00000" pt_clust_9="196.57188"></scales>
<clustering>
<clus scale="   79.684">  5  6 -1 -1</clus>
<clus scale="   91.224">  7  8 -1 -1</clus>
<clus scale="   95.145">  2  7  1 -1</clus>
<clus scale="  196.572">  1  9  2 -1</clus>
<clus scale="  196.572">  1  5  2 -1</clus>
</clustering>
</event>
<event>
 9    2  0.1302972E-004  0.1704648E+03  0.7546771E-02  0.1196548E+00
          2   -1    0    0  502    0 -0.00000000000E+00  0.00000000000E+00  0.18481213682E+04  0.18481213682E+04  0.00000000000E+00 0. -1.
         21   -1    0    0  501  502  0.00000000000E+00 -0.00000000000E+00 -0.42245960174E+02  0.42245960174E+02  0.00000000000E+00 0.  1.
         24    2    1    2    0    0 -0.70220761070E+02  0.18576766655E+02  0.45384891903E+03  0.46730194274E+03  0.84357648370E+02 0.  0.
         23    2    1    2    0    0 -0.73781628532E+02  0.11389155716E+03  0.21534558113E+03  0.26966691532E+03  0.89059027632E+02 0.  0.
        -11    1    3    3    0    0 -0.24776746950E+02 -0.22872667574E+02  0.61290410866E+02  0.69953988990E+02  0.00000000000E+00 0.  1.
         12    1    3    3    0    0 -0.45444014119E+02  0.41449434229E+02  0.39255850816E+03  0.39734795375E+03  0.00000000000E+00 0. -1.
        -13    1    4    4    0    0 -0.41718209954E+02  0.29309789575E+02  0.20694365602E+02  0.55024808716E+02  0.00000000000E+00 0.  1.
         13    1    4    4    0    0 -0.32063418578E+02  0.84581767587E+02  0.19465121553E+03  0.21464210660E+03  0.00000000000E+00 0. -1.
          1    1    1    2  501    0  0.14400238960E+03 -0.13246832382E+03  0.11366809079E+04  0.11533984704E+04  0.00000000000E+00 0. -1.
<scales pt_clust_5="13000.00000" pt_clust_6="13000.00000" pt_clust_7="13000.00000" pt_clust_8="13000.00000" pt_clust_9="145.35044"></scales>
<clustering>
<clus scale="   84.358">  5  6 -1 -1</clus>
<clus scale="   89.059">  7  8 -1 -1</clus>
<clus scale="  111.321">  1  5  2 -1</clus>
<clus scale="  145.350">  2  9  1 -1</clus>
<clus scale="  145.350">  2  5  1 -1</clus>
</clustering>
</event>
<event>
 9    2  0.1302972E-004  0.1361902E+03  0.7546771E-02  0.1225551E+00
         21   -1    0    0  501  502  0.00000000000E+00  0.00000000000E+00  0.40439423223E+02  0.40439423223E+02  0.00000000000E+00 0.  1.
          2   -1    0    0  502    0 -0.00000000000E+00 -0.00000000000E+00 -0.12007381293E+04  0.12007381293E+04  0.00000000000E+00 0. -1.
         24    2    1    2    0    0  0.59391596991E+02 -0.61876268198E+02 -0.11166668349E+03  0.16219205443E+03  0.80503291597E+02 0.  0.
         23    2    1    2    0    0 -0.62171526374E+02 -0.64354933922E+02 -0.53428555982E+03  0.54936834566E+03  0.91310807527E+02 0.  0.
        -11    1    3    3    0    0  0.66221472552E+02 -0.61657930376E+02 -0.56650845619E+02  0.10675346418E+03  0.00000000000E+00 0.  1.
         12    1    3    3    0    0 -0.68298755604E+01 -0.21833782143E+00 -0.55015837875E+02  0.55438590248E+02  0.00000000000E+00 0. -1.
        -13    1    4    4    0    0 -0.65080128090E+02 -0.84239349692E+02 -0.41694902081E+03  0.43032334013E+03  0.00000000000E+00 0. -1.
         13    1    4    4    0    0  0.29086017157E+01  0.19884415771E+02 -0.11733653901E+03  0.11904500553E+03  0.00000000000E+00 0.  1.
          1    1    1    2  501    0  0.27799293827E+01  0.12623120212E+03 -0.51434646280E+03  0.52961715247E+03  0.00000000000E+00 0. -1.
<scales pt_clust_5="13000.00000" pt_clust_6="13000.00000" pt_clust_7="13000.00000" pt_clust_8="13000.00000" pt_clust_9="101.04507"></scales>
<clustering>
<clus scale="   80.503">  5  6 -1 -1</clus>
<clus scale="   91.311">  7  8 -1 -1</clus>
<clus scale="  117.630">  2  5  1 -1</clus>
<clus scale="  101.045">  1  9  2 -1</clus>
<clus scale="  101.045">  1  5  2 -1</clus>
</clustering>
</event>
<event>
 9    2  0.1302972E-004  0.3978459E+03  0.7546771E-02  0.1066228E+00
          2   -1    0    0  502    0 -0.00000000000E+00  0.00000000000E+00  0.10082814725E+04  0.10082814725E+04  0.00000000000E+00 0. -1.
         21   -1    0    0  501  502  0.00000000000E+00 -0.00000000000E+00 -0.28341314208E+03  0.28341314208E+03  0.00000000000E+00 0. -1.
         23    2    1    2    0    0 -0.18119762014E+02  0.19400285112E+03  0.29217687312E+03  0.36309347917E+03  0.92217771675E+02 0.  0.
         24    2    1    2    0    0  0.38823996052E+01 -0.47147738569E+03  0.89001900728E+02  0.48665393141E+03  0.81269381558E+02 0.  0.
        -13    1    4    4    0    0 -0.29053428917E+02 -0.19254126171E+03  0.62627544668E+02  0.20454449038E+03  0.00000000000E+00 0.  1.
         14    1    4    4    0    0  0.32935828522E+02 -0.27893612398E+03  0.26374356060E+02  0.28210944103E+03  0.00000000000E+00 0. -1.
        -11    1    3    3    0    0  0.30749254538E+02  0.10646455964E+03  0.18993862634E+03  0.21990202566E+03  0.00000000000E+00 0. -1.
         11    1    3    3    0    0 -0.48869016552E+02  0.87538291481E+02  0.10223824678E+03  0.14319145351E+03  0.00000000000E+00 0.  1.
          1    1    1    2  501    0  0.14237362409E+02  0.27747453457E+03  0.34368955658E+03  0.44194720400E+03  0.00000000000E+00 0. -1.
<scales pt_clust_5="13000.00000" pt_clust_6="13000.00000" pt_clust_7="13000.00000" pt_clust_8="13000.00000" pt_clust_9="389.45708"></scales>
<clustering>
<clus scale="   81.269">  5  6 -1 -1</clus>
<clus scale="   92.218">  7  8 -1 -1</clus>
<clus scale="  215.568">  1  7  2 -1</clus>
<clus scale="  389.457">  2  9  1 -1</clus>
<clus scale="  389.457">  2  5  1 -1</clus>
</clustering>
</event>
<event>
 9    2  0.1302972E-004  0.1079284E+03  0.7546771E-02  0.1270251E+00
         21   -1    0    0  501  502  0.00000000000E+00  0.00000000000E+00  0.43870377795E+03  0.43870377795E+03  0.00000000000E+00 0. -1.
          2   -1    0    0  502    0 -0.00000000000E+00 -0.00000000000E+00 -0.92646743609E+02  0.92646743609E+02  0.00000000000E+00 0. -1.
         24    2    1    2    0    0 -0.44969984804E+02 -0.19331039855E+02 -0.29426083086E+02  0.98141613422E+02  0.79811611211E+02 0.  0.
         23    2    1    2    0    0  0.78560660154E+02  0.19019015827E+01  0.10770458845E+03  0.16276954541E+03  0.93371580182E+02 0.  0.
        -13    1    3    3    0    0 -0.40126951570E+02  0.19436432003E+02 -0.37485238430E+02  0.58250238038E+02  0.00000000000E+00 0.  1.
         14    1    3    3    0    0 -0.48430332346E+01 -0.38767471859E+02  0.80591553433E+01  0.39891375385E+02  0.00000000000E+00 0. -1.
        -13    1    4    4    0    0  0.37939237575E+02  0.47297394606E+02  0.46448043858E+02  0.76379644294E+02  0.00000000000E+00 0.  1.
         13    1    4    4    0    0  0.40621422578E+02 -0.45395493023E+02  0.61256544590E+02  0.86389901112E+02  0.00000000000E+00 0. -1.
          1    1    1    2  501    0 -0.33590675349E+02  0.17429138273E+02  0.26777852898E+03  0.27043936273E+03  0.00000000000E+00 0. -1.
<scales pt_clust_5="13000.00000" pt_clust_6="13000.00000" pt_clust_7="13000.00000" pt_clust_8="13000.00000" pt_clust_9="37.84321"></scales>
<clustering>
<clus scale="   37.843">  1  9  2 -1</clus>
<clus scale="   79.812">  5  6 -1 -1</clus>
<clus scale="   93.372">  7  8 -1 -1</clus>
<clus scale="   96.437">  2  5  1 -1</clus>
<clus scale="   37.843">  1  5  2 -1</clus>
</clustering>
</event>
<event>
 9    2  0.1302972E-004  0.1519801E+03  0.7546771E-02  0.1200529E+00
         21   -1    0    0  501  502  0.00000000000E+00  0.00000000000E+00  0.29368002178E+03  0.29368002178E+03  0.00000000000E+00 0. -1.
          2   -1    0    0  502    0 -0.00000000000E+00 -0.00000000000E+00 -0.36343832374E+03  0.36343832374E+03  0.00000000000E+00 0. -1.
         24    2    1    2    0    0 -0.64807901139E+02 -0.90767592199E+02 -0.15731667017E+03  0.20878661691E+03  0.80028100345E+02 0.  0.
         23    2    1    2    0    0  0.15038006425E+03  0.13707935269E+03  0.19955612070E+03  0.29997111786E+03  0.93568763939E+02 0.  0.
        -13    1    3    3    0    0 -0.60779971225E+02 -0.20285715222E+02 -0.95184518252E+02  0.11474235338E+03  0.00000000000E+00 0.  1.
         14    1    3    3    0    0 -0.40279299138E+01 -0.70481876977E+02 -0.62132151921E+02  0.94044263535E+02  0.00000000000E+00 0. -1.
        -13    1    4    4    0    0  0.12172388811E+03  0.12763369158E+03  0.11591205507E+03  0.21105134133E+03  0.00000000000E+00 0. -1.
         13    1    4    4    0    0  0.28656176135E+02  0.94456611077E+01  0.83644065629E+02  0.88919776537E+02  0.00000000000E+00 0.  1.
          1    1    1    2  501    0 -0.85572163110E+02 -0.46311760491E+02 -0.11199775249E+03  0.14836061075E+03  0.00000000000E+00 0. -1.
<scales pt_clust_5="13000.00000" pt_clust_6="13000.00000" pt_clust_7="13000.00000" pt_clust_8="13000.00000" pt_clust_9="97.30048"></scales>
<clustering>
<clus scale="   80.028">  5  6 -1 -1</clus>
<clus scale="   93.569">  7  8 -1 -1</clus>
<clus scale="   97.300">  1  9  2 -1</clus>
<clus scale="  144.039">  2  5  1 -1</clus>
<clus scale="   97.300">  1  5  2 -1</clus>
</clustering>
</event>
<event>
 9    2  0.1302972E-004  0.1035294E+03  0.7546771E-02  0.1280208E+00
          4   -1    0    0  502    0 -0.00000000000E+00  0.00000000000E+00  0.27996965690E+03  0.27996965690E+03  0.00000000000E+00 0. -1.
         21   -1    0    0  501  502  0.00000000000E+00 -0.00000000000E+00 -0.18814375146E+03  0.18814375146E+03  0.00000000000E+00 0.  1.
         24    2    1    2    0    0 -0.42354929161E+02  0.29290059091E+02  0.23551145204E+03  0.25285791559E+03  0.76286524687E+02 0.  0.
         23    2    1    2    0    0 -0.10834577092E+02 -0.86800815976E+01 -0.12426604652E+03  0.15499761584E+03  0.91594097641E+02 0.  0.
        -11    1    3    3    0    0 -0.93129619460E+01  0.44887985265E+02  0.18450165114E+03  0.19011186642E+03  0.00000000000E+00 0.  1.
         12    1    3    3    0    0 -0.33041967215E+02 -0.15597926174E+02  0.51009800904E+02  0.62746049172E+02  0.00000000000E+00 0. -1.
        -13    1    4    4    0    0 -0.34643652488E+02  0.18589472683E+02 -0.18971802092E+02  0.43654099773E+02  0.00000000000E+00 0. -1.
         13    1    4    4    0    0  0.23809075397E+02 -0.27269554280E+02 -0.10529424442E+03  0.11134351607E+03  0.00000000000E+00 0.  1.
          3    1    1    2  501    0  0.53189506253E+02 -0.20609977494E+02 -0.19419500086E+02  0.60257876923E+02  0.00000000000E+00 0. -1.
<scales pt_clust_5="13000.00000" pt_clust_6="13000.00000" pt_clust_7="13000.00000" pt_clust_8="13000.00000" pt_clust_9="57.04292"></scales>
<clustering>
<clus scale="   57.043">  2  9  1 -1</clus>
<clus scale="   76.287">  5  6 -1 -1</clus>
<clus scale="   90.269">  1  5  2 -1</clus>
<clus scale="   91.594">  7  8 -1 -1</clus>
<clus scale="   57.043">  2  5  1 -1</clus>
</clustering>
</event>
<event>
 9    2  0.1302972E-004  0.1978127E+03  0.7546771E-02  0.1169007E+00
          2   -1    0    0  502    0 -0.00000000000E+00  0.00000000000E+00  0.69462796872E+03  0.69462796872E+03  0.00000000000E+00 0. -1.
         21   -1    0    0  501  502  0.00000000000E+00 -0.00000000000E+00 -0.13659072935E+03  0.13659072935E+03  0.00000000000E+00 0. -1.
         24    2    1    2    0    0 -0.97929412634E+02  0.10967255311E+02  0.37663987680E+03  0.39907646460E+03  0.87715319405E+02 0.  0.
         23    2    1    2    0    0  0.18439536113E+03 -0.11124639261E+03  0.36683583723E+02  0.23599345468E+03  0.89273827424E+02 0.  0.
        -11    1    3    3    0    0 -0.78166786725E+02  0.40349084707E+02  0.19366673265E+03  0.21270848248E+03  0.00000000000E+00 0.  1.
         12    1    3    3    0    0 -0.19762625909E+02 -0.29381829396E+02  0.18297314415E+03  0.18636798212E+03  0.00000000000E+00 0. -1.
        -13    1    4    4    0    0  0.10334122989E+03 -0.11133837335E+03  0.28128787575E+02  0.15448906714E+03  0.00000000000E+00 0. -1.
         13    1    4    4    0    0  0.81054131242E+02  0.91980739385E-01  0.85547961480E+01  0.81504387544E+02  0.00000000000E+00 0.  1.
          1    1    1    2  501    0 -0.86465948498E+02  0.10027913730E+03  0.14471377885E+03  0.19614877878E+03  0.00000000000E+00 0. -1.
<scales pt_clust_5="13000.00000" pt_clust_6="13000.00000" pt_clust_7="13000.00000" pt_clust_8="13000.00000" pt_clust_9="176.52220"></scales>
<clustering>
<clus scale="   87.715">  5  6 -1 -1</clus>
<clus scale="   89.274">  7  8 -1 -1</clus>
<clus scale="  131.926">  1  5  2 -1</clus>
<clus scale="  176.522">  2  9  1 -1</clus>
<clus scale="  176.522">  2  5  1 -1</clus>
</clustering>
</event>
<event>
 9    2  0.1302972E-004  0.1593985E+03  0.7546771E-02  0.1189868E+00
         21   -1    0    0  501  502  0.00000000000E+00  0.00000000000E+00  0.33507889225E+03  0.33507889225E+03  0.00000000000E+00 0.  1.
         -1   -1    0    0    0  501 -0.00000000000E+00 -0.00000000000E+00 -0.12582110049E+03  0.12582110049E+03  0.00000000000E+00 0.  1.
         24    2    1    2    0    0  0.14670266960E+03  0.36354795579E+02  0.11890719533E+01  0.17536169704E+03  0.88921124973E+02 0.  0.
         23    2    1    2    0    0 -0.10303240895E+03 -0.10819565441E+02  0.10471680147E+03  0.17046980015E+03  0.85799790003E+02 0.  0.
        -11    1    3    3    0    0  0.10560893126E+03  0.37505738951E+02  0.39833833022E+02  0.11893973713E+03  0.00000000000E+00 0.  1.
         12    1    3    3    0    0  0.41093738341E+02 -0.11509433719E+01 -0.38644761069E+02  0.56421959906E+02  0.00000000000E+00 0. -1.
        -13    1    4    4    0    0 -0.55605275585E+02 -0.21804786750E+01  0.10868115904E+03  0.12209953108E+03  0.00000000000E+00 0.  1.
         13    1    4    4    0    0 -0.47427133365E+02 -0.86390867658E+01 -0.39643575704E+01  0.48370269074E+02  0.00000000000E+00 0. -1.
         -2    1    1    2    0  502 -0.43670260650E+02 -0.25535230138E+02  0.10335191834E+03  0.11506849555E+03  0.00000000000E+00 0.  1.
<scales pt_clust_5="13000.00000" pt_clust_6="13000.00000" pt_clust_7="13000.00000" pt_clust_8="13000.00000" pt_clust_9="50.58794"></scales>
<clustering>
<clus scale="   50.588">  1  9  2 -1</clus>
<clus scale="   85.800">  7  8 -1 -1</clus>
<clus scale="   88.921">  5  6 -1 -1</clus>
<clus scale="  157.679">  1  7  2 -1</clus>
<clus scale="   50.588">  1  5  2 -1</clus>
</clustering>
</event>
<event>
 9    2  0.1302972E-004  0.9675484E+02  0.7546771E-02  0.1291147E+00
         21   -1    0    0  501  502  0.00000000000E+00  0.00000000000E+00  0.79616525719E+02  0.79616525719E+02  0.00000000000E+00 0. -1.
         -1   -1    0    0    0  501 -0.00000000000E+00 -0.00000000000E+00 -0.40469605367E+03  0.40469605367E+03  0.00000000000E+00 0.  1.
         23    2    1    2    0    0 -0.10647874681E+02  0.38901712189E+02 -0.18117954657E+03  0.20632672898E+03  0.90099781076E+02 0.  0.
         24    2    1    2    0    0 -0.55215371699E+02 -0.17871234653E+02  0.17319717922E+02  0.10256624018E+03  0.82775254128E+02 0.  0.
        -13    1    4    4    0    0  0.20649655757E+02 -0.84600920718E+01 -0.51180376141E+01  0.22894884794E+02  0.00000000000E+00 0.  1.
         14    1    4    4    0    0 -0.75865027456E+02 -0.94111425815E+01  0.22437755536E+02  0.79671355386E+02  0.00000000000E+00 0. -1.
        -11    1    3    3    0    0 -0.33812076985E+02  0.58572748817E+02 -0.11321662848E+03  0.13187883992E+03  0.00000000000E+00 0.  1.
         11    1    3    3    0    0  0.23164202304E+02 -0.19671036628E+02 -0.67962918085E+02  0.74447889057E+02  0.00000000000E+00 0. -1.
         -2    1    1    2    0  502  0.65863246380E+02 -0.21030477536E+02 -0.16121969930E+03  0.17541961022E+03  0.00000000000E+00 0.  1.
<scales pt_clust_5="13000.00000" pt_clust_6="13000.00000" pt_clust_7="13000.00000" pt_clust_8="13000.00000" pt_clust_9="69.13937"></scales>
<clustering>
<clus scale="   69.139">  1  9  2 -1</clus>
<clus scale="   82.775">  5  6 -1 -1</clus>
<clus scale="   89.974">  1  5  2 -1</clus>
<clus scale="   90.100">  7  8 -1 -1</clus>
<clus scale="   69.139">  1  5  2 -1</clus>
</clustering>
</event>
<event>
 9    2  0.1302972E-004  0.1096239E+03  0.7546771E-02  0.1263592E+00
          2   -1    0    0  502    0 -0.00000000000E+00  0.00000000000E+00  0.43008624836E+03  0.43008624836E+03  0.00000000000E+00 0. -1.
         21   -1    0    0  501  502  0.00000000000E+00 -0.00000000000E+00 -0.37466604084E+02  0.37466604084E+02  0.00000000000E+00 0.  1.
         24    2    1    2    0    0 -0.40709178212E+02 -0.31766222616E+02  0.12034376641E+03  0.15387244129E+03  0.80794653205E+02 0.  0.
         23    2    1    2    0    0  0.72224094563E+02  0.40668749392E+02  0.18652778775E+03  0.22189163246E+03  0.87023065552E+02 0.  0.
        -11    1    3    3    0    0 -0.54943425941E+02 -0.48923602624E+02  0.90876795109E+02  0.11692258480E+03  0.00000000000E+00 0.  1.
         12    1    3    3    0    0  0.14234247729E+02  0.17157380008E+02  0.29466971298E+02  0.36949856490E+02  0.00000000000E+00 0. -1.
        -11    1    4    4    0    0  0.29976077029E+02 -0.25688712670E+02  0.44137585053E+02  0.59216564971E+02  0.00000000000E+00 0. -1.
         11    1    4    4    0    0  0.42248017534E+02  0.66357462061E+02  0.14239020270E+03  0.16267506749E+03  0.00000000000E+00 0.  1.
          1    1    1    2  501    0 -0.31514916350E+02 -0.89025267753E+01  0.85748090114E+02  0.91788778692E+02  0.00000000000E+00 0. -1.
<scales pt_clust_5="13000.00000" pt_clust_6="13000.00000" pt_clust_7="13000.00000" pt_clust_8="13000.00000" pt_clust_9="32.74822"></scales>
<clustering>
<clus scale="   32.748">  2  9  1 -1</clus>
<clus scale="   80.795">  5  6 -1 -1</clus>
<clus scale="   87.023">  7  8 -1 -1</clus>
<clus scale="  104.748">  1  5  2 -1</clus>
<clus scale="   32.748">  2  5  1 -1</clus>
</clustering>
</event>
<event>
 9    2  0.1302972E-004  0.1078701E+03  0.7546771E-02  0.1269030E+00
          2   -1    0    0  502    0 -0.00000000000E+00  0.00000000000E+00  0.10582782736E+03  0.10582782736E+03  0.00000000000E+00 0. -1.
         21   -1    0    0  501  502  0.00000000000E+00 -0.00000000000E+00 -0.31802756816E+03  0.31802756816E+03  0.00000000000E+00 0. -1.
         24    2    1    2    0    0 -0.40802452400E+02 -0.47085413499E+02  0.58447904734E+02  0.11689712527E+03  0.79792882155E+02 0.  0.
         23    2    1    2    0    0  0.27739297441E+02  0.28441339291E+02 -0.12455118111E+03  0.15909879494E+03  0.90670013955E+02 0.  0.
        -11    1    3    3    0    0 -0.19448605377E+02 -0.68275659829E+01 -0.18349776105E+02  0.27596706170E+02  0.00000000000E+00 0.  1.
         12    1    3    3    0    0 -0.21353847022E+02 -0.40257847516E+02  0.76797680839E+02  0.89300419100E+02  0.00000000000E+00 0. -1.
        -13    1    4    4    0    0  0.32026543214E+02 -0.27819217218E+02 -0.49195790999E+02  0.64960250683E+02  0.00000000000E+00 0.  1.
         13    1    4    4    0    0 -0.42872457727E+01  0.56260556509E+02 -0.75355390114E+02  0.94138544254E+02  0.00000000000E+00 0. -1.
          1    1    1    2  501    0  0.13063154958E+02  0.18644074208E+02 -0.14609646443E+03  0.14785947531E+03  0.00000000000E+00 0. -1.
<scales pt_clust_5="13000.00000" pt_clust_6="13000.00000" pt_clust_7="13000.00000" pt_clust_8="13000.00000" pt_clust_9="22.76505"></scales>
<clustering>
<clus scale="   22.765">  2  9  1 -1</clus>
<clus scale="   79.793">  5  6 -1 -1</clus>
<clus scale="   90.670">  7  8 -1 -1</clus>
<clus scale="   98.903">  1  5  2 -1</clus>
<clus scale="   22.765">  2  5  1 -1</clus>
</clustering>
</event>
<event>
 9    2  0.1302972E-004  0.9455149E+02  0.7546771E-02  0.1297048E+00
         21   -1    0    0  501  502  0.00000000000E+00  0.00000000000E+00  0.38807978183E+03  0.38807978183E+03  0.00000000000E+00 0. -1.
         -3   -1    0    0    0  501 -0.00000000000E+00 -0.00000000000E+00 -0.53250797723E+02  0.53250797723E+02  0.00000000000E+00 0.  1.
         23    2    1    2    0    0 -0.35615393136E+02 -0.13244674898E+01  0.30359558464E+02  0.10298038984E+03  0.91722666002E+02 0.  0.
         24    2    1    2    0    0  0.11211666789E+01  0.55211588014E+01  0.96904782179E+02  0.12789699992E+03  0.83278842278E+02 0.  0.
        -13    1    4    4    0    0  0.18527274597E+02  0.12913185583E+02 -0.59210332688E+01  0.23346710707E+02  0.00000000000E+00 0.  1.
         14    1    4    4    0    0 -0.17406107918E+02 -0.73920267813E+01  0.10282581545E+03  0.10455028922E+03  0.00000000000E+00 0. -1.
        -11    1    3    3    0    0  0.29132554341E+02  0.11353950967E+02  0.25151168505E+01  0.31367877483E+02  0.00000000000E+00 0. -1.
         11    1    3    3    0    0 -0.64747947477E+02 -0.12678418456E+02  0.27844441613E+02  0.71612512355E+02  0.00000000000E+00 0.  1.
         -4    1    1    2    0  502  0.34494226457E+02 -0.41966913116E+01  0.20756464347E+03  0.21045318979E+03  0.00000000000E+00 0.  1.
<scales pt_clust_5="13000.00000" pt_clust_6="13000.00000" pt_clust_7="13000.00000" pt_clust_8="13000.00000" pt_clust_9="34.74858"></scales>
<clustering>
<clus scale="   34.749">  1  9  2 -1</clus>
<clus scale="   83.279">  5  6 -1 -1</clus>
<clus scale="   86.385">  1  5  2 -1</clus>
<clus scale="   91.723">  7  8 -1 -1</clus>
<clus scale="   34.749">  1  5  2 -1</clus>
</clustering>
</event>
<event>
 9    2  0.1302972E-004  0.1343953E+03  0.7546771E-02  0.1223491E+00
          2   -1    0    0  502    0 -0.00000000000E+00  0.00000000000E+00  0.49295075000E+03  0.49295075000E+03  0.00000000000E+00 0. -1.
         21   -1    0    0  501  502  0.00000000000E+00 -0.00000000000E+00 -0.65945257209E+02  0.65945257209E+02  0.00000000000E+00 0. -1.
         24    2    1    2    0    0 -0.23160132212E+02 -0.10578537945E+03  0.34358571001E+03  0.36921739842E+03  0.80891340340E+02 0.  0.
         23    2    1    2    0    0  0.45187866381E+02  0.65180768743E+02  0.76660525339E+02  0.14299196139E+03  0.90991147896E+02 0.  0.
        -11    1    3    3    0    0 -0.31142103323E+02 -0.81846717368E+02  0.14767008277E+03  0.17168333958E+03  0.00000000000E+00 0.  1.
         12    1    3    3    0    0  0.79819711111E+01 -0.23938662084E+02  0.19591562724E+03  0.19753405884E+03  0.00000000000E+00 0. -1.
        -13    1    4    4    0    0  0.17526563754E+02  0.28161981063E+02 -0.17937506263E+02  0.37709836188E+02  0.00000000000E+00 0. -1.
         13    1    4    4    0    0  0.27661302628E+02  0.37018787680E+02  0.94598031602E+02  0.10528212520E+03  0.00000000000E+00 0.  1.
          1    1    1    2  501    0 -0.22027734170E+02  0.40604610710E+02  0.67592574342E+01  0.46686647391E+02  0.00000000000E+00 0. -1.
<scales pt_clust_5="13000.00000" pt_clust_6="13000.00000" pt_clust_7="13000.00000" pt_clust_8="13000.00000" pt_clust_9="46.19476"></scales>
<clustering>
<clus scale="   46.195">  2  9  1 -1</clus>
<clus scale="   80.891">  5  6 -1 -1</clus>
<clus scale="   90.991">  7  8 -1 -1</clus>
<clus scale="  127.774">  1  5  2 -1</clus>
<clus scale="   46.195">  2  5  1 -1</clus>
</clustering>
</event>
<event>
 9    2  0.1302972E-004  0.1768882E+03  0.7546771E-02  0.1204305E+00
         -1   -1    0    0    0  501 -0.00000000000E+00  0.00000000000E+00  0.17304154353E+03  0.17304154353E+03  0.00000000000E+00 0.  1.
         21   -1    0    0  501  502  0.00000000000E+00 -0.00000000000E+00 -0.51148135006E+03  0.51148135006E+03  0.00000000000E+00 0.  1.
         24    2    1    2    0    0  0.24620904500E+02 -0.15647816261E+02  0.10119287596E+03  0.13163640652E+03  0.78975327053E+02 0.  0.
         23    2    1    2    0    0 -0.15781031480E+03 -0.31311999053E+02 -0.31146085262E+03  0.36217030726E+03  0.90966653224E+02 0.  0.
        -13    1    3    3    0    0  0.31366103373E+02 -0.41755753493E+02  0.86192972633E+02  0.10077997778E+03  0.00000000000E+00 0.  1.
         14    1    3    3    0    0 -0.67451988728E+01  0.26107937232E+02  0.14999903331E+02  0.30856428735E+02  0.00000000000E+00 0. -1.
        -13    1    4    4    0    0 -0.57320646469E+02 -0.56514526422E+02 -0.12043617182E+03  0.14486000031E+03  0.00000000000E+00 0.  1.
         13    1    4    4    0    0 -0.10048966833E+03  0.25202527369E+02 -0.19102468081E+03  0.21731030694E+03  0.00000000000E+00 0. -1.
         -2    1    1    2    0  502  0.13318941030E+03  0.46959815314E+02 -0.12817182987E+03  0.19071617981E+03  0.00000000000E+00 0.  1.
<scales pt_clust_5="13000.00000" pt_clust_6="13000.00000" pt_clust_7="13000.00000" pt_clust_8="13000.00000" pt_clust_9="151.70541"></scales>
<clustering>
<clus scale="   78.975">  5  6 -1 -1</clus>
<clus scale="   84.191">  1  5  2 -1</clus>
<clus scale="   90.967">  7  8 -1 -1</clus>
<clus scale="  151.705">  2  9  1 -1</clus>
<clus scale="  151.705">  2  5  1 -1</clus>
</clustering>
</event>
<event>
 9    2  0.1302972E-004  0.1240801E+03  0.7546771E-02  0.1240532E+00
          2   -1    0    0  502    0 -0.00000000000E+00  0.00000000000E+00  0.39326552442E+03  0.39326552442E+03  0.00000000000E+00 0. -1.
         21   -1    0    0  501  502  0.00000000000E+00 -0.00000000000E+00 -0.19689501163E+03  0.19689501163E+03  0.00000000000E+00 0. -1.
         24    2    1    2    0    0  0.38302931341E+02 -0.73782511972E+02  0.35604086178E+03  0.37421382696E+03  0.79749102876E+02 0.  0.
         23    2    1    2    0    0 -0.49093012481E+02  0.45108363687E+02 -0.12154863381E+03  0.16703967690E+03  0.93184198916E+02 0.  0.
        -13    1    3    3    0    0 -0.17752473321E+02 -0.44365139391E+02  0.20396542019E+03  0.20948820620E+03  0.00000000000E+00 0.  1.
         14    1    3    3    0    0  0.56055404662E+02 -0.29417372581E+02  0.15207544159E+03  0.16472562076E+03  0.00000000000E+00 0. -1.
        -13    1    4    4    0    0 -0.71723084880E+02  0.22006685335E+02 -0.54917502573E+02  0.92975411766E+02  0.00000000000E+00 0. -1.
         13    1    4    4    0    0  0.22630072399E+02  0.23101678352E+02 -0.66631131239E+02  0.74064265133E+02  0.00000000000E+00 0.  1.
          1    1    1    2  501    0  0.10790081141E+02  0.28674148285E+02 -0.38121715171E+02  0.48907032199E+02  0.00000000000E+00 0. -1.
<scales pt_clust_5="13000.00000" pt_clust_6="13000.00000" pt_clust_7="13000.00000" pt_clust_8="13000.00000" pt_clust_9="30.63711"></scales>
<clustering>
<clus scale="   30.637">  2  9  1 -1</clus>
<clus scale="   79.749">  5  6 -1 -1</clus>
<clus scale="   93.184">  7  8 -1 -1</clus>
<clus scale="  114.335">  1  5  2 -1</clus>
<clus scale="   30.637">  2  5  1 -1</clus>
</clustering>
</event>
<event>
 9    2  0.1302972E-004  0.1496012E+03  0.7546771E-02  0.1203613E+00
          2   -1    0    0  502    0 -0.00000000000E+00  0.00000000000E+00  0.61006208039E+03  0.61006208039E+03  0.00000000000E+00 0. -1.
         21   -1    0    0  501  502  0.00000000000E+00 -0.00000000000E+00 -0.22476975794E+03  0.22476975794E+03  0.00000000000E+00 0. -1.
         23    2    1    2    0    0 -0.21266363297E+01  0.11455702244E+03  0.41126090919E+03  0.43708423571E+03  0.93697703858E+02 0.  0.
         24    2    1    2    0    0 -0.40632768187E+02 -0.11989193305E+03  0.15281065580E+03  0.21384859364E+03  0.79718423298E+02 0.  0.
        -13    1    4    4    0    0 -0.23437565901E+02 -0.11291713765E+03  0.84247743142E+02  0.14281905228E+03  0.00000000000E+00 0.  1.
         14    1    4    4    0    0 -0.17195202287E+02 -0.69747953986E+01  0.68562912659E+02  0.71029541353E+02  0.00000000000E+00 0. -1.
        -11    1    3    3    0    0  0.39298563371E+02  0.59341051610E+02  0.27849354856E+03  0.28744459306E+03  0.00000000000E+00 0. -1.
         11    1    3    3    0    0 -0.41425199701E+02  0.55215970828E+02  0.13276736063E+03  0.14963964265E+03  0.00000000000E+00 0.  1.
          1    1    1    2  501    0  0.42759404517E+02  0.53349106119E+01 -0.17877924254E+03  0.18389900899E+03  0.00000000000E+00 0. -1.
<scales pt_clust_5="13000.00000" pt_clust_6="13000.00000" pt_clust_7="13000.00000" pt_clust_8="13000.00000" pt_clust_9="43.09093"></scales>
<clustering>
<clus scale="   43.091">  2  9  1 -1</clus>
<clus scale="   79.718">  5  6 -1 -1</clus>
<clus scale="   93.698">  7  8 -1 -1</clus>
<clus scale="  141.267">  2  5  1 -1</clus>
<clus scale="   43.091">  2  5  1 -1</clus>
</clustering>
</event>
<event>
 9    2  0.1302972E-004  0.1163139E+03  0.7546771E-02  0.1251686E+00
         21   -1    0    0  501  502  0.00000000000E+00  0.00000000000E+00  0.25392306905E+03  0.25392306905E+03  0.00000000000E+00 0.  1.
          2   -1    0    0  502    0 -0.00000000000E+00 -0.00000000000E+00 -0.18017954208E+03  0.18017954208E+03  0.00000000000E+00 0. -1.
         24    2    1    2    0    0  0.77522637374E+02 -0.94003221015E+01 -0.14296105191E+03  0.18194771373E+03  0.81049261619E+02 0.  0.
         23    2    1    2    0    0 -0.53514485923E+02  0.94321972545E+01  0.16095014336E+03  0.19145111306E+03  0.88293904067E+02 0.  0.
        -11    1    3    3    0    0  0.66404657956E+02  0.84822794268E+01 -0.42481791849E+02  0.79285750934E+02  0.00000000000E+00 0.  1.
         12    1    3    3    0    0  0.11117979419E+02 -0.17882601528E+02 -0.10047926006E+03  0.10266196280E+03  0.00000000000E+00 0. -1.
        -13    1    4    4    0    0 -0.17318178907E+02  0.46160897083E+02  0.10087831242E+03  0.11228170668E+03  0.00000000000E+00 0.  1.
         13    1    4    4    0    0 -0.36196307016E+02 -0.36728699828E+02  0.60071830940E+02  0.79169406371E+02  0.00000000000E+00 0. -1.
          1    1    1    2  501    0 -0.24008151451E+02 -0.31875153022E-01  0.55754435521E+02  0.60703784333E+02  0.00000000000E+00 0. -1.
<scales pt_clust_5="13000.00000" pt_clust_6="13000.00000" pt_clust_7="13000.00000" pt_clust_8="13000.00000" pt_clust_9="24.00817"></scales>
<clustering>
<clus scale="   24.008">  1  9  2 -1</clus>
<clus scale="   81.049">  5  6 -1 -1</clus>
<clus scale="   88.294">  7  8 -1 -1</clus>
<clus scale="  110.915">  2  5  1 -1</clus>
<clus scale="   24.008">  1  5  2 -1</clus>
</clustering>
</event>
<event>
 9    2  0.1302972E-004  0.1054218E+03  0.7546771E-02  0.1272337E+00
         21   -1    0    0  501  502  0.00000000000E+00  0.00000000000E+00  0.77223800786E+03  0.77223800786E+03  0.00000000000E+00 0.  1.
         -1   -1    0    0    0  501 -0.00000000000E+00 -0.00000000000E+00 -0.34339353727E+02  0.34339353727E+02  0.00000000000E+00 0.  1.
         23    2    1    2    0    0  0.32040499874E+02  0.94066137912E+01  0.18612308733E+03  0.21091089678E+03  0.93415869794E+02 0.  0.
         24    2    1    2    0    0 -0.79140560650E+02 -0.42897638631E+02  0.50810956126E+03  0.52323177346E+03  0.86560538227E+02 0.  0.
        -11    1    4    4    0    0 -0.96075035093E+02 -0.27012411918E+02  0.37193271258E+03  0.38508963301E+03  0.00000000000E+00 0.  1.
         12    1    4    4    0    0  0.16934474443E+02 -0.15885226713E+02  0.13617684868E+03  0.13814214045E+03  0.00000000000E+00 0. -1.
        -11    1    3    3    0    0  0.38339226516E+02  0.36658911040E+02  0.53384831159E+02  0.75257639123E+02  0.00000000000E+00 0.  1.
         11    1    3    3    0    0 -0.62987266422E+01 -0.27252297248E+02  0.13273825617E+03  0.13565325766E+03  0.00000000000E+00 0. -1.
         -2    1    1    2    0  502  0.47100060776E+02  0.33491024840E+02  0.43666005552E+02  0.72434691349E+02  0.00000000000E+00 0.  1.
<scales pt_clust_5="13000.00000" pt_clust_6="13000.00000" pt_clust_7="13000.00000" pt_clust_8="13000.00000" pt_clust_9="57.79332"></scales>
<clustering>
<clus scale="   57.793">  1  9  2 -1</clus>
<clus scale="   86.561">  5  6 -1 -1</clus>
<clus scale="   93.416">  7  8 -1 -1</clus>
<clus scale="   99.398">  1  5  2 -1</clus>
<clus scale="   57.793">  1  5  2 -1</clus>
</clustering>
</event>
<event>
 9    2  0.1302972E-004  0.1606217E+03  0.7546771E-02  0.1189533E+00
          2   -1    0    0  502    0 -0.00000000000E+00  0.00000000000E+00  0.29430623982E+03  0.29430623982E+03  0.00000000000E+00 0. -1.
         21   -1    0    0  501  502  0.00000000000E+00 -0.00000000000E+00 -0.18801958278E+03  0.18801958278E+03  0.00000000000E+00 0. -1.
         23    2    1    2    0    0  0.79809038111E+02  0.74388172929E+02  0.47009228838E+02  0.15028920506E+03  0.92053759969E+02 0.  0.
         24    2    1    2    0    0 -0.18231320924E+03 -0.53258921907E+02 -0.87835068346E+01  0.20719335091E+03  0.82324453499E+02 0.  0.
        -11    1    4    4    0    0 -0.42797250099E+02 -0.35343862662E+02 -0.32835958550E+02  0.64490258317E+02  0.00000000000E+00 0.  1.
         12    1    4    4    0    0 -0.13951595914E+03 -0.17915059245E+02  0.24052451716E+02  0.14270309259E+03  0.00000000000E+00 0. -1.
        -11    1    3    3    0    0  0.19728696581E+02  0.76267796406E+02  0.43703094371E+02  0.90088615790E+02  0.00000000000E+00 0.  1.
         11    1    3    3    0    0  0.60080341530E+02 -0.18796234769E+01  0.33061344669E+01  0.60200589266E+02  0.00000000000E+00 0. -1.
          1    1    1    2  501    0  0.10250417113E+03 -0.21129251022E+02  0.68060935031E+02  0.12484326664E+03  0.00000000000E+00 0. -1.
<scales pt_clust_5="13000.00000" pt_clust_6="13000.00000" pt_clust_7="13000.00000" pt_clust_8="13000.00000" pt_clust_9="104.65926"></scales>
<clustering>
<clus scale="   82.324">  5  6 -1 -1</clus>
<clus scale="   92.054">  7  8 -1 -1</clus>
<clus scale="  104.659">  2  9  1 -1</clus>
<clus scale="  155.251">  2  5  1 -1</clus>
<clus scale="  104.659">  2  5  1 -1</clus>
</clustering>
</event>
<event>
 9    2  0.1302972E-004  0.8914353E+02  0.7546771E-02  0.1308027E+00
         21   -1    0    0  501  502  0.00000000000E+00  0.00000000000E+00  0.83069046345E+02  0.83069046345E+02  0.00000000000E+00 0.  1.
          2   -1    0    0  502    0 -0.00000000000E+00 -0.00000000000E+00 -0.31768382568E+03  0.31768382568E+03  0.00000000000E+00 0. -1.
         23    2    1    2    0    0  0.18951338494E+02  0.11880281599E+02 -0.17220588591E+03  0.19401586854E+03  0.86527427925E+02 0.  0.
         24    2    1    2    0    0 -0.23157379532E+02  0.10636127399E+02  0.45277900004E+02  0.96641022925E+02  0.81486242093E+02 0.  0.
        -13    1    4    4    0    0  0.28429610814E+01  0.20627782819E+02  0.61138924410E+02  0.64587583402E+02  0.00000000000E+00 0.  1.
         14    1    4    4    0    0 -0.26000340613E+02 -0.99916554205E+01 -0.15861024406E+02  0.32053439523E+02  0.00000000000E+00 0. -1.
        -13    1    3    3    0    0 -0.28507345105E+02  0.21433408511E+02 -0.10711054484E+03  0.11289255308E+03  0.00000000000E+00 0. -1.
         13    1    3    3    0    0  0.47458683599E+02 -0.95531269119E+01 -0.65095341072E+02  0.81123315465E+02  0.00000000000E+00 0.  1.
          1    1    1    2  501    0  0.42060410373E+01 -0.22516408998E+02 -0.10768679343E+03  0.11009598055E+03  0.00000000000E+00 0. -1.
<scales pt_clust_5="13000.00000" pt_clust_6="13000.00000" pt_clust_7="13000.00000" pt_clust_8="13000.00000" pt_clust_9="22.90589"></scales>
<clustering>
<clus scale="   22.906">  1  9  2 -1</clus>
<clus scale="   81.486">  5  6 -1 -1</clus>
<clus scale="   84.259">  1  5  2 -1</clus>
<clus scale="   86.527">  7  8 -1 -1</clus>
<clus scale="   22.906">  1  5  2 -1</clus>
</clustering>
</event>
<event>
 9    2  0.1302972E-004  0.1373053E+03  0.7546771E-02  0.1221082E+00
          2   -1    0    0  502    0 -0.00000000000E+00  0.00000000000E+00  0.32414993242E+03  0.32414993242E+03  0.00000000000E+00 0. -1.
         21   -1    0    0  501  502  0.00000000000E+00 -0.00000000000E+00 -0.10000219289E+03  0.10000219289E+03  0.00000000000E+00 0. -1.
         24    2    1    2    0    0 -0.97994733381E+02  0.47246434119E+02  0.15932480600E+03  0.20812147248E+03  0.78070226020E+02 0.  0.
         23    2    1    2    0    0  0.56109384067E+02 -0.44724351067E+02 -0.20465583929E+02  0.12097869547E+03  0.95228536024E+02 0.  0.
        -13    1    3    3    0    0  0.79280906860E+01  0.23679812107E+02  0.23689119115E+02  0.34420378961E+02  0.00000000000E+00 0.  1.
         14    1    3    3    0    0 -0.10592282407E+03  0.23566622013E+02  0.13563568689E+03  0.17370109352E+03  0.00000000000E+00 0. -1.
        -11    1    4    4    0    0 -0.22373595480E+02 -0.32452103917E+02 -0.11361899950E+02  0.41022062282E+02  0.00000000000E+00 0.  1.
         11    1    4    4    0    0  0.78482979548E+02 -0.12272247150E+02 -0.91036839788E+01  0.79956633188E+02  0.00000000000E+00 0. -1.
          1    1    1    2  501    0  0.41885349313E+02 -0.25220830525E+01  0.85288517449E+02  0.95051957364E+02  0.00000000000E+00 0. -1.
<scales pt_clust_5="13000.00000" pt_clust_6="13000.00000" pt_clust_7="13000.00000" pt_clust_8="13000.00000" pt_clust_9="41.96123"></scales>
<clustering>
<clus scale="   41.961">  2  9  1 -1</clus>
<clus scale="   78.070">  5  6 -1 -1</clus>
<clus scale="   95.229">  7  8 -1 -1</clus>
<clus scale="  126.013">  1  5  2 -1</clus>
<clus scale="   41.961">  2  5  1 -1</clus>
</clustering>
</event>
<event>
 9    2  0.1302972E-004  0.2599440E+03  0.7546771E-02  0.1142672E+00
         -1   -1    0    0    0  501 -0.00000000000E+00  0.00000000000E+00  0.13682376882E+04  0.13682376882E+04  0.00000000000E+00 0.  1.
         21   -1    0    0  501  502  0.00000000000E+00 -0.00000000000E+00 -0.70642821086E+02  0.70642821086E+02  0.00000000000E+00 0.  1.
         24    2    1    2    0    0 -0.57451130470E+02 -0.84134211992E+01  0.31218884813E+03  0.33028331849E+03  0.90850291824E+02 0.  0.
         23    2    1    2    0    0 -0.33525355842E+02 -0.23080785294E+03  0.53761912536E+03  0.59282917980E+03  0.89531547550E+02 0.  0.
        -13    1    3    3    0    0 -0.72309916961E+02  0.29219546277E+01  0.29842112756E+03  0.30707072684E+03  0.00000000000E+00 0.  1.
         14    1    3    3    0    0  0.14858786491E+02 -0.11335375827E+02  0.13767720574E+02  0.23212591646E+02  0.00000000000E+00 0. -1.
        -13    1    4    4    0    0 -0.12374645876E+02 -0.34540229801E+02  0.18602491049E+03  0.18960861441E+03  0.00000000000E+00 0. -1.
         13    1    4    4    0    0 -0.21150709965E+02 -0.19626762314E+03  0.35159421487E+03  0.40322056540E+03  0.00000000000E+00 0.  1.
         -2    1    1    2    0  502  0.90976486311E+02  0.23922127414E+03  0.44778689357E+03  0.51576801095E+03  0.00000000000E+00 0.  1.
<scales pt_clust_5="13000.00000" pt_clust_6="13000.00000" pt_clust_7="13000.00000" pt_clust_8="13000.00000" pt_clust_9="244.03895"></scales>
<clustering>
<clus scale="   89.532">  7  8 -1 -1</clus>
<clus scale="   90.850">  5  6 -1 -1</clus>
<clus scale="  107.820">  1  5  2 -1</clus>
<clus scale="  244.039">  2  9  1 -1</clus>
<clus scale="  244.039">  2  5  1 -1</clus>
</clustering>
</event>
<event>
 9    2  0.1302972E-004  0.1342268E+03  0.7546771E-02  0.1249036E+00
          2   -1    0    0  502    0 -0.00000000000E+00  0.00000000000E+00  0.90581539737E+03  0.90581539737E+03  0.00000000000E+00 0. -1.
         21   -1    0    0  501  502  0.00000000000E+00 -0.00000000000E+00 -0.28257557171E+02  0.28257557171E+02  0.00000000000E+00 0. -1.
         23    2    1    2    0    0 -0.13588711044E+02 -0.24393396639E+02  0.24051694362E+03  0.25226698342E+03  0.70785167146E+02 0.  0.
         24    2    1    2    0    0 -0.59049027041E+02  0.97545364245E+02  0.36471008323E+03  0.39061613054E+03  0.81028581062E+02 0.  0.
        -13    1    4    4    0    0 -0.49304870158E+02  0.15224710861E+02  0.90814759778E+02  0.10445134099E+03  0.00000000000E+00 0.  1.
         14    1    4    4    0    0 -0.97441568827E+01  0.82320653384E+02  0.27389532345E+03  0.28616478955E+03  0.00000000000E+00 0. -1.
        -13    1    3    3    0    0  0.25884845479E+02 -0.53531439328E-01  0.51434777121E+02  0.57580937719E+02  0.00000000000E+00 0.  1.
         13    1    3    3    0    0 -0.39473556524E+02 -0.24339865200E+02  0.18908216650E+03  0.19468604570E+03  0.00000000000E+00 0. -1.
          1    1    1    2  501    0  0.72637738085E+02 -0.73151967606E+02  0.27233081334E+03  0.29118984058E+03  0.00000000000E+00 0. -1.
<scales pt_clust_5="13000.00000" pt_clust_6="13000.00000" pt_clust_7="13000.00000" pt_clust_8="13000.00000" pt_clust_9="107.01031"></scales>
<clustering>
<clus scale="   70.785">  7  8 -1 -1</clus>
<clus scale="   76.094">  1  7  2 -1</clus>
<clus scale="   81.029">  5  6 -1 -1</clus>
<clus scale="  107.010">  2  9  1 -1</clus>
<clus scale="  107.010">  2  5  1 -1</clus>
</clustering>
</event>
<event>
 9    2  0.1302972E-004  0.3807604E+03  0.7546771E-02  0.1050881E+00
          2   -1    0    0  502    0 -0.00000000000E+00  0.00000000000E+00  0.72808074203E+03  0.72808074203E+03  0.00000000000E+00 0. -1.
         21   -1    0    0  501  502  0.00000000000E+00 -0.00000000000E+00 -0.26810853634E+03  0.26810853634E+03  0.00000000000E+00 0. -1.
         23    2    1    2    0    0 -0.37440614657E+03  0.72625281234E+02  0.45162440313E+03  0.59809641098E+03  0.91106098937E+02 0.  0.
         24    2    1    2    0    0  0.34052384240E+03 -0.43656270056E+02  0.15755582157E+02  0.35290338473E+03  0.80188549208E+02 0.  0.
        -11    1    4    4    0    0  0.11368277288E+03 -0.14001558593E+02  0.43357146506E+02  0.12247309356E+03  0.00000000000E+00 0.  1.
         12    1    4    4    0    0  0.22684106952E+03 -0.29654711463E+02 -0.27601564350E+02  0.23043029117E+03  0.00000000000E+00 0. -1.
        -13    1    3    3    0    0 -0.12790485317E+03  0.40532916280E+02  0.99374109619E+02  0.16696641108E+03  0.00000000000E+00 0.  1.
         13    1    3    3    0    0 -0.24650129340E+03  0.32092364954E+02  0.35225029351E+03  0.43112999990E+03  0.00000000000E+00 0. -1.
          1    1    1    2  501    0  0.33882304164E+02 -0.28969011178E+02 -0.74077796030E+01  0.45189482657E+02  0.00000000000E+00 0. -1.
<scales pt_clust_5="13000.00000" pt_clust_6="13000.00000" pt_clust_7="13000.00000" pt_clust_8="13000.00000" pt_clust_9="44.57818"></scales>
<clustering>
<clus scale="   44.578">  2  9  1 -1</clus>
<clus scale="   80.189">  5  6 -1 -1</clus>
<clus scale="   91.106">  7  8 -1 -1</clus>
<clus scale="  378.297">  2  5  1 -1</clus>
<clus scale="   44.578">  2  5  1 -1</clus>
</clustering>
</event>
<event>
 9    2  0.1302972E-004  0.9902551E+02  0.7546771E-02  0.1290407E+00
          2   -1    0    0  502    0 -0.00000000000E+00  0.00000000000E+00  0.33641267304E+03  0.33641267304E+03  0.00000000000E+00 0. -1.
         21   -1    0    0  501  502  0.00000000000E+00 -0.00000000000E+00 -0.38865212541E+02  0.38865212541E+02  0.00000000000E+00 0.  1.
         23    2    1    2    0    0  0.28808352877E+02 -0.57555420944E+01  0.21022340586E+03  0.23254470032E+03  0.94974258707E+02 0.  0.
         24    2    1    2    0    0 -0.16395906306E+02  0.28435810268E+02  0.63108163578E+02  0.10730900179E+03  0.80344013505E+02 0.  0.
        -13    1    4    4    0    0 -0.48448729773E+02  0.23853139543E+02  0.34337736789E+02  0.63994779869E+02  0.00000000000E+00 0.  1.
         14    1    4    4    0    0  0.32052823467E+02  0.45826707250E+01  0.28770426789E+02  0.43314221923E+02  0.00000000000E+00 0. -1.
        -11    1    3    3    0    0  0.22014388708E+02  0.41306209320E+02  0.14098029823E+03  0.14854723400E+03  0.00000000000E+00 0. -1.
         11    1    3    3    0    0  0.67939641684E+01 -0.47061751414E+02  0.69243107629E+02  0.83997466328E+02  0.00000000000E+00 0.  1.
          1    1    1    2  501    0 -0.12412446570E+02 -0.22680268173E+02  0.24215891057E+02  0.35424183462E+02  0.00000000000E+00 0. -1.
<scales pt_clust_5="13000.00000" pt_clust_6="13000.00000" pt_clust_7="13000.00000" pt_clust_8="13000.00000" pt_clust_9="25.85466"></scales>
<clustering>
<clus scale="   25.855">  2  9  1 -1</clus>
<clus scale="   80.344">  5  6 -1 -1</clus>
<clus scale="   85.095">  2  5  1 -1</clus>
<clus scale="   94.974">  7  8 -1 -1</clus>
<clus scale="   25.855">  2  5  1 -1</clus>
</clustering>
</event>
<event>
 9    2  0.1302972E-004  0.1063786E+03  0.7546771E-02  0.1273523E+00
          2   -1    0    0  502    0 -0.00000000000E+00  0.00000000000E+00  0.65554880446E+02  0.65554880446E+02  0.00000000000E+00 0. -1.
         21   -1    0    0  501  502  0.00000000000E+00 -0.00000000000E+00 -0.36629457130E+03  0.36629457130E+03  0.00000000000E+00 0.  1.
         23    2    1    2    0    0  0.30334140010E+02 -0.51356823638E+02 -0.23068740877E+02  0.11236997293E+03  0.92396756581E+02 0.  0.
         24    2    1    2    0    0  0.10585814495E+02  0.48897142505E+02 -0.97882500693E+02  0.13507671527E+03  0.78496783703E+02 0.  0.
        -11    1    4    4    0    0  0.41619119810E+02  0.32404165589E+02 -0.79524269608E+02  0.95426885823E+02  0.00000000000E+00 0.  1.
         12    1    4    4    0    0 -0.31033305315E+02  0.16492976916E+02 -0.18358231085E+02  0.39649829444E+02  0.00000000000E+00 0. -1.
        -13    1    3    3    0    0  0.23578073782E+02  0.10932781666E+01  0.29515566746E+02  0.37792717563E+02  0.00000000000E+00 0. -1.
         13    1    3    3    0    0  0.67560662284E+01 -0.52450101805E+02 -0.52584307623E+02  0.74577255369E+02  0.00000000000E+00 0.  1.
          1    1    1    2  501    0 -0.40919954505E+02  0.24596811329E+01 -0.17978844928E+03  0.18440276354E+03  0.00000000000E+00 0. -1.
<scales pt_clust_5="13000.00000" pt_clust_6="13000.00000" pt_clust_7="13000.00000" pt_clust_8="13000.00000" pt_clust_9="40.99381"></scales>
<clustering>
<clus scale="   40.994">  2  9  1 -1</clus>
<clus scale="   78.497">  5  6 -1 -1</clus>
<clus scale="   92.397">  7  8 -1 -1</clus>
<clus scale="   94.557">  2  5  1 -1</clus>
<clus scale="   40.994">  2  5  1 -1</clus>
</clustering>
</event>
<event>
 9    2  0.1302972E-004  0.1220306E+03  0.7546771E-02  0.1242782E+00
          2   -1    0    0  502    0 -0.00000000000E+00  0.00000000000E+00  0.26928975568E+03  0.26928975568E+03  0.00000000000E+00 0. -1.
         21   -1    0    0  501  502  0.00000000000E+00 -0.00000000000E+00 -0.98171801843E+02  0.98171801843E+02  0.00000000000E+00 0.  1.
         24    2    1    2    0    0 -0.55009429535E+02  0.69083081827E+02  0.16965536062E+03  0.20764392795E+03  0.80836562872E+02 0.  0.
         23    2    1    2    0    0  0.35570769589E+02 -0.57048130165E+02  0.35867127007E+02  0.11850935549E+03  0.90764793479E+02 0.  0.
        -13    1    3    3    0    0 -0.25036159334E+02  0.52848672743E+02  0.33729546183E+02  0.67509064359E+02  0.00000000000E+00 0.  1.
         14    1    3    3    0    0 -0.29973270202E+02  0.16234409083E+02  0.13592581443E+03  0.14013486359E+03  0.00000000000E+00 0. -1.
        -11    1    4    4    0    0  0.24257261210E+02  0.10830464775E+02  0.41705064329E+02  0.49447204970E+02  0.00000000000E+00 0.  1.
         11    1    4    4    0    0  0.11313508379E+02 -0.67878594940E+02 -0.58379373219E+01  0.69062150524E+02  0.00000000000E+00 0. -1.
          1    1    1    2  501    0  0.19438659946E+02 -0.12034951661E+02 -0.34404533787E+02  0.41308274075E+02  0.00000000000E+00 0. -1.
<scales pt_clust_5="13000.00000" pt_clust_6="13000.00000" pt_clust_7="13000.00000" pt_clust_8="13000.00000" pt_clust_9="22.86267"></scales>
<clustering>
<clus scale="   22.863">  2  9  1 -1</clus>
<clus scale="   80.837">  5  6 -1 -1</clus>
<clus scale="   90.765">  7  8 -1 -1</clus>
<clus scale="  114.838">  1  5  2 -1</clus>
<clus scale="   22.863">  2  5  1 -1</clus>
</clustering>
</event>
<event>
 9    2  0.1302972E-004  0.2327376E+03  0.7546771E-02  0.1163393E+00
          2   -1    0    0  502    0 -0.00000000000E+00  0.00000000000E+00  0.81947999773E+03  0.81947999773E+03  0.00000000000E+00 0. -1.
         21   -1    0    0  501  502  0.00000000000E+00 -0.00000000000E+00 -0.96867173338E+02  0.96867173338E+02  0.00000000000E+00 0.  1.
         23    2    1    2    0    0 -0.19562336472E+02  0.63996520150E+01  0.14349334714E+03  0.17055079161E+03  0.89853165170E+02 0.  0.
         24    2    1    2    0    0  0.93774101079E+02 -0.20756512578E+03  0.39713095566E+03  0.46455848046E+03  0.78896909672E+02 0.  0.
        -13    1    4    4    0    0  0.96278359485E+02 -0.17067568465E+03  0.37003364521E+03  0.41871781718E+03  0.00000000000E+00 0.  1.
         14    1    4    4    0    0 -0.25042584063E+01 -0.36889441122E+02  0.27097310445E+02  0.45840663278E+02  0.00000000000E+00 0. -1.
        -11    1    3    3    0    0 -0.32946374923E+02 -0.16847144178E+02  0.16083985062E+02  0.40348289468E+02  0.00000000000E+00 0.  1.
         11    1    3    3    0    0  0.13384038452E+02  0.23246796193E+02  0.12740936208E+03  0.13020250214E+03  0.00000000000E+00 0. -1.
          1    1    1    2  501    0 -0.74211764607E+02  0.20116547376E+03  0.18198852159E+03  0.28123789899E+03  0.00000000000E+00 0. -1.
<scales pt_clust_5="13000.00000" pt_clust_6="13000.00000" pt_clust_7="13000.00000" pt_clust_8="13000.00000" pt_clust_9="218.95679"></scales>
<clustering>
<clus scale="   78.897">  5  6 -1 -1</clus>
<clus scale="   89.853">  7  8 -1 -1</clus>
<clus scale="   92.180">  1  7  2 -1</clus>
<clus scale="  218.957">  2  9  1 -1</clus>
<clus scale="  218.957">  2  5  1 -1</clus>
</clustering>
</event>
<event>
 9    2  0.1302972E-004  0.1248260E+03  0.7546771E-02  0.1237629E+00
         21   -1    0    0  501  502  0.00000000000E+00  0.00000000000E+00  0.15443190389E+03  0.15443190389E+03  0.00000000000E+00 0. -1.
         -3   -1    0    0    0  501 -0.00000000000E+00 -0.00000000000E+00 -0.16122318885E+03  0.16122318885E+03  0.00000000000E+00 0.  1.
         23    2    1    2    0    0 -0.78773251348E+02  0.39626785481E+02 -0.77756736896E+02  0.14906512565E+03  0.91644936006E+02 0.  0.
         24    2    1    2    0    0  0.79457796805E+02 -0.11076147376E+02  0.35930479587E+02  0.12138978097E+03  0.83715333406E+02 0.  0.
        -13    1    4    4    0    0  0.32141702886E+02  0.34919901278E+02  0.27777503818E+01  0.47541607743E+02  0.00000000000E+00 0.  1.
         14    1    4    4    0    0  0.47316093919E+02 -0.45996048653E+02  0.33152729205E+02  0.73848173229E+02  0.00000000000E+00 0. -1.
        -11    1    3    3    0    0 -0.48957849273E+02  0.17340161485E+02 -0.94822675833E+02  0.10811517959E+03  0.00000000000E+00 0.  1.
         11    1    3    3    0    0 -0.29815402076E+02  0.22286623996E+02  0.17065938937E+02  0.40949946055E+02  0.00000000000E+00 0. -1.
         -4    1    1    2    0  502 -0.68454545635E+00 -0.28550638105E+02  0.35034972345E+02  0.45200186127E+02  0.00000000000E+00 0.  1.
<scales pt_clust_5="13000.00000" pt_clust_6="13000.00000" pt_clust_7="13000.00000" pt_clust_8="13000.00000" pt_clust_9="28.55884"></scales>
<clustering>
<clus scale="   28.559">  1  9  2 -1</clus>
<clus scale="   83.715">  5  6 -1 -1</clus>
<clus scale="   91.645">  7  8 -1 -1</clus>
<clus scale="  119.126">  1  5  2 -1</clus>
<clus scale="   28.559">  1  5  2 -1</clus>
</clustering>
</event>
<event>
 9    2  0.1302972E-004  0.9743960E+02  0.7546771E-02  0.1294799E+00
         21   -1    0    0  501  502  0.00000000000E+00  0.00000000000E+00  0.24913722609E+02  0.24913722609E+02  0.00000000000E+00 0.  1.
          2   -1    0    0  502    0 -0.00000000000E+00 -0.00000000000E+00 -0.60439225765E+03  0.60439225765E+03  0.00000000000E+00 0. -1.
         24    2    1    2    0    0 -0.52499911661E+02 -0.29349426191E+01 -0.27798422518E+03  0.29262389862E+03  0.74757354018E+02 0.  0.
         23    2    1    2    0    0  0.13273585390E+01 -0.84987580665E+01 -0.14362529184E+03  0.17033309140E+03  0.91165491278E+02 0.  0.
        -11    1    3    3    0    0 -0.22929336405E+02 -0.34571113612E+02 -0.81807627180E+02  0.91724610815E+02  0.00000000000E+00 0.  1.
         12    1    3    3    0    0 -0.29570575256E+02  0.31636170993E+02 -0.19617659800E+03  0.20089928780E+03  0.00000000000E+00 0. -1.
        -11    1    4    4    0    0  0.35098193576E+02  0.19358605834E+02 -0.10333559108E+03  0.11083719230E+03  0.00000000000E+00 0. -1.
         11    1    4    4    0    0 -0.33770835037E+02 -0.27857363901E+02 -0.40289700756E+02  0.59495899099E+02  0.00000000000E+00 0.  1.
          1    1    1    2  501    0  0.51172553121E+02  0.11433700686E+02 -0.15786901802E+03  0.16634899025E+03  0.00000000000E+00 0. -1.
<scales pt_clust_5="13000.00000" pt_clust_6="13000.00000" pt_clust_7="13000.00000" pt_clust_8="13000.00000" pt_clust_9="52.43436"></scales>
<clustering>
<clus scale="   52.434">  1  9  2 -1</clus>
<clus scale="   74.757">  5  6 -1 -1</clus>
<clus scale="   82.292">  2  5  1 -1</clus>
<clus scale="   91.165">  7  8 -1 -1</clus>
<clus scale="   52.434">  1  5  2 -1</clus>
</clustering>
</event>
<event>
 9    2  0.1302972E-004  0.1240484E+03  0.7546771E-02  0.1247923E+00
         -1   -1    0    0    0  501 -0.00000000000E+00  0.00000000000E+00  0.46574410853E+03  0.46574410853E+03  0.00000000000E+00 0.  1.
         21   -1    0    0  501  502  0.00000000000E+00 -0.00000000000E+00 -0.44028912322E+02  0.44028912322E+02  0.00000000000E+00 0.  1.
         24    2    1    2    0    0  0.12635647547E+02 -0.70057879549E+02  0.27860099696E+03  0.29817738346E+03  0.78888975334E+02 0.  0.
         23    2    1    2    0    0 -0.10267356361E+02  0.27118335405E+02  0.10396944297E+03  0.15344303470E+03  0.10906097884E+03 0.  0.
        -11    1    3    3    0    0 -0.60912776215E+01 -0.78364788854E+02  0.25542200213E+03  0.26724247972E+03  0.00000000000E+00 0.  1.
         12    1    3    3    0    0  0.18726925169E+02  0.83069093057E+01  0.23178994825E+02  0.30934903742E+02  0.00000000000E+00 0. -1.
        -11    1    4    4    0    0 -0.30836910616E+02  0.12116255845E+02  0.11923860392E+03  0.12375606400E+03  0.00000000000E+00 0. -1.
         11    1    4    4    0    0  0.20569554254E+02  0.15002079560E+02 -0.15269160952E+02  0.29686970703E+02  0.00000000000E+00 0.  1.
         -2    1    1    2    0  502 -0.23682911857E+01  0.42939544144E+02  0.39144756286E+02  0.58152602685E+02  0.00000000000E+00 0.  1.
<scales pt_clust_5="13000.00000" pt_clust_6="13000.00000" pt_clust_7="13000.00000" pt_clust_8="13000.00000" pt_clust_9="43.00481"></scales>
<clustering>
<clus scale="   43.005">  2  9  1 -1</clus>
<clus scale="   78.889">  5  6 -1 -1</clus>
<clus scale="   98.576">  1  5  2 -1</clus>
<clus scale="  109.061">  7  8 -1 -1</clus>
<clus scale="   43.005">  2  5  1 -1</clus>
</clustering>
</event>
<event>
 9    2  0.1302972E-004  0.1008787E+03  0.7546771E-02  0.1283101E+00
         21   -1    0    0  501  502  0.00000000000E+00  0.00000000000E+00  0.42650105292E+03  0.42650105292E+03  0.00000000000E+00 0.  1.
          4   -1    0    0  502    0 -0.00000000000E+00 -0.00000000000E+00 -0.45402765105E+02  0.45402765105E+02  0.00000000000E+00 0. -1.
         24    2    1    2    0    0 -0.46884540805E+02  0.21247820346E+02  0.31718865898E+02  0.10020524807E+03  0.79908543044E+02 0.  0.
         23    2    1    2    0    0  0.30278772584E+02 -0.22745272365E+01  0.21393260020E+03  0.23392491898E+03  0.89619934991E+02 0.  0.
        -13    1    3    3    0    0  0.15802835300E+02  0.19772603804E+02  0.27474787844E+02  0.37357053307E+02  0.00000000000E+00 0.  1.
         14    1    3    3    0    0 -0.62687376105E+02  0.14752165427E+01  0.42440780540E+01  0.62848194766E+02  0.00000000000E+00 0. -1.
        -11    1    4    4    0    0  0.37933271360E+02  0.22590621487E+02  0.19918426491E+03  0.20401872620E+03  0.00000000000E+00 0.  1.
         11    1    4    4    0    0 -0.76544987764E+01 -0.24865148723E+02  0.14748335298E+02  0.29906192780E+02  0.00000000000E+00 0. -1.
          3    1    1    2  501    0  0.16605768221E+02 -0.18973293110E+02  0.13544682172E+03  0.13777365097E+03  0.00000000000E+00 0. -1.
<scales pt_clust_5="13000.00000" pt_clust_6="13000.00000" pt_clust_7="13000.00000" pt_clust_8="13000.00000" pt_clust_9="25.21383"></scales>
<clustering>
<clus scale="   25.214">  1  9  2 -1</clus>
<clus scale="   79.909">  5  6 -1 -1</clus>
<clus scale="   89.620">  7  8 -1 -1</clus>
<clus scale="   92.359">  2  5  1 -1</clus>
<clus scale="   25.214">  1  5  2 -1</clus>
</clustering>
</event>
<event>
 9    2  0.1302972E-004  0.1653514E+03  0.7546771E-02  0.1183631E+00
          2   -1    0    0  502    0 -0.00000000000E+00  0.00000000000E+00  0.78042708639E+03  0.78042708639E+03  0.00000000000E+00 0. -1.
         21   -1    0    0  501  502  0.00000000000E+00 -0.00000000000E+00 -0.74067887791E+02  0.74067887791E+02  0.00000000000E+00 0. -1.
         23    2    1    2    0    0  0.13108391136E+03  0.14323066506E+01  0.46876678755E+03  0.49449996840E+03  0.87194462662E+02 0.  0.
         24    2    1    2    0    0 -0.16440523289E+03  0.56525986952E+02  0.21783500861E+03  0.29028253044E+03  0.81163961821E+02 0.  0.
        -13    1    4    4    0    0 -0.14985843989E+02  0.30876692966E+02  0.16042350041E+02  0.37885388786E+02  0.00000000000E+00 0.  1.
         14    1    4    4    0    0 -0.14941938890E+03  0.25649293986E+02  0.20179265857E+03  0.25239714166E+03  0.00000000000E+00 0. -1.
        -13    1    3    3    0    0  0.66431296214E+02  0.32854959289E+02  0.32999844049E+03  0.33821817839E+03  0.00000000000E+00 0.  1.
         13    1    3    3    0    0  0.64652615143E+02 -0.31422652638E+02  0.13876834707E+03  0.15628179002E+03  0.00000000000E+00 0. -1.
          1    1    1    2  501    0  0.33321321536E+02 -0.57958293603E+02  0.19757402427E+02  0.69712475332E+02  0.00000000000E+00 0. -1.
<scales pt_clust_5="13000.00000" pt_clust_6="13000.00000" pt_clust_7="13000.00000" pt_clust_8="13000.00000" pt_clust_9="66.85413"></scales>
<clustering>
<clus scale="   66.854">  2  9  1 -1</clus>
<clus scale="   81.164">  5  6 -1 -1</clus>
<clus scale="   87.194">  7  8 -1 -1</clus>
<clus scale="  162.252">  2  5  1 -1</clus>
<clus scale="   66.854">  2  5  1 -1</clus>
</clustering>
</event>
<event>
 9    2  0.1302972E-004  0.1361432E+03  0.7546771E-02  0.1240596E+00
          2   -1    0    0  502    0 -0.00000000000E+00  0.00000000000E+00  0.34918228362E+03  0.34918228362E+03  0.00000000000E+00 0. -1.
         21   -1    0    0  501  502  0.00000000000E+00 -0.00000000000E+00 -0.13831979856E+03  0.13831979856E+03  0.00000000000E+00 0. -1.
         24    2    1    2    0    0  0.22202766537E+02  0.19728853470E+02  0.22213514089E+03  0.23836215308E+03  0.81180691675E+02 0.  0.
         23    2    1    2    0    0  0.79100403077E+02  0.14153460541E+02  0.41689992837E+02  0.12991163745E+03  0.93176090446E+02 0.  0.
        -13    1    3    3    0    0  0.31308178674E+00 -0.23903233568E+02  0.22440879621E+02  0.32788041622E+02  0.00000000000E+00 0.  1.
         14    1    3    3    0    0  0.21889684750E+02  0.43632087038E+02  0.19969426127E+03  0.20557411145E+03  0.00000000000E+00 0. -1.
        -11    1    4    4    0    0  0.13189379609E+02  0.40379301930E+02  0.40902875536E+02  0.58970272053E+02  0.00000000000E+00 0.  1.
         11    1    4    4    0    0  0.65911023468E+02 -0.26225841389E+02  0.78711730045E+00  0.70941365400E+02  0.00000000000E+00 0. -1.
          1    1    1    2  501    0 -0.10130316961E+03 -0.33882314011E+02 -0.52962648661E+02  0.11922829165E+03  0.00000000000E+00 0. -1.
<scales pt_clust_5="13000.00000" pt_clust_6="13000.00000" pt_clust_7="13000.00000" pt_clust_8="13000.00000" pt_clust_9="99.26321"></scales>
<clustering>
<clus scale="   81.181">  5  6 -1 -1</clus>
<clus scale="   86.444">  1  5  2 -1</clus>
<clus scale="   93.176">  7  8 -1 -1</clus>
<clus scale="   99.263">  2  9  1 -1</clus>
<clus scale="   99.263">  2  5  1 -1</clus>
</clustering>
</event>
<event>
 9    2  0.1302972E-004  0.1155925E+03  0.7546771E-02  0.1252443E+00
          2   -1    0    0  502    0 -0.00000000000E+00  0.00000000000E+00  0.26662381543E+03  0.26662381543E+03  0.00000000000E+00 0. -1.
         21   -1    0    0  501  502  0.00000000000E+00 -0.00000000000E+00 -0.21816864353E+03  0.21816864353E+03  0.00000000000E+00 0. -1.
         23    2    1    2    0    0  0.24789858776E+02  0.60164065107E+02  0.16198307822E+03  0.19711708312E+03  0.91555311149E+02 0.  0.
         24    2    1    2    0    0  0.48787369820E+02 -0.11277403158E+03 -0.10240807420E+02  0.15038137765E+03  0.86090039804E+02 0.  0.
        -11    1    4    4    0    0  0.17801591393E+02 -0.64863089918E+02  0.36586572177E+02  0.76568233318E+02  0.00000000000E+00 0.  1.
         12    1    4    4    0    0  0.30985778428E+02 -0.47910941664E+02 -0.46827379597E+02  0.73813144330E+02  0.00000000000E+00 0. -1.
        -13    1    3    3    0    0  0.37051776412E+02  0.19230921592E+02  0.15501725885E+02  0.44530506240E+02  0.00000000000E+00 0.  1.
         13    1    3    3    0    0 -0.12261917636E+02  0.40933143515E+02  0.14648135233E+03  0.15258657688E+03  0.00000000000E+00 0. -1.
          1    1    1    2  501    0 -0.73577228597E+02  0.52609966475E+02 -0.10328709889E+03  0.13729399819E+03  0.00000000000E+00 0. -1.
<scales pt_clust_5="13000.00000" pt_clust_6="13000.00000" pt_clust_7="13000.00000" pt_clust_8="13000.00000" pt_clust_9="90.45119"></scales>
<clustering>
<clus scale="   86.090">  5  6 -1 -1</clus>
<clus scale="   90.451">  2  9  1 -1</clus>
<clus scale="   91.555">  7  8 -1 -1</clus>
<clus scale="  111.314">  2  5  1 -1</clus>
<clus scale="   90.451">  2  5  1 -1</clus>
</clustering>
</event>
<event>
 9    2  0.1792203E-004  0.4929215E+03  0.7546771E-02  0.1073933E+00
         21   -1    0    0  501  502  0.00000000000E+00  0.00000000000E+00  0.32704300302E+03  0.32704300302E+03  0.00000000000E+00 0. -1.
          2   -1    0    0  502    0 -0.00000000000E+00 -0.00000000000E+00 -0.96134998833E+03  0.96134998833E+03  0.00000000000E+00 0. -1.
         24    2    1    2    0    0 -0.41958821551E+02  0.20646871263E+02 -0.72001615251E+02  0.11661824655E+03  0.78922410194E+02 0.  0.
         23    2    1    2    0    0  0.17793938265E+03 -0.46344035987E+03 -0.94405708075E+02  0.51337753928E+03  0.90579628341E+02 0.  0.
        -11    1    3    3    0    0 -0.47145030905E+01  0.42415300266E+02 -0.15222889339E+02  0.45310270314E+02  0.00000000000E+00 0.  1.
         12    1    3    3    0    0 -0.37244318460E+02 -0.21768429003E+02 -0.56778725912E+02  0.71307976237E+02  0.00000000000E+00 0. -1.
        -11    1    4    4    0    0  0.10771923184E+00 -0.84732578407E+02 -0.30961967659E+02  0.90212332240E+02  0.00000000000E+00 0.  1.
         11    1    4    4    0    0  0.17783166342E+03 -0.37870778146E+03 -0.63443740416E+02  0.42316520704E+03  0.00000000000E+00 0. -1.
          1    1    1    2  501    0 -0.13598056110E+03  0.44279348860E+03 -0.46789966199E+03  0.65839720552E+03  0.00000000000E+00 0. -1.
<scales pt_clust_5="13000.00000" pt_clust_6="13000.00000" pt_clust_7="13000.00000" pt_clust_8="13000.00000" pt_clust_9="484.52777"></scales>
<clustering>
<clus scale="   78.922">  5  6 -1 -1</clus>
<clus scale="   90.580">  7  8 -1 -1</clus>
<clus scale="   91.736">  2  5  1 -1</clus>
<clus scale="  484.528">  1  9  2 -1</clus>
<clus scale="  484.528">  1  5  2 -1</clus>
</clustering>
</event>
<event>
 9    2  0.1302972E-004  0.9955794E+02  0.7546771E-02  0.1287234E+00
         21   -1    0    0  501  502  0.00000000000E+00  0.00000000000E+00  0.72745528263E+02  0.72745528263E+02  0.00000000000E+00 0. -1.
          2   -1    0    0  502    0 -0.00000000000E+00 -0.00000000000E+00 -0.31405878542E+03  0.31405878542E+03  0.00000000000E+00 0. -1.
         24    2    1    2    0    0  0.26285547384E+02 -0.26769871840E+02 -0.23988664136E+03  0.25540119863E+03  0.79225093999E+02 0.  0.
         23    2    1    2    0    0 -0.38478241627E+02  0.45663329332E+02 -0.20198494917E+00  0.10888369566E+03  0.91048908054E+02 0.  0.
        -13    1    3    3    0    0 -0.28526844157E+02 -0.10761736779E+02 -0.78767392430E+02  0.84462405402E+02  0.00000000000E+00 0.  1.
         14    1    3    3    0    0  0.54812391541E+02 -0.16008135061E+02 -0.16111924893E+03  0.17093879323E+03  0.00000000000E+00 0. -1.
        -11    1    4    4    0    0 -0.41553089672E+02 -0.17900711958E+02  0.43679359634E-01  0.45244852279E+02  0.00000000000E+00 0.  1.
         11    1    4    4    0    0  0.30748480448E+01  0.63564041290E+02 -0.24566430880E+00  0.63638843379E+02  0.00000000000E+00 0. -1.
          1    1    1    2  501    0  0.12192694243E+02 -0.18893457492E+02 -0.12246308429E+01  0.22519419389E+02  0.00000000000E+00 0. -1.
<scales pt_clust_5="13000.00000" pt_clust_6="13000.00000" pt_clust_7="13000.00000" pt_clust_8="13000.00000" pt_clust_9="22.48610"></scales>
<clustering>
<clus scale="   22.486">  1  9  2 -1</clus>
<clus scale="   79.225">  5  6 -1 -1</clus>
<clus scale="   88.873">  2  5  1 -1</clus>
<clus scale="   91.049">  7  8 -1 -1</clus>
<clus scale="   22.486">  1  5  2 -1</clus>
</clustering>
</event>
<event>
 9    2  0.1302972E-004  0.1853887E+03  0.7546771E-02  0.1189093E+00
         21   -1    0    0  501  502  0.00000000000E+00  0.00000000000E+00  0.41964404479E+02  0.41964404479E+02  0.00000000000E+00 0. -1.
          2   -1    0    0  502    0 -0.00000000000E+00 -0.00000000000E+00 -0.18662808604E+04  0.18662808604E+04  0.00000000000E+00 0. -1.
         23    2    1    2    0    0 -0.25887843497E+02  0.39396844971E+02 -0.16142501899E+03  0.19092724966E+03  0.90404015781E+02 0.  0.
         24    2    1    2    0    0  0.13685589683E+03  0.89621228237E+02 -0.13407334817E+04  0.13529757033E+04  0.78838340802E+02 0.  0.
        -13    1    4    4    0    0  0.20830858733E+02  0.50041314937E+02 -0.28143413563E+03  0.28660640358E+03  0.00000000000E+00 0.  1.
         14    1    4    4    0    0  0.11602503810E+03  0.39579913300E+02 -0.10592993460E+04  0.10663692998E+04  0.00000000000E+00 0. -1.
        -11    1    3    3    0    0 -0.17560335124E+02 -0.28329346197E+02 -0.45347030571E+02  0.56278507507E+02  0.00000000000E+00 0.  1.
         11    1    3    3    0    0 -0.83275083729E+01  0.67726191168E+02 -0.11607798842E+03  0.13464874215E+03  0.00000000000E+00 0. -1.
          1    1    1    2  501    0 -0.11096805333E+03 -0.12901807321E+03 -0.32215795526E+03  0.36434231186E+03  0.00000000000E+00 0. -1.
<scales pt_clust_5="13000.00000" pt_clust_6="13000.00000" pt_clust_7="13000.00000" pt_clust_8="13000.00000" pt_clust_9="167.79001"></scales>
<clustering>
<clus scale="   78.838">  5  6 -1 -1</clus>
<clus scale="   90.404">  7  8 -1 -1</clus>
<clus scale="  101.957">  2  7  1 -1</clus>
<clus scale="  167.790">  1  9  2 -1</clus>
<clus scale="  167.790">  1  5  2 -1</clus>
</clustering>
</event>
<event>
 9    2  0.1302972E-004  0.2814543E+03  0.7546771E-02  0.1120974E+00
         21   -1    0    0  501  502  0.00000000000E+00  0.00000000000E+00  0.12667756301E+03  0.12667756301E+03  0.00000000000E+00 0.  1.
         -1   -1    0    0    0  501 -0.00000000000E+00 -0.00000000000E+00 -0.14097621091E+04  0.14097621091E+04  0.00000000000E+00 0.  1.
         24    2    1    2    0    0 -0.66528180101E+02  0.99412655189E+02 -0.61305349090E+03  0.62984827142E+03  0.81027079060E+02 0.  0.
         23    2    1    2    0    0  0.46310333607E+02  0.19512421454E+03 -0.54136289968E+03  0.58454136860E+03  0.91633598390E+02 0.  0.
        -11    1    3    3    0    0 -0.41078248270E+02  0.95841019445E+02 -0.57190965961E+03  0.58133775229E+03  0.00000000000E+00 0.  1.
         12    1    3    3    0    0 -0.25449931832E+02  0.35716357440E+01 -0.41143831298E+02  0.48510519127E+02  0.00000000000E+00 0. -1.
        -11    1    4    4    0    0 -0.51899593911E+01  0.15492039840E+03 -0.37099151166E+03  0.40207209210E+03  0.00000000000E+00 0.  1.
         11    1    4    4    0    0  0.51500292998E+02  0.40203816139E+02 -0.17037138802E+03  0.18246927650E+03  0.00000000000E+00 0. -1.
         -2    1    1    2    0  502  0.20217846494E+02 -0.29453686973E+03 -0.12866815554E+03  0.32205003213E+03  0.00000000000E+00 0.  1.
<scales pt_clust_5="13000.00000" pt_clust_6="13000.00000" pt_clust_7="13000.00000" pt_clust_8="13000.00000" pt_clust_9="266.11990"></scales>
<clustering>
<clus scale="   81.027">  5  6 -1 -1</clus>
<clus scale="   91.634">  7  8 -1 -1</clus>
<clus scale="  144.479">  2  5  1 -1</clus>
<clus scale="  266.120">  1  9  2 -1</clus>
<clus scale="  266.120">  1  5  2 -1</clus>
</clustering>
</event>
<event>
 9    2  0.1302972E-004  0.1091899E+03  0.7546771E-02  0.1266971E+00
         21   -1    0    0  501  502  0.00000000000E+00  0.00000000000E+00  0.18300812400E+03  0.18300812400E+03  0.00000000000E+00 0. -1.
         -1   -1    0    0    0  501 -0.00000000000E+00 -0.00000000000E+00 -0.20422345560E+03  0.20422345560E+03  0.00000000000E+00 0.  1.
         23    2    1    2    0    0 -0.15771092373E+02 -0.58534650370E+02 -0.16121452413E+03  0.19568066109E+03  0.92875000325E+02 0.  0.
         24    2    1    2    0    0  0.27289059612E+02  0.34218288160E+02  0.67236257286E+02  0.11397261105E+03  0.80953429559E+02 0.  0.
        -11    1    4    4    0    0  0.67761477732E+01  0.42359075379E+02 -0.32427439180E+00  0.42898864781E+02  0.00000000000E+00 0.  1.
         12    1    4    4    0    0  0.20512911839E+02 -0.81407872187E+01  0.67560531678E+02  0.71073746273E+02  0.00000000000E+00 0. -1.
        -11    1    3    3    0    0  0.12671528050E+02 -0.64433430568E+02 -0.15138609893E+03  0.16501510702E+03  0.00000000000E+00 0. -1.
         11    1    3    3    0    0 -0.28442620423E+02  0.58987801977E+01 -0.98284252091E+01  0.30665554070E+02  0.00000000000E+00 0.  1.
         -2    1    1    2    0  502 -0.11517967239E+02  0.24316362210E+02  0.72762935247E+02  0.77578307446E+02  0.00000000000E+00 0.  1.
<scales pt_clust_5="13000.00000" pt_clust_6="13000.00000" pt_clust_7="13000.00000" pt_clust_8="13000.00000" pt_clust_9="26.90630"></scales>
<clustering>
<clus scale="   26.906">  1  9  2 -1</clus>
<clus scale="   80.953">  5  6 -1 -1</clus>
<clus scale="   92.875">  7  8 -1 -1</clus>
<clus scale="   99.248">  1  5  2 -1</clus>
<clus scale="   26.906">  1  5  2 -1</clus>
</clustering>
</event>
<event>
 9    2  0.1302972E-004  0.1400264E+03  0.7546771E-02  0.1220755E+00
         21   -1    0    0  501  502  0.00000000000E+00  0.00000000000E+00  0.17446669982E+03  0.17446669982E+03  0.00000000000E+00 0.  1.
         -1   -1    0    0    0  501 -0.00000000000E+00 -0.00000000000E+00 -0.31847699666E+03  0.31847699666E+03  0.00000000000E+00 0.  1.
         24    2    1    2    0    0 -0.81138373419E+02  0.80875697116E+01 -0.54200086783E+02  0.12620559909E+03  0.79632652916E+02 0.  0.
         23    2    1    2    0    0  0.11952923317E+03  0.33040378294E+02  0.83615620393E+02  0.18441452544E+03  0.10788067964E+03 0.  0.
        -11    1    3    3    0    0 -0.96918067532E+02  0.85863023600E+01 -0.40830542935E+02  0.10551762715E+03  0.00000000000E+00 0.  1.
         12    1    3    3    0    0  0.15779694113E+02 -0.49873264839E+00 -0.13369543848E+02  0.20687971947E+02  0.00000000000E+00 0. -1.
        -11    1    4    4    0    0  0.15588450935E+02 -0.33439709104E+02  0.37743143803E+02  0.52780288477E+02  0.00000000000E+00 0. -1.
         11    1    4    4    0    0  0.10394078223E+03  0.66480087399E+02  0.45872476590E+02  0.13163423696E+03  0.00000000000E+00 0.  1.
         -2    1    1    2    0  502 -0.38390859750E+02 -0.41127948006E+02 -0.17342583046E+03  0.18232357195E+03  0.00000000000E+00 0.  1.
<scales pt_clust_5="13000.00000" pt_clust_6="13000.00000" pt_clust_7="13000.00000" pt_clust_8="13000.00000" pt_clust_9="56.26162"></scales>
<clustering>
<clus scale="   56.262">  1  9  2 -1</clus>
<clus scale="   79.633">  5  6 -1 -1</clus>
<clus scale="  107.881">  7  8 -1 -1</clus>
<clus scale="  119.627">  2  5  1 -1</clus>
<clus scale="   56.262">  1  5  2 -1</clus>
</clustering>
</event>
<event>
 9    2  0.1302972E-004  0.1100887E+03  0.7546771E-02  0.1264591E+00
          4   -1    0    0  502    0 -0.00000000000E+00  0.00000000000E+00  0.29465436254E+02  0.29465436254E+02  0.00000000000E+00 0. -1.
         21   -1    0    0  501  502  0.00000000000E+00 -0.00000000000E+00 -0.96039593512E+03  0.96039593512E+03  0.00000000000E+00 0. -1.
         24    2    1    2    0    0 -0.26665683036E+02  0.38951672877E+02 -0.21471950663E+03  0.23387720270E+03  0.79785888119E+02 0.  0.
         23    2    1    2    0    0  0.10120096191E+03  0.26238751692E+01 -0.27636577562E+03  0.30793523321E+03  0.90540303206E+02 0.  0.
        -13    1    3    3    0    0 -0.18061110308E+02  0.33785165028E+02 -0.21945916520E+03  0.22277784062E+03  0.00000000000E+00 0.  1.
         14    1    3    3    0    0 -0.86045727277E+01  0.51665078488E+01  0.47396585698E+01  0.11099362078E+02  0.00000000000E+00 0. -1.
        -11    1    4    4    0    0  0.16299702284E+02  0.23880452444E+02 -0.15556229190E+02  0.32832188019E+02  0.00000000000E+00 0.  1.
         11    1    4    4    0    0  0.84901259630E+02 -0.21256577275E+02 -0.26080954643E+03  0.27510304519E+03  0.00000000000E+00 0. -1.
          3    1    1    2  501    0 -0.74535278879E+02 -0.41575548046E+02 -0.43984521662E+03  0.44804893547E+03  0.00000000000E+00 0. -1.
<scales pt_clust_5="13000.00000" pt_clust_6="13000.00000" pt_clust_7="13000.00000" pt_clust_8="13000.00000" pt_clust_9="85.34655"></scales>
<clustering>
<clus scale="   79.786">  5  6 -1 -1</clus>
<clus scale="   85.347">  2  9  1 -1</clus>
<clus scale="   90.540">  7  8 -1 -1</clus>
<clus scale="  101.429">  1  5  2 -1</clus>
<clus scale="   85.347">  2  5  1 -1</clus>
</clustering>
</event>
<event>
 9    2  0.1302972E-004  0.8894731E+02  0.7546771E-02  0.1311036E+00
         21   -1    0    0  501  502  0.00000000000E+00  0.00000000000E+00  0.11044206194E+03  0.11044206194E+03  0.00000000000E+00 0. -1.
          2   -1    0    0  502    0 -0.00000000000E+00 -0.00000000000E+00 -0.22214378135E+03  0.22214378135E+03  0.00000000000E+00 0. -1.
         24    2    1    2    0    0  0.95385942708E+01 -0.13383503496E+02 -0.15307702423E+03  0.17220857989E+03  0.77156442981E+02 0.  0.
         23    2    1    2    0    0 -0.27786266183E+02  0.41800401010E+02 -0.86187137766E+01  0.10004568385E+03  0.86113335306E+02 0.  0.
        -11    1    3    3    0    0  0.37920148781E+02 -0.27791646006E+02 -0.88438827818E+02  0.10015857196E+03  0.00000000000E+00 0.  1.
         12    1    3    3    0    0 -0.28381554510E+02  0.14408142510E+02 -0.64638196416E+02  0.72050007931E+02  0.00000000000E+00 0. -1.
        -11    1    4    4    0    0 -0.41524986113E+02  0.60124764531E+02  0.52706605712E+01  0.73260437102E+02  0.00000000000E+00 0. -1.
         11    1    4    4    0    0  0.13738719930E+02 -0.18324363521E+02 -0.13889374348E+02  0.26785246751E+02  0.00000000000E+00 0.  1.
          1    1    1    2  501    0  0.18247671912E+02 -0.28416897514E+02  0.49994018595E+02  0.60331579540E+02  0.00000000000E+00 0. -1.
<scales pt_clust_5="13000.00000" pt_clust_6="13000.00000" pt_clust_7="13000.00000" pt_clust_8="13000.00000" pt_clust_9="33.77125"></scales>
<clustering>
<clus scale="   33.771">  1  9  2 -1</clus>
<clus scale="   77.156">  5  6 -1 -1</clus>
<clus scale="   80.307">  2  5  1 -1</clus>
<clus scale="   86.113">  7  8 -1 -1</clus>
<clus scale="   33.771">  1  5  2 -1</clus>
</clustering>
</event>
<event>
 9    2  0.1302972E-004  0.1159203E+03  0.7546771E-02  0.1250671E+00
         21   -1    0    0  501  502  0.00000000000E+00  0.00000000000E+00  0.11217171808E+03  0.11217171808E+03  0.00000000000E+00 0. -1.
          2   -1    0    0  502    0 -0.00000000000E+00 -0.00000000000E+00 -0.37769568766E+03  0.37769568766E+03  0.00000000000E+00 0. -1.
         24    2    1    2    0    0  0.38449873531E+02  0.74026531508E+02 -0.27464253311E+03  0.29827756086E+03  0.81133606948E+02 0.  0.
         23    2    1    2    0    0 -0.68987319236E+02 -0.41127833624E+02 -0.42391946239E+02  0.12326567251E+03  0.83346265654E+02 0.  0.
        -11    1    3    3    0    0  0.19191793302E+02 -0.15046299139E+02 -0.44409581696E+02  0.50664849692E+02  0.00000000000E+00 0.  1.
         12    1    3    3    0    0  0.19258080228E+02  0.89072830648E+02 -0.23023295142E+03  0.24761271117E+03  0.00000000000E+00 0. -1.
        -11    1    4    4    0    0 -0.48627065061E+02 -0.47267197247E+02 -0.63787043872E+02  0.93099765617E+02  0.00000000000E+00 0.  1.
         11    1    4    4    0    0 -0.20360254175E+02  0.61393636226E+01  0.21395097633E+02  0.30165906890E+02  0.00000000000E+00 0. -1.
          1    1    1    2  501    0  0.30537445706E+02 -0.32898697884E+02  0.51510509770E+02  0.68324172366E+02  0.00000000000E+00 0. -1.
<scales pt_clust_5="13000.00000" pt_clust_6="13000.00000" pt_clust_7="13000.00000" pt_clust_8="13000.00000" pt_clust_9="44.88719"></scales>
<clustering>
<clus scale="   44.887">  1  9  2 -1</clus>
<clus scale="   81.134">  5  6 -1 -1</clus>
<clus scale="   83.346">  7  8 -1 -1</clus>
<clus scale="  114.340">  2  5  1 -1</clus>
<clus scale="   44.887">  1  5  2 -1</clus>
</clustering>
</event>
<event>
 9    2  0.1302972E-004  0.1597316E+03  0.7546771E-02  0.1211323E+00
         21   -1    0    0  501  502  0.00000000000E+00  0.00000000000E+00  0.14081237838E+03  0.14081237838E+03  0.00000000000E+00 0.  1.
          2   -1    0    0  502    0 -0.00000000000E+00 -0.00000000000E+00 -0.34799346493E+03  0.34799346493E+03  0.00000000000E+00 0. -1.
         23    2    1    2    0    0 -0.55734896092E+00 -0.31376748092E+02 -0.14770266497E+03  0.17746311401E+03  0.93232336855E+02 0.  0.
         24    2    1    2    0    0  0.10243541124E+02  0.15070868087E+03  0.11956724404E+02  0.17192640106E+03  0.81226150331E+02 0.  0.
        -11    1    4    4    0    0  0.28444007622E+02  0.13037166511E+03  0.33006261848E+02  0.13745997946E+03  0.00000000000E+00 0.  1.
         12    1    4    4    0    0 -0.18200466498E+02  0.20337015759E+02 -0.21049537445E+02  0.34466421592E+02  0.00000000000E+00 0. -1.
        -11    1    3    3    0    0 -0.44952693729E+02 -0.43092812137E+01 -0.82663851925E+02  0.94194622953E+02  0.00000000000E+00 0. -1.
         11    1    3    3    0    0  0.44395344769E+02 -0.27067466878E+02 -0.65038813048E+02  0.83268491057E+02  0.00000000000E+00 0.  1.
          1    1    1    2  501    0 -0.96861921627E+01 -0.11933193278E+03 -0.71435145988E+02  0.13941632824E+03  0.00000000000E+00 0. -1.
<scales pt_clust_5="13000.00000" pt_clust_6="13000.00000" pt_clust_7="13000.00000" pt_clust_8="13000.00000" pt_clust_9="137.53728"></scales>
<clustering>
<clus scale="   81.226">  5  6 -1 -1</clus>
<clus scale="   93.232">  7  8 -1 -1</clus>
<clus scale="   98.372">  2  7  1 -1</clus>
<clus scale="  137.537">  1  9  2 -1</clus>
<clus scale="  137.537">  1  5  2 -1</clus>
</clustering>
</event>
<event>
 9    2  0.1302972E-004  0.2971147E+03  0.7546771E-02  0.1087099E+00
         21   -1    0    0  501  502  0.00000000000E+00  0.00000000000E+00  0.21991921439E+03  0.21991921439E+03  0.00000000000E+00 0.  1.
          2   -1    0    0  502    0 -0.00000000000E+00 -0.00000000000E+00 -0.10675281281E+04  0.10675281281E+04  0.00000000000E+00 0. -1.
         23    2    1    2    0    0 -0.49492440713E+02 -0.32298670795E+03 -0.72556804414E+03  0.80096220149E+03  0.91222510013E+02 0.  0.
         24    2    1    2    0    0  0.18091808687E+03  0.14614229356E+03 -0.98135148944E+02  0.26485903505E+03  0.80192748201E+02 0.  0.
        -13    1    4    4    0    0  0.17672569923E+03  0.14296077031E+03 -0.72355770591E+02  0.23854792423E+03  0.00000000000E+00 0.  1.
         14    1    4    4    0    0  0.41923876426E+01  0.31815232508E+01 -0.25779378353E+02  0.26311110821E+02  0.00000000000E+00 0. -1.
        -13    1    3    3    0    0 -0.19462758086E+02 -0.30110903186E+03 -0.65696519964E+03  0.72294448028E+03  0.00000000000E+00 0. -1.
         13    1    3    3    0    0 -0.30029682627E+02 -0.21877676090E+02 -0.68602844498E+02  0.78017721211E+02  0.00000000000E+00 0.  1.
          1    1    1    2  501    0 -0.13142564616E+03  0.17684441439E+03 -0.23905720646E+02  0.22162610597E+03  0.00000000000E+00 0. -1.
<scales pt_clust_5="13000.00000" pt_clust_6="13000.00000" pt_clust_7="13000.00000" pt_clust_8="13000.00000" pt_clust_9="220.33304"></scales>
<clustering>
<clus scale="   80.193">  5  6 -1 -1</clus>
<clus scale="   91.223">  7  8 -1 -1</clus>
<clus scale="  220.333">  1  9  2 -1</clus>
<clus scale="  293.916">  1  5  2 -1</clus>
<clus scale="  220.333">  1  5  2 -1</clus>
</clustering>
</event>
<event>
 9    2  0.1302972E-004  0.2767013E+03  0.7546771E-02  0.1098096E+00
         21   -1    0    0  501  502  0.00000000000E+00  0.00000000000E+00  0.10524704091E+03  0.10524704091E+03  0.00000000000E+00 0. -1.
          2   -1    0    0  502    0 -0.00000000000E+00 -0.00000000000E+00 -0.10961746474E+04  0.10961746474E+04  0.00000000000E+00 0. -1.
         23    2    1    2    0    0  0.77654471019E+01  0.28685107263E+03 -0.73515890991E+03  0.79465781866E+03  0.93158928155E+02 0.  0.
         24    2    1    2    0    0  0.32185839179E+02 -0.21500440713E+03 -0.21042666595E+03  0.31288123889E+03  0.79702349874E+02 0.  0.
        -13    1    4    4    0    0 -0.68740357703E+01 -0.14988539659E+03 -0.10575927681E+03  0.18356990251E+03  0.00000000000E+00 0.  1.
         14    1    4    4    0    0  0.39059874949E+02 -0.65119010548E+02 -0.10466738914E+03  0.12931133638E+03  0.00000000000E+00 0. -1.
        -11    1    3    3    0    0  0.23193547347E+02  0.12891973236E+02 -0.50191481564E+02  0.56774364233E+02  0.00000000000E+00 0.  1.
         11    1    3    3    0    0 -0.15428100245E+02  0.27395909940E+03 -0.68496742835E+03  0.73788345443E+03  0.00000000000E+00 0. -1.
          1    1    1    2  501    0 -0.39951286281E+02 -0.71846665499E+02 -0.45342030657E+02  0.93882630784E+02  0.00000000000E+00 0. -1.
<scales pt_clust_5="13000.00000" pt_clust_6="13000.00000" pt_clust_7="13000.00000" pt_clust_8="13000.00000" pt_clust_9="82.20735"></scales>
<clustering>
<clus scale="   79.702">  5  6 -1 -1</clus>
<clus scale="   82.207">  1  9  2 -1</clus>
<clus scale="   93.159">  7  8 -1 -1</clus>
<clus scale="  272.466">  1  5  2 -1</clus>
<clus scale="   82.207">  1  5  2 -1</clus>
</clustering>
</event>
<event>
 9    2  0.1302972E-004  0.1010644E+03  0.7546771E-02  0.1282435E+00
         21   -1    0    0  501  502  0.00000000000E+00  0.00000000000E+00  0.69848169762E+03  0.69848169762E+03  0.00000000000E+00 0.  1.
         -1   -1    0    0    0  501 -0.00000000000E+00 -0.00000000000E+00 -0.32838100518E+02  0.32838100518E+02  0.00000000000E+00 0.  1.
         24    2    1    2    0    0 -0.43844052159E+02 -0.34608462510E+01  0.77827590117E+02  0.12011131578E+03  0.80220421514E+02 0.  0.
         23    2    1    2    0    0  0.51552693024E+02  0.53779713095E+02  0.42168202391E+03  0.43745028303E+03  0.89426411821E+02 0.  0.
        -13    1    3    3    0    0 -0.52319505631E+02 -0.23252018135E+02  0.23894477710E+02  0.62039770163E+02  0.00000000000E+00 0.  1.
         14    1    3    3    0    0  0.84754534720E+01  0.19791171884E+02  0.53933112407E+02  0.58071545615E+02  0.00000000000E+00 0. -1.
        -11    1    4    4    0    0 -0.26600795905E+00  0.54865550877E+02  0.12851524825E+03  0.13973714061E+03  0.00000000000E+00 0.  1.
         11    1    4    4    0    0  0.51818700983E+02 -0.10858377820E+01  0.29316677566E+03  0.29771314242E+03  0.00000000000E+00 0. -1.
         -2    1    1    2    0  502 -0.77086408651E+01 -0.50318866844E+02  0.16613398308E+03  0.17375819934E+03  0.00000000000E+00 0.  1.
<scales pt_clust_5="13000.00000" pt_clust_6="13000.00000" pt_clust_7="13000.00000" pt_clust_8="13000.00000" pt_clust_9="50.90591"></scales>
<clustering>
<clus scale="   50.906">  1  9  2 -1</clus>
<clus scale="   80.220">  5  6 -1 -1</clus>
<clus scale="   89.426">  7  8 -1 -1</clus>
<clus scale="   93.017">  2  5  1 -1</clus>
<clus scale="   50.906">  1  5  2 -1</clus>
</clustering>
</event>
<event>
 9    2  0.1302972E-004  0.1918209E+03  0.7546771E-02  0.1160149E+00
          2   -1    0    0  502    0 -0.00000000000E+00  0.00000000000E+00  0.34614356337E+03  0.34614356337E+03  0.00000000000E+00 0. -1.
         21   -1    0    0  501  502  0.00000000000E+00 -0.00000000000E+00 -0.18529897006E+03  0.18529897006E+03  0.00000000000E+00 0.  1.
         24    2    1    2    0    0  0.18321523121E+03  0.92678375727E+02  0.11431087901E+03  0.24888101098E+03  0.81961443928E+02 0.  0.
         23    2    1    2    0    0 -0.64638386063E+02 -0.93984593369E+02  0.99547440581E+01  0.15846399840E+03  0.10954687178E+03 0.  0.
        -13    1    3    3    0    0  0.54087223828E+02  0.66487262659E+02  0.67350822685E+02  0.10900512462E+03  0.00000000000E+00 0.  1.
         14    1    3    3    0    0  0.12912800738E+03  0.26191113068E+02  0.46960056327E+02  0.13987588636E+03  0.00000000000E+00 0. -1.
        -13    1    4    4    0    0 -0.91070302772E+01 -0.52191660373E+02 -0.45275311716E+02  0.69690467526E+02  0.00000000000E+00 0.  1.
         13    1    4    4    0    0 -0.55531355786E+02 -0.41792932996E+02  0.55230055774E+02  0.88773530879E+02  0.00000000000E+00 0. -1.
          1    1    1    2  501    0 -0.11857684515E+03  0.13062176424E+01  0.36578970242E+02  0.12409752404E+03  0.00000000000E+00 0. -1.
<scales pt_clust_5="13000.00000" pt_clust_6="13000.00000" pt_clust_7="13000.00000" pt_clust_8="13000.00000" pt_clust_9="118.58404"></scales>
<clustering>
<clus scale="   81.961">  5  6 -1 -1</clus>
<clus scale="  109.547">  7  8 -1 -1</clus>
<clus scale="  118.584">  2  9  1 -1</clus>
<clus scale="  177.517">  1  5  2 -1</clus>
<clus scale="  118.584">  2  5  1 -1</clus>
</clustering>
</event>
<event>
 9    2  0.1302972E-004  0.1154819E+03  0.7546771E-02  0.1255762E+00
         -1   -1    0    0    0  501 -0.00000000000E+00  0.00000000000E+00  0.10700941369E+03  0.10700941369E+03  0.00000000000E+00 0.  1.
         21   -1    0    0  501  502  0.00000000000E+00 -0.00000000000E+00 -0.30620097818E+03  0.30620097818E+03  0.00000000000E+00 0.  1.
         24    2    1    2    0    0  0.28921296378E+02  0.81208808850E+02 -0.11084464595E+03  0.16137521395E+03  0.79524286356E+02 0.  0.
         23    2    1    2    0    0 -0.41255021497E+02 -0.31483045705E+02 -0.14193781850E+03  0.17769506156E+03  0.93466740704E+02 0.  0.
        -13    1    3    3    0    0  0.78067231337E+01  0.81087317618E+02 -0.46819829095E+02  0.93958471684E+02  0.00000000000E+00 0.  1.
         14    1    3    3    0    0  0.21114573244E+02  0.12149123183E+00 -0.64024816860E+02  0.67416742263E+02  0.00000000000E+00 0. -1.
        -11    1    4    4    0    0  0.21622772926E+02 -0.33512421471E+02 -0.80108146088E+02  0.89487103940E+02  0.00000000000E+00 0.  1.
         11    1    4    4    0    0 -0.62877794423E+02  0.20293757661E+01 -0.61829672414E+02  0.88207957625E+02  0.00000000000E+00 0. -1.
         -2    1    1    2    0  502  0.12333725120E+02 -0.49725763145E+02  0.53590899967E+02  0.74140116368E+02  0.00000000000E+00 0.  1.
<scales pt_clust_5="13000.00000" pt_clust_6="13000.00000" pt_clust_7="13000.00000" pt_clust_8="13000.00000" pt_clust_9="51.23256"></scales>
<clustering>
<clus scale="   51.233">  2  9  1 -1</clus>
<clus scale="   79.524">  5  6 -1 -1</clus>
<clus scale="   93.467">  7  8 -1 -1</clus>
<clus scale="  104.519">  1  5  2 -1</clus>
<clus scale="   51.233">  2  5  1 -1</clus>
</clustering>
</event>
<event>
 9    2  0.1302972E-004  0.1881980E+03  0.7546771E-02  0.1185344E+00
         21   -1    0    0  501  502  0.00000000000E+00  0.00000000000E+00  0.19909149143E+02  0.19909149143E+02  0.00000000000E+00 0.  1.
          2   -1    0    0  502    0 -0.00000000000E+00 -0.00000000000E+00 -0.30334735084E+04  0.30334735084E+04  0.00000000000E+00 0. -1.
         23    2    1    2    0    0 -0.52418035282E+02 -0.50280903330E+01 -0.37537747877E+03  0.39003430809E+03  0.91899824841E+02 0.  0.
         24    2    1    2    0    0  0.73186439225E+02 -0.16174180783E+03 -0.15606296154E+04  0.15727644759E+04  0.80663704044E+02 0.  0.
        -13    1    4    4    0    0  0.44201362112E+02 -0.47770196283E+02 -0.31857396579E+03  0.32515400004E+03  0.00000000000E+00 0.  1.
         14    1    4    4    0    0  0.28985077114E+02 -0.11397161155E+03 -0.12420556496E+04  0.12476104759E+04  0.00000000000E+00 0. -1.
        -11    1    3    3    0    0 -0.17392292352E+02  0.43036911502E+02 -0.16884834002E+03  0.17511261952E+03  0.00000000000E+00 0. -1.
         11    1    3    3    0    0 -0.35025742929E+02 -0.48065001835E+02 -0.20652913874E+03  0.21492168857E+03  0.00000000000E+00 0.  1.
          1    1    1    2  501    0 -0.20768403944E+02  0.16676989816E+03 -0.10775572651E+04  0.10905838735E+04  0.00000000000E+00 0. -1.
<scales pt_clust_5="13000.00000" pt_clust_6="13000.00000" pt_clust_7="13000.00000" pt_clust_8="13000.00000" pt_clust_9="170.03492"></scales>
<clustering>
<clus scale="   80.664">  5  6 -1 -1</clus>
<clus scale="   91.900">  7  8 -1 -1</clus>
<clus scale="  105.918">  2  7  1 -1</clus>
<clus scale="  170.035">  1  9  2 -1</clus>
<clus scale="  170.035">  1  5  2 -1</clus>
</clustering>
</event>
<event>
 9    2  0.1302972E-004  0.3548144E+03  0.7546771E-02  0.1060739E+00
          2   -1    0    0  502    0 -0.00000000000E+00  0.00000000000E+00  0.16503412219E+04  0.16503412219E+04  0.00000000000E+00 0. -1.
         21   -1    0    0  501  502  0.00000000000E+00 -0.00000000000E+00 -0.13016010183E+03  0.13016010183E+03  0.00000000000E+00 0. -1.
         23    2    1    2    0    0  0.24271719318E+03 -0.27468132809E+03  0.12031557028E+04  0.12611134739E+04  0.91989570220E+02 0.  0.
         24    2    1    2    0    0 -0.17782151189E+03  0.19876329411E+03  0.13936575649E+03  0.31557923274E+03  0.95079445103E+02 0.  0.
        -11    1    4    4    0    0 -0.40581985300E+02  0.23849826152E+02  0.66781171071E+02  0.81703344779E+02  0.00000000000E+00 0.  1.
         12    1    4    4    0    0 -0.13723952659E+03  0.17491346795E+03  0.72584585423E+02  0.23387588796E+03  0.00000000000E+00 0. -1.
        -11    1    3    3    0    0  0.16099358241E+03 -0.18148488067E+03  0.93048007806E+03  0.96158664256E+03  0.00000000000E+00 0. -1.
         11    1    3    3    0    0  0.81723610763E+02 -0.93196447411E+02  0.27267562470E+03  0.29952683131E+03  0.00000000000E+00 0.  1.
          1    1    1    2  501    0 -0.64895681288E+02  0.75918033979E+02  0.17765966083E+03  0.20380861714E+03  0.00000000000E+00 0. -1.
<scales pt_clust_5="13000.00000" pt_clust_6="13000.00000" pt_clust_7="13000.00000" pt_clust_8="13000.00000" pt_clust_9="99.87496"></scales>
<clustering>
<clus scale="   91.990">  7  8 -1 -1</clus>
<clus scale="   95.079">  5  6 -1 -1</clus>
<clus scale="   99.875">  2  9  1 -1</clus>
<clus scale="  353.999">  1  7  2 -1</clus>
<clus scale="   99.875">  2  5  1 -1</clus>
</clustering>
</event>
<event>
 9    2  0.1302972E-004  0.9552990E+02  0.7546771E-02  0.1296231E+00
          2   -1    0    0  502    0 -0.00000000000E+00  0.00000000000E+00  0.33155220550E+03  0.33155220550E+03  0.00000000000E+00 0. -1.
         21   -1    0    0  501  502  0.00000000000E+00 -0.00000000000E+00 -0.14822813843E+03  0.14822813843E+03  0.00000000000E+00 0. -1.
         24    2    1    2    0    0  0.19352378292E+02  0.43650417334E+02  0.13202024079E+03  0.16040247645E+03  0.77586964077E+02 0.  0.
         23    2    1    2    0    0 -0.51035361198E+02  0.33618082019E+02  0.15334412175E+03  0.18752016276E+03  0.88964083960E+02 0.  0.
        -11    1    3    3    0    0  0.21614113797E+01  0.36414160155E+02  0.11211392757E+02  0.38162259976E+02  0.00000000000E+00 0.  1.
         12    1    3    3    0    0  0.17190966912E+02  0.72362571796E+01  0.12080884803E+03  0.12224021647E+03  0.00000000000E+00 0. -1.
        -13    1    4    4    0    0 -0.27150306795E+02 -0.19385756455E+02  0.11015630185E+03  0.11509716569E+03  0.00000000000E+00 0.  1.
         13    1    4    4    0    0 -0.23885054404E+02  0.53003838474E+02  0.43187819898E+02  0.72422997069E+02  0.00000000000E+00 0. -1.
          1    1    1    2  501    0  0.31682982906E+02 -0.77268499354E+02 -0.10204029546E+03  0.13185770472E+03  0.00000000000E+00 0. -1.
<scales pt_clust_5="13000.00000" pt_clust_6="13000.00000" pt_clust_7="13000.00000" pt_clust_8="13000.00000" pt_clust_9="83.51187"></scales>
<clustering>
<clus scale="   77.587">  5  6 -1 -1</clus>
<clus scale="   83.512">  2  9  1 -1</clus>
<clus scale="   85.036">  1  5  2 -1</clus>
<clus scale="   88.964">  7  8 -1 -1</clus>
<clus scale="   83.512">  2  5  1 -1</clus>
</clustering>
</event>
<event>
 9    2  0.1302972E-004  0.1644386E+03  0.7546771E-02  0.1185322E+00
          2   -1    0    0  502    0 -0.00000000000E+00  0.00000000000E+00  0.37147070647E+03  0.37147070647E+03  0.00000000000E+00 0. -1.
         21   -1    0    0  501  502  0.00000000000E+00 -0.00000000000E+00 -0.42112508248E+03  0.42112508248E+03  0.00000000000E+00 0. -1.
         24    2    1    2    0    0 -0.14346026909E+03 -0.19250662557E+02  0.32505422271E+03  0.36491868087E+03  0.80956526152E+02 0.  0.
         23    2    1    2    0    0  0.50117171201E+02 -0.16743872913E+02 -0.20766560331E+03  0.23296731679E+03  0.91414877166E+02 0.  0.
        -13    1    3    3    0    0 -0.15167222643E+02 -0.32134089083E+02  0.52373968435E+02  0.63290417075E+02  0.00000000000E+00 0.  1.
         14    1    3    3    0    0 -0.12829304645E+03  0.12883426526E+02  0.27268025428E+03  0.30162826379E+03  0.00000000000E+00 0. -1.
        -11    1    4    4    0    0  0.81664621280E+01 -0.35710095744E+02 -0.16876320286E+03  0.17269314022E+03  0.00000000000E+00 0. -1.
         11    1    4    4    0    0  0.41950709073E+02  0.18966222830E+02 -0.38902400448E+02  0.60274176567E+02  0.00000000000E+00 0.  1.
          1    1    1    2  501    0  0.93343097888E+02  0.35994535471E+02 -0.16704299542E+03  0.19470979129E+03  0.00000000000E+00 0. -1.
<scales pt_clust_5="13000.00000" pt_clust_6="13000.00000" pt_clust_7="13000.00000" pt_clust_8="13000.00000" pt_clust_9="100.04269"></scales>
<clustering>
<clus scale="   80.957">  5  6 -1 -1</clus>
<clus scale="   91.415">  7  8 -1 -1</clus>
<clus scale="  100.043">  2  9  1 -1</clus>
<clus scale="  158.863">  1  5  2 -1</clus>
<clus scale="  100.043">  2  5  1 -1</clus>
</clustering>
</event>
<event>
 9    2  0.1302972E-004  0.9706324E+02  0.7546771E-02  0.1292205E+00
          2   -1    0    0  502    0 -0.00000000000E+00  0.00000000000E+00  0.13510595552E+03  0.13510595552E+03  0.00000000000E+00 0. -1.
         21   -1    0    0  501  502  0.00000000000E+00 -0.00000000000E+00 -0.10517836392E+03  0.10517836392E+03  0.00000000000E+00 0.  1.
         23    2    1    2    0    0  0.67857080022E+00  0.23834284116E+02  0.20645947005E+02  0.96185436044E+02  0.90867207625E+02 0.  0.
         24    2    1    2    0    0 -0.38312582634E+02 -0.39357205984E+02 -0.12045045393E+02  0.98141210959E+02  0.80434883720E+02 0.  0.
        -13    1    4    4    0    0 -0.43941884484E+02  0.11979258877E+02 -0.24352148032E+01  0.45610548412E+02  0.00000000000E+00 0.  1.
         14    1    4    4    0    0  0.56293018506E+01 -0.51336464860E+02 -0.96098305902E+01  0.52530662547E+02  0.00000000000E+00 0. -1.
        -11    1    3    3    0    0  0.39721031466E+02 -0.10587343946E+02  0.29644719942E+01  0.41214564013E+02  0.00000000000E+00 0.  1.
         11    1    3    3    0    0 -0.39042460666E+02  0.34421628062E+02  0.17681475011E+02  0.54970872031E+02  0.00000000000E+00 0. -1.
          1    1    1    2  501    0  0.37634011833E+02  0.15522921868E+02  0.21326689987E+02  0.45957672436E+02  0.00000000000E+00 0. -1.
<scales pt_clust_5="13000.00000" pt_clust_6="13000.00000" pt_clust_7="13000.00000" pt_clust_8="13000.00000" pt_clust_9="40.70972"></scales>
<clustering>
<clus scale="   40.710">  2  9  1 -1</clus>
<clus scale="   80.435">  5  6 -1 -1</clus>
<clus scale="   87.374">  2  5  1 -1</clus>
<clus scale="   90.867">  7  8 -1 -1</clus>
<clus scale="   40.710">  2  5  1 -1</clus>
</clustering>
</event>
<event>
 9    2  0.1302972E-004  0.3125318E+03  0.7546771E-02  0.1114402E+00
          2   -1    0    0  502    0 -0.00000000000E+00  0.00000000000E+00  0.98360045348E+03  0.98360045348E+03  0.00000000000E+00 0. -1.
         21   -1    0    0  501  502  0.00000000000E+00 -0.00000000000E+00 -0.19445693448E+03  0.19445693448E+03  0.00000000000E+00 0. -1.
         23    2    1    2    0    0 -0.76010918257E+02  0.31116405398E+02 -0.47919102923E+02  0.13336403195E+03  0.93508471342E+02 0.  0.
         24    2    1    2    0    0  0.14022870127E+03  0.26886935619E+03  0.48921528448E+03  0.58089043345E+03  0.78404602826E+02 0.  0.
        -13    1    4    4    0    0  0.14963036881E+01  0.22386943501E+02  0.10298206211E+02  0.24687389801E+02  0.00000000000E+00 0.  1.
         14    1    4    4    0    0  0.13873239758E+03  0.24648241269E+03  0.47891707827E+03  0.55620304364E+03  0.00000000000E+00 0. -1.
        -11    1    3    3    0    0 -0.40040429136E+01  0.48906366958E+02 -0.10067593661E+02  0.50092130428E+02  0.00000000000E+00 0.  1.
         11    1    3    3    0    0 -0.72006875344E+02 -0.17789961559E+02 -0.37851509261E+02  0.83271901518E+02  0.00000000000E+00 0. -1.
          1    1    1    2  501    0 -0.64217783014E+02 -0.29998576159E+03  0.34784733744E+03  0.46380292256E+03  0.00000000000E+00 0. -1.
<scales pt_clust_5="13000.00000" pt_clust_6="13000.00000" pt_clust_7="13000.00000" pt_clust_8="13000.00000" pt_clust_9="302.53730"></scales>
<clustering>
<clus scale="   78.405">  5  6 -1 -1</clus>
<clus scale="   93.508">  7  8 -1 -1</clus>
<clus scale="  124.458">  1  7  2 -1</clus>
<clus scale="  302.537">  2  9  1 -1</clus>
<clus scale="  302.537">  2  5  1 -1</clus>
</clustering>
</event>
<event>
 9    2  0.1302972E-004  0.9619009E+02  0.7546771E-02  0.1295511E+00
         21   -1    0    0  501  502  0.00000000000E+00  0.00000000000E+00  0.11625408444E+03  0.11625408444E+03  0.00000000000E+00 0. -1.
         -1   -1    0    0    0  501 -0.00000000000E+00 -0.00000000000E+00 -0.12750406413E+03  0.12750406413E+03  0.00000000000E+00 0.  1.
         24    2    1    2    0    0 -0.10130120651E+02  0.29347683903E+02  0.53999918603E+01  0.88077811732E+02  0.82247401859E+02 0.  0.
         23    2    1    2    0    0  0.16293105016E+02  0.64068028750E+01  0.26312747421E+02  0.99447242296E+02  0.94291467956E+02 0.  0.
        -13    1    3    3    0    0 -0.40740396846E+02 -0.14185409041E+01  0.15337191165E+02  0.43554811747E+02  0.00000000000E+00 0.  1.
         14    1    3    3    0    0  0.30610276195E+02  0.30766224808E+02 -0.99371993049E+01  0.44522999985E+02  0.00000000000E+00 0. -1.
        -13    1    4    4    0    0 -0.10347702694E+02  0.29990380275E+02  0.48178313971E+02  0.57685767718E+02  0.00000000000E+00 0. -1.
         13    1    4    4    0    0  0.26640807710E+02 -0.23583577400E+02 -0.21865566550E+02  0.41761474578E+02  0.00000000000E+00 0.  1.
         -2    1    1    2    0  502 -0.61629843653E+01 -0.35754486779E+02 -0.42962718965E+02  0.56233094544E+02  0.00000000000E+00 0.  1.
<scales pt_clust_5="13000.00000" pt_clust_6="13000.00000" pt_clust_7="13000.00000" pt_clust_8="13000.00000" pt_clust_9="36.28177"></scales>
<clustering>
<clus scale="   36.282">  1  9  2 -1</clus>
<clus scale="   82.247">  5  6 -1 -1</clus>
<clus scale="   84.417">  2  5  1 -1</clus>
<clus scale="   94.291">  7  8 -1 -1</clus>
<clus scale="   36.282">  1  5  2 -1</clus>
</clustering>
</event>
<event>
 9    2  0.1302972E-004  0.9754460E+02  0.7546771E-02  0.1293539E+00
         -3   -1    0    0    0  501 -0.00000000000E+00  0.00000000000E+00  0.19606834270E+03  0.19606834270E+03  0.00000000000E+00 0.  1.
         21   -1    0    0  501  502  0.00000000000E+00 -0.00000000000E+00 -0.17772719814E+03  0.17772719814E+03  0.00000000000E+00 0. -1.
         24    2    1    2    0    0  0.14960676109E+02  0.16248674341E+02  0.40334320045E+02  0.94341282820E+02  0.82374626089E+02 0.  0.
         23    2    1    2    0    0  0.66116655696E+02 -0.16174381772E+02 -0.10901226111E+03  0.16051788632E+03  0.96173260153E+02 0.  0.
        -11    1    3    3    0    0 -0.29661666484E+02  0.26179980740E+02  0.19336931034E+02  0.44035471520E+02  0.00000000000E+00 0.  1.
         12    1    3    3    0    0  0.44622342593E+02 -0.99313063995E+01  0.20997389011E+02  0.50305811301E+02  0.00000000000E+00 0. -1.
        -13    1    4    4    0    0  0.27244475644E+02 -0.33634416996E+02  0.20170897084E+00  0.43284825820E+02  0.00000000000E+00 0.  1.
         13    1    4    4    0    0  0.38872180052E+02  0.17460035224E+02 -0.10921397008E+03  0.11723306050E+03  0.00000000000E+00 0. -1.
         -4    1    1    2    0  502 -0.81077331806E+02 -0.74292569106E-01  0.87019085622E+02  0.11893637171E+03  0.00000000000E+00 0.  1.
<scales pt_clust_5="13000.00000" pt_clust_6="13000.00000" pt_clust_7="13000.00000" pt_clust_8="13000.00000" pt_clust_9="81.07741"></scales>
<clustering>
<clus scale="   81.077">  2  9  1 -1</clus>
<clus scale="   82.375">  5  6 -1 -1</clus>
<clus scale="   83.972">  1  5  2 -1</clus>
<clus scale="   96.173">  7  8 -1 -1</clus>
<clus scale="   81.077">  2  5  1 -1</clus>
</clustering>
</event>
<event>
 9    2  0.1302972E-004  0.3258784E+03  0.7546771E-02  0.1073259E+00
         21   -1    0    0  501  502  0.00000000000E+00  0.00000000000E+00  0.58655963333E+02  0.58655963333E+02  0.00000000000E+00 0.  1.
          2   -1    0    0  502    0 -0.00000000000E+00 -0.00000000000E+00 -0.30507899898E+04  0.30507899898E+04  0.00000000000E+00 0. -1.
         24    2    1    2    0    0  0.32125971661E+03  0.58448599864E+01 -0.15895869596E+04  0.16237309696E+04  0.80458632624E+02 0.  0.
         23    2    1    2    0    0 -0.28671014261E+03 -0.12182887992E+03 -0.68309742230E+03  0.75615775001E+03  0.90041505318E+02 0.  0.
        -13    1    3    3    0    0  0.25695188104E+03  0.31144017094E+02 -0.11518702694E+04  0.11805927903E+04  0.00000000000E+00 0.  1.
         14    1    3    3    0    0  0.64307835561E+02 -0.25299157107E+02 -0.43771669021E+03  0.44313817930E+03  0.00000000000E+00 0. -1.
        -11    1    4    4    0    0 -0.20933463921E+03 -0.42896122477E+02 -0.44354271937E+03  0.49233242063E+03  0.00000000000E+00 0.  1.
         11    1    4    4    0    0 -0.77375503406E+02 -0.78932757444E+02 -0.23955470293E+03  0.26382532938E+03  0.00000000000E+00 0. -1.
          1    1    1    2  501    0 -0.34549573993E+02  0.11598401994E+03 -0.71944964454E+03  0.72955723352E+03  0.00000000000E+00 0. -1.
<scales pt_clust_5="13000.00000" pt_clust_6="13000.00000" pt_clust_7="13000.00000" pt_clust_8="13000.00000" pt_clust_9="121.02058"></scales>
<clustering>
<clus scale="   80.459">  5  6 -1 -1</clus>
<clus scale="   90.042">  7  8 -1 -1</clus>
<clus scale="  121.021">  1  9  2 -1</clus>
<clus scale="  323.362">  2  5  1 -1</clus>
<clus scale="  121.021">  1  5  2 -1</clus>
</clustering>
</event>
<event>
 9    2  0.1302972E-004  0.1237567E+03  0.7546771E-02  0.1239388E+00
          2   -1    0    0  502    0 -0.00000000000E+00  0.00000000000E+00  0.28170967473E+03  0.28170967473E+03  0.00000000000E+00 0. -1.
         21   -1    0    0  501  502  0.00000000000E+00 -0.00000000000E+00 -0.19855509121E+03  0.19855509121E+03  0.00000000000E+00 0. -1.
         24    2    1    2    0    0  0.28271803802E+02  0.91860156010E+02  0.14400908700E+03  0.19103925960E+03  0.80745268707E+02 0.  0.
         23    2    1    2    0    0  0.38211823976E+02 -0.30510173434E+02 -0.13730107902E+03  0.17078576624E+03  0.89023465868E+02 0.  0.
        -13    1    3    3    0    0 -0.17986923636E+02  0.62166462697E+02  0.10605212623E+03  0.12423868957E+03  0.00000000000E+00 0.  1.
         14    1    3    3    0    0  0.46258727438E+02  0.29693693313E+02  0.37956960766E+02  0.66800570037E+02  0.00000000000E+00 0. -1.
        -11    1    4    4    0    0  0.17660601862E+02  0.20616490144E+02 -0.51824610831E+01  0.27636830984E+02  0.00000000000E+00 0.  1.
         11    1    4    4    0    0  0.20551222114E+02 -0.51126663578E+02 -0.13211861793E+03  0.14314893525E+03  0.00000000000E+00 0. -1.
          1    1    1    2  501    0 -0.66483627778E+02 -0.61349982575E+02  0.76446575540E+02  0.11843974011E+03  0.00000000000E+00 0. -1.
<scales pt_clust_5="13000.00000" pt_clust_6="13000.00000" pt_clust_7="13000.00000" pt_clust_8="13000.00000" pt_clust_9="90.46492"></scales>
<clustering>
<clus scale="   80.745">  5  6 -1 -1</clus>
<clus scale="   89.023">  7  8 -1 -1</clus>
<clus scale="   90.465">  2  9  1 -1</clus>
<clus scale="  117.942">  1  5  2 -1</clus>
<clus scale="   90.465">  2  5  1 -1</clus>
</clustering>
</event>
<event>
 9    2  0.1302972E-004  0.1058725E+03  0.7546771E-02  0.1268450E+00
         21   -1    0    0  501  502  0.00000000000E+00  0.00000000000E+00  0.15387859057E+03  0.15387859057E+03  0.00000000000E+00 0. -1.
          2   -1    0    0  502    0 -0.00000000000E+00 -0.00000000000E+00 -0.34751863458E+03  0.34751863458E+03  0.00000000000E+00 0. -1.
         24    2    1    2    0    0 -0.20446975094E+02 -0.58889576946E+02 -0.27311071230E+03  0.29504993531E+03  0.92622578731E+02 0.  0.
         23    2    1    2    0    0 -0.14244223537E+02  0.15530555279E+02 -0.15674685759E+02  0.96183219384E+02  0.92527941002E+02 0.  0.
        -13    1    3    3    0    0  0.12842942431E+02 -0.73685331212E+02 -0.19532091105E+03  0.20915240257E+03  0.00000000000E+00 0.  1.
         14    1    3    3    0    0 -0.33289917525E+02  0.14795754265E+02 -0.77789801251E+02  0.85897532746E+02  0.00000000000E+00 0. -1.
        -11    1    4    4    0    0 -0.50908547614E+02  0.25240156716E+02 -0.12018713881E+02  0.58079214996E+02  0.00000000000E+00 0. -1.
         11    1    4    4    0    0  0.36664324076E+02 -0.97096014372E+01 -0.36559718774E+01  0.38104004388E+02  0.00000000000E+00 0.  1.
          1    1    1    2  501    0  0.34691198631E+02  0.43359021667E+02  0.95145354051E+02  0.11016407046E+03  0.00000000000E+00 0. -1.
<scales pt_clust_5="13000.00000" pt_clust_6="13000.00000" pt_clust_7="13000.00000" pt_clust_8="13000.00000" pt_clust_9="55.52913"></scales>
<clustering>
<clus scale="   55.529">  1  9  2 -1</clus>
<clus scale="   92.528">  7  8 -1 -1</clus>
<clus scale="   92.623">  5  6 -1 -1</clus>
<clus scale="  105.790">  1  7  2 -1</clus>
<clus scale="   55.529">  1  5  2 -1</clus>
</clustering>
</event>
<event>
 9    2  0.1302972E-004  0.1025198E+03  0.7546771E-02  0.1279799E+00
         21   -1    0    0  501  502  0.00000000000E+00  0.00000000000E+00  0.30568276452E+03  0.30568276452E+03  0.00000000000E+00 0. -1.
         -1   -1    0    0    0  501 -0.00000000000E+00 -0.00000000000E+00 -0.14814805948E+03  0.14814805948E+03  0.00000000000E+00 0.  1.
         24    2    1    2    0    0 -0.47878632172E+02  0.32156540778E+02  0.59346436623E+02  0.11553487560E+03  0.80621966034E+02 0.  0.
         23    2    1    2    0    0 -0.65216344530E+00 -0.37615739519E+02  0.20142042760E+03  0.22409472396E+03  0.90735260371E+02 0.  0.
        -11    1    3    3    0    0  0.18607931085E+02  0.24848591600E+02  0.27418306963E+02  0.41418246710E+02  0.00000000000E+00 0.  1.
         12    1    3    3    0    0 -0.66486563257E+02  0.73079491781E+01  0.31928129660E+02  0.74116628893E+02  0.00000000000E+00 0. -1.
        -11    1    4    4    0    0  0.32027812702E+02 -0.37042735378E+02  0.53170530717E+02  0.72284509873E+02  0.00000000000E+00 0.  1.
         11    1    4    4    0    0 -0.32679976148E+02 -0.57300414080E+00  0.14824989688E+03  0.15181021409E+03  0.00000000000E+00 0. -1.
         -2    1    1    2    0  502  0.48530795618E+02  0.54591987408E+01 -0.10323215918E+03  0.11420122444E+03  0.00000000000E+00 0.  1.
<scales pt_clust_5="13000.00000" pt_clust_6="13000.00000" pt_clust_7="13000.00000" pt_clust_8="13000.00000" pt_clust_9="48.83691"></scales>
<clustering>
<clus scale="   48.837">  1  9  2 -1</clus>
<clus scale="   80.622">  5  6 -1 -1</clus>
<clus scale="   90.735">  7  8 -1 -1</clus>
<clus scale="   93.687">  2  5  1 -1</clus>
<clus scale="   48.837">  1  5  2 -1</clus>
</clustering>
</event>
<event>
 9    2  0.1302972E-004  0.9451221E+02  0.7546771E-02  0.1300640E+00
         21   -1    0    0  501  502  0.00000000000E+00  0.00000000000E+00  0.38358434687E+02  0.38358434687E+02  0.00000000000E+00 0. -1.
          2   -1    0    0  502    0 -0.00000000000E+00 -0.00000000000E+00 -0.35193269922E+03  0.35193269922E+03  0.00000000000E+00 0. -1.
         24    2    1    2    0    0  0.89062979574E+01 -0.23034891648E+02 -0.18208465921E+03  0.20018886406E+03  0.79440731342E+02 0.  0.
         23    2    1    2    0    0 -0.83164937625E+01 -0.37763520462E+01 -0.13363543101E+03  0.16319882722E+03  0.93230916990E+02 0.  0.
        -13    1    3    3    0    0 -0.21348040485E+02  0.15737289159E+02 -0.28540483121E+02  0.38961009733E+02  0.00000000000E+00 0.  1.
         14    1    3    3    0    0  0.30254338443E+02 -0.38772180807E+02 -0.15354417609E+03  0.16122785432E+03  0.00000000000E+00 0. -1.
        -13    1    4    4    0    0 -0.10871732110E+01  0.43946537653E+02 -0.49506919670E+02  0.66207365244E+02  0.00000000000E+00 0.  1.
         13    1    4    4    0    0 -0.72293205515E+01 -0.47722889699E+02 -0.84128511339E+02  0.96991461980E+02  0.00000000000E+00 0. -1.
          1    1    1    2  501    0 -0.58980419487E+00  0.26811243694E+02  0.21458256839E+01  0.26903442629E+02  0.00000000000E+00 0. -1.
<scales pt_clust_5="13000.00000" pt_clust_6="13000.00000" pt_clust_7="13000.00000" pt_clust_8="13000.00000" pt_clust_9="26.81773"></scales>
<clustering>
<clus scale="   26.818">  1  9  2 -1</clus>
<clus scale="   79.441">  5  6 -1 -1</clus>
<clus scale="   80.941">  2  5  1 -1</clus>
<clus scale="   93.231">  7  8 -1 -1</clus>
<clus scale="   26.818">  1  5  2 -1</clus>
</clustering>
</event>
<event>
 9    2  0.1302972E-004  0.1123769E+03  0.7546771E-02  0.1260093E+00
          2   -1    0    0  502    0 -0.00000000000E+00  0.00000000000E+00  0.18272847752E+03  0.18272847752E+03  0.00000000000E+00 0. -1.
         21   -1    0    0  501  502  0.00000000000E+00 -0.00000000000E+00 -0.33932814071E+03  0.33932814071E+03  0.00000000000E+00 0.  1.
         24    2    1    2    0    0  0.49914123151E+02  0.43338645920E+02  0.13994368415E+03  0.17412952291E+03  0.79794724742E+02 0.  0.
         23    2    1    2    0    0 -0.69267011560E+02 -0.31803595613E+02 -0.11462590119E+03  0.16461984262E+03  0.90284039443E+02 0.  0.
        -13    1    3    3    0    0  0.33454985353E+02 -0.10913271590E+02  0.17725430807E+02  0.39402112115E+02  0.00000000000E+00 0.  1.
         14    1    3    3    0    0  0.16459137798E+02  0.54251917510E+02  0.12221825334E+03  0.13472741080E+03  0.00000000000E+00 0. -1.
        -11    1    4    4    0    0 -0.91252943315E+02 -0.21973314126E+02 -0.87138751781E+02  0.12807454181E+03  0.00000000000E+00 0.  1.
         11    1    4    4    0    0  0.21985931755E+02 -0.98302814867E+01 -0.27487149406E+02  0.36545300816E+02  0.00000000000E+00 0. -1.
          1    1    1    2  501    0  0.19352888409E+02 -0.11535050306E+02 -0.18191744615E+03  0.18330725269E+03  0.00000000000E+00 0. -1.
<scales pt_clust_5="13000.00000" pt_clust_6="13000.00000" pt_clust_7="13000.00000" pt_clust_8="13000.00000" pt_clust_9="22.52980"></scales>
<clustering>
<clus scale="   22.530">  2  9  1 -1</clus>
<clus scale="   79.795">  5  6 -1 -1</clus>
<clus scale="   90.284">  7  8 -1 -1</clus>
<clus scale="  104.137">  1  5  2 -1</clus>
<clus scale="   22.530">  2  5  1 -1</clus>
</clustering>
</event>
<event>
 9    2  0.1302972E-004  0.1237997E+03  0.7546771E-02  0.1237177E+00
          2   -1    0    0  502    0 -0.00000000000E+00  0.00000000000E+00  0.21633690083E+03  0.21633690083E+03  0.00000000000E+00 0. -1.
         21   -1    0    0  501  502  0.00000000000E+00 -0.00000000000E+00 -0.77945863378E+03  0.77945863378E+03  0.00000000000E+00 0. -1.
         23    2    1    2    0    0  0.81357556009E+01  0.78635195780E+02  0.18686647537E+03  0.22413937957E+03  0.95234958501E+02 0.  0.
         24    2    1    2    0    0  0.38265543023E+02 -0.64121609373E+02 -0.39313726637E+03  0.41150851937E+03  0.95950605693E+02 0.  0.
        -13    1    4    4    0    0 -0.52488211441E+01 -0.32516249104E+02 -0.30451618715E+02  0.44857080395E+02  0.00000000000E+00 0.  1.
         14    1    4    4    0    0  0.43514364167E+02 -0.31605360269E+02 -0.36268564765E+03  0.36665143897E+03  0.00000000000E+00 0. -1.
        -11    1    3    3    0    0 -0.21972987606E+02  0.58008210600E+02  0.42406417133E+02  0.75140328023E+02  0.00000000000E+00 0.  1.
         11    1    3    3    0    0  0.30108743207E+02  0.20626985180E+02  0.14446005824E+03  0.14899905154E+03  0.00000000000E+00 0. -1.
          1    1    1    2  501    0 -0.46401298624E+02 -0.14513586407E+02 -0.35685094195E+03  0.36014763567E+03  0.00000000000E+00 0. -1.
<scales pt_clust_5="13000.00000" pt_clust_6="13000.00000" pt_clust_7="13000.00000" pt_clust_8="13000.00000" pt_clust_9="48.61815"></scales>
<clustering>
<clus scale="   48.618">  2  9  1 -1</clus>
<clus scale="   95.235">  7  8 -1 -1</clus>
<clus scale="   95.951">  5  6 -1 -1</clus>
<clus scale="  123.246">  1  7  2 -1</clus>
<clus scale="   48.618">  2  5  1 -1</clus>
</clustering>
</event>
<event>
 9    2  0.1302972E-004  0.2356909E+03  0.7546771E-02  0.1161039E+00
         21   -1    0    0  501  502  0.00000000000E+00  0.00000000000E+00  0.65160499680E+02  0.65160499680E+02  0.00000000000E+00 0. -1.
          2   -1    0    0  502    0 -0.00000000000E+00 -0.00000000000E+00 -0.11891323010E+04  0.11891323010E+04  0.00000000000E+00 0. -1.
         24    2    1    2    0    0  0.34405156812E+02 -0.36608626693E+02 -0.24806182382E+03  0.26518189035E+03  0.79138234567E+02 0.  0.
         23    2    1    2    0    0 -0.96569316549E+02  0.22493924293E+03 -0.51017530945E+03  0.57306445717E+03  0.90557880886E+02 0.  0.
        -11    1    3    3    0    0  0.41098635203E+02 -0.28621056674E+02 -0.66142956485E+02  0.82964772001E+02  0.00000000000E+00 0.  1.
         12    1    3    3    0    0 -0.66934783903E+01 -0.79875700191E+01 -0.18191886733E+03  0.18221711835E+03  0.00000000000E+00 0. -1.
        -13    1    4    4    0    0 -0.77577297252E+02  0.15479509735E+03 -0.43646939031E+03  0.46955860964E+03  0.00000000000E+00 0. -1.
         13    1    4    4    0    0 -0.18992019297E+02  0.70144145580E+02 -0.73705919144E+02  0.10350584753E+03  0.00000000000E+00 0.  1.
          1    1    1    2  501    0  0.62164159737E+02 -0.18833061624E+03 -0.36573466801E+03  0.41604645312E+03  0.00000000000E+00 0. -1.
<scales pt_clust_5="13000.00000" pt_clust_6="13000.00000" pt_clust_7="13000.00000" pt_clust_8="13000.00000" pt_clust_9="217.59930"></scales>
<clustering>
<clus scale="   79.138">  5  6 -1 -1</clus>
<clus scale="   90.558">  7  8 -1 -1</clus>
<clus scale="   93.738">  2  5  1 -1</clus>
<clus scale="  217.599">  1  9  2 -1</clus>
<clus scale="  217.599">  1  5  2 -1</clus>
</clustering>
</event>
<event>
 9    2  0.1302972E-004  0.1880556E+03  0.7546771E-02  0.1185567E+00
         21   -1    0    0  501  502  0.00000000000E+00  0.00000000000E+00  0.41848060235E+03  0.41848060235E+03  0.00000000000E+00 0. -1.
          4   -1    0    0  502    0 -0.00000000000E+00 -0.00000000000E+00 -0.14148869448E+03  0.14148869448E+03  0.00000000000E+00 0. -1.
         23    2    1    2    0    0 -0.53279294826E+02  0.51482945566E+00  0.18052686079E+02  0.10716397933E+03  0.91210036101E+02 0.  0.
         24    2    1    2    0    0 -0.64625259439E+02  0.14611836015E+03  0.16112349953E+03  0.24074237463E+03  0.80430774658E+02 0.  0.
        -11    1    4    4    0    0 -0.51849866276E+02  0.52360181641E+02  0.11215837415E+03  0.13419947148E+03  0.00000000000E+00 0.  1.
         12    1    4    4    0    0 -0.12775393163E+02  0.93758178512E+02  0.48965125380E+02  0.10654290315E+03  0.00000000000E+00 0. -1.
        -11    1    3    3    0    0  0.16442795070E+02  0.19428099768E+02  0.23599457525E+02  0.34709522696E+02  0.00000000000E+00 0.  1.
         11    1    3    3    0    0 -0.69722089895E+02 -0.18913270312E+02 -0.55467714466E+01  0.72454456638E+02  0.00000000000E+00 0. -1.
          3    1    1    2  501    0  0.11790455427E+03 -0.14663318961E+03  0.97815722271E+02  0.21206294286E+03  0.00000000000E+00 0. -1.
<scales pt_clust_5="13000.00000" pt_clust_6="13000.00000" pt_clust_7="13000.00000" pt_clust_8="13000.00000" pt_clust_9="169.98770"></scales>
<clustering>
<clus scale="   80.431">  5  6 -1 -1</clus>
<clus scale="   91.210">  7  8 -1 -1</clus>
<clus scale="  105.632">  2  7  1 -1</clus>
<clus scale="  169.988">  1  9  2 -1</clus>
<clus scale="  169.988">  1  5  2 -1</clus>
</clustering>
</event>
<event>
 9    2  0.1302972E-004  0.9295190E+02  0.7546771E-02  0.1301710E+00
         21   -1    0    0  501  502  0.00000000000E+00  0.00000000000E+00  0.25771287434E+03  0.25771287434E+03  0.00000000000E+00 0. -1.
          2   -1    0    0  502    0 -0.00000000000E+00 -0.00000000000E+00 -0.27745236194E+03  0.27745236194E+03  0.00000000000E+00 0. -1.
         23    2    1    2    0    0  0.15033830067E+02  0.13557064426E+02 -0.21907491656E+03  0.23812238394E+03  0.91096874950E+02 0.  0.
         24    2    1    2    0    0 -0.22227021250E+02  0.12309865406E+02 -0.10160346202E+02  0.85833667233E+02  0.81354855637E+02 0.  0.
        -13    1    4    4    0    0  0.13162072167E+02 -0.28341126455E+02 -0.55766716540E+01  0.31742067658E+02  0.00000000000E+00 0.  1.
         14    1    4    4    0    0 -0.35389093418E+02  0.40650991861E+02 -0.45836745476E+01  0.54091599575E+02  0.00000000000E+00 0. -1.
        -13    1    3    3    0    0 -0.59655628178E+00  0.38323576435E+02 -0.19890060782E+03  0.20255987802E+03  0.00000000000E+00 0. -1.
         13    1    3    3    0    0  0.15630386348E+02 -0.24766512010E+02 -0.20174308737E+02  0.35562505923E+02  0.00000000000E+00 0.  1.
          1    1    1    2  501    0  0.71931911838E+01 -0.25866929832E+02  0.20949577517E+03  0.21120918510E+03  0.00000000000E+00 0. -1.
<scales pt_clust_5="13000.00000" pt_clust_6="13000.00000" pt_clust_7="13000.00000" pt_clust_8="13000.00000" pt_clust_9="26.84846"></scales>
<clustering>
<clus scale="   26.848">  1  9  2 -1</clus>
<clus scale="   81.355">  5  6 -1 -1</clus>
<clus scale="   83.427">  1  5  2 -1</clus>
<clus scale="   91.097">  7  8 -1 -1</clus>
<clus scale="   26.848">  1  5  2 -1</clus>
</clustering>
</event>
<event>
 9    2  0.1302972E-004  0.2738880E+03  0.7546771E-02  0.1123492E+00
         21   -1    0    0  501  502  0.00000000000E+00  0.00000000000E+00  0.11979728632E+03  0.11979728632E+03  0.00000000000E+00 0. -1.
          2   -1    0    0  502    0 -0.00000000000E+00 -0.00000000000E+00 -0.14063966496E+04  0.14063966496E+04  0.00000000000E+00 0. -1.
         23    2    1    2    0    0 -0.21229102352E+01  0.11278063010E+03 -0.34023494262E+03  0.37073400754E+03  0.94656805862E+02 0.  0.
         24    2    1    2    0    0  0.26104252385E+03 -0.12531532410E+03 -0.80701891530E+03  0.86115794954E+03  0.80413647474E+02 0.  0.
        -13    1    4    4    0    0  0.72764140368E+02 -0.31671123956E+02 -0.13072885318E+03  0.15293041970E+03  0.00000000000E+00 0.  1.
         14    1    4    4    0    0  0.18827838348E+03 -0.93644200146E+02 -0.67629006211E+03  0.70822752984E+03  0.00000000000E+00 0. -1.
        -13    1    3    3    0    0  0.19354933003E+02  0.18369114084E+02 -0.13401650109E+02  0.29860375239E+02  0.00000000000E+00 0.  1.
         13    1    3    3    0    0 -0.21477843238E+02  0.94411516012E+02 -0.32683329251E+03  0.34087363231E+03  0.00000000000E+00 0. -1.
          1    1    1    2  501    0 -0.25891961361E+03  0.12534694005E+02 -0.13934550533E+03  0.29430197879E+03  0.00000000000E+00 0. -1.
<scales pt_clust_5="13000.00000" pt_clust_6="13000.00000" pt_clust_7="13000.00000" pt_clust_8="13000.00000" pt_clust_9="261.81723"></scales>
<clustering>
<clus scale="   80.414">  5  6 -1 -1</clus>
<clus scale="   94.657">  7  8 -1 -1</clus>
<clus scale="  147.255">  2  7  1 -1</clus>
<clus scale="  261.817">  1  9  2 -1</clus>
<clus scale="  261.817">  1  5  2 -1</clus>
</clustering>
</event>
<event>
 9    2  0.1302972E-004  0.2778545E+03  0.7546771E-02  0.1097264E+00
         21   -1    0    0  501  502  0.00000000000E+00  0.00000000000E+00  0.29150413031E+03  0.29150413031E+03  0.00000000000E+00 0.  1.
         -3   -1    0    0    0  501 -0.00000000000E+00 -0.00000000000E+00 -0.32479716335E+03  0.32479716335E+03  0.00000000000E+00 0.  1.
         24    2    1    2    0    0 -0.89610618638E+02  0.23932701621E+03 -0.60967856902E+02  0.27493923132E+03  0.81037137686E+02 0.  0.
         23    2    1    2    0    0  0.57026981613E+02 -0.27007023199E+03  0.43905390292E+02  0.29371471189E+03  0.90280905205E+02 0.  0.
        -11    1    3    3    0    0 -0.39264823704E+02  0.14393266731E+03  0.35821303723E+01  0.14923528657E+03  0.00000000000E+00 0.  1.
         12    1    3    3    0    0 -0.50345794934E+02  0.95394348906E+02 -0.64549987275E+02  0.12570394476E+03  0.00000000000E+00 0. -1.
        -11    1    4    4    0    0 -0.22721836939E+02 -0.46291304408E+02  0.18545152074E+02  0.54800450756E+02  0.00000000000E+00 0. -1.
         11    1    4    4    0    0  0.79748818552E+02 -0.22377892758E+03  0.25360238218E+02  0.23891426113E+03  0.00000000000E+00 0.  1.
         -4    1    1    2    0  502  0.32583637025E+02  0.30743215777E+02 -0.16230566430E+02  0.47647350448E+02  0.00000000000E+00 0.  1.
<scales pt_clust_5="13000.00000" pt_clust_6="13000.00000" pt_clust_7="13000.00000" pt_clust_8="13000.00000" pt_clust_9="44.79778"></scales>
<clustering>
<clus scale="   44.798">  1  9  2 -1</clus>
<clus scale="   81.037">  5  6 -1 -1</clus>
<clus scale="   90.281">  7  8 -1 -1</clus>
<clus scale="  274.990">  2  5  1 -1</clus>
<clus scale="   44.798">  1  5  2 -1</clus>
</clustering>
</event>
<event>
 9    2  0.1302972E-004  0.1554903E+03  0.7546771E-02  0.1193899E+00
          2   -1    0    0  502    0 -0.00000000000E+00  0.00000000000E+00  0.31760900849E+03  0.31760900849E+03  0.00000000000E+00 0. -1.
         21   -1    0    0  501  502  0.00000000000E+00 -0.00000000000E+00 -0.31365191658E+03  0.31365191658E+03  0.00000000000E+00 0. -1.
         24    2    1    2    0    0 -0.84485376495E+02  0.10472915030E+03  0.24459891177E+03  0.29049386048E+03  0.80324850268E+02 0.  0.
         23    2    1    2    0    0  0.13118630885E+03 -0.44988332314E+02 -0.19453866165E+03  0.25202336840E+03  0.80228982736E+02 0.  0.
        -13    1    3    3    0    0 -0.56695352116E+02  0.64108508292E+02  0.74658775299E+02  0.11357022724E+03  0.00000000000E+00 0.  1.
         14    1    3    3    0    0 -0.27790024379E+02  0.40620642011E+02  0.16994013647E+03  0.17692363323E+03  0.00000000000E+00 0. -1.
        -13    1    4    4    0    0  0.10042233999E+03 -0.38540703968E+01 -0.16377322593E+03  0.19214882190E+03  0.00000000000E+00 0. -1.
         13    1    4    4    0    0  0.30763968854E+02 -0.41134261918E+02 -0.30765435722E+02  0.59874546498E+02  0.00000000000E+00 0.  1.
          1    1    1    2  501    0 -0.46700932351E+02 -0.59740817989E+02 -0.46103158211E+02  0.88743696190E+02  0.00000000000E+00 0. -1.
<scales pt_clust_5="13000.00000" pt_clust_6="13000.00000" pt_clust_7="13000.00000" pt_clust_8="13000.00000" pt_clust_9="75.82837"></scales>
<clustering>
<clus scale="   75.828">  2  9  1 -1</clus>
<clus scale="   80.229">  7  8 -1 -1</clus>
<clus scale="   80.325">  5  6 -1 -1</clus>
<clus scale="  155.441">  2  7  1 -1</clus>
<clus scale="   75.828">  2  5  1 -1</clus>
</clustering>
</event>
<event>
 9    2  0.1302972E-004  0.2128903E+03  0.7546771E-02  0.1146312E+00
         21   -1    0    0  501  502  0.00000000000E+00  0.00000000000E+00  0.12079385960E+03  0.12079385960E+03  0.00000000000E+00 0.  1.
          2   -1    0    0  502    0 -0.00000000000E+00 -0.00000000000E+00 -0.11950751842E+04  0.11950751842E+04  0.00000000000E+00 0. -1.
         24    2    1    2    0    0  0.13857113479E+03  0.80217230677E+02 -0.35729429595E+03  0.40003163695E+03  0.82032512750E+02 0.  0.
         23    2    1    2    0    0  0.16048983468E+03 -0.62882500221E+02 -0.79422491694E+02  0.21140395001E+03  0.93126269253E+02 0.  0.
        -11    1    3    3    0    0  0.21861916248E+02  0.50806156887E+02 -0.15581271840E+03  0.16533847760E+03  0.00000000000E+00 0.  1.
         12    1    3    3    0    0  0.11670921854E+03  0.29411073790E+02 -0.20148157756E+03  0.23469315936E+03  0.00000000000E+00 0. -1.
        -11    1    4    4    0    0  0.81489593562E+02  0.17312922579E+02 -0.35830227775E+02  0.90686803724E+02  0.00000000000E+00 0.  1.
         11    1    4    4    0    0  0.79000241114E+02 -0.80195422800E+02 -0.43592263920E+02  0.12071714629E+03  0.00000000000E+00 0. -1.
          1    1    1    2  501    0 -0.29906096947E+03 -0.17334730456E+02 -0.63756453691E+03  0.70443345680E+03  0.00000000000E+00 0. -1.
<scales pt_clust_5="13000.00000" pt_clust_6="13000.00000" pt_clust_7="13000.00000" pt_clust_8="13000.00000" pt_clust_9="191.44144"></scales>
<clustering>
<clus scale="   82.033">  5  6 -1 -1</clus>
<clus scale="   93.126">  7  8 -1 -1</clus>
<clus scale="  179.906">  2  5  1 -1</clus>
<clus scale="  191.441">  1  9  2 -1</clus>
<clus scale="  191.441">  1  5  2 -1</clus>
</clustering>
</event>
<event>
 9    2  0.1302972E-004  0.1474155E+03  0.7546771E-02  0.1209317E+00
         21   -1    0    0  501  502  0.00000000000E+00  0.00000000000E+00  0.12597571117E+03  0.12597571117E+03  0.00000000000E+00 0.  1.
          2   -1    0    0  502    0 -0.00000000000E+00 -0.00000000000E+00 -0.72780510842E+03  0.72780510842E+03  0.00000000000E+00 0. -1.
         23    2    1    2    0    0 -0.92607190902E+02 -0.41038758132E+01 -0.36194041053E+03  0.38820220581E+03  0.10539050345E+03 0.  0.
         24    2    1    2    0    0  0.18167015750E+03  0.48016609920E+02  0.17535085273E+01  0.20432847360E+03  0.80233467947E+02 0.  0.
        -11    1    4    4    0    0  0.17362995150E+03  0.37203619704E+02 -0.20047797375E+02  0.17869914257E+03  0.00000000000E+00 0.  1.
         12    1    4    4    0    0  0.80402059975E+01  0.10812990216E+02  0.21801305902E+02  0.25629331028E+02  0.00000000000E+00 0. -1.
        -11    1    3    3    0    0 -0.11639205308E+03 -0.30089850967E+01 -0.30622151354E+03  0.32760918694E+03  0.00000000000E+00 0.  1.
         11    1    3    3    0    0  0.23784862175E+02 -0.10948907164E+01 -0.55718896987E+02  0.60593018871E+02  0.00000000000E+00 0. -1.
          1    1    1    2  501    0 -0.89062966594E+02 -0.43912734107E+02 -0.24164249525E+03  0.26125014018E+03  0.00000000000E+00 0. -1.
<scales pt_clust_5="13000.00000" pt_clust_6="13000.00000" pt_clust_7="13000.00000" pt_clust_8="13000.00000" pt_clust_9="99.30030"></scales>
<clustering>
<clus scale="   80.233">  5  6 -1 -1</clus>
<clus scale="   99.300">  1  9  2 -1</clus>
<clus scale="  105.391">  7  8 -1 -1</clus>
<clus scale="  130.620">  1  5  2 -1</clus>
<clus scale="   99.300">  1  5  2 -1</clus>
</clustering>
</event>
<event>
 9    2  0.1302972E-004  0.1112375E+03  0.7546771E-02  0.1261642E+00
         -1   -1    0    0    0  501 -0.00000000000E+00  0.00000000000E+00  0.42576722858E+02  0.42576722858E+02  0.00000000000E+00 0.  1.
         21   -1    0    0  501  502  0.00000000000E+00 -0.00000000000E+00 -0.56955371596E+03  0.56955371596E+03  0.00000000000E+00 0.  1.
         23    2    1    2    0    0  0.52447269064E+02  0.18025204421E+00 -0.80564345578E+02  0.13222715050E+03  0.90789079893E+02 0.  0.
         24    2    1    2    0    0 -0.94094534373E+02  0.23298990419E+01 -0.25383769933E+03  0.28286038376E+03  0.81958582649E+02 0.  0.
        -11    1    4    4    0    0 -0.79507004271E+02  0.32438266166E+02 -0.21549520172E+03  0.23197367696E+03  0.00000000000E+00 0.  1.
         12    1    4    4    0    0 -0.14587530102E+02 -0.30108367125E+02 -0.38342497617E+02  0.50886706799E+02  0.00000000000E+00 0. -1.
        -13    1    3    3    0    0  0.31174525700E+02  0.45281206968E+02 -0.41405323903E+02  0.68823249013E+02  0.00000000000E+00 0.  1.
         13    1    3    3    0    0  0.21272743364E+02 -0.45100954924E+02 -0.39159021674E+02  0.63403901487E+02  0.00000000000E+00 0. -1.
         -2    1    1    2    0  502  0.41647265309E+02 -0.25101510861E+01 -0.19257494819E+03  0.19704290456E+03  0.00000000000E+00 0.  1.
<scales pt_clust_5="13000.00000" pt_clust_6="13000.00000" pt_clust_7="13000.00000" pt_clust_8="13000.00000" pt_clust_9="41.72284"></scales>
<clustering>
<clus scale="   41.723">  2  9  1 -1</clus>
<clus scale="   81.959">  5  6 -1 -1</clus>
<clus scale="   90.789">  7  8 -1 -1</clus>
<clus scale="  104.155">  2  5  1 -1</clus>
<clus scale="   41.723">  2  5  1 -1</clus>
</clustering>
</event>
<event>
 9    2  0.1302972E-004  0.1526895E+03  0.7546771E-02  0.1202751E+00
          2   -1    0    0  502    0 -0.00000000000E+00  0.00000000000E+00  0.28689504904E+03  0.28689504904E+03  0.00000000000E+00 0. -1.
         21   -1    0    0  501  502  0.00000000000E+00 -0.00000000000E+00 -0.22490369802E+03  0.22490369802E+03  0.00000000000E+00 0. -1.
         23    2    1    2    0    0  0.10010085073E+03  0.24035202813E+02  0.11361983211E+03  0.17673067639E+03  0.87899911464E+02 0.  0.
         24    2    1    2    0    0 -0.13027370345E+01 -0.12811041663E+03  0.52104082337E+02  0.15799982925E+03  0.76388053210E+02 0.  0.
        -11    1    4    4    0    0 -0.35634722466E+02 -0.58237962841E+02  0.40235491554E+02  0.79248902463E+02  0.00000000000E+00 0.  1.
         12    1    4    4    0    0  0.34331985431E+02 -0.69872453793E+02  0.11868590784E+02  0.78750926788E+02  0.00000000000E+00 0. -1.
        -13    1    3    3    0    0  0.56634219797E+02  0.19669850682E+02  0.56025650107E+01  0.60214006780E+02  0.00000000000E+00 0.  1.
         13    1    3    3    0    0  0.43466630935E+02  0.43653521307E+01  0.10801726710E+03  0.11651666961E+03  0.00000000000E+00 0. -1.
          1    1    1    2  501    0 -0.98798113698E+02  0.10407521382E+03 -0.10373256343E+03  0.17706824141E+03  0.00000000000E+00 0. -1.
<scales pt_clust_5="13000.00000" pt_clust_6="13000.00000" pt_clust_7="13000.00000" pt_clust_8="13000.00000" pt_clust_9="132.20800"></scales>
<clustering>
<clus scale="   76.388">  5  6 -1 -1</clus>
<clus scale="   87.900">  7  8 -1 -1</clus>
<clus scale="  135.367">  1  7  2 -1</clus>
<clus scale="  132.208">  2  9  1 -1</clus>
<clus scale="  132.208">  2  5  1 -1</clus>
</clustering>
</event>
<event>
 9    2  0.1302972E-004  0.9644351E+02  0.7546771E-02  0.1294744E+00
          2   -1    0    0  502    0 -0.00000000000E+00  0.00000000000E+00  0.10592863300E+04  0.10592863300E+04  0.00000000000E+00 0. -1.
         21   -1    0    0  501  502  0.00000000000E+00 -0.00000000000E+00 -0.17740586903E+02  0.17740586903E+02  0.00000000000E+00 0.  1.
         24    2    1    2    0    0  0.11204240806E+02 -0.38700181154E+02  0.55352564837E+03  0.56070304048E+03  0.79837442104E+02 0.  0.
         23    2    1    2    0    0  0.29643394776E+02 -0.17087754652E+01  0.19395966828E+03  0.21670253621E+03  0.91967306777E+02 0.  0.
        -13    1    3    3    0    0 -0.17135013729E+02 -0.50714002684E+02  0.25275055819E+03  0.25835704641E+03  0.00000000000E+00 0.  1.
         14    1    3    3    0    0  0.28339254535E+02  0.12013821530E+02  0.30077509018E+03  0.30234599407E+03  0.00000000000E+00 0. -1.
        -13    1    4    4    0    0  0.54225436013E+02 -0.15327884738E+02  0.17212580220E+03  0.18111497383E+03  0.00000000000E+00 0. -1.
         13    1    4    4    0    0 -0.24582041238E+02  0.13619109272E+02  0.21833866079E+02  0.35587562388E+02  0.00000000000E+00 0.  1.
          1    1    1    2  501    0 -0.40847635582E+02  0.40408956619E+02  0.29406042647E+03  0.29962134023E+03  0.00000000000E+00 0. -1.
<scales pt_clust_5="13000.00000" pt_clust_6="13000.00000" pt_clust_7="13000.00000" pt_clust_8="13000.00000" pt_clust_9="57.45795"></scales>
<clustering>
<clus scale="   57.458">  2  9  1 -1</clus>
<clus scale="   79.837">  5  6 -1 -1</clus>
<clus scale="   84.955">  1  5  2 -1</clus>
<clus scale="   91.967">  7  8 -1 -1</clus>
<clus scale="   57.458">  2  5  1 -1</clus>
</clustering>
</event>
<event>
 9    2  0.1302972E-004  0.1304847E+03  0.7546771E-02  0.1229397E+00
          2   -1    0    0  502    0 -0.00000000000E+00  0.00000000000E+00  0.47397062261E+03  0.47397062261E+03  0.00000000000E+00 0. -1.
         21   -1    0    0  501  502  0.00000000000E+00 -0.00000000000E+00 -0.10182326945E+03  0.10182326945E+03  0.00000000000E+00 0. -1.
         24    2    1    2    0    0 -0.29499271275E+02 -0.88920830278E+02  0.35691572685E+03  0.38038213925E+03  0.92328840165E+02 0.  0.
         23    2    1    2    0    0  0.34645226992E+02  0.84088602291E+01 -0.16286440847E+02  0.10879739639E+03  0.10149199289E+03 0.  0.
        -13    1    3    3    0    0  0.39501848214E+01 -0.47076640035E+02  0.49852838054E+02  0.68681289004E+02  0.00000000000E+00 0.  1.
         14    1    3    3    0    0 -0.33449456096E+02 -0.41844190243E+02  0.30706288879E+03  0.31170085025E+03  0.00000000000E+00 0. -1.
        -11    1    4    4    0    0  0.52105070917E+02  0.43823809014E+02 -0.10647225501E+02  0.68911741108E+02  0.00000000000E+00 0.  1.
         11    1    4    4    0    0 -0.17459843925E+02 -0.35414948784E+02 -0.56392153461E+01  0.39885655279E+02  0.00000000000E+00 0. -1.
          1    1    1    2  501    0 -0.51459557169E+01  0.80511970049E+02  0.31518067164E+02  0.86614356426E+02  0.00000000000E+00 0. -1.
<scales pt_clust_5="13000.00000" pt_clust_6="13000.00000" pt_clust_7="13000.00000" pt_clust_8="13000.00000" pt_clust_9="80.67626"></scales>
<clustering>
<clus scale="   80.676">  2  9  1 -1</clus>
<clus scale="   92.329">  5  6 -1 -1</clus>
<clus scale="  101.492">  7  8 -1 -1</clus>
<clus scale="  123.492">  1  5  2 -1</clus>
<clus scale="   80.676">  2  5  1 -1</clus>
</clustering>
</event>
<event>
 9    2  0.1302972E-004  0.1894566E+03  0.7546771E-02  0.1161415E+00
         21   -1    0    0  501  502  0.00000000000E+00  0.00000000000E+00  0.20889240314E+03  0.20889240314E+03  0.00000000000E+00 0. -1.
          4   -1    0    0  502    0 -0.00000000000E+00 -0.00000000000E+00 -0.34376416675E+03  0.34376416675E+03  0.00000000000E+00 0. -1.
         23    2    1    2    0    0 -0.76874259465E+01 -0.13171938092E+03 -0.80642978828E+02  0.18459773856E+03  0.10081638368E+03 0.  0.
         24    2    1    2    0    0  0.38118966297E+02  0.22899414153E+03  0.13532636897E+02  0.24566574343E+03  0.79228484702E+02 0.  0.
        -13    1    4    4    0    0 -0.16009343336E+02  0.35224874984E+02 -0.16840885019E+02  0.42198415846E+02  0.00000000000E+00 0.  1.
         14    1    4    4    0    0  0.54128309634E+02  0.19376926654E+03  0.30373521916E+02  0.20346732758E+03  0.00000000000E+00 0. -1.
        -11    1    3    3    0    0  0.23799556156E+02  0.98982938440E+00 -0.31779550114E+02  0.39715720324E+02  0.00000000000E+00 0.  1.
         11    1    3    3    0    0 -0.31486982102E+02 -0.13270921030E+03 -0.48863428714E+02  0.14488201823E+03  0.00000000000E+00 0. -1.
          3    1    1    2  501    0 -0.30431540351E+02 -0.97274760610E+02 -0.67761421679E+02  0.12239308791E+03  0.00000000000E+00 0. -1.
<scales pt_clust_5="13000.00000" pt_clust_6="13000.00000" pt_clust_7="13000.00000" pt_clust_8="13000.00000" pt_clust_9="101.92383"></scales>
<clustering>
<clus scale="   79.228">  5  6 -1 -1</clus>
<clus scale="  100.816">  7  8 -1 -1</clus>
<clus scale="  101.924">  1  9  2 -1</clus>
<clus scale="  178.905">  1  5  2 -1</clus>
<clus scale="  101.924">  1  5  2 -1</clus>
</clustering>
</event>
<event>
 9    2  0.1302972E-004  0.1294729E+03  0.7546771E-02  0.1233257E+00
         21   -1    0    0  501  502  0.00000000000E+00  0.00000000000E+00  0.59432807229E+02  0.59432807229E+02  0.00000000000E+00 0.  1.
          2   -1    0    0  502    0 -0.00000000000E+00 -0.00000000000E+00 -0.13603684383E+04  0.13603684383E+04  0.00000000000E+00 0. -1.
         24    2    1    2    0    0  0.65175533147E+02  0.58809801230E+02 -0.10281354820E+04  0.10348551878E+04  0.78461758060E+02 0.  0.
         23    2    1    2    0    0 -0.11509049837E+03  0.29992882384E+02 -0.95401074844E+02  0.18037858255E+03  0.96382945341E+02 0.  0.
        -13    1    3    3    0    0  0.28027717087E+02 -0.14899865923E+02 -0.18650811513E+03  0.18918994672E+03  0.00000000000E+00 0.  1.
         14    1    3    3    0    0  0.37147816060E+02  0.73709667154E+02 -0.84162736687E+03  0.84566524106E+03  0.00000000000E+00 0. -1.
        -13    1    4    4    0    0 -0.10465279463E+03  0.55378361327E+02 -0.52662057812E+02  0.12958496310E+03  0.00000000000E+00 0.  1.
         13    1    4    4    0    0 -0.10437703741E+02 -0.25385478943E+02 -0.42739017032E+02  0.50793619456E+02  0.00000000000E+00 0. -1.
          1    1    1    2  501    0  0.49914965227E+02 -0.88802683614E+02 -0.17739907418E+03  0.20456747515E+03  0.00000000000E+00 0. -1.
<scales pt_clust_5="13000.00000" pt_clust_6="13000.00000" pt_clust_7="13000.00000" pt_clust_8="13000.00000" pt_clust_9="101.86962"></scales>
<clustering>
<clus scale="   78.462">  5  6 -1 -1</clus>
<clus scale="   96.383">  7  8 -1 -1</clus>
<clus scale="  101.870">  1  9  2 -1</clus>
<clus scale="  116.747">  2  5  1 -1</clus>
<clus scale="  101.870">  1  5  2 -1</clus>
</clustering>
</event>
<event>
 9    2  0.1302972E-004  0.1308948E+03  0.7546771E-02  0.1227979E+00
         21   -1    0    0  501  502  0.00000000000E+00  0.00000000000E+00  0.44998583076E+03  0.44998583076E+03  0.00000000000E+00 0. -1.
          2   -1    0    0  502    0 -0.00000000000E+00 -0.00000000000E+00 -0.11104515172E+03  0.11104515172E+03  0.00000000000E+00 0. -1.
         24    2    1    2    0    0  0.86373273073E+02  0.41221890624E+02 -0.41321974650E+02  0.13152435766E+03  0.80197035481E+02 0.  0.
         23    2    1    2    0    0 -0.11706662972E+03 -0.13940399457E+01  0.31326161088E+03  0.34573622689E+03  0.87716375853E+02 0.  0.
        -11    1    3    3    0    0  0.14794890759E+01  0.23591537298E+02  0.15126201689E+02  0.28063347939E+02  0.00000000000E+00 0.  1.
         12    1    3    3    0    0  0.84893783998E+02  0.17630353326E+02 -0.56448176339E+02  0.10346100972E+03  0.00000000000E+00 0. -1.
        -13    1    4    4    0    0 -0.10106877765E+03 -0.16059208763E+02  0.30630161054E+03  0.32294499937E+03  0.00000000000E+00 0. -1.
         13    1    4    4    0    0 -0.15997852066E+02  0.14665168817E+02  0.69600003476E+01  0.22791227523E+02  0.00000000000E+00 0.  1.
          1    1    1    2  501    0  0.30693356647E+02 -0.39827850678E+02  0.67001042803E+02  0.83770397925E+02  0.00000000000E+00 0. -1.
<scales pt_clust_5="13000.00000" pt_clust_6="13000.00000" pt_clust_7="13000.00000" pt_clust_8="13000.00000" pt_clust_9="50.28260"></scales>
<clustering>
<clus scale="   50.283">  1  9  2 -1</clus>
<clus scale="   80.197">  5  6 -1 -1</clus>
<clus scale="   87.716">  7  8 -1 -1</clus>
<clus scale="  125.980">  2  5  1 -1</clus>
<clus scale="   50.283">  1  5  2 -1</clus>
</clustering>
</event>
<event>
 9    2  0.1302972E-004  0.1915995E+03  0.7546771E-02  0.1157202E+00
         21   -1    0    0  501  502  0.00000000000E+00  0.00000000000E+00  0.39390873704E+02  0.39390873704E+02  0.00000000000E+00 0.  1.
          2   -1    0    0  502    0 -0.00000000000E+00 -0.00000000000E+00 -0.12338703280E+04  0.12338703280E+04  0.00000000000E+00 0. -1.
         23    2    1    2    0    0  0.10481356043E+03 -0.12712576395E+03 -0.54981380446E+03  0.58110130899E+03  0.90756098538E+02 0.  0.
         24    2    1    2    0    0 -0.78000763988E+02  0.15887046869E+03 -0.42926700696E+03  0.47278982255E+03  0.89084836195E+02 0.  0.
        -11    1    4    4    0    0 -0.35466086843E+02  0.14643153639E+03 -0.29251718582E+03  0.32903851168E+03  0.00000000000E+00 0.  1.
         12    1    4    4    0    0 -0.42534677146E+02  0.12438932295E+02 -0.13674982114E+03  0.14375131087E+03  0.00000000000E+00 0. -1.
        -13    1    3    3    0    0  0.81929096337E+02 -0.42895973626E+02 -0.36769999206E+03  0.37915132275E+03  0.00000000000E+00 0. -1.
         13    1    3    3    0    0  0.22884464089E+02 -0.84229790329E+02 -0.18211381240E+03  0.20194998624E+03  0.00000000000E+00 0.  1.
          1    1    1    2  501    0 -0.26812796438E+02 -0.31744704730E+02 -0.21539864285E+03  0.21937007014E+03  0.00000000000E+00 0. -1.
<scales pt_clust_5="13000.00000" pt_clust_6="13000.00000" pt_clust_7="13000.00000" pt_clust_8="13000.00000" pt_clust_9="41.55303"></scales>
<clustering>
<clus scale="   41.553">  1  9  2 -1</clus>
<clus scale="   89.085">  5  6 -1 -1</clus>
<clus scale="   90.756">  7  8 -1 -1</clus>
<clus scale="  190.814">  1  5  2 -1</clus>
<clus scale="   41.553">  1  5  2 -1</clus>
</clustering>
</event>
<event>
 9    2  0.1302972E-004  0.1075274E+03  0.7546771E-02  0.1269535E+00
         21   -1    0    0  501  502  0.00000000000E+00  0.00000000000E+00  0.63419845499E+02  0.63419845499E+02  0.00000000000E+00 0.  1.
          2   -1    0    0  502    0 -0.00000000000E+00 -0.00000000000E+00 -0.42246622124E+03  0.42246622124E+03  0.00000000000E+00 0. -1.
         23    2    1    2    0    0 -0.50533530959E+02 -0.23022122848E+02 -0.19817603745E+03  0.22473670618E+03  0.90272860800E+02 0.  0.
         24    2    1    2    0    0  0.69444298013E+02  0.13176427037E+02 -0.80939957326E+01  0.10689254325E+03  0.79777028527E+02 0.  0.
        -13    1    4    4    0    0  0.12885211407E+02  0.17541062155E+02  0.31087496733E+02  0.37949308132E+02  0.00000000000E+00 0.  1.
         14    1    4    4    0    0  0.56559086606E+02 -0.43646351181E+01 -0.39181492466E+02  0.68943235123E+02  0.00000000000E+00 0. -1.
        -11    1    3    3    0    0 -0.24322446623E+02  0.31692503889E+02 -0.46076673295E+02  0.60984063774E+02  0.00000000000E+00 0.  1.
         11    1    3    3    0    0 -0.26211084336E+02 -0.54714626737E+02 -0.15209936415E+03  0.16375264241E+03  0.00000000000E+00 0. -1.
          1    1    1    2  501    0 -0.18910767054E+02  0.98456958114E+01 -0.15277634256E+03  0.15425681730E+03  0.00000000000E+00 0. -1.
<scales pt_clust_5="13000.00000" pt_clust_6="13000.00000" pt_clust_7="13000.00000" pt_clust_8="13000.00000" pt_clust_9="21.32030"></scales>
<clustering>
<clus scale="   21.320">  1  9  2 -1</clus>
<clus scale="   79.777">  5  6 -1 -1</clus>
<clus scale="   90.273">  7  8 -1 -1</clus>
<clus scale="   98.880">  1  5  2 -1</clus>
<clus scale="   21.320">  1  5  2 -1</clus>
</clustering>
</event>
<event>
 9    2  0.1302972E-004  0.2165082E+03  0.7546771E-02  0.1136987E+00
          2   -1    0    0  502    0 -0.00000000000E+00  0.00000000000E+00  0.14233994282E+04  0.14233994282E+04  0.00000000000E+00 0. -1.
         21   -1    0    0  501  502  0.00000000000E+00 -0.00000000000E+00 -0.13727314066E+03  0.13727314066E+03  0.00000000000E+00 0. -1.
         24    2    1    2    0    0 -0.15323539385E+03 -0.67583077896E+02  0.50249874350E+03  0.53595288382E+03  0.81804328174E+02 0.  0.
         23    2    1    2    0    0  0.15848955610E+03  0.18453897775E+03  0.85112995825E+03  0.88957951831E+03  0.88067814012E+02 0.  0.
        -11    1    3    3    0    0 -0.65590081706E+02 -0.23520497305E+02  0.10140793312E+03  0.12303999964E+03  0.00000000000E+00 0.  1.
         12    1    3    3    0    0 -0.87645312148E+02 -0.44062580590E+02  0.40109081038E+03  0.41291288418E+03  0.00000000000E+00 0. -1.
        -11    1    4    4    0    0  0.11212787493E+03  0.72473384202E+02  0.52243280924E+03  0.53922267379E+03  0.00000000000E+00 0.  1.
         11    1    4    4    0    0  0.46361681172E+02  0.11206559355E+03  0.32869714901E+03  0.35035684452E+03  0.00000000000E+00 0. -1.
          1    1    1    2  501    0 -0.52541622442E+01 -0.11695589985E+03 -0.67502414223E+02  0.13514016671E+03  0.00000000000E+00 0. -1.
<scales pt_clust_5="13000.00000" pt_clust_6="13000.00000" pt_clust_7="13000.00000" pt_clust_8="13000.00000" pt_clust_9="117.07386"></scales>
<clustering>
<clus scale="   81.804">  5  6 -1 -1</clus>
<clus scale="   88.068">  7  8 -1 -1</clus>
<clus scale="  117.074">  2  9  1 -1</clus>
<clus scale="  214.037">  1  5  2 -1</clus>
<clus scale="  117.074">  2  5  1 -1</clus>
</clustering>
</event>
<event>
 9    2  0.1302972E-004  0.9495011E+02  0.7546771E-02  0.1297657E+00
         21   -1    0    0  501  502  0.00000000000E+00  0.00000000000E+00  0.40833038441E+02  0.40833038441E+02  0.00000000000E+00 0.  1.
          2   -1    0    0  502    0 -0.00000000000E+00 -0.00000000000E+00 -0.35318479276E+03  0.35318479276E+03  0.00000000000E+00 0. -1.
         23    2    1    2    0    0 -0.32449733275E+02  0.17239672245E+02 -0.24296875400E+03  0.26199882792E+03  0.90881125221E+02 0.  0.
         24    2    1    2    0    0  0.31400222790E+01 -0.41981657123E+01 -0.44866490990E+02  0.91643276900E+02  0.79737092071E+02 0.  0.
        -11    1    4    4    0    0  0.17310538320E+02  0.26625237785E+02  0.41544226092E+01  0.32028381965E+02  0.00000000000E+00 0.  1.
         12    1    4    4    0    0 -0.14170516041E+02 -0.30823403497E+02 -0.49020913599E+02  0.59614894935E+02  0.00000000000E+00 0. -1.
        -11    1    3    3    0    0  0.31127622925E+02  0.38663421430E+01 -0.57789383080E+02  0.65753253207E+02  0.00000000000E+00 0.  1.
         11    1    3    3    0    0 -0.63577356200E+02  0.13373330102E+02 -0.18517937092E+03  0.19624557471E+03  0.00000000000E+00 0. -1.
          1    1    1    2  501    0  0.29309710996E+02 -0.13041506533E+02 -0.24516509330E+02  0.40375726384E+02  0.00000000000E+00 0. -1.
<scales pt_clust_5="13000.00000" pt_clust_6="13000.00000" pt_clust_7="13000.00000" pt_clust_8="13000.00000" pt_clust_9="32.08021"></scales>
<clustering>
<clus scale="   32.080">  1  9  2 -1</clus>
<clus scale="   79.737">  5  6 -1 -1</clus>
<clus scale="   84.345">  1  5  2 -1</clus>
<clus scale="   90.881">  7  8 -1 -1</clus>
<clus scale="   32.080">  1  5  2 -1</clus>
</clustering>
</event>
<event>
 9    2  0.1302972E-004  0.1185843E+03  0.7546771E-02  0.1248158E+00
         21   -1    0    0  501  502  0.00000000000E+00  0.00000000000E+00  0.89629754886E+02  0.89629754886E+02  0.00000000000E+00 0. -1.
          2   -1    0    0  502    0 -0.00000000000E+00 -0.00000000000E+00 -0.28340271913E+03  0.28340271913E+03  0.00000000000E+00 0. -1.
         23    2    1    2    0    0  0.37356636976E+02  0.61781495283E+02 -0.14417213177E+03  0.18436182443E+03  0.89393552572E+02 0.  0.
         24    2    1    2    0    0 -0.67931659593E+02 -0.70804921153E+02  0.29616925012E+01  0.12719648221E+03  0.80883411346E+02 0.  0.
        -13    1    4    4    0    0 -0.79649499600E+00 -0.58971312013E+02  0.39335658462E+00  0.58978002460E+02  0.00000000000E+00 0.  1.
         14    1    4    4    0    0 -0.67135164597E+02 -0.11833609140E+02  0.25683359166E+01  0.68218479755E+02  0.00000000000E+00 0. -1.
        -13    1    3    3    0    0 -0.23524639354E+02  0.32560007085E+02 -0.24789237807E+02  0.47202426094E+02  0.00000000000E+00 0.  1.
         13    1    3    3    0    0  0.60881276330E+02  0.29221488197E+02 -0.11938289396E+03  0.13715939833E+03  0.00000000000E+00 0. -1.
          1    1    1    2  501    0  0.30575022616E+02  0.90234258701E+01 -0.52562524974E+02  0.61474167372E+02  0.00000000000E+00 0. -1.
<scales pt_clust_5="13000.00000" pt_clust_6="13000.00000" pt_clust_7="13000.00000" pt_clust_8="13000.00000" pt_clust_9="31.87876"></scales>
<clustering>
<clus scale="   31.879">  1  9  2 -1</clus>
<clus scale="   80.883">  5  6 -1 -1</clus>
<clus scale="   89.394">  7  8 -1 -1</clus>
<clus scale="  112.308">  1  5  2 -1</clus>
<clus scale="   31.879">  1  5  2 -1</clus>
</clustering>
</event>
<event>
 9    2  0.1302972E-004  0.1165091E+03  0.7546771E-02  0.1252201E+00
          2   -1    0    0  502    0 -0.00000000000E+00  0.00000000000E+00  0.86356241334E+03  0.86356241334E+03  0.00000000000E+00 0. -1.
         21   -1    0    0  501  502  0.00000000000E+00 -0.00000000000E+00 -0.28950601035E+02  0.28950601035E+02  0.00000000000E+00 0. -1.
         23    2    1    2    0    0 -0.24654924698E+02 -0.47259650508E+02  0.35668726100E+03  0.37200131108E+03  0.91202156816E+02 0.  0.
         24    2    1    2    0    0  0.76068271943E+02  0.85123689177E+02  0.29348251724E+03  0.32533004015E+03  0.81702035717E+02 0.  0.
        -13    1    4    4    0    0  0.58042071886E+01  0.46678827345E+02  0.18250051924E+03  0.18846496032E+03  0.00000000000E+00 0.  1.
         14    1    4    4    0    0  0.70264064754E+02  0.38444861831E+02  0.11098199800E+03  0.13686507983E+03  0.00000000000E+00 0. -1.
        -11    1    3    3    0    0  0.57137735969E+00 -0.57234513931E+02  0.32623863411E+03  0.33122162134E+03  0.00000000000E+00 0.  1.
         11    1    3    3    0    0 -0.25226302058E+02  0.99748634230E+01  0.30448626889E+02  0.40779689739E+02  0.00000000000E+00 0. -1.
          1    1    1    2  501    0 -0.51413347244E+02 -0.37864038669E+02  0.18444203406E+03  0.19518166314E+03  0.00000000000E+00 0. -1.
<scales pt_clust_5="13000.00000" pt_clust_6="13000.00000" pt_clust_7="13000.00000" pt_clust_8="13000.00000" pt_clust_9="63.85156"></scales>
<clustering>
<clus scale="   63.852">  2  9  1 -1</clus>
<clus scale="   81.702">  5  6 -1 -1</clus>
<clus scale="   91.202">  7  8 -1 -1</clus>
<clus scale="  109.233">  2  5  1 -1</clus>
<clus scale="   63.852">  2  5  1 -1</clus>
</clustering>
</event>
<event>
 9    2  0.1302972E-004  0.1156989E+03  0.7546771E-02  0.1254716E+00
          2   -1    0    0  502    0 -0.00000000000E+00  0.00000000000E+00  0.83641974633E+02  0.83641974633E+02  0.00000000000E+00 0. -1.
         21   -1    0    0  501  502  0.00000000000E+00 -0.00000000000E+00 -0.43277426820E+03  0.43277426820E+03  0.00000000000E+00 0.  1.
         24    2    1    2    0    0 -0.28915414519E+02  0.40514303490E+02 -0.11080614263E+03  0.14515497439E+03  0.79463547368E+02 0.  0.
         23    2    1    2    0    0  0.27363521243E+02 -0.11533167859E+03 -0.25384256179E+03  0.29483609592E+03  0.91881004022E+02 0.  0.
        -13    1    3    3    0    0 -0.15053001513E+02  0.47750661240E+02 -0.11781990123E+03  0.12801659122E+03  0.00000000000E+00 0.  1.
         14    1    3    3    0    0 -0.13862413006E+02 -0.72363577504E+01  0.70137585949E+01  0.17138383164E+02  0.00000000000E+00 0. -1.
        -13    1    4    4    0    0 -0.71524689130E+01 -0.10754015691E+03 -0.14693565347E+03  0.18222549059E+03  0.00000000000E+00 0.  1.
         13    1    4    4    0    0  0.34515990155E+02 -0.77915216787E+01 -0.10690690832E+03  0.11261060533E+03  0.00000000000E+00 0. -1.
          1    1    1    2  501    0  0.15518932766E+01  0.74817375098E+02  0.15516410858E+02  0.76425172523E+02  0.00000000000E+00 0. -1.
<scales pt_clust_5="13000.00000" pt_clust_6="13000.00000" pt_clust_7="13000.00000" pt_clust_8="13000.00000" pt_clust_9="74.83351"></scales>
<clustering>
<clus scale="   74.834">  2  9  1 -1</clus>
<clus scale="   79.464">  5  6 -1 -1</clus>
<clus scale="   91.881">  7  8 -1 -1</clus>
<clus scale="  106.106">  1  5  2 -1</clus>
<clus scale="   74.834">  2  5  1 -1</clus>
</clustering>
</event>
<event>
 9    2  0.1302972E-004  0.3559188E+03  0.7546771E-02  0.1060418E+00
          2   -1    0    0  502    0 -0.00000000000E+00  0.00000000000E+00  0.30020743960E+04  0.30020743960E+04  0.00000000000E+00 0. -1.
         21   -1    0    0  501  502  0.00000000000E+00 -0.00000000000E+00 -0.58076930076E+02  0.58076930076E+02  0.00000000000E+00 0. -1.
         24    2    1    2    0    0  0.29779948276E+03 -0.18812075827E+03  0.21549576731E+04  0.21850488375E+04  0.80758266906E+02 0.  0.
         23    2    1    2    0    0 -0.27003107965E+03  0.17766629186E+03  0.63378172885E+03  0.71703463447E+03  0.89315687167E+02 0.  0.
        -11    1    3    3    0    0  0.11990074616E+03 -0.31519684264E+02  0.69203386534E+03  0.70305088735E+03  0.00000000000E+00 0.  1.
         12    1    3    3    0    0  0.17789873659E+03 -0.15660107401E+03  0.14629238078E+04  0.14819979501E+04  0.00000000000E+00 0. -1.
        -11    1    4    4    0    0 -0.13389733768E+03  0.14075929254E+03  0.36248302223E+03  0.41126100822E+03  0.00000000000E+00 0. -1.
         11    1    4    4    0    0 -0.13613374197E+03  0.36906999313E+02  0.27129870661E+03  0.30577362625E+03  0.00000000000E+00 0.  1.
          1    1    1    2  501    0 -0.27768403105E+02  0.10454466412E+02  0.15525806402E+03  0.15806785417E+03  0.00000000000E+00 0. -1.
<scales pt_clust_5="13000.00000" pt_clust_6="13000.00000" pt_clust_7="13000.00000" pt_clust_8="13000.00000" pt_clust_9="29.67121"></scales>
<clustering>
<clus scale="   29.671">  2  9  1 -1</clus>
<clus scale="   80.758">  5  6 -1 -1</clus>
<clus scale="   89.316">  7  8 -1 -1</clus>
<clus scale="  353.868">  1  5  2 -1</clus>
<clus scale="   29.671">  2  5  1 -1</clus>
</clustering>
</event>
<event>
 9    2  0.1302972E-004  0.1748479E+03  0.7546771E-02  0.1174209E+00
          2   -1    0    0  502    0 -0.00000000000E+00  0.00000000000E+00  0.76623175566E+03  0.76623175566E+03  0.00000000000E+00 0. -1.
         21   -1    0    0  501  502  0.00000000000E+00 -0.00000000000E+00 -0.60148699426E+02  0.60148699426E+02  0.00000000000E+00 0. -1.
         24    2    1    2    0    0 -0.11924115092E+03 -0.13403057404E+03  0.42780378380E+03  0.47091570058E+03  0.81011559470E+02 0.  0.
         23    2    1    2    0    0  0.84130263720E+02  0.69294805744E+02  0.14450444272E+03  0.20275850329E+03  0.91377269121E+02 0.  0.
        -13    1    3    3    0    0 -0.37738345761E+02 -0.48886435706E+02  0.25056748022E+03  0.25806613199E+03  0.00000000000E+00 0.  1.
         14    1    3    3    0    0 -0.81502805161E+02 -0.85144138335E+02  0.17723630358E+03  0.21284956859E+03  0.00000000000E+00 0. -1.
        -11    1    4    4    0    0  0.89121222459E+02  0.18485139554E+02  0.87945301996E+02  0.12656487988E+03  0.00000000000E+00 0.  1.
         11    1    4    4    0    0 -0.49909587395E+01  0.50809666190E+02  0.56559140725E+02  0.76193623402E+02  0.00000000000E+00 0. -1.
          1    1    1    2  501    0  0.35110887202E+02  0.64735768296E+02  0.13377482971E+03  0.15270625121E+03  0.00000000000E+00 0. -1.
<scales pt_clust_5="13000.00000" pt_clust_6="13000.00000" pt_clust_7="13000.00000" pt_clust_8="13000.00000" pt_clust_9="73.64441"></scales>
<clustering>
<clus scale="   73.644">  2  9  1 -1</clus>
<clus scale="   81.012">  5  6 -1 -1</clus>
<clus scale="   91.377">  7  8 -1 -1</clus>
<clus scale="  169.661">  1  5  2 -1</clus>
<clus scale="   73.644">  2  5  1 -1</clus>
</clustering>
</event>
<event>
 9    2  0.1302972E-004  0.1938330E+03  0.7546771E-02  0.1179435E+00
          2   -1    0    0  502    0 -0.00000000000E+00  0.00000000000E+00  0.18069908515E+03  0.18069908515E+03  0.00000000000E+00 0. -1.
         21   -1    0    0  501  502  0.00000000000E+00 -0.00000000000E+00 -0.53650924255E+03  0.53650924255E+03  0.00000000000E+00 0.  1.
         23    2    1    2    0    0  0.21877361400E+02  0.60060965886E+02  0.72275666793E+02  0.13216980616E+03  0.90327997239E+02 0.  0.
         24    2    1    2    0    0 -0.21500552767E+02  0.13381932306E+03 -0.60753082141E+02  0.16967957820E+03  0.82038632817E+02 0.  0.
        -11    1    4    4    0    0 -0.22715592562E+02  0.14008612184E+03 -0.70159757233E+02  0.15831143741E+03  0.00000000000E+00 0.  1.
         12    1    4    4    0    0  0.12150397951E+01 -0.62667987865E+01  0.94066750920E+01  0.11368140790E+02  0.00000000000E+00 0. -1.
        -11    1    3    3    0    0  0.50707699943E+02  0.23066602653E+02  0.63467811705E+02  0.84448221497E+02  0.00000000000E+00 0. -1.
         11    1    3    3    0    0 -0.28830338543E+02  0.36994363233E+02  0.88078550880E+01  0.47721584663E+02  0.00000000000E+00 0.  1.
          1    1    1    2  501    0 -0.37680863290E+00 -0.19388028894E+03 -0.36733274205E+03  0.41535894334E+03  0.00000000000E+00 0. -1.
<scales pt_clust_5="13000.00000" pt_clust_6="13000.00000" pt_clust_7="13000.00000" pt_clust_8="13000.00000" pt_clust_9="175.61581"></scales>
<clustering>
<clus scale="   82.039">  5  6 -1 -1</clus>
<clus scale="   90.328">  7  8 -1 -1</clus>
<clus scale="  110.658">  1  7  2 -1</clus>
<clus scale="  175.616">  2  9  1 -1</clus>
<clus scale="  175.616">  2  5  1 -1</clus>
</clustering>
</event>
<event>
 9    2  0.1302972E-004  0.1467458E+03  0.7546771E-02  0.1229521E+00
          2   -1    0    0  502    0 -0.00000000000E+00  0.00000000000E+00  0.48159409616E+03  0.48159409616E+03  0.00000000000E+00 0. -1.
         21   -1    0    0  501  502  0.00000000000E+00 -0.00000000000E+00 -0.11451032617E+03  0.11451032617E+03  0.00000000000E+00 0. -1.
         24    2    1    2    0    0 -0.24182526458E+02  0.21188308931E+02 -0.36841553715E+02  0.94108486972E+02  0.80407513447E+02 0.  0.
         23    2    1    2    0    0 -0.87520623306E+02  0.28644740298E+02  0.34062036379E+03  0.36426995955E+03  0.90498566565E+02 0.  0.
        -13    1    3    3    0    0 -0.48238454408E+02  0.19176979640E+02 -0.22920685377E+01  0.51961125950E+02  0.00000000000E+00 0.  1.
         14    1    3    3    0    0  0.24055927950E+02  0.20113292905E+01 -0.34549485178E+02  0.42147361022E+02  0.00000000000E+00 0. -1.
        -11    1    4    4    0    0  0.10751377971E+02  0.28653606014E+02  0.90620472797E+02  0.95648791711E+02  0.00000000000E+00 0.  1.
         11    1    4    4    0    0 -0.98272001277E+02 -0.88657160971E-02  0.24999989099E+03  0.26862116783E+03  0.00000000000E+00 0. -1.
          1    1    1    2  501    0  0.11170314976E+03 -0.49833049229E+02  0.63304959923E+02  0.13772597581E+03  0.00000000000E+00 0. -1.
<scales pt_clust_5="13000.00000" pt_clust_6="13000.00000" pt_clust_7="13000.00000" pt_clust_8="13000.00000" pt_clust_9="115.51776"></scales>
<clustering>
<clus scale="   80.408">  5  6 -1 -1</clus>
<clus scale="   86.597">  1  5  2 -1</clus>
<clus scale="   90.499">  7  8 -1 -1</clus>
<clus scale="  115.518">  2  9  1 -1</clus>
<clus scale="  115.518">  2  5  1 -1</clus>
</clustering>
</event>
<event>
 9    2  0.1302972E-004  0.1432392E+03  0.7546771E-02  0.1217972E+00
          4   -1    0    0  502    0 -0.00000000000E+00  0.00000000000E+00  0.50346357140E+03  0.50346357140E+03  0.00000000000E+00 0. -1.
         21   -1    0    0  501  502  0.00000000000E+00 -0.00000000000E+00 -0.20690841777E+03  0.20690841777E+03  0.00000000000E+00 0.  1.
         23    2    1    2    0    0  0.67740293532E+02 -0.37602670749E+02 -0.14208687839E+03  0.18500857458E+03  0.89648108989E+02 0.  0.
         24    2    1    2    0    0  0.91945919312E+02  0.35250916489E+02  0.15775861465E+03  0.20225242520E+03  0.79508388296E+02 0.  0.
        -13    1    4    4    0    0  0.72925307228E+02  0.51111826876E+02  0.15300553468E+03  0.17703449642E+03  0.00000000000E+00 0.  1.
         14    1    4    4    0    0  0.19020612083E+02 -0.15860910387E+02  0.47530799703E+01  0.25217928772E+02  0.00000000000E+00 0. -1.
        -11    1    3    3    0    0  0.55494627929E+02 -0.62646733197E+02 -0.75078103848E+02  0.11243215104E+03  0.00000000000E+00 0. -1.
         11    1    3    3    0    0  0.12245665603E+02  0.25044062449E+02 -0.67008774538E+02  0.72576423549E+02  0.00000000000E+00 0.  1.
          3    1    1    2  501    0 -0.15968621284E+03  0.23517542599E+01  0.28088341736E+03  0.32311098940E+03  0.00000000000E+00 0. -1.
<scales pt_clust_5="13000.00000" pt_clust_6="13000.00000" pt_clust_7="13000.00000" pt_clust_8="13000.00000" pt_clust_9="119.14653"></scales>
<clustering>
<clus scale="   79.508">  5  6 -1 -1</clus>
<clus scale="   89.648">  7  8 -1 -1</clus>
<clus scale="  118.488">  1  7  2 -1</clus>
<clus scale="  119.147">  2  9  1 -1</clus>
<clus scale="  119.147">  2  5  1 -1</clus>
</clustering>
</event>
<event>
 9    2  0.1302972E-004  0.9831028E+02  0.7546771E-02  0.1286553E+00
         -1   -1    0    0    0  501 -0.00000000000E+00  0.00000000000E+00  0.53228101813E+03  0.53228101813E+03  0.00000000000E+00 0.  1.
         21   -1    0    0  501  502  0.00000000000E+00 -0.00000000000E+00 -0.56425509277E+02  0.56425509277E+02  0.00000000000E+00 0.  1.
         24    2    1    2    0    0 -0.20954348876E+02  0.22717270736E+02  0.43979858219E+03  0.45077063508E+03  0.93894693263E+02 0.  0.
         23    2    1    2    0    0  0.21039966802E+02  0.13480792496E+01 -0.37941010869E+01  0.91382129723E+02  0.88835808709E+02 0.  0.
        -13    1    3    3    0    0 -0.27267846313E+02  0.57143423754E+02  0.30496516813E+03  0.31146855394E+03  0.00000000000E+00 0.  1.
         14    1    3    3    0    0  0.63134974367E+01 -0.34426153017E+02  0.13483341406E+03  0.13930208114E+03  0.00000000000E+00 0. -1.
        -13    1    4    4    0    0  0.36840063521E+02  0.30058235545E+02 -0.23610136914E+02  0.53086028006E+02  0.00000000000E+00 0.  1.
         13    1    4    4    0    0 -0.15800096719E+02 -0.28710156295E+02  0.19816035828E+02  0.38296101717E+02  0.00000000000E+00 0. -1.
         -2    1    1    2    0  502 -0.85617925501E-01 -0.24065349986E+02  0.39851027750E+02  0.46553762609E+02  0.00000000000E+00 0.  1.
<scales pt_clust_5="13000.00000" pt_clust_6="13000.00000" pt_clust_7="13000.00000" pt_clust_8="13000.00000" pt_clust_9="24.06551"></scales>
<clustering>
<clus scale="   24.066">  2  9  1 -1</clus>
<clus scale="   88.836">  7  8 -1 -1</clus>
<clus scale="   93.491">  2  7  1 -1</clus>
<clus scale="   93.895">  5  6 -1 -1</clus>
<clus scale="   24.066">  2  5  1 -1</clus>
</clustering>
</event>
<event>
 9    2  0.1302972E-004  0.1288336E+03  0.7546771E-02  0.1248325E+00
         21   -1    0    0  501  502  0.00000000000E+00  0.00000000000E+00  0.81966452891E+02  0.81966452891E+02  0.00000000000E+00 0. -1.
          2   -1    0    0  502    0 -0.00000000000E+00 -0.00000000000E+00 -0.71086266673E+03  0.71086266673E+03  0.00000000000E+00 0. -1.
         24    2    1    2    0    0  0.24498184706E+02  0.18469885772E+02 -0.38704088198E+03  0.39676173158E+03  0.81718600033E+02 0.  0.
         23    2    1    2    0    0 -0.34851026377E+02 -0.10984928712E+03 -0.26432866790E+03  0.30139729163E+03  0.87688213642E+02 0.  0.
        -11    1    3    3    0    0  0.42228698235E+02  0.32646091977E+02 -0.16173543935E+03  0.17031553839E+03  0.00000000000E+00 0.  1.
         12    1    3    3    0    0 -0.17730513529E+02 -0.14176206205E+02 -0.22530544263E+03  0.22644619320E+03  0.00000000000E+00 0. -1.
        -11    1    4    4    0    0 -0.48526902545E+02 -0.81256637332E+02 -0.11595702366E+03  0.14967809698E+03  0.00000000000E+00 0. -1.
         11    1    4    4    0    0  0.13675876168E+02 -0.28592649784E+02 -0.14837164424E+03  0.15171919465E+03  0.00000000000E+00 0.  1.
          1    1    1    2  501    0  0.10352841671E+02  0.91379401344E+02  0.22473336038E+02  0.94670096405E+02  0.00000000000E+00 0. -1.
<scales pt_clust_5="13000.00000" pt_clust_6="13000.00000" pt_clust_7="13000.00000" pt_clust_8="13000.00000" pt_clust_9="94.38679"></scales>
<clustering>
<clus scale="   81.719">  5  6 -1 -1</clus>
<clus scale="   87.288">  2  5  1 -1</clus>
<clus scale="   87.688">  7  8 -1 -1</clus>
<clus scale="   94.387">  1  9  2 -1</clus>
<clus scale="   94.387">  1  5  2 -1</clus>
</clustering>
</event>
<event>
 9    2  0.1302972E-004  0.1523040E+03  0.7546771E-02  0.1202909E+00
         21   -1    0    0  501  502  0.00000000000E+00  0.00000000000E+00  0.45988496389E+03  0.45988496389E+03  0.00000000000E+00 0. -1.
          4   -1    0    0  502    0 -0.00000000000E+00 -0.00000000000E+00 -0.82438904530E+02  0.82438904530E+02  0.00000000000E+00 0. -1.
         24    2    1    2    0    0  0.92848596460E+02  0.68208776958E+02  0.69247033424E+02  0.15632520551E+03  0.79806761128E+02 0.  0.
         23    2    1    2    0    0 -0.36296548311E+02 -0.10558138361E+03  0.26307442127E+03  0.30456724499E+03  0.10530046348E+03 0.  0.
        -13    1    3    3    0    0  0.86766531229E+02  0.39215294094E+02  0.17665453920E+02  0.96841822033E+02  0.00000000000E+00 0.  1.
         14    1    3    3    0    0  0.60820652304E+01  0.28993482864E+02  0.51581579503E+02  0.59483383479E+02  0.00000000000E+00 0. -1.
        -11    1    4    4    0    0  0.33543246384E+02 -0.63438073443E+02  0.11665149205E+03  0.13695659582E+03  0.00000000000E+00 0. -1.
         11    1    4    4    0    0 -0.69839794696E+02 -0.42143310167E+02  0.14642292922E+03  0.16761064917E+03  0.00000000000E+00 0.  1.
          3    1    1    2  501    0 -0.56552048148E+02  0.37372606652E+02  0.45124604665E+02  0.81431417916E+02  0.00000000000E+00 0. -1.
<scales pt_clust_5="13000.00000" pt_clust_6="13000.00000" pt_clust_7="13000.00000" pt_clust_8="13000.00000" pt_clust_9="67.78533"></scales>
<clustering>
<clus scale="   67.785">  1  9  2 -1</clus>
<clus scale="   79.807">  5  6 -1 -1</clus>
<clus scale="  105.300">  7  8 -1 -1</clus>
<clus scale="  135.932">  2  5  1 -1</clus>
<clus scale="   67.785">  1  5  2 -1</clus>
</clustering>
</event>
<event>
 9    2  0.1302972E-004  0.1343505E+03  0.7546771E-02  0.1222640E+00
         21   -1    0    0  501  502  0.00000000000E+00  0.00000000000E+00  0.57388242958E+03  0.57388242958E+03  0.00000000000E+00 0.  1.
         -3   -1    0    0    0  501 -0.00000000000E+00 -0.00000000000E+00 -0.52689373375E+02  0.52689373375E+02  0.00000000000E+00 0.  1.
         23    2    1    2    0    0  0.22511971663E+01  0.76944117662E+02  0.22787523580E+03  0.25640405450E+03  0.88828210271E+02 0.  0.
         24    2    1    2    0    0 -0.53161311823E+02 -0.11913139163E+03  0.23955608051E+03  0.28495078691E+03  0.82410082540E+02 0.  0.
        -13    1    4    4    0    0 -0.73282060966E+02 -0.89727304391E+02  0.15772692609E+03  0.19570138688E+03  0.00000000000E+00 0.  1.
         14    1    4    4    0    0  0.20120749143E+02 -0.29404087237E+02  0.81829154426E+02  0.89249400034E+02  0.00000000000E+00 0. -1.
        -13    1    3    3    0    0 -0.26950609061E+02 -0.56740206402E+01  0.34842577248E+02  0.44413230329E+02  0.00000000000E+00 0. -1.
         13    1    3    3    0    0  0.29201806227E+02  0.82618138302E+02  0.19303265855E+03  0.21199082417E+03  0.00000000000E+00 0.  1.
         -4    1    1    2    0  502  0.50910114657E+02  0.42187273966E+02  0.53761739889E+02  0.85216961545E+02  0.00000000000E+00 0.  1.
<scales pt_clust_5="13000.00000" pt_clust_6="13000.00000" pt_clust_7="13000.00000" pt_clust_8="13000.00000" pt_clust_9="66.11815"></scales>
<clustering>
<clus scale="   66.118">  1  9  2 -1</clus>
<clus scale="   82.410">  5  6 -1 -1</clus>
<clus scale="   88.828">  7  8 -1 -1</clus>
<clus scale="  130.196">  1  5  2 -1</clus>
<clus scale="   66.118">  1  5  2 -1</clus>
</clustering>
</event>
<event>
 9    2  0.1302972E-004  0.8288841E+02  0.7546771E-02  0.1322364E+00
         21   -1    0    0  501  502  0.00000000000E+00  0.00000000000E+00  0.19707305885E+03  0.19707305885E+03  0.00000000000E+00 0.  1.
          4   -1    0    0  502    0 -0.00000000000E+00 -0.00000000000E+00 -0.12144834653E+03  0.12144834653E+03  0.00000000000E+00 0. -1.
         23    2    1    2    0    0 -0.19453741494E+02  0.12306052730E+01 -0.21806043092E+01  0.80807963623E+02  0.78391386659E+02 0.  0.
         24    2    1    2    0    0  0.18296125320E+02  0.36120724000E+02  0.13924791088E+03  0.16579922716E+03  0.80373802573E+02 0.  0.
        -13    1    4    4    0    0 -0.26243140206E+02 -0.38211591389E+01  0.23189082345E+02  0.35228357967E+02  0.00000000000E+00 0.  1.
         14    1    4    4    0    0  0.44539265526E+02  0.39941883139E+02  0.11605882853E+03  0.13057086920E+03  0.00000000000E+00 0. -1.
        -11    1    3    3    0    0 -0.46278852123E+02 -0.13222193867E+02 -0.10414013518E+02  0.49244393001E+02  0.00000000000E+00 0.  1.
         11    1    3    3    0    0  0.26825110629E+02  0.14452799140E+02  0.82334092084E+01  0.31563570622E+02  0.00000000000E+00 0. -1.
          3    1    1    2  501    0  0.11576161746E+01 -0.37351329273E+02 -0.61442594239E+02  0.71914214593E+02  0.00000000000E+00 0. -1.
<scales pt_clust_5="13000.00000" pt_clust_6="13000.00000" pt_clust_7="13000.00000" pt_clust_8="13000.00000" pt_clust_9="37.36928"></scales>
<clustering>
<clus scale="   37.369">  1  9  2 -1</clus>
<clus scale="   78.391">  7  8 -1 -1</clus>
<clus scale="   80.374">  5  6 -1 -1</clus>
<clus scale="   80.968">  2  7  1 -1</clus>
<clus scale="   37.369">  1  5  2 -1</clus>
</clustering>
</event>
<event>
 9    2  0.1302972E-004  0.9704320E+02  0.7546771E-02  0.1288374E+00
         21   -1    0    0  501  502  0.00000000000E+00  0.00000000000E+00  0.20501943501E+03  0.20501943501E+03  0.00000000000E+00 0. -1.
          2   -1    0    0  502    0 -0.00000000000E+00 -0.00000000000E+00 -0.21312606762E+03  0.21312606762E+03  0.00000000000E+00 0. -1.
         23    2    1    2    0    0  0.47283526207E+02  0.12151859946E+01 -0.68405607740E+02  0.12160310353E+03  0.88717411422E+02 0.  0.
         24    2    1    2    0    0  0.18232929410E+02 -0.68521210644E+02  0.13798054629E+03  0.17465337823E+03  0.80234502226E+02 0.  0.
        -11    1    4    4    0    0 -0.23995782539E+02  0.22101905263E+01  0.23906093803E+02  0.33943833648E+02  0.00000000000E+00 0.  1.
         12    1    4    4    0    0  0.42228711949E+02 -0.70731401171E+02  0.11407445249E+03  0.14070954458E+03  0.00000000000E+00 0. -1.
        -11    1    3    3    0    0  0.65541532954E+02  0.14707462330E+02 -0.72167911718E+02  0.98591122683E+02  0.00000000000E+00 0. -1.
         11    1    3    3    0    0 -0.18258006747E+02 -0.13492276336E+02  0.37623039785E+01  0.23011980843E+02  0.00000000000E+00 0.  1.
          1    1    1    2  501    0 -0.65516455617E+02  0.67306024650E+02 -0.77681571169E+02  0.12188902088E+03  0.00000000000E+00 0. -1.
<scales pt_clust_5="13000.00000" pt_clust_6="13000.00000" pt_clust_7="13000.00000" pt_clust_8="13000.00000" pt_clust_9="93.92825"></scales>
<clustering>
<clus scale="   80.235">  5  6 -1 -1</clus>
<clus scale="   88.717">  7  8 -1 -1</clus>
<clus scale="   93.928">  1  9  2 -1</clus>
<clus scale="   93.928">  1  5  2 -1</clus>
<clus scale="   93.928">  1  5  2 -1</clus>
</clustering>
</event>
<event>
 9    2  0.1302972E-004  0.1026649E+03  0.7546771E-02  0.1278036E+00
         21   -1    0    0  501  502  0.00000000000E+00  0.00000000000E+00  0.87241745527E+02  0.87241745527E+02  0.00000000000E+00 0. -1.
          2   -1    0    0  502    0 -0.00000000000E+00 -0.00000000000E+00 -0.66617878533E+03  0.66617878533E+03  0.00000000000E+00 0. -1.
         24    2    1    2    0    0 -0.57800682804E+01 -0.52789195101E+02 -0.58345025863E+03  0.59132746796E+03  0.80211356851E+02 0.  0.
         23    2    1    2    0    0 -0.39051079532E+02  0.64445392539E+02 -0.35978632754E+00  0.11551576228E+03  0.87553220715E+02 0.  0.
        -11    1    3    3    0    0  0.57093406556E+01  0.20156959926E+02 -0.91643109467E+02  0.94007229068E+02  0.00000000000E+00 0.  1.
         12    1    3    3    0    0 -0.11489408936E+02 -0.72946155027E+02 -0.49180714916E+03  0.49732023889E+03  0.00000000000E+00 0. -1.
        -11    1    4    4    0    0  0.18056025270E+02  0.50178462744E+02 -0.13913135850E+02  0.55113278990E+02  0.00000000000E+00 0.  1.
         11    1    4    4    0    0 -0.57107104802E+02  0.14266929796E+02  0.13553349522E+02  0.60402483293E+02  0.00000000000E+00 0. -1.
          1    1    1    2  501    0  0.44831147812E+02 -0.11656197438E+02  0.48730051506E+01  0.46577300610E+02  0.00000000000E+00 0. -1.
<scales pt_clust_5="13000.00000" pt_clust_6="13000.00000" pt_clust_7="13000.00000" pt_clust_8="13000.00000" pt_clust_9="46.32169"></scales>
<clustering>
<clus scale="   46.322">  1  9  2 -1</clus>
<clus scale="   80.211">  5  6 -1 -1</clus>
<clus scale="   87.553">  7  8 -1 -1</clus>
<clus scale="   96.480">  2  5  1 -1</clus>
<clus scale="   46.322">  1  5  2 -1</clus>
</clustering>
</event>
<event>
 9    2  0.1302972E-004  0.1058956E+03  0.7546771E-02  0.1273242E+00
         21   -1    0    0  501  502  0.00000000000E+00  0.00000000000E+00  0.16573097708E+03  0.16573097708E+03  0.00000000000E+00 0. -1.
          2   -1    0    0  502    0 -0.00000000000E+00 -0.00000000000E+00 -0.18212882563E+03  0.18212882563E+03  0.00000000000E+00 0. -1.
         23    2    1    2    0    0 -0.23707937638E+02 -0.58014745647E+02 -0.80232145700E+02  0.13703131193E+03  0.91720260714E+02 0.  0.
         24    2    1    2    0    0 -0.21724012484E+01  0.45181281473E+02 -0.41743925634E+02  0.10136959042E+03  0.80542976182E+02 0.  0.
        -11    1    4    4    0    0 -0.16439752131E+02  0.47104405140E+02  0.71497678963E+01  0.50400492207E+02  0.00000000000E+00 0.  1.
         12    1    4    4    0    0  0.14267350882E+02 -0.19231236671E+01 -0.48893693530E+02  0.50969098215E+02  0.00000000000E+00 0. -1.
        -11    1    3    3    0    0  0.32985588988E+02 -0.62659236461E+01 -0.31958686356E+02  0.46353732467E+02  0.00000000000E+00 0.  1.
         11    1    3    3    0    0 -0.56693526626E+02 -0.51748822000E+02 -0.48273459344E+02  0.90677579460E+02  0.00000000000E+00 0. -1.
          1    1    1    2  501    0  0.25880338887E+02  0.12833464174E+02  0.10557822278E+03  0.10945890037E+03  0.00000000000E+00 0. -1.
<scales pt_clust_5="13000.00000" pt_clust_6="13000.00000" pt_clust_7="13000.00000" pt_clust_8="13000.00000" pt_clust_9="28.88754"></scales>
<clustering>
<clus scale="   28.888">  1  9  2 -1</clus>
<clus scale="   80.543">  5  6 -1 -1</clus>
<clus scale="   91.720">  7  8 -1 -1</clus>
<clus scale="   96.377">  1  5  2 -1</clus>
<clus scale="   28.888">  1  5  2 -1</clus>
</clustering>
</event>
<event>
 9    2  0.1302972E-004  0.1452754E+03  0.7546771E-02  0.1209476E+00
         -1   -1    0    0    0  501 -0.00000000000E+00  0.00000000000E+00  0.32975523398E+03  0.32975523398E+03  0.00000000000E+00 0.  1.
         21   -1    0    0  501  502  0.00000000000E+00 -0.00000000000E+00 -0.10295966182E+03  0.10295966182E+03  0.00000000000E+00 0.  1.
         23    2    1    2    0    0  0.12391796398E+03  0.76838020621E+01  0.94311660278E+02  0.18244583358E+03  0.94747508231E+02 0.  0.
         24    2    1    2    0    0 -0.91935249782E+02  0.40783899363E+02  0.29048198438E+02  0.13164798945E+03  0.79824674712E+02 0.  0.
        -11    1    4    4    0    0 -0.72254065077E+02  0.56066114512E+02 -0.24467737887E+01  0.91487954500E+02  0.00000000000E+00 0.  1.
         12    1    4    4    0    0 -0.19681184705E+02 -0.15282215150E+02  0.31494972226E+02  0.40160034945E+02  0.00000000000E+00 0. -1.
        -13    1    3    3    0    0  0.16960469037E+02  0.38086988978E+02  0.43295965151E+02  0.60106712085E+02  0.00000000000E+00 0.  1.
         13    1    3    3    0    0  0.10695749495E+03 -0.30403186916E+02  0.51015695127E+02  0.12233912150E+03  0.00000000000E+00 0. -1.
         -2    1    1    2    0  502 -0.31982714200E+02 -0.48467701425E+02  0.10343571344E+03  0.11862107277E+03  0.00000000000E+00 0.  1.
<scales pt_clust_5="13000.00000" pt_clust_6="13000.00000" pt_clust_7="13000.00000" pt_clust_8="13000.00000" pt_clust_9="58.06906"></scales>
<clustering>
<clus scale="   58.069">  2  9  1 -1</clus>
<clus scale="   79.825">  5  6 -1 -1</clus>
<clus scale="   94.748">  7  8 -1 -1</clus>
<clus scale="  136.014">  2  5  1 -1</clus>
<clus scale="   58.069">  2  5  1 -1</clus>
</clustering>
</event>
<event>
 9    2  0.1302972E-004  0.1643220E+03  0.7546771E-02  0.1185598E+00
         -3   -1    0    0    0  501 -0.00000000000E+00  0.00000000000E+00  0.17221769746E+03  0.17221769746E+03  0.00000000000E+00 0.  1.
         21   -1    0    0  501  502  0.00000000000E+00 -0.00000000000E+00 -0.22667063725E+03  0.22667063725E+03  0.00000000000E+00 0.  1.
         24    2    1    2    0    0 -0.12081406611E+03 -0.64426797196E+01 -0.47184721443E+01  0.14478522544E+03  0.79391125656E+02 0.  0.
         23    2    1    2    0    0  0.15202667955E+03  0.36891683203E+02  0.87407377237E+01  0.18115985260E+03  0.90936154054E+02 0.  0.
        -11    1    3    3    0    0 -0.36645714577E+02  0.34057646785E+02 -0.10804264129E+02  0.51181674697E+02  0.00000000000E+00 0.  1.
         12    1    3    3    0    0 -0.84168351537E+02 -0.40500326504E+02  0.60857919849E+01  0.93603550742E+02  0.00000000000E+00 0. -1.
        -13    1    4    4    0    0  0.11253145390E+03  0.44684516652E+02  0.42807596758E+02  0.12842322409E+03  0.00000000000E+00 0.  1.
         13    1    4    4    0    0  0.39495225644E+02 -0.77928334483E+01 -0.34066859034E+02  0.52736628507E+02  0.00000000000E+00 0. -1.
         -4    1    1    2    0  502 -0.31212613434E+02 -0.30449003484E+02 -0.58475205372E+02  0.72943256672E+02  0.00000000000E+00 0.  1.
<scales pt_clust_5="13000.00000" pt_clust_6="13000.00000" pt_clust_7="13000.00000" pt_clust_8="13000.00000" pt_clust_9="43.60469"></scales>
<clustering>
<clus scale="   43.605">  2  9  1 -1</clus>
<clus scale="   79.391">  5  6 -1 -1</clus>
<clus scale="   90.936">  7  8 -1 -1</clus>
<clus scale="  158.225">  1  5  2 -1</clus>
<clus scale="   43.605">  2  5  1 -1</clus>
</clustering>
</event>
<event>
 9    2  0.1302972E-004  0.1219195E+03  0.7546771E-02  0.1243123E+00
         21   -1    0    0  501  502  0.00000000000E+00  0.00000000000E+00  0.59887502009E+02  0.59887502009E+02  0.00000000000E+00 0. -1.
         -1   -1    0    0    0  501 -0.00000000000E+00 -0.00000000000E+00 -0.46947664447E+03  0.46947664447E+03  0.00000000000E+00 0.  1.
         23    2    1    2    0    0  0.33005738385E+02 -0.83599428526E+02 -0.31177602787E+03  0.33679881588E+03  0.90282377080E+02 0.  0.
         24    2    1    2    0    0  0.13775550719E+02  0.64736675128E+02 -0.29741809279E+02  0.10784228129E+03  0.79779568254E+02 0.  0.
        -13    1    4    4    0    0 -0.10526255852E+02  0.57479163984E+02 -0.48788214808E+02  0.76124544390E+02  0.00000000000E+00 0.  1.
         14    1    4    4    0    0  0.24301806571E+02  0.72575111441E+01  0.19046405529E+02  0.31717736902E+02  0.00000000000E+00 0. -1.
        -11    1    3    3    0    0  0.53604137099E+02 -0.63675705095E+02 -0.28729178862E+03  0.29910628670E+03  0.00000000000E+00 0.  1.
         11    1    3    3    0    0 -0.20598398713E+02 -0.19923723430E+02 -0.24484239247E+02  0.37692529185E+02  0.00000000000E+00 0. -1.
         -2    1    1    2    0  502 -0.46781289104E+02  0.18862753398E+02 -0.68071305312E+02  0.84723049301E+02  0.00000000000E+00 0.  1.
<scales pt_clust_5="13000.00000" pt_clust_6="13000.00000" pt_clust_7="13000.00000" pt_clust_8="13000.00000" pt_clust_9="50.44101"></scales>
<clustering>
<clus scale="   50.441">  1  9  2 -1</clus>
<clus scale="   79.780">  5  6 -1 -1</clus>
<clus scale="   90.282">  7  8 -1 -1</clus>
<clus scale="  114.360">  1  5  2 -1</clus>
<clus scale="   50.441">  1  5  2 -1</clus>
</clustering>
</event>
<event>
 9    2  0.1302972E-004  0.1187700E+03  0.7546771E-02  0.1255669E+00
          2   -1    0    0  502    0 -0.00000000000E+00  0.00000000000E+00  0.84515257970E+03  0.84515257970E+03  0.00000000000E+00 0. -1.
         21   -1    0    0  501  502  0.00000000000E+00 -0.00000000000E+00 -0.69829716669E+02  0.69829716669E+02  0.00000000000E+00 0.  1.
         23    2    1    2    0    0 -0.12873551117E+02  0.27244869562E+02  0.99919710935E+01  0.96769087658E+02  0.91413377598E+02 0.  0.
         24    2    1    2    0    0 -0.74007479474E+02  0.30102832607E+02  0.12856730238E+03  0.17299623636E+03  0.83754755120E+02 0.  0.
        -13    1    4    4    0    0  0.54190897886E+01  0.35464904026E+02  0.34621900496E+02  0.49857817298E+02  0.00000000000E+00 0.  1.
         14    1    4    4    0    0 -0.79426569263E+02 -0.53620714192E+01  0.93945401881E+02  0.12313841906E+03  0.00000000000E+00 0. -1.
        -11    1    3    3    0    0  0.24566065783E+02 -0.22916395471E+02  0.51669615561E+01  0.33990443674E+02  0.00000000000E+00 0. -1.
         11    1    3    3    0    0 -0.37439616901E+02  0.50161265033E+02  0.48250095375E+01  0.62778643984E+02  0.00000000000E+00 0.  1.
          1    1    1    2  501    0  0.86881030591E+02 -0.57347702169E+02  0.63676358956E+03  0.64521697236E+03  0.00000000000E+00 0. -1.
<scales pt_clust_5="13000.00000" pt_clust_6="13000.00000" pt_clust_7="13000.00000" pt_clust_8="13000.00000" pt_clust_9="84.21085"></scales>
<clustering>
<clus scale="   83.755">  5  6 -1 -1</clus>
<clus scale="   91.413">  7  8 -1 -1</clus>
<clus scale="   96.252">  1  7  2 -1</clus>
<clus scale="   84.211">  2  9  1 -1</clus>
<clus scale="   84.211">  2  5  1 -1</clus>
</clustering>
</event>
<event>
 9    2  0.1302972E-004  0.1549335E+03  0.7546771E-02  0.1196502E+00
         21   -1    0    0  501  502  0.00000000000E+00  0.00000000000E+00  0.70849401990E+03  0.70849401990E+03  0.00000000000E+00 0. -1.
          2   -1    0    0  502    0 -0.00000000000E+00 -0.00000000000E+00 -0.90671669139E+02  0.90671669139E+02  0.00000000000E+00 0. -1.
         23    2    1    2    0    0 -0.27628959551E+01 -0.13176617836E+03  0.26676595824E+02  0.16196279838E+03  0.90279277472E+02 0.  0.
         24    2    1    2    0    0  0.53326181186E+02  0.89418522315E+02  0.53474170912E+03  0.55041933133E+03  0.78570930346E+02 0.  0.
        -11    1    4    4    0    0  0.39834582454E+02  0.10220348404E+03  0.41539754674E+03  0.42963643694E+03  0.00000000000E+00 0.  1.
         12    1    4    4    0    0  0.13491598733E+02 -0.12784961726E+02  0.11934416238E+03  0.12078289439E+03  0.00000000000E+00 0. -1.
        -13    1    3    3    0    0  0.34368208116E+02 -0.54074794531E+02 -0.15735233422E+02  0.65976167693E+02  0.00000000000E+00 0.  1.
         13    1    3    3    0    0 -0.37131104071E+02 -0.77691383825E+02  0.42411829246E+02  0.95986630685E+02  0.00000000000E+00 0. -1.
          1    1    1    2  501    0 -0.50563285231E+02  0.42347656041E+02  0.56404045814E+02  0.86783559329E+02  0.00000000000E+00 0. -1.
<scales pt_clust_5="13000.00000" pt_clust_6="13000.00000" pt_clust_7="13000.00000" pt_clust_8="13000.00000" pt_clust_9="65.95433"></scales>
<clustering>
<clus scale="   65.954">  1  9  2 -1</clus>
<clus scale="   78.571">  5  6 -1 -1</clus>
<clus scale="   90.279">  7  8 -1 -1</clus>
<clus scale="  148.416">  1  5  2 -1</clus>
<clus scale="   65.954">  1  5  2 -1</clus>
</clustering>
</event>
<event>
 9    2  0.1302972E-004  0.1339988E+03  0.7546771E-02  0.1228103E+00
         21   -1    0    0  501  502  0.00000000000E+00  0.00000000000E+00  0.11518387248E+03  0.11518387248E+03  0.00000000000E+00 0. -1.
          2   -1    0    0  502    0 -0.00000000000E+00 -0.00000000000E+00 -0.13596208463E+04  0.13596208463E+04  0.00000000000E+00 0. -1.
         24    2    1    2    0    0  0.81414921055E+02  0.77580558368E+01 -0.11584899208E+04  0.11641334071E+04  0.80119387376E+02 0.  0.
         23    2    1    2    0    0 -0.16483952286E+03  0.22380460686E+02 -0.10164136317E+03  0.22059187040E+03  0.10323203602E+03 0.  0.
        -13    1    3    3    0    0  0.54967184658E+02  0.20876350326E+02 -0.33544591941E+03  0.34056009491E+03  0.00000000000E+00 0.  1.
         14    1    3    3    0    0  0.26447736397E+02 -0.13118294489E+02 -0.82304400138E+03  0.82357331223E+03  0.00000000000E+00 0. -1.
        -13    1    4    4    0    0 -0.95293477185E+02  0.37528149578E+01 -0.11282507074E+03  0.14773092771E+03  0.00000000000E+00 0.  1.
         13    1    4    4    0    0 -0.69546045676E+02  0.18627645728E+02  0.11183707573E+02  0.72860942689E+02  0.00000000000E+00 0. -1.
          1    1    1    2  501    0  0.83424601805E+02 -0.30138516523E+02  0.15694310130E+02  0.90079441245E+02  0.00000000000E+00 0. -1.
<scales pt_clust_5="13000.00000" pt_clust_6="13000.00000" pt_clust_7="13000.00000" pt_clust_8="13000.00000" pt_clust_9="88.70172"></scales>
<clustering>
<clus scale="   80.119">  5  6 -1 -1</clus>
<clus scale="   88.702">  1  9  2 -1</clus>
<clus scale="  103.232">  7  8 -1 -1</clus>
<clus scale="  117.124">  2  5  1 -1</clus>
<clus scale="   88.702">  1  5  2 -1</clus>
</clustering>
</event>
<event>
 9    2  0.1302972E-004  0.2246933E+03  0.7546771E-02  0.1131145E+00
         -1   -1    0    0    0  501 -0.00000000000E+00  0.00000000000E+00  0.60426866367E+03  0.60426866367E+03  0.00000000000E+00 0.  1.
         21   -1    0    0  501  502  0.00000000000E+00 -0.00000000000E+00 -0.11233512229E+03  0.11233512229E+03  0.00000000000E+00 0. -1.
         23    2    1    2    0    0 -0.69079209951E+02 -0.19031044116E+03  0.30366417100E+03  0.37590215133E+03  0.90002763095E+02 0.  0.
         24    2    1    2    0    0  0.10520810296E+03  0.18705360832E+03  0.10911608836E+03  0.25363185844E+03  0.79780959922E+02 0.  0.
        -13    1    4    4    0    0  0.90811856842E+02  0.92976584637E+02  0.85514562758E+02  0.15557692334E+03  0.00000000000E+00 0.  1.
         14    1    4    4    0    0  0.14396246122E+02  0.94077023679E+02  0.23601525602E+02  0.98054935100E+02  0.00000000000E+00 0. -1.
        -13    1    3    3    0    0 -0.27057966194E+02 -0.17461690628E+03  0.24335936555E+03  0.30074404117E+03  0.00000000000E+00 0. -1.
         13    1    3    3    0    0 -0.42021243757E+02 -0.15693534881E+02  0.60304805448E+02  0.75158110168E+02  0.00000000000E+00 0.  1.
         -2    1    1    2    0  502 -0.36128893012E+02  0.32568328487E+01  0.79153282015E+02  0.87069776181E+02  0.00000000000E+00 0.  1.
<scales pt_clust_5="13000.00000" pt_clust_6="13000.00000" pt_clust_7="13000.00000" pt_clust_8="13000.00000" pt_clust_9="36.27541"></scales>
<clustering>
<clus scale="   36.275">  2  9  1 -1</clus>
<clus scale="   79.781">  5  6 -1 -1</clus>
<clus scale="   90.003">  7  8 -1 -1</clus>
<clus scale="  220.798">  2  5  1 -1</clus>
<clus scale="   36.275">  2  5  1 -1</clus>
</clustering>
</event>
<event>
 9    2  0.1302972E-004  0.1868264E+03  0.7546771E-02  0.1162680E+00
         21   -1    0    0  501  502  0.00000000000E+00  0.00000000000E+00  0.14454136606E+03  0.14454136606E+03  0.00000000000E+00 0. -1.
         -1   -1    0    0    0  501 -0.00000000000E+00 -0.00000000000E+00 -0.28724889467E+03  0.28724889467E+03  0.00000000000E+00 0.  1.
         23    2    1    2    0    0  0.15721079797E+03 -0.36192290794E+02 -0.60804706481E+02  0.19524311384E+03  0.91638115751E+02 0.  0.
         24    2    1    2    0    0 -0.16601742864E+03  0.39660863709E+01 -0.50996715810E+02  0.19103591308E+03  0.79476654500E+02 0.  0.
        -13    1    4    4    0    0 -0.12213847339E+03  0.59230764357E+01 -0.72471811977E+02  0.14214447948E+03  0.00000000000E+00 0.  1.
         14    1    4    4    0    0 -0.43878955244E+02 -0.19569900648E+01  0.21475096167E+02  0.48891433594E+02  0.00000000000E+00 0. -1.
        -11    1    3    3    0    0  0.11416824321E+03 -0.56917534804E+02 -0.13952522688E+02  0.12833030201E+03  0.00000000000E+00 0. -1.
         11    1    3    3    0    0  0.43042554761E+02  0.20725244009E+02 -0.46852183793E+02  0.66912811821E+02  0.00000000000E+00 0.  1.
         -2    1    1    2    0  502  0.88066306640E+01  0.32226204424E+02 -0.30906106318E+02  0.45511233811E+02  0.00000000000E+00 0.  1.
<scales pt_clust_5="13000.00000" pt_clust_6="13000.00000" pt_clust_7="13000.00000" pt_clust_8="13000.00000" pt_clust_9="33.40787"></scales>
<clustering>
<clus scale="   33.408">  1  9  2 -1</clus>
<clus scale="   79.477">  5  6 -1 -1</clus>
<clus scale="   91.638">  7  8 -1 -1</clus>
<clus scale="  181.171">  1  5  2 -1</clus>
<clus scale="   33.408">  1  5  2 -1</clus>
</clustering>
</event>
<event>
 9    2  0.1302972E-004  0.9809716E+02  0.7546771E-02  0.1292970E+00
         21   -1    0    0  501  502  0.00000000000E+00  0.00000000000E+00  0.49331132705E+02  0.49331132705E+02  0.00000000000E+00 0. -1.
          2   -1    0    0  502    0 -0.00000000000E+00 -0.00000000000E+00 -0.60395190278E+03  0.60395190278E+03  0.00000000000E+00 0. -1.
         24    2    1    2    0    0 -0.33590054178E+02 -0.20953424860E+02 -0.23718787857E+03  0.25185881295E+03  0.74882802882E+02 0.  0.
         23    2    1    2    0    0 -0.13377766434E+02  0.52118854057E+02 -0.31881600568E+02  0.11036271717E+03  0.90929386356E+02 0.  0.
        -13    1    3    3    0    0  0.20937860463E+02  0.68083591765E+00 -0.10747190499E+03  0.10949460215E+03  0.00000000000E+00 0.  1.
         14    1    3    3    0    0 -0.54527914641E+02 -0.21634260778E+02 -0.12971597358E+03  0.14236421080E+03  0.00000000000E+00 0. -1.
        -13    1    4    4    0    0 -0.29396977349E+02 -0.15850302647E+02 -0.21611196842E+02  0.39780123180E+02  0.00000000000E+00 0.  1.
         13    1    4    4    0    0  0.16019210915E+02  0.67969156704E+02 -0.10270403725E+02  0.70582593988E+02  0.00000000000E+00 0. -1.
          1    1    1    2  501    0  0.46967820612E+02 -0.31165429197E+02 -0.28555129094E+03  0.29106150536E+03  0.00000000000E+00 0. -1.
<scales pt_clust_5="13000.00000" pt_clust_6="13000.00000" pt_clust_7="13000.00000" pt_clust_8="13000.00000" pt_clust_9="56.36722"></scales>
<clustering>
<clus scale="   56.367">  1  9  2 -1</clus>
<clus scale="   74.883">  5  6 -1 -1</clus>
<clus scale="   83.441">  2  5  1 -1</clus>
<clus scale="   90.929">  7  8 -1 -1</clus>
<clus scale="   56.367">  1  5  2 -1</clus>
</clustering>
</event>
<event>
 9    2  0.1302972E-004  0.1028282E+03  0.7546771E-02  0.1280410E+00
          2   -1    0    0  502    0 -0.00000000000E+00  0.00000000000E+00  0.25990205804E+03  0.25990205804E+03  0.00000000000E+00 0. -1.
         21   -1    0    0  501  502  0.00000000000E+00 -0.00000000000E+00 -0.26196815725E+03  0.26196815725E+03  0.00000000000E+00 0.  1.
         23    2    1    2    0    0 -0.65984403235E+01 -0.43536136826E+02  0.23390216428E+03  0.25548113549E+03  0.92851782486E+02 0.  0.
         24    2    1    2    0    0 -0.19024149851E+02  0.49737479706E+02 -0.17208158416E+03  0.19727698552E+03  0.80438810566E+02 0.  0.
        -13    1    4    4    0    0 -0.45341910159E+02  0.53197473883E+02 -0.12268642180E+03  0.14120133901E+03  0.00000000000E+00 0.  1.
         14    1    4    4    0    0  0.26317760307E+02 -0.34599941771E+01 -0.49395162359E+02  0.56075646512E+02  0.00000000000E+00 0. -1.
        -13    1    3    3    0    0 -0.18918543454E+02 -0.70273854347E+02  0.17795590836E+03  0.19226188185E+03  0.00000000000E+00 0.  1.
         13    1    3    3    0    0  0.12320103130E+02  0.26737717522E+02  0.55946255921E+02  0.63219253642E+02  0.00000000000E+00 0. -1.
          1    1    1    2  501    0  0.25622590175E+02 -0.62013428800E+01 -0.63886679325E+02  0.69112094281E+02  0.00000000000E+00 0. -1.
<scales pt_clust_5="13000.00000" pt_clust_6="13000.00000" pt_clust_7="13000.00000" pt_clust_8="13000.00000" pt_clust_9="26.36236"></scales>
<clustering>
<clus scale="   26.362">  2  9  1 -1</clus>
<clus scale="   80.439">  5  6 -1 -1</clus>
<clus scale="   91.775">  2  5  1 -1</clus>
<clus scale="   92.852">  7  8 -1 -1</clus>
<clus scale="   26.362">  2  5  1 -1</clus>
</clustering>
</event>
<event>
 9    2  0.1302972E-004  0.9183094E+02  0.7546771E-02  0.1302772E+00
         21   -1    0    0  501  502  0.00000000000E+00  0.00000000000E+00  0.30349543235E+03  0.30349543235E+03  0.00000000000E+00 0.  1.
          2   -1    0    0  502    0 -0.00000000000E+00 -0.00000000000E+00 -0.92755718828E+02  0.92755718828E+02  0.00000000000E+00 0. -1.
         24    2    1    2    0    0 -0.11833863111E+02 -0.22360274867E+02 -0.50160911805E+02  0.97720038794E+02  0.79956655136E+02 0.  0.
         23    2    1    2    0    0  0.24220426681E+02  0.39104534333E+02  0.11674822316E+03  0.15288183421E+03  0.87332204518E+02 0.  0.
        -11    1    3    3    0    0  0.30355833615E+02 -0.32201766021E+01 -0.39953591683E+02  0.50280569409E+02  0.00000000000E+00 0.  1.
         12    1    3    3    0    0 -0.42189696726E+02 -0.19140098265E+02 -0.10207320122E+02  0.47439469385E+02  0.00000000000E+00 0. -1.
        -11    1    4    4    0    0 -0.14737880607E+02  0.54709066076E+02  0.64042081382E+02  0.85508334234E+02  0.00000000000E+00 0. -1.
         11    1    4    4    0    0  0.38958307288E+02 -0.15604531744E+02  0.52706141775E+02  0.67373499972E+02  0.00000000000E+00 0.  1.
          1    1    1    2  501    0 -0.12386563569E+02 -0.16744259466E+02  0.14415240217E+03  0.14564927817E+03  0.00000000000E+00 0. -1.
<scales pt_clust_5="13000.00000" pt_clust_6="13000.00000" pt_clust_7="13000.00000" pt_clust_8="13000.00000" pt_clust_9="20.82780"></scales>
<clustering>
<clus scale="   20.828">  1  9  2 -1</clus>
<clus scale="   79.957">  5  6 -1 -1</clus>
<clus scale="   84.847">  2  5  1 -1</clus>
<clus scale="   87.332">  7  8 -1 -1</clus>
<clus scale="   20.828">  1  5  2 -1</clus>
</clustering>
</event>
<event>
 9    2  0.1302972E-004  0.1196733E+03  0.7546771E-02  0.1247384E+00
          2   -1    0    0  502    0 -0.00000000000E+00  0.00000000000E+00  0.73644534852E+03  0.73644534852E+03  0.00000000000E+00 0. -1.
         21   -1    0    0  501  502  0.00000000000E+00 -0.00000000000E+00 -0.80233589512E+02  0.80233589512E+02  0.00000000000E+00 0.  1.
         24    2    1    2    0    0 -0.43825876473E+01  0.76021188132E+02  0.62444694957E+03  0.63396415856E+03  0.78601103050E+02 0.  0.
         23    2    1    2    0    0  0.42289050206E+01 -0.10921628183E+03  0.84095053284E+01  0.14212650414E+03  0.90460729287E+02 0.  0.
        -11    1    3    3    0    0  0.72748916146E+01  0.89108475024E+02  0.46173557371E+03  0.47031158225E+03  0.00000000000E+00 0.  1.
         12    1    3    3    0    0 -0.11657479262E+02 -0.13087286892E+02  0.16271137586E+03  0.16365257632E+03  0.00000000000E+00 0. -1.
        -11    1    4    4    0    0 -0.42294129940E+02 -0.45747325882E+02  0.11577008983E+02  0.63369064927E+02  0.00000000000E+00 0. -1.
         11    1    4    4    0    0  0.46523034960E+02 -0.63468955952E+02 -0.31675036549E+01  0.78757439210E+02  0.00000000000E+00 0.  1.
          1    1    1    2  501    0  0.15368262663E+00  0.33195093702E+02  0.23355304114E+02  0.40588275332E+02  0.00000000000E+00 0. -1.
<scales pt_clust_5="13000.00000" pt_clust_6="13000.00000" pt_clust_7="13000.00000" pt_clust_8="13000.00000" pt_clust_9="33.19545"></scales>
<clustering>
<clus scale="   33.195">  2  9  1 -1</clus>
<clus scale="   78.601">  5  6 -1 -1</clus>
<clus scale="   90.461">  7  8 -1 -1</clus>
<clus scale="  110.981">  1  5  2 -1</clus>
<clus scale="   33.195">  2  5  1 -1</clus>
</clustering>
</event>
<event>
 9    2  0.1302972E-004  0.8582136E+02  0.7546771E-02  0.1319610E+00
         21   -1    0    0  501  502  0.00000000000E+00  0.00000000000E+00  0.84271961149E+02  0.84271961149E+02  0.00000000000E+00 0.  1.
         -1   -1    0    0    0  501 -0.00000000000E+00 -0.00000000000E+00 -0.28317945114E+03  0.28317945114E+03  0.00000000000E+00 0.  1.
         23    2    1    2    0    0  0.18201136426E+02 -0.13874120902E+02 -0.23639659125E+03  0.25135397241E+03  0.82290330520E+02 0.  0.
         24    2    1    2    0    0 -0.41566369628E+02  0.22530551680E+01  0.26978700874E+02  0.87964686581E+02  0.72643626305E+02 0.  0.
        -11    1    4    4    0    0 -0.38427114025E+02 -0.62757835839E+01 -0.17412756964E+02  0.42652463669E+02  0.00000000000E+00 0.  1.
         12    1    4    4    0    0 -0.31392556029E+01  0.85288387519E+01  0.44391457839E+02  0.45312222912E+02  0.00000000000E+00 0. -1.
        -13    1    3    3    0    0 -0.11038151938E+02 -0.35909859348E+02 -0.18164059457E+03  0.18548494384E+03  0.00000000000E+00 0.  1.
         13    1    3    3    0    0  0.29239288364E+02  0.22035738445E+02 -0.54755996679E+02  0.65869028573E+02  0.00000000000E+00 0. -1.
         -2    1    1    2    0  502  0.23365233202E+02  0.11621065734E+02  0.10510400385E+02  0.28132753290E+02  0.00000000000E+00 0.  1.
<scales pt_clust_5="13000.00000" pt_clust_6="13000.00000" pt_clust_7="13000.00000" pt_clust_8="13000.00000" pt_clust_9="26.09566"></scales>
<clustering>
<clus scale="   26.096">  1  9  2 -1</clus>
<clus scale="   72.644">  5  6 -1 -1</clus>
<clus scale="   76.621">  1  5  2 -1</clus>
<clus scale="   82.290">  7  8 -1 -1</clus>
<clus scale="   26.096">  1  5  2 -1</clus>
</clustering>
</event>
<event>
 9    2  0.1302972E-004  0.1335076E+03  0.7546771E-02  0.1240095E+00
         -1   -1    0    0    0  501 -0.00000000000E+00  0.00000000000E+00  0.21553161879E+03  0.21553161879E+03  0.00000000000E+00 0.  1.
         21   -1    0    0  501  502  0.00000000000E+00 -0.00000000000E+00 -0.23591203093E+03  0.23591203093E+03  0.00000000000E+00 0.  1.
         23    2    1    2    0    0  0.77960327647E+01  0.23063542972E+02  0.37655799383E+02  0.99964728245E+02  0.89343620503E+02 0.  0.
         24    2    1    2    0    0  0.91684990161E+02  0.50262632962E+02 -0.14869658762E+03  0.19820626966E+03  0.79010002336E+02 0.  0.
        -11    1    4    4    0    0  0.56896182173E+02 -0.48995573780E+01 -0.10555334515E+03  0.12001120731E+03  0.00000000000E+00 0.  1.
         12    1    4    4    0    0  0.34788807988E+02  0.55162190340E+02 -0.43143242466E+02  0.78195062343E+02  0.00000000000E+00 0. -1.
        -13    1    3    3    0    0 -0.18305090734E+02 -0.25445074348E+02  0.31663930648E+02  0.44554827567E+02  0.00000000000E+00 0.  1.
         13    1    3    3    0    0  0.26101123499E+02  0.48508617320E+02  0.59918687346E+01  0.55409900678E+02  0.00000000000E+00 0. -1.
         -2    1    1    2    0  502 -0.99481022926E+02 -0.73326175934E+02  0.90660376093E+02  0.15327265181E+03  0.00000000000E+00 0.  1.
<scales pt_clust_5="13000.00000" pt_clust_6="13000.00000" pt_clust_7="13000.00000" pt_clust_8="13000.00000" pt_clust_9="107.61840"></scales>
<clustering>
<clus scale="   79.010">  5  6 -1 -1</clus>
<clus scale="   89.344">  7  8 -1 -1</clus>
<clus scale="   92.601">  1  7  2 -1</clus>
<clus scale="  107.618">  2  9  1 -1</clus>
<clus scale="  107.618">  2  5  1 -1</clus>
</clustering>
</event>
<event>
 9    2  0.1302972E-004  0.8972806E+02  0.7546771E-02  0.1308232E+00
          2   -1    0    0  502    0 -0.00000000000E+00  0.00000000000E+00  0.14763742080E+03  0.14763742080E+03  0.00000000000E+00 0. -1.
         21   -1    0    0  501  502  0.00000000000E+00 -0.00000000000E+00 -0.15253535287E+03  0.15253535287E+03  0.00000000000E+00 0.  1.
         24    2    1    2    0    0  0.13435103616E+02 -0.21028292335E+02  0.11096841112E+03  0.13845919036E+03  0.78957381168E+02 0.  0.
         23    2    1    2    0    0 -0.19852730708E+02 -0.68129334491E+00 -0.81802513063E+02  0.12081325849E+03  0.86657932161E+02 0.  0.
        -11    1    3    3    0    0 -0.13932683446E+02  0.25341531532E+02  0.36643694321E+02  0.46680544362E+02  0.00000000000E+00 0.  1.
         12    1    3    3    0    0  0.27367787061E+02 -0.46369823867E+02  0.74324716797E+02  0.91778645997E+02  0.00000000000E+00 0. -1.
        -11    1    4    4    0    0 -0.46558499089E+02  0.22257586813E+02 -0.35454705290E+02  0.62610942617E+02  0.00000000000E+00 0.  1.
         11    1    4    4    0    0  0.26705768381E+02 -0.22938880158E+02 -0.46347807773E+02  0.58202315874E+02  0.00000000000E+00 0. -1.
          1    1    1    2  501    0  0.64176270924E+01  0.21709585680E+02 -0.34063830123E+02  0.40900324822E+02  0.00000000000E+00 0. -1.
<scales pt_clust_5="13000.00000" pt_clust_6="13000.00000" pt_clust_7="13000.00000" pt_clust_8="13000.00000" pt_clust_9="22.63829"></scales>
<clustering>
<clus scale="   22.638">  2  9  1 -1</clus>
<clus scale="   78.957">  5  6 -1 -1</clus>
<clus scale="   82.315">  1  5  2 -1</clus>
<clus scale="   86.658">  7  8 -1 -1</clus>
<clus scale="   22.638">  2  5  1 -1</clus>
</clustering>
</event>
<event>
 9    2  0.1302972E-004  0.1494463E+03  0.7546771E-02  0.1203748E+00
          2   -1    0    0  502    0 -0.00000000000E+00  0.00000000000E+00  0.20710640862E+03  0.20710640862E+03  0.00000000000E+00 0. -1.
         21   -1    0    0  501  502  0.00000000000E+00 -0.00000000000E+00 -0.19886491436E+03  0.19886491436E+03  0.00000000000E+00 0. -1.
         24    2    1    2    0    0 -0.65553314336E+02 -0.85384997947E+02  0.20831685288E+02  0.13848164517E+03  0.84589432215E+02 0.  0.
         23    2    1    2    0    0 -0.10783338915E+02  0.14163246380E+03 -0.10106905818E+02  0.17263595491E+03  0.97596045932E+02 0.  0.
        -11    1    3    3    0    0  0.19337965715E+02 -0.27756660124E+02  0.22834448044E+00  0.33829591195E+02  0.00000000000E+00 0.  1.
         12    1    3    3    0    0 -0.84891280051E+02 -0.57628337823E+02  0.20603340807E+02  0.10465205398E+03  0.00000000000E+00 0. -1.
        -13    1    4    4    0    0 -0.39477107982E+02  0.15011028897E+02  0.16951922261E+01  0.42268744006E+02  0.00000000000E+00 0.  1.
         13    1    4    4    0    0  0.28693769067E+02  0.12662143490E+03 -0.11802098044E+02  0.13036721090E+03  0.00000000000E+00 0. -1.
          1    1    1    2  501    0  0.76336653251E+02 -0.56247465850E+02 -0.24832852067E+01  0.94853722908E+02  0.00000000000E+00 0. -1.
<scales pt_clust_5="13000.00000" pt_clust_6="13000.00000" pt_clust_7="13000.00000" pt_clust_8="13000.00000" pt_clust_9="94.82121"></scales>
<clustering>
<clus scale="   84.589">  5  6 -1 -1</clus>
<clus scale="   94.821">  2  9  1 -1</clus>
<clus scale="   97.596">  7  8 -1 -1</clus>
<clus scale="  141.296">  1  5  2 -1</clus>
<clus scale="   94.821">  2  5  1 -1</clus>
</clustering>
</event>
<event>
 9    2  0.1302972E-004  0.1189633E+03  0.7546771E-02  0.1255600E+00
         21   -1    0    0  501  502  0.00000000000E+00  0.00000000000E+00  0.16015171293E+03  0.16015171293E+03  0.00000000000E+00 0. -1.
         -1   -1    0    0    0  501 -0.00000000000E+00 -0.00000000000E+00 -0.43417267988E+03  0.43417267988E+03  0.00000000000E+00 0.  1.
         24    2    1    2    0    0 -0.71691045383E+02  0.40673155839E+02  0.14382594664E+02  0.11371194883E+03  0.77004134198E+02 0.  0.
         23    2    1    2    0    0 -0.31172522678E+02 -0.62002179944E+02  0.43384310585E+02  0.13259084545E+03  0.10431748370E+03 0.  0.
        -13    1    3    3    0    0 -0.22430353092E+02 -0.23104842393E+02  0.47916418845E+01  0.32556325250E+02  0.00000000000E+00 0.  1.
         14    1    3    3    0    0 -0.49260692291E+02  0.63777998232E+02  0.95909527791E+01  0.81155623581E+02  0.00000000000E+00 0. -1.
        -11    1    4    4    0    0 -0.33928643125E+02  0.21960341506E+02  0.68897220189E+01  0.40998508423E+02  0.00000000000E+00 0.  1.
         11    1    4    4    0    0  0.27561204471E+01 -0.83962521450E+02  0.36494588566E+02  0.91592337031E+02  0.00000000000E+00 0. -1.
         -2    1    1    2    0  502  0.10286356806E+03  0.21329024105E+02 -0.33178787220E+03  0.34802159853E+03  0.00000000000E+00 0.  1.
<scales pt_clust_5="13000.00000" pt_clust_6="13000.00000" pt_clust_7="13000.00000" pt_clust_8="13000.00000" pt_clust_9="105.05166"></scales>
<clustering>
<clus scale="   77.004">  5  6 -1 -1</clus>
<clus scale="  104.317">  7  8 -1 -1</clus>
<clus scale="  105.052">  1  9  2 -1</clus>
<clus scale="   95.915">  2  5  1 -1</clus>
<clus scale="  105.052">  1  5  2 -1</clus>
</clustering>
</event>
<event>
 9    2  0.1302972E-004  0.1031465E+03  0.7546771E-02  0.1279667E+00
         21   -1    0    0  501  502  0.00000000000E+00  0.00000000000E+00  0.57603691615E+02  0.57603691615E+02  0.00000000000E+00 0. -1.
          2   -1    0    0  502    0 -0.00000000000E+00 -0.00000000000E+00 -0.60951675932E+03  0.60951675932E+03  0.00000000000E+00 0. -1.
         24    2    1    2    0    0 -0.20486340276E+02 -0.43690688871E+02 -0.47054782593E+03  0.47951194362E+03  0.78663086382E+02 0.  0.
         23    2    1    2    0    0 -0.28740633755E+01  0.52637851986E+02 -0.10812934821E+03  0.15097413030E+03  0.91226248269E+02 0.  0.
        -13    1    3    3    0    0 -0.35037731802E+02 -0.44840404581E+02 -0.18414400142E+03  0.19273639457E+03  0.00000000000E+00 0.  1.
         14    1    3    3    0    0  0.14551391526E+02  0.11497157107E+01 -0.28640382451E+03  0.28677554905E+03  0.00000000000E+00 0. -1.
        -13    1    4    4    0    0 -0.45680351309E+02  0.16313145452E+02 -0.58930169874E+02  0.76325474984E+02  0.00000000000E+00 0. -1.
         13    1    4    4    0    0  0.42806287933E+02  0.36324706534E+02 -0.49199178337E+02  0.74648655315E+02  0.00000000000E+00 0.  1.
          1    1    1    2  501    0  0.23360403652E+02 -0.89471631150E+01  0.26764106429E+02  0.36634377018E+02  0.00000000000E+00 0. -1.
<scales pt_clust_5="13000.00000" pt_clust_6="13000.00000" pt_clust_7="13000.00000" pt_clust_8="13000.00000" pt_clust_9="25.01520"></scales>
<clustering>
<clus scale="   25.015">  1  9  2 -1</clus>
<clus scale="   78.663">  5  6 -1 -1</clus>
<clus scale="   91.226">  7  8 -1 -1</clus>
<clus scale="   92.222">  2  5  1 -1</clus>
<clus scale="   25.015">  1  5  2 -1</clus>
</clustering>
</event>
<event>
 9    2  0.1302972E-004  0.1336804E+03  0.7546771E-02  0.1224881E+00
          2   -1    0    0  502    0 -0.00000000000E+00  0.00000000000E+00  0.71651062616E+03  0.71651062616E+03  0.00000000000E+00 0. -1.
         21   -1    0    0  501  502  0.00000000000E+00 -0.00000000000E+00 -0.42406256134E+02  0.42406256134E+02  0.00000000000E+00 0. -1.
         24    2    1    2    0    0 -0.83151231565E+02  0.75555654021E+02  0.45915824664E+03  0.47941878348E+03  0.79958053559E+02 0.  0.
         23    2    1    2    0    0  0.24240284389E+02 -0.71632700249E+02  0.15688728164E+03  0.19669279483E+03  0.91408978027E+02 0.  0.
        -11    1    3    3    0    0 -0.59825162816E+02  0.51378842467E+01  0.26133820333E+03  0.26814754238E+03  0.00000000000E+00 0.  1.
         12    1    3    3    0    0 -0.23326068748E+02  0.70417769775E+02  0.19782004331E+03  0.21127124111E+03  0.00000000000E+00 0. -1.
        -13    1    4    4    0    0  0.54848348300E+02 -0.45849000489E+02  0.13037208797E+03  0.14868541784E+03  0.00000000000E+00 0.  1.
         13    1    4    4    0    0 -0.30608063911E+02 -0.25783699760E+02  0.26515193673E+02  0.48007376987E+02  0.00000000000E+00 0. -1.
          1    1    1    2  501    0  0.58910947175E+02 -0.39229537723E+01  0.58058841736E+02  0.82805303980E+02  0.00000000000E+00 0. -1.
<scales pt_clust_5="13000.00000" pt_clust_6="13000.00000" pt_clust_7="13000.00000" pt_clust_8="13000.00000" pt_clust_9="59.04142"></scales>
<clustering>
<clus scale="   59.041">  2  9  1 -1</clus>
<clus scale="   79.958">  5  6 -1 -1</clus>
<clus scale="   91.409">  7  8 -1 -1</clus>
<clus scale="  126.127">  1  5  2 -1</clus>
<clus scale="   59.041">  2  5  1 -1</clus>
</clustering>
</event>
<event>
 9    2  0.5413097E-004  0.9912917E+02  0.7546771E-02  0.1290238E+00
         21   -1    0    0  501  502  0.00000000000E+00  0.00000000000E+00  0.17865725896E+03  0.17865725896E+03  0.00000000000E+00 0.  1.
          2   -1    0    0  502    0 -0.00000000000E+00 -0.00000000000E+00 -0.55899180337E+03  0.55899180337E+03  0.00000000000E+00 0. -1.
         24    2    1    2    0    0  0.13218063126E+01 -0.34232533262E+02 -0.53586973958E+03  0.54261829694E+03  0.78132098819E+02 0.  0.
         23    2    1    2    0    0 -0.24163872898E+01  0.13350110092E+02  0.10933577156E+03  0.14431922384E+03  0.93218362239E+02 0.  0.
        -11    1    3    3    0    0 -0.11689006699E+02  0.17272032111E+02 -0.54969517032E+02  0.58792888801E+02  0.00000000000E+00 0.  1.
         12    1    3    3    0    0  0.13010813011E+02 -0.51504565373E+02 -0.48090022255E+03  0.48382540814E+03  0.00000000000E+00 0. -1.
        -11    1    4    4    0    0 -0.22604269978E+02  0.17420396035E+02  0.11842025954E+03  0.12181043095E+03  0.00000000000E+00 0.  1.
         11    1    4    4    0    0  0.20187882688E+02 -0.40702859434E+01 -0.90844879814E+01  0.22508792881E+02  0.00000000000E+00 0. -1.
          1    1    1    2  501    0  0.10945809772E+01  0.20882423171E+02  0.46199423614E+02  0.50711541559E+02  0.00000000000E+00 0. -1.
<scales pt_clust_5="13000.00000" pt_clust_6="13000.00000" pt_clust_7="13000.00000" pt_clust_8="13000.00000" pt_clust_9="20.91109"></scales>
<clustering>
<clus scale="   20.911">  1  9  2 -1</clus>
<clus scale="   78.132">  5  6 -1 -1</clus>
<clus scale="   85.097">  2  5  1 -1</clus>
<clus scale="   93.218">  7  8 -1 -1</clus>
<clus scale="   20.911">  1  5  2 -1</clus>
</clustering>
</event>
<event>
 9    2  0.1302972E-004  0.1165421E+03  0.7546771E-02  0.1251327E+00
         -1   -1    0    0    0  501 -0.00000000000E+00  0.00000000000E+00  0.36615660292E+03  0.36615660292E+03  0.00000000000E+00 0.  1.
         21   -1    0    0  501  502  0.00000000000E+00 -0.00000000000E+00 -0.12765182480E+03  0.12765182480E+03  0.00000000000E+00 0.  1.
         24    2    1    2    0    0  0.51308154517E+02  0.70124715732E+02  0.23373566445E+03  0.26330545370E+03  0.84542289032E+02 0.  0.
         23    2    1    2    0    0 -0.66774143384E+02  0.11823921085E+02  0.61610987455E+02  0.12957837592E+03  0.91629964505E+02 0.  0.
        -13    1    3    3    0    0  0.12313290316E+02  0.79727199907E+02  0.14571349218E+03  0.16655469170E+03  0.00000000000E+00 0.  1.
         14    1    3    3    0    0  0.38994864201E+02 -0.96024841748E+01  0.88022172272E+02  0.96750762001E+02  0.00000000000E+00 0. -1.
        -13    1    4    4    0    0  0.48863533705E+00  0.35073664499E+02 -0.55677048941E+00  0.35081486560E+02  0.00000000000E+00 0. -1.
         13    1    4    4    0    0 -0.67262778721E+02 -0.23249743414E+02  0.62167757945E+02  0.94496889355E+02  0.00000000000E+00 0.  1.
         -2    1    1    2    0  502  0.15465988866E+02 -0.81948636817E+02 -0.56841873785E+02  0.10092459811E+03  0.00000000000E+00 0.  1.
<scales pt_clust_5="13000.00000" pt_clust_6="13000.00000" pt_clust_7="13000.00000" pt_clust_8="13000.00000" pt_clust_9="83.39530"></scales>
<clustering>
<clus scale="   83.395">  2  9  1 -1</clus>
<clus scale="   84.542">  5  6 -1 -1</clus>
<clus scale="   91.630">  7  8 -1 -1</clus>
<clus scale="  111.056">  1  5  2 -1</clus>
<clus scale="   83.395">  2  5  1 -1</clus>
</clustering>
</event>
<event>
 9    2  0.1302972E-004  0.9602574E+02  0.7546771E-02  0.1299268E+00
         -1   -1    0    0    0  501 -0.00000000000E+00  0.00000000000E+00  0.96079688230E+03  0.96079688230E+03  0.00000000000E+00 0.  1.
         21   -1    0    0  501  502  0.00000000000E+00 -0.00000000000E+00 -0.27025741238E+02  0.27025741238E+02  0.00000000000E+00 0.  1.
         24    2    1    2    0    0  0.25341734076E+02 -0.24030633046E+01  0.32964152109E+03  0.33815920330E+03  0.70993916303E+02 0.  0.
         23    2    1    2    0    0 -0.82069449017E+02 -0.15437470388E+02  0.15924064301E+03  0.20081765596E+03  0.89422808082E+02 0.  0.
        -11    1    3    3    0    0  0.37448111579E+02 -0.25612916348E+02  0.15288560699E+03  0.15947536289E+03  0.00000000000E+00 0.  1.
         12    1    3    3    0    0 -0.12106377503E+02  0.23209853043E+02  0.17675591409E+03  0.17868384040E+03  0.00000000000E+00 0. -1.
        -11    1    4    4    0    0 -0.80825971728E+02  0.22386936689E+02  0.11890758992E+03  0.14550954464E+03  0.00000000000E+00 0.  1.
         11    1    4    4    0    0 -0.12434772893E+01 -0.37824407077E+02  0.40333053084E+02  0.55308111318E+02  0.00000000000E+00 0. -1.
         -2    1    1    2    0  502  0.56727714941E+02  0.17840533692E+02  0.44488897697E+03  0.44884576428E+03  0.00000000000E+00 0.  1.
<scales pt_clust_5="13000.00000" pt_clust_6="13000.00000" pt_clust_7="13000.00000" pt_clust_8="13000.00000" pt_clust_9="59.46698"></scales>
<clustering>
<clus scale="   59.467">  2  9  1 -1</clus>
<clus scale="   70.994">  5  6 -1 -1</clus>
<clus scale="   79.149">  1  5  2 -1</clus>
<clus scale="   89.423">  7  8 -1 -1</clus>
<clus scale="   59.467">  2  5  1 -1</clus>
</clustering>
</event>
<event>
 9    2  0.1302972E-004  0.1014872E+03  0.7546771E-02  0.1283318E+00
         21   -1    0    0  501  502  0.00000000000E+00  0.00000000000E+00  0.12107079237E+03  0.12107079237E+03  0.00000000000E+00 0.  1.
         -1   -1    0    0    0  501 -0.00000000000E+00 -0.00000000000E+00 -0.17722017024E+03  0.17722017024E+03  0.00000000000E+00 0.  1.
         24    2    1    2    0    0  0.14157936630E+02 -0.42744134430E+02 -0.11225555113E+03  0.14565942727E+03  0.81165582576E+02 0.  0.
         23    2    1    2    0    0  0.47114859368E+01  0.25222577537E+02  0.69338731894E+01  0.97125002782E+02  0.93417402290E+02 0.  0.
        -11    1    3    3    0    0  0.21882726142E+02 -0.59405216454E+02 -0.11031852252E+03  0.12719280584E+03  0.00000000000E+00 0.  1.
         12    1    3    3    0    0 -0.77247895124E+01  0.16661082024E+02 -0.19370286070E+01  0.18466621430E+02  0.00000000000E+00 0. -1.
        -13    1    4    4    0    0  0.14356700646E+02 -0.23736799782E+02  0.31105418406E+02  0.41678502510E+02  0.00000000000E+00 0.  1.
         13    1    4    4    0    0 -0.96452147090E+01  0.48959377319E+02 -0.24171545216E+02  0.55446500272E+02  0.00000000000E+00 0. -1.
         -2    1    1    2    0  502 -0.18869422567E+02  0.17521556893E+02  0.49172300068E+02  0.55506532569E+02  0.00000000000E+00 0.  1.
<scales pt_clust_5="13000.00000" pt_clust_6="13000.00000" pt_clust_7="13000.00000" pt_clust_8="13000.00000" pt_clust_9="25.74995"></scales>
<clustering>
<clus scale="   25.750">  1  9  2 -1</clus>
<clus scale="   81.166">  5  6 -1 -1</clus>
<clus scale="   90.337">  2  5  1 -1</clus>
<clus scale="   93.417">  7  8 -1 -1</clus>
<clus scale="   25.750">  1  5  2 -1</clus>
</clustering>
</event>
<event>
 9    2  0.1302972E-004  0.8882236E+02  0.7546771E-02  0.1309835E+00
         -1   -1    0    0    0  501 -0.00000000000E+00  0.00000000000E+00  0.41169051554E+03  0.41169051554E+03  0.00000000000E+00 0.  1.
         21   -1    0    0  501  502  0.00000000000E+00 -0.00000000000E+00 -0.41455223202E+03  0.41455223202E+03  0.00000000000E+00 0.  1.
         23    2    1    2    0    0 -0.12271724536E+02  0.23442589812E+02  0.36382433279E+03  0.37488930538E+03  0.86450540288E+02 0.  0.
         24    2    1    2    0    0 -0.34878448045E+01  0.34695540221E+02 -0.78482524318E+01  0.87494993569E+02  0.79861337710E+02 0.  0.
        -13    1    4    4    0    0 -0.12775695536E+02  0.51018646720E+02  0.17960743510E+02  0.55576155111E+02  0.00000000000E+00 0.  1.
         14    1    4    4    0    0  0.92878507316E+01 -0.16323106499E+02 -0.25808995942E+02  0.31918838458E+02  0.00000000000E+00 0. -1.
        -13    1    3    3    0    0 -0.10071039081E+02 -0.31539635392E+02  0.17945591966E+03  0.18248452409E+03  0.00000000000E+00 0. -1.
         13    1    3    3    0    0 -0.22006854549E+01  0.54982225204E+02  0.18436841313E+03  0.19240478129E+03  0.00000000000E+00 0.  1.
         -2    1    1    2    0  502  0.15759569341E+02 -0.58138130033E+02 -0.35883779683E+03  0.36385844861E+03  0.00000000000E+00 0.  1.
<scales pt_clust_5="13000.00000" pt_clust_6="13000.00000" pt_clust_7="13000.00000" pt_clust_8="13000.00000" pt_clust_9="60.23625"></scales>
<clustering>
<clus scale="   60.236">  2  9  1 -1</clus>
<clus scale="   79.861">  5  6 -1 -1</clus>
<clus scale="   82.423">  2  5  1 -1</clus>
<clus scale="   86.451">  7  8 -1 -1</clus>
<clus scale="   60.236">  2  5  1 -1</clus>
</clustering>
</event>
<event>
 9    2  0.1302972E-004  0.9590265E+02  0.7546771E-02  0.1297971E+00
         21   -1    0    0  501  502  0.00000000000E+00  0.00000000000E+00  0.99873683748E+02  0.99873683748E+02  0.00000000000E+00 0.  1.
          2   -1    0    0  502    0 -0.00000000000E+00 -0.00000000000E+00 -0.22442802847E+03  0.22442802847E+03  0.00000000000E+00 0. -1.
         23    2    1    2    0    0  0.34319768288E+02 -0.30965240800E+00 -0.82186390650E+02  0.12794315089E+03  0.91852624735E+02 0.  0.
         24    2    1    2    0    0 -0.17171307664E+01  0.31537670212E+02  0.47721544548E+02  0.95590318164E+02  0.76567551431E+02 0.  0.
        -13    1    4    4    0    0  0.75017264492E+01  0.54454992242E+02  0.44409939693E+02  0.70667282552E+02  0.00000000000E+00 0.  1.
         14    1    4    4    0    0 -0.92188572156E+01 -0.22917322030E+02  0.33116048555E+01  0.24923035612E+02  0.00000000000E+00 0. -1.
        -11    1    3    3    0    0  0.46649042842E+02 -0.36134358109E+02 -0.40253094904E+02  0.71429242495E+02  0.00000000000E+00 0.  1.
         11    1    3    3    0    0 -0.12329274553E+02  0.35824705701E+02 -0.41933295745E+02  0.56513908391E+02  0.00000000000E+00 0. -1.
          1    1    1    2  501    0 -0.32602637522E+02 -0.31228017804E+02 -0.90089498618E+02  0.10076824316E+03  0.00000000000E+00 0. -1.
<scales pt_clust_5="13000.00000" pt_clust_6="13000.00000" pt_clust_7="13000.00000" pt_clust_8="13000.00000" pt_clust_9="45.14558"></scales>
<clustering>
<clus scale="   45.146">  1  9  2 -1</clus>
<clus scale="   76.568">  5  6 -1 -1</clus>
<clus scale="   81.382">  1  5  2 -1</clus>
<clus scale="   91.853">  7  8 -1 -1</clus>
<clus scale="   45.146">  1  5  2 -1</clus>
</clustering>
</event>
<event>
 9    2  0.1302972E-004  0.2947214E+03  0.7546771E-02  0.1088434E+00
         21   -1    0    0  501  502  0.00000000000E+00  0.00000000000E+00  0.10050434411E+03  0.10050434411E+03  0.00000000000E+00 0. -1.
          2   -1    0    0  502    0 -0.00000000000E+00 -0.00000000000E+00 -0.15856126693E+04  0.15856126693E+04  0.00000000000E+00 0. -1.
         24    2    1    2    0    0  0.16157614779E+03 -0.23430729428E+03 -0.10932450510E+04  0.11325142292E+04  0.79981110405E+02 0.  0.
         23    2    1    2    0    0 -0.20928386759E+03  0.16918722035E+03 -0.20799959548E+03  0.35279814559E+03  0.93694434463E+02 0.  0.
        -11    1    3    3    0    0  0.26237105572E+02 -0.16839647968E+02 -0.55822241133E+02  0.63938111151E+02  0.00000000000E+00 0.  1.
         12    1    3    3    0    0  0.13533904221E+03 -0.21746764632E+03 -0.10374228099E+04  0.10685761180E+04  0.00000000000E+00 0. -1.
        -13    1    4    4    0    0 -0.14166101205E+03  0.12642122036E+03 -0.89723743290E+02  0.21000123191E+03  0.00000000000E+00 0. -1.
         13    1    4    4    0    0 -0.67622855541E+02  0.42765999990E+02 -0.11827585219E+03  0.14279691368E+03  0.00000000000E+00 0.  1.
          1    1    1    2  501    0  0.47707719807E+02  0.65120073931E+02 -0.18386367866E+03  0.20080463862E+03  0.00000000000E+00 0. -1.
<scales pt_clust_5="13000.00000" pt_clust_6="13000.00000" pt_clust_7="13000.00000" pt_clust_8="13000.00000" pt_clust_9="80.72581"></scales>
<clustering>
<clus scale="   79.981">  5  6 -1 -1</clus>
<clus scale="   80.726">  1  9  2 -1</clus>
<clus scale="   93.694">  7  8 -1 -1</clus>
<clus scale="  290.653">  2  5  1 -1</clus>
<clus scale="   80.726">  1  5  2 -1</clus>
</clustering>
</event>
<event>
 9    2  0.1302972E-004  0.9512308E+02  0.7546771E-02  0.1291369E+00
          2   -1    0    0  502    0 -0.00000000000E+00  0.00000000000E+00  0.63482017933E+03  0.63482017933E+03  0.00000000000E+00 0. -1.
         21   -1    0    0  501  502  0.00000000000E+00 -0.00000000000E+00 -0.63362424658E+02  0.63362424658E+02  0.00000000000E+00 0.  1.
         23    2    1    2    0    0 -0.73033817089E+01 -0.24634241832E+02  0.32626315433E+03  0.33988146556E+03  0.91714663517E+02 0.  0.
         24    2    1    2    0    0 -0.86979051493E+02  0.25918522920E+02  0.27971058572E+02  0.12149553527E+03  0.75773740460E+02 0.  0.
        -13    1    4    4    0    0 -0.59584693465E+02  0.52870574034E+02  0.21650544344E+02  0.82549254173E+02  0.00000000000E+00 0.  1.
         14    1    4    4    0    0 -0.27394358027E+02 -0.26952051114E+02  0.63205142280E+01  0.38946281095E+02  0.00000000000E+00 0. -1.
        -11    1    3    3    0    0 -0.48929894506E+02 -0.17187075307E+02  0.20493509949E+03  0.21139518712E+03  0.00000000000E+00 0.  1.
         11    1    3    3    0    0  0.41626512797E+02 -0.74471665245E+01  0.12132805484E+03  0.12848627844E+03  0.00000000000E+00 0. -1.
          1    1    1    2  501    0  0.94282433202E+02 -0.12842810880E+01  0.21722354178E+03  0.23680560317E+03  0.00000000000E+00 0. -1.
<scales pt_clust_5="13000.00000" pt_clust_6="13000.00000" pt_clust_7="13000.00000" pt_clust_8="13000.00000" pt_clust_9="94.29123"></scales>
<clustering>
<clus scale="   75.774">  5  6 -1 -1</clus>
<clus scale="   91.715">  7  8 -1 -1</clus>
<clus scale="   94.291">  2  9  1 -1</clus>
<clus scale="   94.291">  2  5  1 -1</clus>
<clus scale="   94.291">  2  5  1 -1</clus>
</clustering>
</event>
<event>
 9    2  0.1302972E-004  0.1737915E+03  0.7546771E-02  0.1179411E+00
         21   -1    0    0  501  502  0.00000000000E+00  0.00000000000E+00  0.39549573231E+03  0.39549573231E+03  0.00000000000E+00 0. -1.
          2   -1    0    0  502    0 -0.00000000000E+00 -0.00000000000E+00 -0.24292492426E+03  0.24292492426E+03  0.00000000000E+00 0. -1.
         24    2    1    2    0    0  0.56394060025E+02  0.11928193192E+03 -0.90282831100E+02  0.17906699354E+03  0.80656861430E+02 0.  0.
         23    2    1    2    0    0  0.53157650467E+02 -0.15352508106E+03  0.27577890605E+03  0.33994577495E+03  0.11451392303E+03 0.  0.
        -11    1    3    3    0    0  0.31918334408E+02  0.39567271386E+02 -0.80361725240E+02  0.95091303072E+02  0.00000000000E+00 0.  1.
         12    1    3    3    0    0  0.24475725617E+02  0.79714660531E+02 -0.99211058605E+01  0.83975690468E+02  0.00000000000E+00 0. -1.
        -11    1    4    4    0    0  0.87824407867E+02 -0.98703027464E+02  0.16272806528E+03  0.20960877242E+03  0.00000000000E+00 0. -1.
         11    1    4    4    0    0 -0.34666757400E+02 -0.54822053594E+02  0.11305084077E+03  0.13033700253E+03  0.00000000000E+00 0.  1.
          1    1    1    2  501    0 -0.10955171049E+03  0.34243149140E+02 -0.32925266895E+02  0.11940788808E+03  0.00000000000E+00 0. -1.
<scales pt_clust_5="13000.00000" pt_clust_6="13000.00000" pt_clust_7="13000.00000" pt_clust_8="13000.00000" pt_clust_9="114.77885"></scales>
<clustering>
<clus scale="   80.657">  5  6 -1 -1</clus>
<clus scale="  114.514">  7  8 -1 -1</clus>
<clus scale="  114.779">  1  9  2 -1</clus>
<clus scale="  153.609">  2  5  1 -1</clus>
<clus scale="  114.779">  1  5  2 -1</clus>
</clustering>
</event>
<event>
 9    2  0.1302972E-004  0.1272457E+03  0.7546771E-02  0.1251518E+00
          2   -1    0    0  502    0 -0.00000000000E+00  0.00000000000E+00  0.66276137076E+03  0.66276137076E+03  0.00000000000E+00 0. -1.
         21   -1    0    0  501  502  0.00000000000E+00 -0.00000000000E+00 -0.99734810505E+02  0.99734810505E+02  0.00000000000E+00 0. -1.
         24    2    1    2    0    0 -0.25044415489E+02 -0.98287976375E+01  0.25199520810E+03  0.26594405568E+03  0.80627711333E+02 0.  0.
         23    2    1    2    0    0  0.68701893399E+01 -0.88765529009E+02 -0.39003915969E+02  0.13244248183E+03  0.89962141436E+02 0.  0.
        -11    1    3    3    0    0 -0.63087673184E+01 -0.41675212298E+02  0.84589984916E+02  0.94509731844E+02  0.00000000000E+00 0.  1.
         12    1    3    3    0    0 -0.18735648171E+02  0.31846414660E+02  0.16740522318E+03  0.17143432383E+03  0.00000000000E+00 0. -1.
        -13    1    4    4    0    0 -0.10500862767E+02 -0.47308673507E+02 -0.64569402113E+02  0.80731570015E+02  0.00000000000E+00 0. -1.
         13    1    4    4    0    0  0.17371052107E+02 -0.41456855502E+02  0.25565486144E+02  0.51710911820E+02  0.00000000000E+00 0.  1.
          1    1    1    2  501    0  0.18174226150E+02  0.98594326647E+02  0.35003526813E+03  0.36410964376E+03  0.00000000000E+00 0. -1.
<scales pt_clust_5="13000.00000" pt_clust_6="13000.00000" pt_clust_7="13000.00000" pt_clust_8="13000.00000" pt_clust_9="89.99050"></scales>
<clustering>
<clus scale="   80.628">  5  6 -1 -1</clus>
<clus scale="   84.998">  1  5  2 -1</clus>
<clus scale="   89.962">  7  8 -1 -1</clus>
<clus scale="   89.991">  2  9  1 -1</clus>
<clus scale="   89.991">  2  5  1 -1</clus>
</clustering>
</event>
<event>
 9    2  0.1302972E-004  0.1585549E+03  0.7546771E-02  0.1192098E+00
          4   -1    0    0  502    0 -0.00000000000E+00  0.00000000000E+00  0.35187385921E+02  0.35187385921E+02  0.00000000000E+00 0. -1.
         21   -1    0    0  501  502  0.00000000000E+00 -0.00000000000E+00 -0.10612965849E+04  0.10612965849E+04  0.00000000000E+00 0. -1.
         23    2    1    2    0    0  0.13953912951E+03  0.45828400699E+02 -0.43666078124E+03  0.46974373499E+03  0.91734005220E+02 0.  0.
         24    2    1    2    0    0 -0.11551545314E+03  0.11853781835E+02 -0.48307656670E+03  0.50337353894E+03  0.80855540049E+02 0.  0.
        -13    1    4    4    0    0  0.32298878436E+01  0.20566000653E+02 -0.48448448803E+02  0.52731819139E+02  0.00000000000E+00 0.  1.
         14    1    4    4    0    0 -0.11874534098E+03 -0.87122188181E+01 -0.43462811789E+03  0.45064171980E+03  0.00000000000E+00 0. -1.
        -11    1    3    3    0    0  0.53076403426E+02  0.52634605995E+02 -0.11962724322E+03  0.14106092183E+03  0.00000000000E+00 0. -1.
         11    1    3    3    0    0  0.86462726083E+02 -0.68062052962E+01 -0.31703353803E+03  0.32868281316E+03  0.00000000000E+00 0.  1.
          3    1    1    2  501    0 -0.24023676371E+02 -0.57682182533E+02 -0.10637185105E+03  0.12336669690E+03  0.00000000000E+00 0. -1.
<scales pt_clust_5="13000.00000" pt_clust_6="13000.00000" pt_clust_7="13000.00000" pt_clust_8="13000.00000" pt_clust_9="62.48500"></scales>
<clustering>
<clus scale="   62.485">  2  9  1 -1</clus>
<clus scale="   80.856">  5  6 -1 -1</clus>
<clus scale="   91.734">  7  8 -1 -1</clus>
<clus scale="  152.519">  2  5  1 -1</clus>
<clus scale="   62.485">  2  5  1 -1</clus>
</clustering>
</event>
<event>
 9    2  0.1302972E-004  0.2059314E+03  0.7546771E-02  0.1154546E+00
          2   -1    0    0  502    0 -0.00000000000E+00  0.00000000000E+00  0.20361866310E+04  0.20361866310E+04  0.00000000000E+00 0. -1.
         21   -1    0    0  501  502  0.00000000000E+00 -0.00000000000E+00 -0.54204662197E+02  0.54204662197E+02  0.00000000000E+00 0. -1.
         23    2    1    2    0    0  0.12097340925E+03  0.62083596198E+02  0.19337586992E+03  0.25326902546E+03  0.90895728874E+02 0.  0.
         24    2    1    2    0    0 -0.64249447661E+02 -0.22431742655E+03  0.10069716667E+04  0.10368161956E+04  0.80929515888E+02 0.  0.
        -11    1    4    4    0    0 -0.70592201967E+01 -0.13129158132E+03  0.66355619979E+03  0.67645705126E+03  0.00000000000E+00 0.  1.
         12    1    4    4    0    0 -0.57190227464E+02 -0.93025845227E+02  0.34341546689E+03  0.36035914432E+03  0.00000000000E+00 0. -1.
        -11    1    3    3    0    0  0.11647994683E+03  0.35108995565E+02  0.19014448878E+03  0.22573246598E+03  0.00000000000E+00 0.  1.
         11    1    3    3    0    0  0.44934624195E+01  0.26974600633E+02  0.32313811353E+01  0.27536559477E+02  0.00000000000E+00 0. -1.
          1    1    1    2  501    0 -0.56723961590E+02  0.16223383035E+03  0.78163443225E+03  0.80030607220E+03  0.00000000000E+00 0. -1.
<scales pt_clust_5="13000.00000" pt_clust_6="13000.00000" pt_clust_7="13000.00000" pt_clust_8="13000.00000" pt_clust_9="189.36254"></scales>
<clustering>
<clus scale="   80.930">  5  6 -1 -1</clus>
<clus scale="   90.896">  7  8 -1 -1</clus>
<clus scale="  163.557">  1  7  2 -1</clus>
<clus scale="  189.363">  2  9  1 -1</clus>
<clus scale="  189.363">  2  5  1 -1</clus>
</clustering>
</event>
<event>
 9    2  0.1302972E-004  0.3294422E+03  0.7546771E-02  0.1071384E+00
         21   -1    0    0  501  502  0.00000000000E+00  0.00000000000E+00  0.18788425113E+03  0.18788425113E+03  0.00000000000E+00 0.  1.
         -1   -1    0    0    0  501 -0.00000000000E+00 -0.00000000000E+00 -0.49114358982E+03  0.49114358982E+03  0.00000000000E+00 0.  1.
         24    2    1    2    0    0 -0.10242362390E+03  0.14459126483E+03 -0.10323712415E+03  0.21955684970E+03  0.78422406569E+02 0.  0.
         23    2    1    2    0    0 -0.17864549395E+02  0.89100971631E+02 -0.13978591317E+03  0.18982359553E+03  0.90745636964E+02 0.  0.
        -11    1    3    3    0    0 -0.79724378998E+02  0.14570152415E+03 -0.10543119750E+03  0.19672480309E+03  0.00000000000E+00 0.  1.
         12    1    3    3    0    0 -0.22699244898E+02 -0.11102593199E+01  0.21940733442E+01  0.22832046613E+02  0.00000000000E+00 0. -1.
        -13    1    4    4    0    0  0.59975488320E+01  0.10076571444E+03 -0.11932944751E+03  0.15629848637E+03  0.00000000000E+00 0.  1.
         13    1    4    4    0    0 -0.23862098227E+02 -0.11664742811E+02 -0.20456465659E+02  0.33525109156E+02  0.00000000000E+00 0. -1.
         -2    1    1    2    0  502  0.12028817329E+03 -0.23369223646E+03 -0.60236301367E+02  0.26964739572E+03  0.00000000000E+00 0.  1.
<scales pt_clust_5="13000.00000" pt_clust_6="13000.00000" pt_clust_7="13000.00000" pt_clust_8="13000.00000" pt_clust_9="262.83323"></scales>
<clustering>
<clus scale="   78.422">  5  6 -1 -1</clus>
<clus scale="   90.746">  7  8 -1 -1</clus>
<clus scale="  112.828">  5  7 -1 -1</clus>
<clus scale="  262.833">  1  9  2 -1</clus>
<clus scale="  262.833">  1  5  2 -1</clus>
</clustering>
</event>
<event>
 9    2  0.1302972E-004  0.2020243E+03  0.7546771E-02  0.1159224E+00
          2   -1    0    0  502    0 -0.00000000000E+00  0.00000000000E+00  0.57273887571E+03  0.57273887571E+03  0.00000000000E+00 0. -1.
         21   -1    0    0  501  502  0.00000000000E+00 -0.00000000000E+00 -0.31277215735E+03  0.31277215735E+03  0.00000000000E+00 0. -1.
         23    2    1    2    0    0 -0.60013005034E+02 -0.10855310759E+03  0.42059580678E+03  0.44834027065E+03  0.93396079482E+02 0.  0.
         24    2    1    2    0    0 -0.15171233549E+03  0.86607424100E+02 -0.59314114695E+02  0.20142947043E+03  0.80859066933E+02 0.  0.
        -11    1    4    4    0    0 -0.14945376266E+03  0.87260884339E+02 -0.34455394898E+02  0.17645980661E+03  0.00000000000E+00 0.  1.
         12    1    4    4    0    0 -0.22585728300E+01 -0.65346023932E+00 -0.24858719796E+02  0.24969663823E+02  0.00000000000E+00 0. -1.
        -11    1    3    3    0    0 -0.75604749009E+02 -0.52314885148E+02  0.30924880372E+03  0.32262632857E+03  0.00000000000E+00 0. -1.
         11    1    3    3    0    0  0.15591743974E+02 -0.56238222441E+02  0.11134700306E+03  0.12571394208E+03  0.00000000000E+00 0.  1.
          1    1    1    2  501    0  0.21172534053E+03  0.21945683489E+02 -0.10131497373E+03  0.23574129199E+03  0.00000000000E+00 0. -1.
<scales pt_clust_5="13000.00000" pt_clust_6="13000.00000" pt_clust_7="13000.00000" pt_clust_8="13000.00000" pt_clust_9="185.13688"></scales>
<clustering>
<clus scale="   80.859">  5  6 -1 -1</clus>
<clus scale="   93.396">  7  8 -1 -1</clus>
<clus scale="  155.268">  1  7  2 -1</clus>
<clus scale="  185.137">  2  9  1 -1</clus>
<clus scale="  185.137">  2  5  1 -1</clus>
</clustering>
</event>
<event>
 9    2  0.1302972E-004  0.3003709E+03  0.7546771E-02  0.1085461E+00
         21   -1    0    0  501  502  0.00000000000E+00  0.00000000000E+00  0.67300284101E+03  0.67300284101E+03  0.00000000000E+00 0. -1.
          2   -1    0    0  502    0 -0.00000000000E+00 -0.00000000000E+00 -0.65501070171E+03  0.65501070171E+03  0.00000000000E+00 0. -1.
         23    2    1    2    0    0 -0.14927874536E+03 -0.27164383120E+03  0.10909357499E+03  0.34107726138E+03  0.91420868934E+02 0.  0.
         24    2    1    2    0    0  0.29565682127E+03  0.78738490761E+02  0.35738833846E+03  0.47724805410E+03  0.80165920361E+02 0.  0.
        -13    1    4    4    0    0  0.52464516258E+02  0.21944642049E+02  0.26623650453E+02  0.62792607402E+02  0.00000000000E+00 0.  1.
         14    1    4    4    0    0  0.24319230501E+03  0.56793848712E+02  0.33076468800E+03  0.41445544670E+03  0.00000000000E+00 0. -1.
        -13    1    3    3    0    0 -0.11440415579E+02 -0.97006261441E+02  0.12289909915E+02  0.98448665573E+02  0.00000000000E+00 0.  1.
         13    1    3    3    0    0 -0.13783832979E+03 -0.17463756976E+03  0.96803665070E+02  0.24262859580E+03  0.00000000000E+00 0. -1.
          1    1    1    2  501    0 -0.14637807591E+03  0.19290534044E+03 -0.44848977414E+03  0.50968822724E+03  0.00000000000E+00 0. -1.
<scales pt_clust_5="13000.00000" pt_clust_6="13000.00000" pt_clust_7="13000.00000" pt_clust_8="13000.00000" pt_clust_9="242.15505"></scales>
<clustering>
<clus scale="   80.166">  5  6 -1 -1</clus>
<clus scale="   91.421">  7  8 -1 -1</clus>
<clus scale="  242.155">  1  9  2 -1</clus>
<clus scale="  297.139">  1  5  2 -1</clus>
<clus scale="  242.155">  1  5  2 -1</clus>
</clustering>
</event>
<event>
 9    2  0.1302972E-004  0.9291883E+02  0.7546771E-02  0.1303036E+00
         21   -1    0    0  501  502  0.00000000000E+00  0.00000000000E+00  0.27190851018E+02  0.27190851018E+02  0.00000000000E+00 0. -1.
          4   -1    0    0  502    0 -0.00000000000E+00 -0.00000000000E+00 -0.64782825828E+03  0.64782825828E+03  0.00000000000E+00 0. -1.
         24    2    1    2    0    0 -0.17458875752E+02 -0.68093941426E+01 -0.47232947480E+03  0.47936249696E+03  0.79637243375E+02 0.  0.
         23    2    1    2    0    0 -0.45073943592E+01  0.28617979723E+02 -0.10160079297E+03  0.13962369071E+03  0.91283889633E+02 0.  0.
        -13    1    3    3    0    0 -0.45713017853E+02  0.12176410527E+02 -0.24906331912E+03  0.25351623598E+03  0.00000000000E+00 0.  1.
         14    1    3    3    0    0  0.28254142101E+02 -0.18985804670E+02 -0.22326615568E+03  0.22584626098E+03  0.00000000000E+00 0. -1.
        -11    1    4    4    0    0 -0.43144433080E+02 -0.20388129964E+01 -0.65672108160E+02  0.78602955761E+02  0.00000000000E+00 0.  1.
         11    1    4    4    0    0  0.38637038721E+02  0.30656792720E+02 -0.35928684815E+02  0.61020734947E+02  0.00000000000E+00 0. -1.
          3    1    1    2  501    0  0.21966270111E+02 -0.21808585581E+02 -0.46707139488E+02  0.56032921633E+02  0.00000000000E+00 0. -1.
<scales pt_clust_5="13000.00000" pt_clust_6="13000.00000" pt_clust_7="13000.00000" pt_clust_8="13000.00000" pt_clust_9="30.95370"></scales>
<clustering>
<clus scale="   30.954">  1  9  2 -1</clus>
<clus scale="   79.637">  5  6 -1 -1</clus>
<clus scale="   81.506">  2  5  1 -1</clus>
<clus scale="   91.284">  7  8 -1 -1</clus>
<clus scale="   30.954">  1  5  2 -1</clus>
</clustering>
</event>
<event>
 9    2  0.1302972E-004  0.2753241E+03  0.7546771E-02  0.1113135E+00
         21   -1    0    0  501  502  0.00000000000E+00  0.00000000000E+00  0.88740669818E+02  0.88740669818E+02  0.00000000000E+00 0. -1.
          2   -1    0    0  502    0 -0.00000000000E+00 -0.00000000000E+00 -0.17504384920E+04  0.17504384920E+04  0.00000000000E+00 0. -1.
         24    2    1    2    0    0 -0.15869227386E+03  0.59188349032E+02 -0.27654827674E+03  0.33438327579E+03  0.81527463579E+02 0.  0.
         23    2    1    2    0    0 -0.26960626920E+02  0.18345605312E+03 -0.95546911434E+03  0.97756863109E+03  0.91302799546E+02 0.  0.
        -13    1    3    3    0    0 -0.50624210448E+01  0.22147561585E+02 -0.10703665407E+02  0.25113961140E+02  0.00000000000E+00 0.  1.
         14    1    3    3    0    0 -0.15362985282E+03  0.37040787447E+02 -0.26584461133E+03  0.30926931465E+03  0.00000000000E+00 0. -1.
        -13    1    4    4    0    0  0.23788284607E+02  0.29079464395E+02 -0.10049711244E+03  0.10729010832E+03  0.00000000000E+00 0.  1.
         13    1    4    4    0    0 -0.50748911527E+02  0.15437658872E+03 -0.85497200190E+03  0.87027852277E+03  0.00000000000E+00 0. -1.
          1    1    1    2  501    0  0.18565290078E+03 -0.24264440215E+03 -0.42968043106E+03  0.52722725489E+03  0.00000000000E+00 0. -1.
<scales pt_clust_5="13000.00000" pt_clust_6="13000.00000" pt_clust_7="13000.00000" pt_clust_8="13000.00000" pt_clust_9="259.74441"></scales>
<clustering>
<clus scale="   81.527">  5  6 -1 -1</clus>
<clus scale="   91.303">  7  8 -1 -1</clus>
<clus scale="  187.971">  2  5  1 -1</clus>
<clus scale="  259.744">  1  9  2 -1</clus>
<clus scale="  259.744">  1  5  2 -1</clus>
</clustering>
</event>
<event>
 9    2  0.1302972E-004  0.1112373E+03  0.7546771E-02  0.1262943E+00
          2   -1    0    0  502    0 -0.00000000000E+00  0.00000000000E+00  0.57778380092E+03  0.57778380092E+03  0.00000000000E+00 0. -1.
         21   -1    0    0  501  502  0.00000000000E+00 -0.00000000000E+00 -0.15984254250E+03  0.15984254250E+03  0.00000000000E+00 0. -1.
         24    2    1    2    0    0  0.44027630111E+02  0.65776693468E+02  0.44296454012E+03  0.45596484574E+03  0.73629825012E+02 0.  0.
         23    2    1    2    0    0 -0.50379102196E+02 -0.12492154551E+02  0.10218304251E+03  0.14359980058E+03  0.86518325725E+02 0.  0.
        -11    1    3    3    0    0  0.25035101286E+02  0.28660738070E+02  0.62154277647E+02  0.72878998572E+02  0.00000000000E+00 0.  1.
         12    1    3    3    0    0  0.18992528825E+02  0.37115955398E+02  0.38081026247E+03  0.38308584717E+03  0.00000000000E+00 0. -1.
        -13    1    4    4    0    0 -0.23747231575E+02  0.35554413595E+02  0.27300831492E+02  0.50728519925E+02  0.00000000000E+00 0.  1.
         13    1    4    4    0    0 -0.26631870621E+02 -0.48046568146E+02  0.74882211018E+02  0.92871280655E+02  0.00000000000E+00 0. -1.
          1    1    1    2  501    0  0.63514720850E+01 -0.53284538917E+02 -0.12720632422E+03  0.13806169710E+03  0.00000000000E+00 0. -1.
<scales pt_clust_5="13000.00000" pt_clust_6="13000.00000" pt_clust_7="13000.00000" pt_clust_8="13000.00000" pt_clust_9="53.66175"></scales>
<clustering>
<clus scale="   53.662">  2  9  1 -1</clus>
<clus scale="   73.630">  5  6 -1 -1</clus>
<clus scale="   86.518">  7  8 -1 -1</clus>
<clus scale="  101.537">  1  5  2 -1</clus>
<clus scale="   53.662">  2  5  1 -1</clus>
</clustering>
</event>
<event>
 9    2  0.1302972E-004  0.1077141E+03  0.7546771E-02  0.1269260E+00
         21   -1    0    0  501  502  0.00000000000E+00  0.00000000000E+00  0.20616996720E+03  0.20616996720E+03  0.00000000000E+00 0. -1.
          2   -1    0    0  502    0 -0.00000000000E+00 -0.00000000000E+00 -0.23604689543E+03  0.23604689543E+03  0.00000000000E+00 0. -1.
         24    2    1    2    0    0 -0.35161285341E+02  0.43691931747E+02 -0.15559836719E+03  0.18386303825E+03  0.80308555426E+02 0.  0.
         23    2    1    2    0    0  0.93481951009E+02 -0.12695390998E+01  0.22382918151E+02  0.13233870892E+03  0.90950821657E+02 0.  0.
        -13    1    3    3    0    0 -0.43502917654E+02 -0.68771466560E+01 -0.51018395588E+02  0.67399374470E+02  0.00000000000E+00 0.  1.
         14    1    3    3    0    0  0.83416323126E+01  0.50569078403E+02 -0.10457997160E+03  0.11646366378E+03  0.00000000000E+00 0. -1.
        -11    1    4    4    0    0  0.94267730996E+02 -0.32068006435E+02  0.15521239873E+02  0.10077534932E+03  0.00000000000E+00 0.  1.
         11    1    4    4    0    0 -0.78577998741E+00  0.30798467335E+02  0.68616782784E+01  0.31563359599E+02  0.00000000000E+00 0. -1.
          1    1    1    2  501    0 -0.58320665667E+02 -0.42422392648E+02  0.10333852081E+03  0.12601511546E+03  0.00000000000E+00 0. -1.
<scales pt_clust_5="13000.00000" pt_clust_6="13000.00000" pt_clust_7="13000.00000" pt_clust_8="13000.00000" pt_clust_9="72.11768"></scales>
<clustering>
<clus scale="   72.118">  1  9  2 -1</clus>
<clus scale="   80.309">  5  6 -1 -1</clus>
<clus scale="   90.951">  7  8 -1 -1</clus>
<clus scale="   98.893">  2  5  1 -1</clus>
<clus scale="   72.118">  1  5  2 -1</clus>
</clustering>
</event>
<event>
 9    2  0.1302972E-004  0.9677063E+02  0.7546771E-02  0.1292771E+00
          2   -1    0    0  502    0 -0.00000000000E+00  0.00000000000E+00  0.85626606488E+03  0.85626606488E+03  0.00000000000E+00 0. -1.
         21   -1    0    0  501  502  0.00000000000E+00 -0.00000000000E+00 -0.18656789224E+02  0.18656789224E+02  0.00000000000E+00 0.  1.
         24    2    1    2    0    0 -0.41126485130E+02  0.16034738919E+02  0.38822166610E+03  0.39894677504E+03  0.80585151550E+02 0.  0.
         23    2    1    2    0    0  0.16581620073E+02  0.22545673190E+02  0.18836141931E+03  0.21097500247E+03  0.90813930003E+02 0.  0.
        -11    1    3    3    0    0 -0.57874695042E+02  0.48213356867E+01  0.16702008567E+03  0.17682882859E+03  0.00000000000E+00 0.  1.
         12    1    3    3    0    0  0.16748209912E+02  0.11213403232E+02  0.22120158044E+03  0.22211794645E+03  0.00000000000E+00 0. -1.
        -11    1    4    4    0    0 -0.55338380964E+01  0.43087827319E+02  0.38319929528E+02  0.57927551529E+02  0.00000000000E+00 0.  1.
         11    1    4    4    0    0  0.22115458169E+02 -0.20542154129E+02  0.15004148978E+03  0.15304745095E+03  0.00000000000E+00 0. -1.
          1    1    1    2  501    0  0.24544865057E+02 -0.38580412109E+02  0.26102619025E+03  0.26500107659E+03  0.00000000000E+00 0. -1.
<scales pt_clust_5="13000.00000" pt_clust_6="13000.00000" pt_clust_7="13000.00000" pt_clust_8="13000.00000" pt_clust_9="45.72637"></scales>
<clustering>
<clus scale="   45.726">  2  9  1 -1</clus>
<clus scale="   80.585">  5  6 -1 -1</clus>
<clus scale="   87.243">  1  5  2 -1</clus>
<clus scale="   90.814">  7  8 -1 -1</clus>
<clus scale="   45.726">  2  5  1 -1</clus>
</clustering>
</event>
<event>
 9    2  0.1302972E-004  0.1057214E+03  0.7546771E-02  0.1278815E+00
          2   -1    0    0  502    0 -0.00000000000E+00  0.00000000000E+00  0.39221332473E+03  0.39221332473E+03  0.00000000000E+00 0. -1.
         21   -1    0    0  501  502  0.00000000000E+00 -0.00000000000E+00 -0.38858766103E+02  0.38858766103E+02  0.00000000000E+00 0.  1.
         23    2    1    2    0    0 -0.28316407203E+02 -0.24304896747E+02  0.22331317584E+03  0.24768943708E+03  0.10044269915E+03 0.  0.
         24    2    1    2    0    0  0.71024750485E+01  0.26704829014E+02  0.46244096324E+02  0.96908519988E+02  0.80555271441E+02 0.  0.
        -11    1    4    4    0    0 -0.30189978948E+02  0.18425709709E+02  0.46852244611E+02  0.58703274459E+02  0.00000000000E+00 0.  1.
         12    1    4    4    0    0  0.37292453997E+02  0.82791193047E+01 -0.60814828690E+00  0.38205245529E+02  0.00000000000E+00 0. -1.
        -11    1    3    3    0    0 -0.41362758433E+02  0.29295399423E+01  0.21106878397E+03  0.21510344385E+03  0.00000000000E+00 0. -1.
         11    1    3    3    0    0  0.13046351230E+02 -0.27234436689E+02  0.12244391868E+02  0.32585993225E+02  0.00000000000E+00 0.  1.
          1    1    1    2  501    0  0.21213932155E+02 -0.23999322668E+01  0.83797286460E+02  0.86474133765E+02  0.00000000000E+00 0. -1.
<scales pt_clust_5="13000.00000" pt_clust_6="13000.00000" pt_clust_7="13000.00000" pt_clust_8="13000.00000" pt_clust_9="21.34926"></scales>
<clustering>
<clus scale="   21.349">  2  9  1 -1</clus>
<clus scale="   80.555">  5  6 -1 -1</clus>
<clus scale="   87.048">  2  5  1 -1</clus>
<clus scale="  100.443">  7  8 -1 -1</clus>
<clus scale="   21.349">  2  5  1 -1</clus>
</clustering>
</event>
<event>
 9    2  0.1302972E-004  0.1957905E+03  0.7546771E-02  0.1154561E+00
         21   -1    0    0  501  502  0.00000000000E+00  0.00000000000E+00  0.21108620069E+03  0.21108620069E+03  0.00000000000E+00 0.  1.
          2   -1    0    0  502    0 -0.00000000000E+00 -0.00000000000E+00 -0.37213319227E+03  0.37213319227E+03  0.00000000000E+00 0. -1.
         23    2    1    2    0    0 -0.16114819646E+03  0.58804818952E+02 -0.24556072937E+03  0.31357289268E+03  0.92742327252E+02 0.  0.
         24    2    1    2    0    0  0.18100195441E+03 -0.15759034098E+02  0.96328268792E+02  0.22079269345E+03  0.80375515296E+02 0.  0.
        -11    1    4    4    0    0  0.12410805283E+03  0.32291387118E+01  0.10181957974E+03  0.16056295629E+03  0.00000000000E+00 0.  1.
         12    1    4    4    0    0  0.56893901572E+02 -0.18988172809E+02 -0.54913109445E+01  0.60229737162E+02  0.00000000000E+00 0. -1.
        -11    1    3    3    0    0 -0.99335228439E+02  0.34724687239E+02 -0.71293759138E+02  0.12710661511E+03  0.00000000000E+00 0. -1.
         11    1    3    3    0    0 -0.61812968020E+02  0.24080131713E+02 -0.17426697023E+03  0.18646627757E+03  0.00000000000E+00 0.  1.
          1    1    1    2  501    0 -0.19853757947E+02 -0.43045784855E+02 -0.11814531003E+02  0.48853806824E+02  0.00000000000E+00 0. -1.
<scales pt_clust_5="13000.00000" pt_clust_6="13000.00000" pt_clust_7="13000.00000" pt_clust_8="13000.00000" pt_clust_9="47.40371"></scales>
<clustering>
<clus scale="   47.404">  1  9  2 -1</clus>
<clus scale="   80.376">  5  6 -1 -1</clus>
<clus scale="   92.742">  7  8 -1 -1</clus>
<clus scale="  190.245">  1  5  2 -1</clus>
<clus scale="   47.404">  1  5  2 -1</clus>
</clustering>
</event>
<event>
 9    2  0.1302972E-004  0.1441794E+03  0.7546771E-02  0.1209994E+00
          2   -1    0    0  502    0 -0.00000000000E+00  0.00000000000E+00  0.52225224048E+03  0.52225224048E+03  0.00000000000E+00 0. -1.
         21   -1    0    0  501  502  0.00000000000E+00 -0.00000000000E+00 -0.72069488649E+02  0.72069488649E+02  0.00000000000E+00 0. -1.
         24    2    1    2    0    0  0.85841987626E+02 -0.11768468381E+03  0.28428759663E+03  0.32987065964E+03  0.82320610126E+02 0.  0.
         23    2    1    2    0    0 -0.11058494291E+02  0.72859720240E+02  0.10109973107E+03  0.15582190571E+03  0.92889620240E+02 0.  0.
        -13    1    3    3    0    0  0.62899448595E+02 -0.31854320445E+02  0.17729686502E+03  0.19080151129E+03  0.00000000000E+00 0.  1.
         14    1    3    3    0    0  0.22942539031E+02 -0.85830363365E+02  0.10699073161E+03  0.13906914835E+03  0.00000000000E+00 0. -1.
        -13    1    4    4    0    0 -0.43495305027E+02  0.71409895300E+02  0.57568672631E+02  0.10151535241E+03  0.00000000000E+00 0. -1.
         13    1    4    4    0    0  0.32436810736E+02  0.14498249397E+01  0.43531058437E+02  0.54306553303E+02  0.00000000000E+00 0.  1.
          1    1    1    2  501    0 -0.74783493335E+02  0.44824963570E+02  0.64795424139E+02  0.10862916378E+03  0.00000000000E+00 0. -1.
<scales pt_clust_5="13000.00000" pt_clust_6="13000.00000" pt_clust_7="13000.00000" pt_clust_8="13000.00000" pt_clust_9="87.18858"></scales>
<clustering>
<clus scale="   82.321">  5  6 -1 -1</clus>
<clus scale="   87.189">  2  9  1 -1</clus>
<clus scale="   92.890">  7  8 -1 -1</clus>
<clus scale="  137.608">  1  5  2 -1</clus>
<clus scale="   87.189">  2  5  1 -1</clus>
</clustering>
</event>
<event>
 9    2  0.1302972E-004  0.1564264E+03  0.7546771E-02  0.1216544E+00
         21   -1    0    0  501  502  0.00000000000E+00  0.00000000000E+00  0.31652952622E+03  0.31652952622E+03  0.00000000000E+00 0. -1.
          2   -1    0    0  502    0 -0.00000000000E+00 -0.00000000000E+00 -0.17582873156E+03  0.17582873156E+03  0.00000000000E+00 0. -1.
         24    2    1    2    0    0 -0.22565054687E+02  0.43137017793E+02  0.12629837751E+03  0.15729577212E+03  0.80129244151E+02 0.  0.
         23    2    1    2    0    0 -0.10616033991E+03 -0.61504029252E+02 -0.81711413747E+02  0.17336696063E+03  0.91250120650E+02 0.  0.
        -13    1    3    3    0    0 -0.21602879690E+02 -0.20357024948E+02  0.32406156114E+02  0.43946010396E+02  0.00000000000E+00 0.  1.
         14    1    3    3    0    0 -0.96217499767E+00  0.63494042741E+02  0.93892221399E+02  0.11334976173E+03  0.00000000000E+00 0. -1.
        -13    1    4    4    0    0 -0.59889858749E+02  0.77964426593E+01 -0.64344869910E+02  0.88248750602E+02  0.00000000000E+00 0.  1.
         13    1    4    4    0    0 -0.46270481159E+02 -0.69300471911E+02 -0.17366543837E+02  0.85118210029E+02  0.00000000000E+00 0. -1.
          1    1    1    2  501    0  0.12872539459E+03  0.18367011459E+02  0.96113830892E+02  0.16169552502E+03  0.00000000000E+00 0. -1.
<scales pt_clust_5="13000.00000" pt_clust_6="13000.00000" pt_clust_7="13000.00000" pt_clust_8="13000.00000" pt_clust_9="127.05372"></scales>
<clustering>
<clus scale="   80.129">  5  6 -1 -1</clus>
<clus scale="   91.250">  7  8 -1 -1</clus>
<clus scale="   93.759">  2  5  1 -1</clus>
<clus scale="  127.054">  1  9  2 -1</clus>
<clus scale="  127.054">  1  5  2 -1</clus>
</clustering>
</event>
<event>
 9    2  0.1302972E-004  0.9344980E+02  0.7546771E-02  0.1302082E+00
         -1   -1    0    0    0  501 -0.00000000000E+00  0.00000000000E+00  0.45936003853E+03  0.45936003853E+03  0.00000000000E+00 0.  1.
         21   -1    0    0  501  502  0.00000000000E+00 -0.00000000000E+00 -0.33365298449E+02  0.33365298449E+02  0.00000000000E+00 0.  1.
         23    2    1    2    0    0  0.21679129994E+02  0.47151936868E+01  0.12599524364E+03  0.15780885347E+03  0.92393804363E+02 0.  0.
         24    2    1    2    0    0  0.14519162129E+01  0.24086802571E+02  0.95482195875E+02  0.12708980929E+03  0.80328623646E+02 0.  0.
        -11    1    4    4    0    0  0.17503947712E+00  0.43508281445E+02  0.17804260087E+02  0.47010561264E+02  0.00000000000E+00 0.  1.
         12    1    4    4    0    0  0.12768767358E+01 -0.19421478874E+02  0.77677935788E+02  0.80079248024E+02  0.00000000000E+00 0. -1.
        -13    1    3    3    0    0  0.45182705451E+02  0.12746608998E+02  0.23792218535E+02  0.52631003939E+02  0.00000000000E+00 0.  1.
         13    1    3    3    0    0 -0.23503575456E+02 -0.80314153115E+01  0.10220302511E+03  0.10517784953E+03  0.00000000000E+00 0. -1.
         -2    1    1    2    0  502 -0.23131046207E+02 -0.28801996258E+02  0.20451730056E+03  0.20782667422E+03  0.00000000000E+00 0.  1.
<scales pt_clust_5="13000.00000" pt_clust_6="13000.00000" pt_clust_7="13000.00000" pt_clust_8="13000.00000" pt_clust_9="36.94052"></scales>
<clustering>
<clus scale="   36.941">  2  9  1 -1</clus>
<clus scale="   80.329">  5  6 -1 -1</clus>
<clus scale="   81.541">  2  5  1 -1</clus>
<clus scale="   92.394">  7  8 -1 -1</clus>
<clus scale="   36.941">  2  5  1 -1</clus>
</clustering>
</event>
<event>
 9    2  0.1302972E-004  0.1195788E+03  0.7546771E-02  0.1247892E+00
          2   -1    0    0  502    0 -0.00000000000E+00  0.00000000000E+00  0.62032978976E+03  0.62032978976E+03  0.00000000000E+00 0. -1.
         21   -1    0    0  501  502  0.00000000000E+00 -0.00000000000E+00 -0.33166638415E+02  0.33166638415E+02  0.00000000000E+00 0. -1.
         23    2    1    2    0    0 -0.53856223296E+01  0.58606752228E+02  0.16958469651E+03  0.20184554658E+03  0.92297882140E+02 0.  0.
         24    2    1    2    0    0 -0.13072618858E+02 -0.92083735869E+02  0.23368586428E+03  0.26382676184E+03  0.79656571133E+02 0.  0.
        -11    1    4    4    0    0  0.22182190049E+02 -0.13147353926E+02  0.10961422033E+03  0.11260630431E+03  0.00000000000E+00 0.  1.
         12    1    4    4    0    0 -0.35254808907E+02 -0.78936381943E+02  0.12407164394E+03  0.15122045753E+03  0.00000000000E+00 0. -1.
        -13    1    3    3    0    0  0.17577251975E+02  0.46479129363E+02  0.16869511506E+03  0.17586162486E+03  0.00000000000E+00 0.  1.
         13    1    3    3    0    0 -0.22962874304E+02  0.12127622865E+02  0.88958145271E+00  0.25983921718E+02  0.00000000000E+00 0. -1.
          1    1    1    2  501    0  0.18458241187E+02  0.33476983642E+02  0.18389259055E+03  0.18782411975E+03  0.00000000000E+00 0. -1.
<scales pt_clust_5="13000.00000" pt_clust_6="13000.00000" pt_clust_7="13000.00000" pt_clust_8="13000.00000" pt_clust_9="38.22848"></scales>
<clustering>
<clus scale="   38.228">  2  9  1 -1</clus>
<clus scale="   79.657">  5  6 -1 -1</clus>
<clus scale="   92.298">  7  8 -1 -1</clus>
<clus scale="  110.115">  2  5  1 -1</clus>
<clus scale="   38.228">  2  5  1 -1</clus>
</clustering>
</event>
<event>
 9    2  0.1302972E-004  0.1812750E+03  0.7546771E-02  0.1167871E+00
         21   -1    0    0  501  502  0.00000000000E+00  0.00000000000E+00  0.22571444357E+03  0.22571444357E+03  0.00000000000E+00 0. -1.
          4   -1    0    0  502    0 -0.00000000000E+00 -0.00000000000E+00 -0.82075307996E+03  0.82075307996E+03  0.00000000000E+00 0. -1.
         24    2    1    2    0    0 -0.13299747879E+03  0.83953480580E+02 -0.64671257700E+03  0.67038146495E+03  0.80234874136E+02 0.  0.
         23    2    1    2    0    0  0.46648442987E+02 -0.19436484762E+03  0.78536868596E+02  0.23336800487E+03  0.91317110905E+02 0.  0.
        -13    1    3    3    0    0 -0.13732009227E+03  0.64567703579E+02 -0.61054317945E+03  0.62911745331E+03  0.00000000000E+00 0.  1.
         14    1    3    3    0    0  0.43226134788E+01  0.19385777001E+02 -0.36169397552E+02  0.41264011639E+02  0.00000000000E+00 0. -1.
        -13    1    4    4    0    0  0.46486367356E+02 -0.32972235928E+02  0.92802271835E+01  0.57743166770E+02  0.00000000000E+00 0.  1.
         13    1    4    4    0    0  0.16207563092E+00 -0.16139261169E+03  0.69256641412E+02  0.17562483810E+03  0.00000000000E+00 0. -1.
          3    1    1    2  501    0  0.86349035802E+02  0.11041136704E+03 -0.26862927977E+02  0.14271805371E+03  0.00000000000E+00 0. -1.
<scales pt_clust_5="13000.00000" pt_clust_6="13000.00000" pt_clust_7="13000.00000" pt_clust_8="13000.00000" pt_clust_9="140.16714"></scales>
<clustering>
<clus scale="   80.235">  5  6 -1 -1</clus>
<clus scale="   91.317">  7  8 -1 -1</clus>
<clus scale="  140.167">  1  9  2 -1</clus>
<clus scale="  175.953">  2  5  1 -1</clus>
<clus scale="  140.167">  1  5  2 -1</clus>
</clustering>
</event>
<event>
 9    2  0.1302972E-004  0.1354406E+03  0.7546771E-02  0.1242871E+00
          2   -1    0    0  502    0 -0.00000000000E+00  0.00000000000E+00  0.30970123933E+03  0.30970123933E+03  0.00000000000E+00 0. -1.
         21   -1    0    0  501  502  0.00000000000E+00 -0.00000000000E+00 -0.12880602037E+03  0.12880602037E+03  0.00000000000E+00 0. -1.
         24    2    1    2    0    0 -0.11308326488E+02  0.26063986369E+02  0.17148221298E+02  0.85577362544E+02  0.78881010724E+02 0.  0.
         23    2    1    2    0    0 -0.81878358138E+02  0.20839706035E+02  0.20623798492E+03  0.24028355433E+03  0.89798224809E+02 0.  0.
        -11    1    3    3    0    0 -0.41628509573E+01  0.45477997340E+02  0.35562684196E+02  0.57881621240E+02  0.00000000000E+00 0.  1.
         12    1    3    3    0    0 -0.71454755304E+01 -0.19414010971E+02 -0.18414462898E+02  0.27695741304E+02  0.00000000000E+00 0. -1.
        -13    1    4    4    0    0 -0.49996868402E+02  0.42788046770E+02  0.18451427322E+03  0.19589798574E+03  0.00000000000E+00 0. -1.
         13    1    4    4    0    0 -0.31881489737E+02 -0.21948340735E+02  0.21723711702E+02  0.44385568589E+02  0.00000000000E+00 0.  1.
          1    1    1    2  501    0  0.93186684626E+02 -0.46903692404E+02 -0.42490987256E+02  0.11264634282E+03  0.00000000000E+00 0. -1.
<scales pt_clust_5="13000.00000" pt_clust_6="13000.00000" pt_clust_7="13000.00000" pt_clust_8="13000.00000" pt_clust_9="101.39251"></scales>
<clustering>
<clus scale="   78.881">  5  6 -1 -1</clus>
<clus scale="   83.842">  1  5  2 -1</clus>
<clus scale="   89.798">  7  8 -1 -1</clus>
<clus scale="  101.393">  2  9  1 -1</clus>
<clus scale="  101.393">  2  5  1 -1</clus>
</clustering>
</event>
<event>
 9    2  0.1302972E-004  0.2369440E+03  0.7546771E-02  0.1158551E+00
         -1   -1    0    0    0  501 -0.00000000000E+00  0.00000000000E+00  0.26294576433E+03  0.26294576433E+03  0.00000000000E+00 0.  1.
         21   -1    0    0  501  502  0.00000000000E+00 -0.00000000000E+00 -0.34031347591E+03  0.34031347591E+03  0.00000000000E+00 0.  1.
         23    2    1    2    0    0  0.13727956515E+02  0.37072608937E+02 -0.10208631327E+03  0.14134630127E+03  0.89410997098E+02 0.  0.
         24    2    1    2    0    0  0.14088524813E+03  0.14742439449E+03  0.27226786539E+02  0.22118346775E+03  0.81229448290E+02 0.  0.
        -11    1    4    4    0    0  0.13056498731E+03  0.15527117945E+03  0.35288835333E+02  0.20591662628E+03  0.00000000000E+00 0.  1.
         12    1    4    4    0    0  0.10320260826E+02 -0.78467849642E+01 -0.80620487931E+01  0.15266841472E+02  0.00000000000E+00 0. -1.
        -11    1    3    3    0    0 -0.37778842843E+02  0.97553301255E+01 -0.34452244588E+02  0.52051557033E+02  0.00000000000E+00 0. -1.
         11    1    3    3    0    0  0.51506799358E+02  0.27317278811E+02 -0.67634068684E+02  0.89294744238E+02  0.00000000000E+00 0.  1.
         -2    1    1    2    0  502 -0.15461320465E+03 -0.18449700343E+03 -0.25081848484E+01  0.24072947122E+03  0.00000000000E+00 0.  1.
<scales pt_clust_5="13000.00000" pt_clust_6="13000.00000" pt_clust_7="13000.00000" pt_clust_8="13000.00000" pt_clust_9="222.58548"></scales>
<clustering>
<clus scale="   81.229">  5  6 -1 -1</clus>
<clus scale="   89.411">  7  8 -1 -1</clus>
<clus scale="   97.761">  1  7  2 -1</clus>
<clus scale="  222.585">  2  9  1 -1</clus>
<clus scale="  222.585">  2  5  1 -1</clus>
</clustering>
</event>
<event>
 9    2  0.1302972E-004  0.9873214E+02  0.7546771E-02  0.1290462E+00
          2   -1    0    0  502    0 -0.00000000000E+00  0.00000000000E+00  0.54289403976E+03  0.54289403976E+03  0.00000000000E+00 0. -1.
         21   -1    0    0  501  502  0.00000000000E+00 -0.00000000000E+00 -0.21942269434E+02  0.21942269434E+02  0.00000000000E+00 0. -1.
         23    2    1    2    0    0  0.24168148192E+02 -0.56098456940E+01  0.31458526294E+03  0.32928473720E+03  0.94069021149E+02 0.  0.
         24    2    1    2    0    0 -0.37998285811E+02 -0.98369138992E+01  0.18651849367E+03  0.20684932928E+03  0.80354601245E+02 0.  0.
        -11    1    4    4    0    0 -0.38570560578E+02  0.25161076471E+02  0.14706580447E+03  0.15410749092E+03  0.00000000000E+00 0.  1.
         12    1    4    4    0    0  0.57227476756E+00 -0.34997990370E+02  0.39452689203E+02  0.52741838361E+02  0.00000000000E+00 0. -1.
        -13    1    3    3    0    0 -0.87876777493E+01 -0.43620744958E+02  0.18501320223E+03  0.19028893208E+03  0.00000000000E+00 0. -1.
         13    1    3    3    0    0  0.32955825942E+02  0.38010899264E+02  0.12957206070E+03  0.13899580512E+03  0.00000000000E+00 0.  1.
          1    1    1    2  501    0  0.13830137619E+02  0.15446759593E+02  0.19848013718E+02  0.28702242718E+02  0.00000000000E+00 0. -1.
<scales pt_clust_5="13000.00000" pt_clust_6="13000.00000" pt_clust_7="13000.00000" pt_clust_8="13000.00000" pt_clust_9="20.73343"></scales>
<clustering>
<clus scale="   20.733">  2  9  1 -1</clus>
<clus scale="   80.355">  5  6 -1 -1</clus>
<clus scale="   85.767">  2  5  1 -1</clus>
<clus scale="   94.069">  7  8 -1 -1</clus>
<clus scale="   20.733">  2  5  1 -1</clus>
</clustering>
</event>
<event>
 9    2  0.1302972E-004  0.9381062E+02  0.7546771E-02  0.1295025E+00
         21   -1    0    0  501  502  0.00000000000E+00  0.00000000000E+00  0.37602177312E+03  0.37602177312E+03  0.00000000000E+00 0. -1.
          2   -1    0    0  502    0 -0.00000000000E+00 -0.00000000000E+00 -0.99619725632E+02  0.99619725632E+02  0.00000000000E+00 0. -1.
         24    2    1    2    0    0 -0.39071068423E+02  0.17383374470E+02 -0.63001499686E+02  0.11155582135E+03  0.81527800278E+02 0.  0.
         23    2    1    2    0    0  0.43023350728E+02  0.39301123742E+01  0.17963827482E+03  0.20285656246E+03  0.83752138245E+02 0.  0.
        -13    1    3    3    0    0 -0.23767374715E+02 -0.32280680244E+02 -0.28143551849E+02  0.48979484772E+02  0.00000000000E+00 0.  1.
         14    1    3    3    0    0 -0.15303693708E+02  0.49664054715E+02 -0.34857947837E+02  0.62576336575E+02  0.00000000000E+00 0. -1.
        -13    1    4    4    0    0  0.40859706877E+02  0.36647111597E+02  0.14556734014E+03  0.15557113148E+03  0.00000000000E+00 0.  1.
         13    1    4    4    0    0  0.21636438509E+01 -0.32716999222E+02  0.34070934683E+02  0.47285430980E+02  0.00000000000E+00 0. -1.
          1    1    1    2  501    0 -0.39522823048E+01 -0.21313486845E+02  0.15976527235E+03  0.16122911495E+03  0.00000000000E+00 0. -1.
<scales pt_clust_5="13000.00000" pt_clust_6="13000.00000" pt_clust_7="13000.00000" pt_clust_8="13000.00000" pt_clust_9="21.67684"></scales>
<clustering>
<clus scale="   21.677">  1  9  2 -1</clus>
<clus scale="   81.528">  5  6 -1 -1</clus>
<clus scale="   83.752">  7  8 -1 -1</clus>
<clus scale="   91.830">  2  5  1 -1</clus>
<clus scale="   21.677">  1  5  2 -1</clus>
</clustering>
</event>
<event>
 9    2  0.1302972E-004  0.1985605E+03  0.7546771E-02  0.1151821E+00
          2   -1    0    0  502    0 -0.00000000000E+00  0.00000000000E+00  0.91428282853E+02  0.91428282853E+02  0.00000000000E+00 0. -1.
         21   -1    0    0  501  502  0.00000000000E+00 -0.00000000000E+00 -0.90238964959E+03  0.90238964959E+03  0.00000000000E+00 0.  1.
         23    2    1    2    0    0 -0.22147237996E+03  0.33036192151E+01 -0.17529836753E+03  0.29665676949E+03  0.90635491061E+02 0.  0.
         24    2    1    2    0    0  0.10141687581E+03 -0.70887687112E+02 -0.34700117276E+03  0.37730716445E+03  0.81488867759E+02 0.  0.
        -13    1    4    4    0    0  0.10008340088E+03 -0.54955620644E+02 -0.34199874185E+03  0.36055505377E+03  0.00000000000E+00 0.  1.
         14    1    4    4    0    0  0.13334749327E+01 -0.15932066467E+02 -0.50024309064E+01  0.16752110682E+02  0.00000000000E+00 0. -1.
        -11    1    3    3    0    0 -0.16692477844E+03 -0.36400406153E+02 -0.11308278744E+03  0.20488188802E+03  0.00000000000E+00 0.  1.
         11    1    3    3    0    0 -0.54547601523E+02  0.39704025368E+02 -0.62215580090E+02  0.91774881467E+02  0.00000000000E+00 0. -1.
          1    1    1    2  501    0  0.12005550415E+03  0.67584067897E+02 -0.28866182645E+03  0.31985399850E+03  0.00000000000E+00 0. -1.
<scales pt_clust_5="13000.00000" pt_clust_6="13000.00000" pt_clust_7="13000.00000" pt_clust_8="13000.00000" pt_clust_9="137.77130"></scales>
<clustering>
<clus scale="   81.489">  5  6 -1 -1</clus>
<clus scale="   90.635">  7  8 -1 -1</clus>
<clus scale="  137.771">  2  9  1 -1</clus>
<clus scale="  194.556">  2  5  1 -1</clus>
<clus scale="  137.771">  2  5  1 -1</clus>
</clustering>
</event>
<event>
 9    2  0.1302972E-004  0.1317833E+03  0.7546771E-02  0.1231490E+00
          2   -1    0    0  502    0 -0.00000000000E+00  0.00000000000E+00  0.10156949939E+03  0.10156949939E+03  0.00000000000E+00 0. -1.
         21   -1    0    0  501  502  0.00000000000E+00 -0.00000000000E+00 -0.30401916350E+03  0.30401916350E+03  0.00000000000E+00 0.  1.
         23    2    1    2    0    0 -0.32267154922E+02  0.10537432642E+03 -0.88894535640E+02  0.16903954236E+03  0.92342896092E+02 0.  0.
         24    2    1    2    0    0 -0.24189785790E+02 -0.80088543571E+02 -0.13421183941E+03  0.17133059039E+03  0.65894103041E+02 0.  0.
        -11    1    4    4    0    0  0.42973520889E+01 -0.77773953932E+02 -0.96622124170E+02  0.12410918590E+03  0.00000000000E+00 0.  1.
         12    1    4    4    0    0 -0.28487137879E+02 -0.23145896384E+01 -0.37589715244E+02  0.47221404488E+02  0.00000000000E+00 0. -1.
        -11    1    3    3    0    0  0.16438445453E+02  0.91013739231E+02 -0.50466999257E+02  0.10535958064E+03  0.00000000000E+00 0.  1.
         11    1    3    3    0    0 -0.48705600375E+02  0.14360587185E+02 -0.38427536383E+02  0.63679961720E+02  0.00000000000E+00 0. -1.
          1    1    1    2  501    0  0.56456940713E+02 -0.25285782845E+02  0.20656710944E+02  0.65218530156E+02  0.00000000000E+00 0. -1.
<scales pt_clust_5="13000.00000" pt_clust_6="13000.00000" pt_clust_7="13000.00000" pt_clust_8="13000.00000" pt_clust_9="61.86082"></scales>
<clustering>
<clus scale="   61.861">  2  9  1 -1</clus>
<clus scale="   65.894">  5  6 -1 -1</clus>
<clus scale="   92.343">  7  8 -1 -1</clus>
<clus scale="  114.811">  2  5  1 -1</clus>
<clus scale="   61.861">  2  5  1 -1</clus>
</clustering>
</event>
<event>
 9    2  0.1302972E-004  0.1282472E+03  0.7546771E-02  0.1233126E+00
          2   -1    0    0  502    0 -0.00000000000E+00  0.00000000000E+00  0.24881139568E+03  0.24881139568E+03  0.00000000000E+00 0. -1.
         21   -1    0    0  501  502  0.00000000000E+00 -0.00000000000E+00 -0.10754281169E+03  0.10754281169E+03  0.00000000000E+00 0. -1.
         23    2    1    2    0    0 -0.97141262512E+02  0.19244862850E+02  0.13272156664E+03  0.18883597868E+03  0.90759148094E+02 0.  0.
         24    2    1    2    0    0  0.68852924172E+02 -0.31859319586E+01 -0.37098304796E+02  0.11146811914E+03  0.79359826340E+02 0.  0.
        -11    1    4    4    0    0  0.48806691258E+02 -0.33607999390E+02 -0.44729040515E+02  0.74244715637E+02  0.00000000000E+00 0.  1.
         12    1    4    4    0    0  0.20046232913E+02  0.30422067432E+02  0.76307357189E+01  0.37223403505E+02  0.00000000000E+00 0. -1.
        -13    1    3    3    0    0 -0.44568126174E+02 -0.30255666635E+02  0.25580645192E+02  0.59632982843E+02  0.00000000000E+00 0.  1.
         13    1    3    3    0    0 -0.52573136338E+02  0.49500529485E+02  0.10714092145E+03  0.12920299583E+03  0.00000000000E+00 0. -1.
          1    1    1    2  501    0  0.28288338340E+02 -0.16058930891E+02  0.45645322137E+02  0.56050109549E+02  0.00000000000E+00 0. -1.
<scales pt_clust_5="13000.00000" pt_clust_6="13000.00000" pt_clust_7="13000.00000" pt_clust_8="13000.00000" pt_clust_9="32.52876"></scales>
<clustering>
<clus scale="   32.529">  2  9  1 -1</clus>
<clus scale="   79.360">  5  6 -1 -1</clus>
<clus scale="   90.759">  7  8 -1 -1</clus>
<clus scale="  120.450">  2  5  1 -1</clus>
<clus scale="   32.529">  2  5  1 -1</clus>
</clustering>
</event>
<event>
 9    2  0.1302972E-004  0.2085149E+03  0.7546771E-02  0.1143777E+00
          2   -1    0    0  502    0 -0.00000000000E+00  0.00000000000E+00  0.97676030652E+03  0.97676030652E+03  0.00000000000E+00 0. -1.
         21   -1    0    0  501  502  0.00000000000E+00 -0.00000000000E+00 -0.93270910369E+02  0.93270910369E+02  0.00000000000E+00 0.  1.
         23    2    1    2    0    0  0.43279117632E+02  0.18881929739E+03  0.53077593705E+03  0.57242175908E+03  0.91748383207E+02 0.  0.
         24    2    1    2    0    0 -0.97932574788E+00 -0.18226750763E+03  0.39197031800E+03  0.43952934665E+03  0.79516746395E+02 0.  0.
        -13    1    4    4    0    0 -0.22393768243E+02 -0.90452359287E+01  0.41993220374E+02  0.48443035686E+02  0.00000000000E+00 0.  1.
         14    1    4    4    0    0  0.21414442495E+02 -0.17322227170E+03  0.34997709762E+03  0.39108631096E+03  0.00000000000E+00 0. -1.
        -13    1    3    3    0    0 -0.20147511841E+02  0.87428237537E+02  0.29030041541E+03  0.30384856449E+03  0.00000000000E+00 0.  1.
         13    1    3    3    0    0  0.63426629473E+02  0.10139105985E+03  0.24047552164E+03  0.26857319459E+03  0.00000000000E+00 0. -1.
          1    1    1    2  501    0 -0.42299791884E+02 -0.65517897602E+01 -0.39256858900E+02  0.58080111167E+02  0.00000000000E+00 0. -1.
<scales pt_clust_5="13000.00000" pt_clust_6="13000.00000" pt_clust_7="13000.00000" pt_clust_8="13000.00000" pt_clust_9="42.80419"></scales>
<clustering>
<clus scale="   42.804">  2  9  1 -1</clus>
<clus scale="   79.517">  5  6 -1 -1</clus>
<clus scale="   91.748">  7  8 -1 -1</clus>
<clus scale="  203.430">  2  5  1 -1</clus>
<clus scale="   42.804">  2  5  1 -1</clus>
</clustering>
</event>
<event>
 9    2  0.1302972E-004  0.1376977E+03  0.7546771E-02  0.1233064E+00
         21   -1    0    0  501  502  0.00000000000E+00  0.00000000000E+00  0.18234937063E+03  0.18234937063E+03  0.00000000000E+00 0.  1.
         -1   -1    0    0    0  501 -0.00000000000E+00 -0.00000000000E+00 -0.66240319143E+03  0.66240319143E+03  0.00000000000E+00 0.  1.
         24    2    1    2    0    0 -0.49093087612E+02  0.22059938647E+02  0.11380146623E+02  0.98098774178E+02  0.81222469881E+02 0.  0.
         23    2    1    2    0    0 -0.52623614093E+01 -0.10446718330E+03  0.84502584959E+02  0.16231794166E+03  0.90913929002E+02 0.  0.
        -13    1    3    3    0    0 -0.56275210514E+02  0.63353899857E+00 -0.19739034691E+02  0.59640004867E+02  0.00000000000E+00 0.  1.
         14    1    3    3    0    0  0.71821229017E+01  0.21426399648E+02  0.31119181313E+02  0.38458769311E+02  0.00000000000E+00 0. -1.
        -11    1    4    4    0    0  0.40448200205E+02 -0.35224857271E+02  0.46801136342E+02  0.71184224604E+02  0.00000000000E+00 0. -1.
         11    1    4    4    0    0 -0.45710561615E+02 -0.69242326031E+02  0.37701448617E+02  0.91133717060E+02  0.00000000000E+00 0.  1.
         -2    1    1    2    0  502  0.54355449021E+02  0.82407244655E+02 -0.57593655238E+03  0.58433584622E+03  0.00000000000E+00 0.  1.
<scales pt_clust_5="13000.00000" pt_clust_6="13000.00000" pt_clust_7="13000.00000" pt_clust_8="13000.00000" pt_clust_9="103.41821"></scales>
<clustering>
<clus scale="   81.222">  5  6 -1 -1</clus>
<clus scale="   90.914">  7  8 -1 -1</clus>
<clus scale="   97.436">  2  5  1 -1</clus>
<clus scale="  103.418">  1  9  2 -1</clus>
<clus scale="  103.418">  1  5  2 -1</clus>
</clustering>
</event>
<event>
 9    2  0.1302972E-004  0.1002239E+03  0.7546771E-02  0.1281040E+00
         21   -1    0    0  501  502  0.00000000000E+00  0.00000000000E+00  0.39218890032E+03  0.39218890032E+03  0.00000000000E+00 0.  1.
          4   -1    0    0  502    0 -0.00000000000E+00 -0.00000000000E+00 -0.15229609873E+03  0.15229609873E+03  0.00000000000E+00 0. -1.
         24    2    1    2    0    0  0.31903640342E+02 -0.46245587609E+02  0.75122070321E+02  0.12480787624E+03  0.82323653240E+02 0.  0.
         23    2    1    2    0    0 -0.97454467025E+01  0.63994933862E+02  0.28147447025E+03  0.29956972283E+03  0.79522425409E+02 0.  0.
        -13    1    3    3    0    0  0.13093809127E+02 -0.59629860551E+02  0.80570520863E+02  0.10108796634E+03  0.00000000000E+00 0.  1.
         14    1    3    3    0    0  0.18809831215E+02  0.13384272942E+02 -0.54484505421E+01  0.23719909903E+02  0.00000000000E+00 0. -1.
        -13    1    4    4    0    0 -0.12931118680E+02 -0.17010653139E+02  0.64325895316E+02  0.67781981077E+02  0.00000000000E+00 0. -1.
         13    1    4    4    0    0  0.31856719779E+01  0.81005587001E+02  0.21714857494E+03  0.23178774176E+03  0.00000000000E+00 0.  1.
          3    1    1    2  501    0 -0.22158193640E+02 -0.17749346253E+02 -0.11670373898E+03  0.12010739998E+03  0.00000000000E+00 0. -1.
<scales pt_clust_5="13000.00000" pt_clust_6="13000.00000" pt_clust_7="13000.00000" pt_clust_8="13000.00000" pt_clust_9="28.39059"></scales>
<clustering>
<clus scale="   28.391">  1  9  2 -1</clus>
<clus scale="   79.522">  7  8 -1 -1</clus>
<clus scale="   82.324">  5  6 -1 -1</clus>
<clus scale="   97.936">  1  7  2 -1</clus>
<clus scale="   28.391">  1  5  2 -1</clus>
</clustering>
</event>
<event>
 9    2  0.1302972E-004  0.9603107E+02  0.7546771E-02  0.1291894E+00
         21   -1    0    0  501  502  0.00000000000E+00  0.00000000000E+00  0.60557443186E+02  0.60557443186E+02  0.00000000000E+00 0. -1.
          2   -1    0    0  502    0 -0.00000000000E+00 -0.00000000000E+00 -0.64593759508E+03  0.64593759508E+03  0.00000000000E+00 0. -1.
         24    2    1    2    0    0 -0.22496582607E+02  0.22051886860E+02 -0.39191879319E+03  0.40173304191E+03  0.82442189242E+02 0.  0.
         23    2    1    2    0    0  0.35215885478E+02 -0.38043722319E+02 -0.23618712748E+03  0.25740156157E+03  0.88225400608E+02 0.  0.
        -11    1    3    3    0    0 -0.37679120401E+02 -0.20419083811E+02 -0.20743332379E+03  0.21181416128E+03  0.00000000000E+00 0.  1.
         12    1    3    3    0    0  0.15182537794E+02  0.42470970671E+02 -0.18448546939E+03  0.18991888063E+03  0.00000000000E+00 0. -1.
        -11    1    4    4    0    0  0.27308864053E+02  0.26051446458E+02 -0.85782651341E+02  0.93718275643E+02  0.00000000000E+00 0. -1.
         11    1    4    4    0    0  0.79070214247E+01 -0.64095168778E+02 -0.15040447614E+03  0.16368328592E+03  0.00000000000E+00 0.  1.
          1    1    1    2  501    0 -0.12719302871E+02  0.15991835459E+02  0.42725768768E+02  0.47360434792E+02  0.00000000000E+00 0. -1.
<scales pt_clust_5="13000.00000" pt_clust_6="13000.00000" pt_clust_7="13000.00000" pt_clust_8="13000.00000" pt_clust_9="20.43329"></scales>
<clustering>
<clus scale="   20.433">  1  9  2 -1</clus>
<clus scale="   82.442">  5  6 -1 -1</clus>
<clus scale="   88.225">  7  8 -1 -1</clus>
<clus scale="   90.747">  2  5  1 -1</clus>
<clus scale="   20.433">  1  5  2 -1</clus>
</clustering>
</event>
<event>
 9    2  0.1302972E-004  0.1106365E+03  0.7546771E-02  0.1264041E+00
         21   -1    0    0  501  502  0.00000000000E+00  0.00000000000E+00  0.22095227727E+03  0.22095227727E+03  0.00000000000E+00 0.  1.
         -1   -1    0    0    0  501 -0.00000000000E+00 -0.00000000000E+00 -0.20503224133E+03  0.20503224133E+03  0.00000000000E+00 0.  1.
         24    2    1    2    0    0 -0.17011461260E+02 -0.55539110636E+02 -0.14548750449E+03  0.17611623744E+03  0.80475664042E+02 0.  0.
         23    2    1    2    0    0  0.30320171500E+02  0.71384585801E+02  0.40435534112E+02  0.12713920080E+03  0.92272813291E+02 0.  0.
        -13    1    3    3    0    0 -0.46302441364E+02 -0.30269922797E+02 -0.11214011738E+03  0.12504235373E+03  0.00000000000E+00 0.  1.
         14    1    3    3    0    0  0.29290980104E+02 -0.25269187839E+02 -0.33347387116E+02  0.51073883708E+02  0.00000000000E+00 0. -1.
        -11    1    4    4    0    0  0.49127089564E+02  0.13643128532E+02  0.42500646404E+02  0.66377035411E+02  0.00000000000E+00 0.  1.
         11    1    4    4    0    0 -0.18806918065E+02  0.57741457268E+02 -0.20651122919E+01  0.60762165394E+02  0.00000000000E+00 0. -1.
         -2    1    1    2    0  502 -0.13308710240E+02 -0.15845475165E+02  0.12097200632E+03  0.12272908035E+03  0.00000000000E+00 0.  1.
<scales pt_clust_5="13000.00000" pt_clust_6="13000.00000" pt_clust_7="13000.00000" pt_clust_8="13000.00000" pt_clust_9="20.69301"></scales>
<clustering>
<clus scale="   20.693">  1  9  2 -1</clus>
<clus scale="   80.476">  5  6 -1 -1</clus>
<clus scale="   92.273">  7  8 -1 -1</clus>
<clus scale="  101.007">  2  5  1 -1</clus>
<clus scale="   20.693">  1  5  2 -1</clus>
</clustering>
</event>
<event>
 9    2  0.1302972E-004  0.1079623E+03  0.7546771E-02  0.1269379E+00
          2   -1    0    0  502    0 -0.00000000000E+00  0.00000000000E+00  0.93320871677E+03  0.93320871677E+03  0.00000000000E+00 0. -1.
         21   -1    0    0  501  502  0.00000000000E+00 -0.00000000000E+00 -0.68196598453E+02  0.68196598453E+02  0.00000000000E+00 0.  1.
         24    2    1    2    0    0 -0.36783842891E+02 -0.53435366450E+02  0.57677717353E+03  0.58581258654E+03  0.79347899487E+02 0.  0.
         23    2    1    2    0    0  0.18374831068E+02  0.42022921512E+02  0.34235613418E+03  0.35729831422E+03  0.91382724732E+02 0.  0.
        -13    1    3    3    0    0 -0.40460624189E+02 -0.43041523102E+01  0.12733282337E+03  0.13367586074E+03  0.00000000000E+00 0.  1.
         14    1    3    3    0    0  0.36767812982E+01 -0.49131214140E+02  0.44944435016E+03  0.45213672580E+03  0.00000000000E+00 0. -1.
        -13    1    4    4    0    0 -0.29041210560E+02  0.21300001149E+02  0.57999855770E+02  0.68271994471E+02  0.00000000000E+00 0.  1.
         13    1    4    4    0    0  0.47416041628E+02  0.20722920362E+02  0.28435627841E+03  0.28902631974E+03  0.00000000000E+00 0. -1.
          1    1    1    2  501    0  0.18409011823E+02  0.11412444938E+02 -0.54121189401E+02  0.58294414467E+02  0.00000000000E+00 0. -1.
<scales pt_clust_5="13000.00000" pt_clust_6="13000.00000" pt_clust_7="13000.00000" pt_clust_8="13000.00000" pt_clust_9="21.65954"></scales>
<clustering>
<clus scale="   21.660">  2  9  1 -1</clus>
<clus scale="   79.348">  5  6 -1 -1</clus>
<clus scale="   91.383">  7  8 -1 -1</clus>
<clus scale="   97.985">  1  5  2 -1</clus>
<clus scale="   21.660">  2  5  1 -1</clus>
</clustering>
</event>
<event>
 9    2  0.1302972E-004  0.2166359E+03  0.7546771E-02  0.1167019E+00
          2   -1    0    0  502    0 -0.00000000000E+00  0.00000000000E+00  0.11116488868E+03  0.11116488868E+03  0.00000000000E+00 0. -1.
         21   -1    0    0  501  502  0.00000000000E+00 -0.00000000000E+00 -0.62769223351E+03  0.62769223351E+03  0.00000000000E+00 0. -1.
         23    2    1    2    0    0 -0.52339975493E+02  0.27554624267E+01 -0.12547722452E+03  0.16369724153E+03  0.91132800922E+02 0.  0.
         24    2    1    2    0    0  0.13837462046E+03  0.16714469221E+03 -0.21646695605E+03  0.31680488472E+03  0.80140552813E+02 0.  0.
        -11    1    4    4    0    0  0.65142568494E+02  0.24483505142E+02 -0.81821941116E+02  0.10741427420E+03  0.00000000000E+00 0.  1.
         12    1    4    4    0    0  0.73232051962E+02  0.14266118707E+03 -0.13464501493E+03  0.20939061052E+03  0.00000000000E+00 0. -1.
        -13    1    3    3    0    0 -0.23812517519E+02 -0.26149547482E+02 -0.11697546179E+03  0.12220512872E+03  0.00000000000E+00 0. -1.
         13    1    3    3    0    0 -0.28527457974E+02  0.28905009908E+02 -0.85017627315E+01  0.41492112814E+02  0.00000000000E+00 0.  1.
          1    1    1    2  501    0 -0.86034644963E+02 -0.16990015463E+03 -0.17458316427E+03  0.25835499594E+03  0.00000000000E+00 0. -1.
<scales pt_clust_5="13000.00000" pt_clust_6="13000.00000" pt_clust_7="13000.00000" pt_clust_8="13000.00000" pt_clust_9="201.26748"></scales>
<clustering>
<clus scale="   80.141">  5  6 -1 -1</clus>
<clus scale="   91.133">  7  8 -1 -1</clus>
<clus scale="  105.130">  1  7  2 -1</clus>
<clus scale="  201.267">  2  9  1 -1</clus>
<clus scale="  201.267">  2  5  1 -1</clus>
</clustering>
</event>
<event>
 9    2  0.1302972E-004  0.9649833E+02  0.7546771E-02  0.1295209E+00
         21   -1    0    0  501  502  0.00000000000E+00  0.00000000000E+00  0.39879764650E+03  0.39879764650E+03  0.00000000000E+00 0.  1.
          2   -1    0    0  502    0 -0.00000000000E+00 -0.00000000000E+00 -0.42012159521E+02  0.42012159521E+02  0.00000000000E+00 0. -1.
         24    2    1    2    0    0  0.22412127094E+02 -0.15307025729E+02  0.54784983502E+02  0.10264302305E+03  0.82447481983E+02 0.  0.
         23    2    1    2    0    0  0.29053858772E+02  0.96791511544E+01  0.21156095052E+03  0.23395673829E+03  0.95078425165E+02 0.  0.
        -13    1    3    3    0    0  0.53060135628E+02 -0.14153983709E+02  0.43151782774E+02  0.69841174133E+02  0.00000000000E+00 0.  1.
         14    1    3    3    0    0 -0.30648008534E+02 -0.11530420205E+01  0.11633200728E+02  0.32801848914E+02  0.00000000000E+00 0. -1.
        -13    1    4    4    0    0 -0.16576499850E+02  0.30658437354E+02  0.31347962549E+02  0.46876592071E+02  0.00000000000E+00 0. -1.
         13    1    4    4    0    0  0.45630358622E+02 -0.20979286199E+02  0.18021298797E+03  0.18708014622E+03  0.00000000000E+00 0.  1.
          1    1    1    2  501    0 -0.51465985867E+02  0.56278745747E+01  0.90439552962E+02  0.10421004469E+03  0.00000000000E+00 0. -1.
<scales pt_clust_5="13000.00000" pt_clust_6="13000.00000" pt_clust_7="13000.00000" pt_clust_8="13000.00000" pt_clust_9="51.77278"></scales>
<clustering>
<clus scale="   51.773">  1  9  2 -1</clus>
<clus scale="   82.447">  5  6 -1 -1</clus>
<clus scale="   84.081">  2  5  1 -1</clus>
<clus scale="   95.078">  7  8 -1 -1</clus>
<clus scale="   51.773">  1  5  2 -1</clus>
</clustering>
</event>
<event>
 9    2  0.1467294E-004  0.9874174E+02  0.7546771E-02  0.1290946E+00
         21   -1    0    0  501  502  0.00000000000E+00  0.00000000000E+00  0.90499942206E+02  0.90499942206E+02  0.00000000000E+00 0.  1.
          2   -1    0    0  502    0 -0.00000000000E+00 -0.00000000000E+00 -0.38312321793E+03  0.38312321793E+03  0.00000000000E+00 0. -1.
         24    2    1    2    0    0 -0.28801511725E+02  0.15833359147E+02 -0.24780391165E+03  0.26168062689E+03  0.77393472075E+02 0.  0.
         23    2    1    2    0    0  0.34085952560E+02 -0.59204620005E+02  0.35765302183E+02  0.12027530890E+03  0.92303596351E+02 0.  0.
        -13    1    3    3    0    0  0.21580867999E+01 -0.27641087952E+02 -0.12036636957E+03  0.12351821730E+03  0.00000000000E+00 0.  1.
         14    1    3    3    0    0 -0.30959598525E+02  0.43474447099E+02 -0.12743754208E+03  0.13816240959E+03  0.00000000000E+00 0. -1.
        -11    1    4    4    0    0  0.16002062482E+02 -0.43741840231E+02  0.66635293238E+02  0.81299919406E+02  0.00000000000E+00 0.  1.
         11    1    4    4    0    0  0.18083890078E+02 -0.15462779774E+02 -0.30869991054E+02  0.38975389496E+02  0.00000000000E+00 0. -1.
          1    1    1    2  501    0 -0.52844408348E+01  0.43371260858E+02 -0.80584666251E+02  0.91667224339E+02  0.00000000000E+00 0. -1.
<scales pt_clust_5="13000.00000" pt_clust_6="13000.00000" pt_clust_7="13000.00000" pt_clust_8="13000.00000" pt_clust_9="43.69203"></scales>
<clustering>
<clus scale="   43.692">  1  9  2 -1</clus>
<clus scale="   77.393">  5  6 -1 -1</clus>
<clus scale="   84.969">  2  5  1 -1</clus>
<clus scale="   92.304">  7  8 -1 -1</clus>
<clus scale="   43.692">  1  5  2 -1</clus>
</clustering>
</event>
<event>
 9    2  0.1302972E-004  0.1161840E+03  0.7546771E-02  0.1261015E+00
         -3   -1    0    0    0  501 -0.00000000000E+00  0.00000000000E+00  0.32783337625E+02  0.32783337625E+02  0.00000000000E+00 0.  1.
         21   -1    0    0  501  502  0.00000000000E+00 -0.00000000000E+00 -0.48876953020E+03  0.48876953020E+03  0.00000000000E+00 0. -1.
         23    2    1    2    0    0 -0.44864141353E+02 -0.18768127874E+02 -0.17281595447E+03  0.20910944333E+03  0.10722113303E+03 0.  0.
         24    2    1    2    0    0  0.44282024891E+02 -0.15991046345E+02 -0.23542203736E+03  0.25338049428E+03  0.81003258650E+02 0.  0.
        -13    1    4    4    0    0  0.13865426238E+02  0.33119892369E+02 -0.87744913678E+02  0.94806894220E+02  0.00000000000E+00 0.  1.
         14    1    4    4    0    0  0.30416598653E+02 -0.49110938714E+02 -0.14767712368E+03  0.15857360006E+03  0.00000000000E+00 0. -1.
        -11    1    3    3    0    0  0.34423033855E+02 -0.12532424398E+02 -0.71186493627E+02  0.80059501597E+02  0.00000000000E+00 0. -1.
         11    1    3    3    0    0 -0.79287175208E+02 -0.62357034761E+01 -0.10162946084E+03  0.12904994173E+03  0.00000000000E+00 0.  1.
         -4    1    1    2    0  502  0.58211646208E+00  0.34759174220E+02 -0.47748200747E+02  0.59062930223E+02  0.00000000000E+00 0.  1.
<scales pt_clust_5="13000.00000" pt_clust_6="13000.00000" pt_clust_7="13000.00000" pt_clust_8="13000.00000" pt_clust_9="34.76407"></scales>
<clustering>
<clus scale="   34.764">  2  9  1 -1</clus>
<clus scale="   81.003">  5  6 -1 -1</clus>
<clus scale="   92.541">  2  5  1 -1</clus>
<clus scale="  107.221">  7  8 -1 -1</clus>
<clus scale="   34.764">  2  5  1 -1</clus>
</clustering>
</event>
<event>
 9    2  0.1302972E-004  0.9745421E+02  0.7546771E-02  0.1292029E+00
         21   -1    0    0  501  502  0.00000000000E+00  0.00000000000E+00  0.58394993840E+02  0.58394993840E+02  0.00000000000E+00 0. -1.
          2   -1    0    0  502    0 -0.00000000000E+00 -0.00000000000E+00 -0.40383825692E+03  0.40383825692E+03  0.00000000000E+00 0. -1.
         24    2    1    2    0    0 -0.26826124931E+02 -0.28357133285E+02 -0.30280159047E+03  0.31574932104E+03  0.80529886144E+02 0.  0.
         23    2    1    2    0    0  0.59012972295E+01 -0.13476627846E+02 -0.31064963239E+02  0.98297498175E+02  0.92091918208E+02 0.  0.
        -11    1    3    3    0    0 -0.69977360333E+01 -0.21606664059E+02 -0.15070546831E+02  0.27256882124E+02  0.00000000000E+00 0.  1.
         12    1    3    3    0    0 -0.19828388898E+02 -0.67504692259E+01 -0.28773104364E+03  0.28849243892E+03  0.00000000000E+00 0. -1.
        -11    1    4    4    0    0  0.28319123247E+02  0.17426893890E+02 -0.46459046837E+02  0.57132411161E+02  0.00000000000E+00 0.  1.
         11    1    4    4    0    0 -0.22417826017E+02 -0.30903521736E+02  0.15394083598E+02  0.41165087014E+02  0.00000000000E+00 0. -1.
          1    1    1    2  501    0  0.20924827701E+02  0.41833761130E+02 -0.11576709370E+02  0.48186431539E+02  0.00000000000E+00 0. -1.
<scales pt_clust_5="13000.00000" pt_clust_6="13000.00000" pt_clust_7="13000.00000" pt_clust_8="13000.00000" pt_clust_9="46.77512"></scales>
<clustering>
<clus scale="   46.775">  1  9  2 -1</clus>
<clus scale="   80.530">  5  6 -1 -1</clus>
<clus scale="   86.611">  2  5  1 -1</clus>
<clus scale="   92.092">  7  8 -1 -1</clus>
<clus scale="   46.775">  1  5  2 -1</clus>
</clustering>
</event>
<event>
 9    2  0.1302972E-004  0.9437452E+02  0.7546771E-02  0.1296314E+00
         21   -1    0    0  501  502  0.00000000000E+00  0.00000000000E+00  0.11132919202E+03  0.11132919202E+03  0.00000000000E+00 0.  1.
         -3   -1    0    0    0  501 -0.00000000000E+00 -0.00000000000E+00 -0.52185986731E+03  0.52185986731E+03  0.00000000000E+00 0.  1.
         24    2    1    2    0    0 -0.11659048532E+02 -0.21415430694E+02 -0.41638948786E+03  0.42544953173E+03  0.83860266896E+02 0.  0.
         23    2    1    2    0    0  0.47933619959E+02  0.18753334432E+02 -0.68747365965E+02  0.12473944829E+03  0.90467729929E+02 0.  0.
        -13    1    3    3    0    0 -0.22239542450E+02 -0.50827743646E+02 -0.24171879512E+03  0.24800409812E+03  0.00000000000E+00 0.  1.
         14    1    3    3    0    0  0.10580493917E+02  0.29412312952E+02 -0.17467069274E+03  0.17744543361E+03  0.00000000000E+00 0. -1.
        -13    1    4    4    0    0  0.32955842635E+02 -0.14035756264E+01 -0.87426197048E+02  0.93441947318E+02  0.00000000000E+00 0.  1.
         13    1    4    4    0    0  0.14977777324E+02  0.20156910058E+02  0.18678831082E+02  0.31297500975E+02  0.00000000000E+00 0. -1.
         -4    1    1    2    0  502 -0.36274571427E+02  0.26620962618E+01  0.74606178543E+02  0.83000079310E+02  0.00000000000E+00 0.  1.
<scales pt_clust_5="13000.00000" pt_clust_6="13000.00000" pt_clust_7="13000.00000" pt_clust_8="13000.00000" pt_clust_9="36.37212"></scales>
<clustering>
<clus scale="   36.372">  1  9  2 -1</clus>
<clus scale="   83.860">  5  6 -1 -1</clus>
<clus scale="   88.061">  2  5  1 -1</clus>
<clus scale="   90.468">  7  8 -1 -1</clus>
<clus scale="   36.372">  1  5  2 -1</clus>
</clustering>
</event>
<event>
 9    2  0.1302972E-004  0.1166403E+03  0.7546771E-02  0.1253461E+00
          2   -1    0    0  502    0 -0.00000000000E+00  0.00000000000E+00  0.86041166195E+03  0.86041166195E+03  0.00000000000E+00 0. -1.
         21   -1    0    0  501  502  0.00000000000E+00 -0.00000000000E+00 -0.22647034786E+02  0.22647034786E+02  0.00000000000E+00 0.  1.
         24    2    1    2    0    0 -0.65016587133E+02 -0.31499853226E+02  0.33698687414E+03  0.35354348428E+03  0.78825405664E+02 0.  0.
         23    2    1    2    0    0  0.77135400042E+02 -0.17390117226E+02  0.35990062494E+03  0.37990418327E+03  0.92446971378E+02 0.  0.
        -13    1    3    3    0    0 -0.36088569908E+02 -0.37920422121E+02  0.85044028846E+02  0.99864058270E+02  0.00000000000E+00 0.  1.
         14    1    3    3    0    0 -0.28928017225E+02  0.64205688947E+01  0.25194284529E+03  0.25367942601E+03  0.00000000000E+00 0. -1.
        -13    1    4    4    0    0  0.25452876970E+02 -0.50727899602E+02  0.12861066637E+03  0.14057692645E+03  0.00000000000E+00 0.  1.
         13    1    4    4    0    0  0.51682523072E+02  0.33337782377E+02  0.23128995857E+03  0.23932725682E+03  0.00000000000E+00 0. -1.
          1    1    1    2  501    0 -0.12118812909E+02  0.48889970452E+02  0.14087712809E+03  0.14961102919E+03  0.00000000000E+00 0. -1.
<scales pt_clust_5="13000.00000" pt_clust_6="13000.00000" pt_clust_7="13000.00000" pt_clust_8="13000.00000" pt_clust_9="50.36958"></scales>
<clustering>
<clus scale="   50.370">  2  9  1 -1</clus>
<clus scale="   78.825">  5  6 -1 -1</clus>
<clus scale="   92.447">  7  8 -1 -1</clus>
<clus scale="  106.169">  1  5  2 -1</clus>
<clus scale="   50.370">  2  5  1 -1</clus>
</clustering>
</event>
<event>
 9    2  0.1302972E-004  0.1020156E+03  0.7546771E-02  0.1280299E+00
         21   -1    0    0  501  502  0.00000000000E+00  0.00000000000E+00  0.57801297919E+02  0.57801297919E+02  0.00000000000E+00 0. -1.
          4   -1    0    0  502    0 -0.00000000000E+00 -0.00000000000E+00 -0.41377568378E+03  0.41377568378E+03  0.00000000000E+00 0. -1.
         23    2    1    2    0    0  0.26973897158E+02 -0.35690690979E+02 -0.29385795174E+03  0.31123461181E+03  0.92266306076E+02 0.  0.
         24    2    1    2    0    0 -0.56176074679E+02  0.98605395121E-01 -0.33277424116E+02  0.10601694098E+03  0.83525108377E+02 0.  0.
        -11    1    4    4    0    0  0.32847627480E+01  0.31904847945E+02 -0.18348580055E+02  0.36951040292E+02  0.00000000000E+00 0.  1.
         12    1    4    4    0    0 -0.59460837427E+02 -0.31806242549E+02 -0.14928844062E+02  0.69065900687E+02  0.00000000000E+00 0. -1.
        -13    1    3    3    0    0  0.13546723511E+02  0.28082426449E+02 -0.15139962304E+03  0.15457678432E+03  0.00000000000E+00 0.  1.
         13    1    3    3    0    0  0.13427173647E+02 -0.63773117428E+02 -0.14245832870E+03  0.15665782749E+03  0.00000000000E+00 0. -1.
          3    1    1    2  501    0  0.29202177521E+02  0.35592085584E+02 -0.28839010003E+02  0.54325428909E+02  0.00000000000E+00 0. -1.
<scales pt_clust_5="13000.00000" pt_clust_6="13000.00000" pt_clust_7="13000.00000" pt_clust_8="13000.00000" pt_clust_9="46.03872"></scales>
<clustering>
<clus scale="   46.039">  1  9  2 -1</clus>
<clus scale="   83.525">  5  6 -1 -1</clus>
<clus scale="   92.266">  7  8 -1 -1</clus>
<clus scale="   94.184">  1  5  2 -1</clus>
<clus scale="   46.039">  1  5  2 -1</clus>
</clustering>
</event>
<event>
 9    2  0.1302972E-004  0.1379020E+03  0.7546771E-02  0.1218578E+00
          2   -1    0    0  502    0 -0.00000000000E+00  0.00000000000E+00  0.87165291438E+03  0.87165291438E+03  0.00000000000E+00 0. -1.
         21   -1    0    0  501  502  0.00000000000E+00 -0.00000000000E+00 -0.38476996590E+02  0.38476996590E+02  0.00000000000E+00 0. -1.
         23    2    1    2    0    0 -0.30467639662E+02 -0.10441292038E+03  0.59357398680E+03  0.61036987826E+03  0.91602267811E+02 0.  0.
         24    2    1    2    0    0 -0.68276470545E+01  0.89090697407E+02  0.10721626957E+03  0.16137046563E+03  0.81002034467E+02 0.  0.
        -11    1    4    4    0    0  0.36219782654E+02  0.41540176387E+02  0.61637719920E+02  0.82684142534E+02  0.00000000000E+00 0.  1.
         12    1    4    4    0    0 -0.43047429708E+02  0.47550521021E+02  0.45578549648E+02  0.78686323093E+02  0.00000000000E+00 0. -1.
        -13    1    3    3    0    0  0.24033934182E+02 -0.32636672413E+02  0.88787170553E+02  0.97600942789E+02  0.00000000000E+00 0. -1.
         13    1    3    3    0    0 -0.54501573844E+02 -0.71776247967E+02  0.50478681625E+03  0.51276893547E+03  0.00000000000E+00 0.  1.
          1    1    1    2  501    0  0.37295286717E+02  0.15322222973E+02  0.13238566142E+03  0.13838956709E+03  0.00000000000E+00 0. -1.
<scales pt_clust_5="13000.00000" pt_clust_6="13000.00000" pt_clust_7="13000.00000" pt_clust_8="13000.00000" pt_clust_9="40.32010"></scales>
<clustering>
<clus scale="   40.320">  2  9  1 -1</clus>
<clus scale="   81.002">  5  6 -1 -1</clus>
<clus scale="   91.602">  7  8 -1 -1</clus>
<clus scale="  131.100">  2  5  1 -1</clus>
<clus scale="   40.320">  2  5  1 -1</clus>
</clustering>
</event>
<event>
 9    2  0.1302972E-004  0.1488747E+03  0.7546771E-02  0.1220720E+00
         21   -1    0    0  501  502  0.00000000000E+00  0.00000000000E+00  0.24302634436E+03  0.24302634436E+03  0.00000000000E+00 0. -1.
          2   -1    0    0  502    0 -0.00000000000E+00 -0.00000000000E+00 -0.20903013121E+03  0.20903013121E+03  0.00000000000E+00 0. -1.
         23    2    1    2    0    0 -0.13900630489E+02  0.39733872632E+02  0.12519795374E+03  0.15999129667E+03  0.90281112235E+02 0.  0.
         24    2    1    2    0    0 -0.11387806980E+03  0.90981092375E+01 -0.44059817551E+02  0.14737820778E+03  0.82024863507E+02 0.  0.
        -11    1    4    4    0    0 -0.13206078773E+02 -0.29513492830E+02 -0.51017903387E+01  0.32733393351E+02  0.00000000000E+00 0.  1.
         12    1    4    4    0    0 -0.10067199103E+03  0.38611602068E+02 -0.38958027213E+02  0.11464481443E+03  0.00000000000E+00 0. -1.
        -13    1    3    3    0    0 -0.51480397310E+02  0.28051781953E+02  0.88660822520E+02  0.10629146357E+03  0.00000000000E+00 0. -1.
         13    1    3    3    0    0  0.37579766820E+02  0.11682090680E+02  0.36537131220E+02  0.53699833098E+02  0.00000000000E+00 0.  1.
          1    1    1    2  501    0  0.12777870029E+03 -0.48831981870E+02 -0.47141923042E+02  0.14468697111E+03  0.00000000000E+00 0. -1.
<scales pt_clust_5="13000.00000" pt_clust_6="13000.00000" pt_clust_7="13000.00000" pt_clust_8="13000.00000" pt_clust_9="124.24010"></scales>
<clustering>
<clus scale="   82.025">  5  6 -1 -1</clus>
<clus scale="   90.281">  7  8 -1 -1</clus>
<clus scale="   99.613">  2  7  1 -1</clus>
<clus scale="  124.240">  1  9  2 -1</clus>
<clus scale="  124.240">  1  5  2 -1</clus>
</clustering>
</event>
<event>
 9    2  0.1302972E-004  0.1483157E+03  0.7546771E-02  0.1204977E+00
         -1   -1    0    0    0  501 -0.00000000000E+00  0.00000000000E+00  0.49263210843E+03  0.49263210843E+03  0.00000000000E+00 0.  1.
         21   -1    0    0  501  502  0.00000000000E+00 -0.00000000000E+00 -0.18297138330E+03  0.18297138330E+03  0.00000000000E+00 0. -1.
         24    2    1    2    0    0 -0.73107505082E+02  0.90929857875E+02  0.40697133136E+03  0.43072782477E+03  0.79295952765E+02 0.  0.
         23    2    1    2    0    0  0.87573860765E+02 -0.72115629834E+02 -0.13593586627E+03  0.19954177968E+03  0.92024545321E+02 0.  0.
        -11    1    3    3    0    0 -0.73100458876E+02  0.47043659169E+02  0.33782530028E+03  0.34883049819E+03  0.00000000000E+00 0.  1.
         12    1    3    3    0    0 -0.70462066148E-02  0.43886198706E+02  0.69146031082E+02  0.81897326580E+02  0.00000000000E+00 0. -1.
        -13    1    4    4    0    0  0.13091413303E+02 -0.64060429263E+02 -0.91425630283E+02  0.11240004258E+03  0.00000000000E+00 0. -1.
         13    1    4    4    0    0  0.74482447462E+02 -0.80552005710E+01 -0.44510235991E+02  0.87141737096E+02  0.00000000000E+00 0.  1.
         -2    1    1    2    0  502 -0.14466355682E+02 -0.18814228041E+02  0.38625260036E+02  0.45333887285E+02  0.00000000000E+00 0.  1.
<scales pt_clust_5="13000.00000" pt_clust_6="13000.00000" pt_clust_7="13000.00000" pt_clust_8="13000.00000" pt_clust_9="23.73291"></scales>
<clustering>
<clus scale="   23.733">  2  9  1 -1</clus>
<clus scale="   79.296">  5  6 -1 -1</clus>
<clus scale="   92.025">  7  8 -1 -1</clus>
<clus scale="  140.772">  1  5  2 -1</clus>
<clus scale="   23.733">  2  5  1 -1</clus>
</clustering>
</event>
<event>
 9    2  0.1302972E-004  0.1819451E+03  0.7546771E-02  0.1167882E+00
          2   -1    0    0  502    0 -0.00000000000E+00  0.00000000000E+00  0.76964822554E+03  0.76964822554E+03  0.00000000000E+00 0. -1.
         21   -1    0    0  501  502  0.00000000000E+00 -0.00000000000E+00 -0.12207920463E+03  0.12207920463E+03  0.00000000000E+00 0. -1.
         23    2    1    2    0    0 -0.76077547253E+02 -0.84998886434E+02  0.97058307070E+02  0.17886261447E+03  0.97769708967E+02 0.  0.
         24    2    1    2    0    0  0.72989875491E+02  0.21829972183E+03  0.14081113774E+03  0.28201404213E+03  0.81986907329E+02 0.  0.
        -11    1    4    4    0    0  0.11398931009E+02  0.15098291061E+03  0.10367057621E+03  0.18350303348E+03  0.00000000000E+00 0.  1.
         12    1    4    4    0    0  0.61590944482E+02  0.67316811212E+02  0.37140561528E+02  0.98511008647E+02  0.00000000000E+00 0. -1.
        -13    1    3    3    0    0 -0.60672903378E+02  0.27837066160E+01  0.45604218416E+02  0.75951925348E+02  0.00000000000E+00 0.  1.
         13    1    3    3    0    0 -0.15404643875E+02 -0.87782593050E+02  0.51454088653E+02  0.10291068912E+03  0.00000000000E+00 0. -1.
          1    1    1    2  501    0  0.30876717620E+01 -0.13330083539E+03  0.40969957610E+03  0.43085077357E+03  0.00000000000E+00 0. -1.
<scales pt_clust_5="13000.00000" pt_clust_6="13000.00000" pt_clust_7="13000.00000" pt_clust_8="13000.00000" pt_clust_9="133.33666"></scales>
<clustering>
<clus scale="   81.987">  5  6 -1 -1</clus>
<clus scale="   97.770">  7  8 -1 -1</clus>
<clus scale="  133.337">  2  9  1 -1</clus>
<clus scale="  173.974">  2  5  1 -1</clus>
<clus scale="  133.337">  2  5  1 -1</clus>
</clustering>
</event>
<event>
 9    2  0.1302972E-004  0.1045298E+03  0.7546771E-02  0.1277111E+00
         21   -1    0    0  501  502  0.00000000000E+00  0.00000000000E+00  0.32430027165E+03  0.32430027165E+03  0.00000000000E+00 0.  1.
          2   -1    0    0  502    0 -0.00000000000E+00 -0.00000000000E+00 -0.49003927501E+02  0.49003927501E+02  0.00000000000E+00 0. -1.
         23    2    1    2    0    0  0.42045368969E+02  0.11229487930E+02  0.94632635868E+02  0.13861872034E+03  0.91465290714E+02 0.  0.
         24    2    1    2    0    0 -0.64222397363E+02  0.66397982309E+01  0.17957699276E+03  0.20618437486E+03  0.78073663066E+02 0.  0.
        -13    1    4    4    0    0 -0.33240582428E+02  0.38954872188E+02  0.62251750491E+02  0.80608304948E+02  0.00000000000E+00 0.  1.
         14    1    4    4    0    0 -0.30981814935E+02 -0.32315073957E+02  0.11732524227E+03  0.12557606991E+03  0.00000000000E+00 0. -1.
        -13    1    3    3    0    0  0.75897598159E+00  0.45845202274E+02  0.55709671646E+02  0.72152104135E+02  0.00000000000E+00 0. -1.
         13    1    3    3    0    0  0.41286392987E+02 -0.34615714344E+02  0.38922964222E+02  0.66466616201E+02  0.00000000000E+00 0.  1.
          1    1    1    2  501    0  0.22177028394E+02 -0.17869286161E+02  0.10867155278E+01  0.28501103960E+02  0.00000000000E+00 0. -1.
<scales pt_clust_5="13000.00000" pt_clust_6="13000.00000" pt_clust_7="13000.00000" pt_clust_8="13000.00000" pt_clust_9="28.48039"></scales>
<clustering>
<clus scale="   28.480">  1  9  2 -1</clus>
<clus scale="   78.074">  5  6 -1 -1</clus>
<clus scale="   91.465">  7  8 -1 -1</clus>
<clus scale="   93.038">  1  5  2 -1</clus>
<clus scale="   28.480">  1  5  2 -1</clus>
</clustering>
</event>
<event>
 9    2  0.1302972E-004  0.1190215E+03  0.7546771E-02  0.1248162E+00
          2   -1    0    0  502    0 -0.00000000000E+00  0.00000000000E+00  0.22547226596E+03  0.22547226596E+03  0.00000000000E+00 0. -1.
         21   -1    0    0  501  502  0.00000000000E+00 -0.00000000000E+00 -0.12641827105E+03  0.12641827105E+03  0.00000000000E+00 0.  1.
         24    2    1    2    0    0 -0.61813898382E+02  0.62553290579E+02  0.99622228471E+02  0.15527894927E+03  0.80331136460E+02 0.  0.
         23    2    1    2    0    0  0.35851475063E+02 -0.21003381592E+02 -0.62253655308E+02  0.11783637833E+03  0.91013318568E+02 0.  0.
        -13    1    3    3    0    0 -0.37636236136E+02  0.71591328496E+02  0.10104370418E+03  0.12942810645E+03  0.00000000000E+00 0.  1.
         14    1    3    3    0    0 -0.24177662246E+02 -0.90380379173E+01 -0.14214757053E+01  0.25850842815E+02  0.00000000000E+00 0. -1.
        -11    1    4    4    0    0  0.21932180364E+02 -0.55686634436E+02 -0.24370189143E+02  0.64621419895E+02  0.00000000000E+00 0. -1.
         11    1    4    4    0    0  0.13919294699E+02  0.34683252845E+02 -0.37883466165E+02  0.53214958437E+02  0.00000000000E+00 0.  1.
          1    1    1    2  501    0  0.25962423319E+02 -0.41549908988E+02  0.61685421747E+02  0.78775209410E+02  0.00000000000E+00 0. -1.
<scales pt_clust_5="13000.00000" pt_clust_6="13000.00000" pt_clust_7="13000.00000" pt_clust_8="13000.00000" pt_clust_9="48.99433"></scales>
<clustering>
<clus scale="   48.994">  2  9  1 -1</clus>
<clus scale="   80.331">  5  6 -1 -1</clus>
<clus scale="   91.013">  7  8 -1 -1</clus>
<clus scale="  111.067">  1  5  2 -1</clus>
<clus scale="   48.994">  2  5  1 -1</clus>
</clustering>
</event>
<event>
 9    2  0.1302972E-004  0.9656330E+02  0.7546771E-02  0.1292451E+00
         21   -1    0    0  501  502  0.00000000000E+00  0.00000000000E+00  0.32822860272E+02  0.32822860272E+02  0.00000000000E+00 0. -1.
          2   -1    0    0  502    0 -0.00000000000E+00 -0.00000000000E+00 -0.52521311074E+03  0.52521311074E+03  0.00000000000E+00 0. -1.
         24    2    1    2    0    0  0.73340237214E+01 -0.23265417107E+02 -0.20342941728E+03  0.22016954147E+03  0.80597962987E+02 0.  0.
         23    2    1    2    0    0  0.31831205145E+02  0.63876933518E+02 -0.15673155195E+03  0.19410345367E+03  0.89542632813E+02 0.  0.
        -11    1    3    3    0    0  0.35675064204E+02  0.63781603272E+01 -0.14016957577E+03  0.14477880061E+03  0.00000000000E+00 0.  1.
         12    1    3    3    0    0 -0.28341040482E+02 -0.29643577434E+02 -0.63259841511E+02  0.75390740855E+02  0.00000000000E+00 0. -1.
        -11    1    4    4    0    0  0.40754037313E+02  0.39839180574E+02 -0.29231916861E+02  0.64051204746E+02  0.00000000000E+00 0. -1.
         11    1    4    4    0    0 -0.89228321683E+01  0.24037752944E+02 -0.12749963509E+03  0.13005224892E+03  0.00000000000E+00 0.  1.
          1    1    1    2  501    0 -0.39165228866E+02 -0.40611516411E+02 -0.13222928123E+03  0.14376297587E+03  0.00000000000E+00 0. -1.
<scales pt_clust_5="13000.00000" pt_clust_6="13000.00000" pt_clust_7="13000.00000" pt_clust_8="13000.00000" pt_clust_9="56.41998"></scales>
<clustering>
<clus scale="   56.420">  1  9  2 -1</clus>
<clus scale="   80.598">  5  6 -1 -1</clus>
<clus scale="   88.332">  2  5  1 -1</clus>
<clus scale="   89.543">  7  8 -1 -1</clus>
<clus scale="   56.420">  1  5  2 -1</clus>
</clustering>
</event>
<event>
 9    2  0.1302972E-004  0.1490705E+03  0.7546771E-02  0.1213623E+00
         -1   -1    0    0    0  501 -0.00000000000E+00  0.00000000000E+00  0.40613397320E+03  0.40613397320E+03  0.00000000000E+00 0.  1.
         21   -1    0    0  501  502  0.00000000000E+00 -0.00000000000E+00 -0.93765341735E+02  0.93765341735E+02  0.00000000000E+00 0.  1.
         24    2    1    2    0    0  0.13117971784E+02 -0.81507784549E+02  0.10888846690E+03  0.15855074159E+03  0.80411686394E+02 0.  0.
         23    2    1    2    0    0  0.57312058499E+02 -0.35294308276E+02  0.15445180053E+03  0.19641100563E+03  0.10095327731E+03 0.  0.
        -13    1    3    3    0    0  0.15787047779E+02 -0.93409002090E+02  0.69987517646E+02  0.11778253340E+03  0.00000000000E+00 0.  1.
         14    1    3    3    0    0 -0.26690759950E+01  0.11901217541E+02  0.38900949254E+02  0.40768208184E+02  0.00000000000E+00 0. -1.
        -11    1    4    4    0    0 -0.15415085134E+02 -0.45343250825E+02  0.59076169761E+02  0.76050174745E+02  0.00000000000E+00 0. -1.
         11    1    4    4    0    0  0.72727143633E+02  0.10048942549E+02  0.95375630770E+02  0.12036083089E+03  0.00000000000E+00 0.  1.
         -2    1    1    2    0  502 -0.70430030282E+02  0.11680209282E+03  0.49028364030E+02  0.14493756771E+03  0.00000000000E+00 0.  1.
<scales pt_clust_5="13000.00000" pt_clust_6="13000.00000" pt_clust_7="13000.00000" pt_clust_8="13000.00000" pt_clust_9="109.68337"></scales>
<clustering>
<clus scale="   80.412">  5  6 -1 -1</clus>
<clus scale="  100.953">  7  8 -1 -1</clus>
<clus scale="  115.246">  1  5  2 -1</clus>
<clus scale="  109.683">  2  9  1 -1</clus>
<clus scale="  109.683">  2  5  1 -1</clus>
</clustering>
</event>
<event>
 9    2  0.1302972E-004  0.1192952E+03  0.7546771E-02  0.1247685E+00
         21   -1    0    0  501  502  0.00000000000E+00  0.00000000000E+00  0.61434363613E+02  0.61434363613E+02  0.00000000000E+00 0. -1.
          2   -1    0    0  502    0 -0.00000000000E+00 -0.00000000000E+00 -0.95654014595E+03  0.95654014595E+03  0.00000000000E+00 0. -1.
         23    2    1    2    0    0  0.32504786781E+02 -0.76783941997E+02 -0.69996333893E+03  0.71083314878E+03  0.91557384425E+02 0.  0.
         24    2    1    2    0    0  0.29920011856E+02  0.70676735859E+02 -0.21426871721E+03  0.24156722105E+03  0.80952029081E+02 0.  0.
        -11    1    4    4    0    0 -0.51333517547E+01  0.75498134236E+02 -0.15625759240E+03  0.17361668916E+03  0.00000000000E+00 0.  1.
         12    1    4    4    0    0  0.35053363610E+02 -0.48213983768E+01 -0.58011124812E+02  0.67950531894E+02  0.00000000000E+00 0. -1.
        -13    1    3    3    0    0  0.64382951265E+02 -0.43314786686E+02 -0.43304245844E+03  0.43993988904E+03  0.00000000000E+00 0. -1.
         13    1    3    3    0    0 -0.31878164484E+02 -0.33469155312E+02 -0.26692088049E+03  0.27089325973E+03  0.00000000000E+00 0.  1.
          1    1    1    2  501    0 -0.62424798637E+02  0.61072061386E+01  0.19126273803E+02  0.65574139729E+02  0.00000000000E+00 0. -1.
<scales pt_clust_5="13000.00000" pt_clust_6="13000.00000" pt_clust_7="13000.00000" pt_clust_8="13000.00000" pt_clust_9="62.72283"></scales>
<clustering>
<clus scale="   62.723">  1  9  2 -1</clus>
<clus scale="   80.952">  5  6 -1 -1</clus>
<clus scale="   91.557">  7  8 -1 -1</clus>
<clus scale="  111.363">  1  5  2 -1</clus>
<clus scale="   62.723">  1  5  2 -1</clus>
</clustering>
</event>
<event>
 9    2  0.1302972E-004  0.1907022E+03  0.7546771E-02  0.1158711E+00
         -1   -1    0    0    0  501 -0.00000000000E+00  0.00000000000E+00  0.26814716689E+03  0.26814716689E+03  0.00000000000E+00 0.  1.
         21   -1    0    0  501  502  0.00000000000E+00 -0.00000000000E+00 -0.26846094608E+03  0.26846094608E+03  0.00000000000E+00 0. -1.
         23    2    1    2    0    0 -0.59651618731E+02  0.18414795573E+03  0.11032565246E+03  0.24035959932E+03  0.90178723533E+02 0.  0.
         24    2    1    2    0    0  0.12768539896E+02 -0.10188386049E+03 -0.14498748804E+03  0.19552516271E+03  0.81641661706E+02 0.  0.
        -13    1    4    4    0    0  0.35891346598E+02 -0.38036133373E+02 -0.25715324195E+02  0.58277046090E+02  0.00000000000E+00 0.  1.
         14    1    4    4    0    0 -0.23122806702E+02 -0.63847727117E+02 -0.11927216385E+03  0.13724811662E+03  0.00000000000E+00 0. -1.
        -11    1    3    3    0    0  0.17436960911E+02  0.22876166595E+02  0.37699775146E+02  0.47419823386E+02  0.00000000000E+00 0.  1.
         11    1    3    3    0    0 -0.77088579642E+02  0.16127178913E+03  0.72625877312E+02  0.19293977593E+03  0.00000000000E+00 0. -1.
         -2    1    1    2    0  502  0.46883078835E+02 -0.82264095238E+02  0.34348056387E+02  0.10072335094E+03  0.00000000000E+00 0.  1.
<scales pt_clust_5="13000.00000" pt_clust_6="13000.00000" pt_clust_7="13000.00000" pt_clust_8="13000.00000" pt_clust_9="94.68587"></scales>
<clustering>
<clus scale="   81.642">  5  6 -1 -1</clus>
<clus scale="   90.179">  7  8 -1 -1</clus>
<clus scale="   94.686">  2  9  1 -1</clus>
<clus scale="  186.817">  2  5  1 -1</clus>
<clus scale="   94.686">  2  5  1 -1</clus>
</clustering>
</event>
<event>
 9    2  0.1302972E-004  0.1910646E+03  0.7546771E-02  0.1158617E+00
         21   -1    0    0  501  502  0.00000000000E+00  0.00000000000E+00  0.72988158223E+02  0.72988158223E+02  0.00000000000E+00 0.  1.
          2   -1    0    0  502    0 -0.00000000000E+00 -0.00000000000E+00 -0.70102057280E+03  0.70102057280E+03  0.00000000000E+00 0. -1.
         23    2    1    2    0    0 -0.12708752564E+03  0.58393624102E+02 -0.21837695046E+03  0.27529246650E+03  0.92392613953E+02 0.  0.
         24    2    1    2    0    0  0.18943611693E+03 -0.50948112946E+02 -0.36242203662E+03  0.42014286478E+03  0.81783504371E+02 0.  0.
        -13    1    4    4    0    0  0.75356621607E+02  0.66837550881E+01 -0.19749455076E+03  0.21148851170E+03  0.00000000000E+00 0.  1.
         14    1    4    4    0    0  0.11407949533E+03 -0.57631868034E+02 -0.16492748587E+03  0.20865435309E+03  0.00000000000E+00 0. -1.
        -11    1    3    3    0    0 -0.40179402790E+02  0.46178856579E+01 -0.77493993554E+01  0.41179636556E+02  0.00000000000E+00 0.  1.
         11    1    3    3    0    0 -0.86908122850E+02  0.53775738444E+02 -0.21062755110E+03  0.23411282995E+03  0.00000000000E+00 0. -1.
          1    1    1    2  501    0 -0.62348591294E+02 -0.74455111562E+01 -0.47233427494E+02  0.78573399733E+02  0.00000000000E+00 0. -1.
<scales pt_clust_5="13000.00000" pt_clust_6="13000.00000" pt_clust_7="13000.00000" pt_clust_8="13000.00000" pt_clust_9="62.79158"></scales>
<clustering>
<clus scale="   62.792">  1  9  2 -1</clus>
<clus scale="   81.784">  5  6 -1 -1</clus>
<clus scale="   92.393">  7  8 -1 -1</clus>
<clus scale="  186.166">  1  5  2 -1</clus>
<clus scale="   62.792">  1  5  2 -1</clus>
</clustering>
</event>
<event>
 9    2  0.1302972E-004  0.2061136E+03  0.7546771E-02  0.1145584E+00
          2   -1    0    0  502    0 -0.00000000000E+00  0.00000000000E+00  0.77998858724E+03  0.77998858724E+03  0.00000000000E+00 0. -1.
         21   -1    0    0  501  502  0.00000000000E+00 -0.00000000000E+00 -0.65342214301E+02  0.65342214301E+02  0.00000000000E+00 0.  1.
         23    2    1    2    0    0  0.13213910830E+03 -0.12531432871E+03  0.33226407418E+03  0.39051387822E+03  0.94537025377E+02 0.  0.
         24    2    1    2    0    0 -0.10428389861E+03  0.15444431391E+03  0.33564566869E+03  0.39310159836E+03  0.84514342665E+02 0.  0.
        -13    1    4    4    0    0 -0.11399013514E+02  0.90109740993E+02  0.13238575937E+03  0.16054809938E+03  0.00000000000E+00 0.  1.
         14    1    4    4    0    0 -0.92884885100E+02  0.64334572922E+02  0.20325990931E+03  0.23255349898E+03  0.00000000000E+00 0. -1.
        -13    1    3    3    0    0  0.11549390717E+02 -0.70664270806E+02  0.97141457135E+02  0.12067845826E+03  0.00000000000E+00 0.  1.
         13    1    3    3    0    0  0.12058971758E+03 -0.54650057906E+02  0.23512261705E+03  0.26983541996E+03  0.00000000000E+00 0. -1.
          1    1    1    2  501    0 -0.27855209685E+02 -0.29129985202E+02  0.46736630070E+02  0.61715324959E+02  0.00000000000E+00 0. -1.
<scales pt_clust_5="13000.00000" pt_clust_6="13000.00000" pt_clust_7="13000.00000" pt_clust_8="13000.00000" pt_clust_9="40.30470"></scales>
<clustering>
<clus scale="   40.305">  2  9  1 -1</clus>
<clus scale="   84.514">  5  6 -1 -1</clus>
<clus scale="   94.537">  7  8 -1 -1</clus>
<clus scale="  201.713">  2  5  1 -1</clus>
<clus scale="   40.305">  2  5  1 -1</clus>
</clustering>
</event>
<event>
 9    2  0.1302972E-004  0.1093108E+03  0.7546771E-02  0.1268825E+00
         21   -1    0    0  501  502  0.00000000000E+00  0.00000000000E+00  0.19800880968E+03  0.19800880968E+03  0.00000000000E+00 0. -1.
          2   -1    0    0  502    0 -0.00000000000E+00 -0.00000000000E+00 -0.75243170267E+02  0.75243170267E+02  0.00000000000E+00 0. -1.
         24    2    1    2    0    0 -0.31832488355E+02 -0.24338200364E+02  0.34258218229E+02  0.96302315951E+02  0.80590664654E+02 0.  0.
         23    2    1    2    0    0  0.38959130295E+02  0.57032519947E+02  0.60430494123E+02  0.13326875980E+03  0.96634339408E+02 0.  0.
        -11    1    3    3    0    0 -0.79401799648E+01  0.29786439650E+02  0.12506272818E+02  0.33266879996E+02  0.00000000000E+00 0.  1.
         12    1    3    3    0    0 -0.23892308390E+02 -0.54124640014E+02  0.21751945411E+02  0.63035435955E+02  0.00000000000E+00 0. -1.
        -13    1    4    4    0    0 -0.35223841779E+01 -0.25426903437E+02  0.89731154442E+01  0.27192855854E+02  0.00000000000E+00 0.  1.
         13    1    4    4    0    0  0.42481514473E+02  0.82459423384E+02  0.51457378679E+02  0.10607590394E+03  0.00000000000E+00 0. -1.
          1    1    1    2  501    0 -0.71266419405E+01 -0.32694319583E+02  0.28076927057E+02  0.43680904195E+02  0.00000000000E+00 0. -1.
<scales pt_clust_5="13000.00000" pt_clust_6="13000.00000" pt_clust_7="13000.00000" pt_clust_8="13000.00000" pt_clust_9="33.46203"></scales>
<clustering>
<clus scale="   33.462">  1  9  2 -1</clus>
<clus scale="   80.591">  5  6 -1 -1</clus>
<clus scale="   95.423">  2  5  1 -1</clus>
<clus scale="   96.634">  7  8 -1 -1</clus>
<clus scale="   33.462">  1  5  2 -1</clus>
</clustering>
</event>
<event>
 9    2  0.1302972E-004  0.1372066E+03  0.7546771E-02  0.1220143E+00
         21   -1    0    0  501  502  0.00000000000E+00  0.00000000000E+00  0.23500568057E+03  0.23500568057E+03  0.00000000000E+00 0.  1.
         -1   -1    0    0    0  501 -0.00000000000E+00 -0.00000000000E+00 -0.13476385751E+03  0.13476385751E+03  0.00000000000E+00 0.  1.
         23    2    1    2    0    0 -0.98281363225E+02 -0.52722440322E+02 -0.36339528885E+02  0.14888945732E+03  0.91698566352E+02 0.  0.
         24    2    1    2    0    0  0.77838987351E+02  0.13327041262E+02  0.13690314918E+03  0.17649549164E+03  0.78559966472E+02 0.  0.
        -13    1    4    4    0    0  0.39003833676E+02 -0.30356471271E+02  0.41152687098E+02  0.64314524369E+02  0.00000000000E+00 0.  1.
         14    1    4    4    0    0  0.38835153675E+02  0.43683512533E+02  0.95750462083E+02  0.11218096727E+03  0.00000000000E+00 0. -1.
        -11    1    3    3    0    0 -0.94213100183E+02 -0.61544078036E+01 -0.38808695304E+02  0.10207889014E+03  0.00000000000E+00 0.  1.
         11    1    3    3    0    0 -0.40682630418E+01 -0.46568032518E+02  0.24691664189E+01  0.46810567179E+02  0.00000000000E+00 0. -1.
         -2    1    1    2    0  502  0.20442375874E+02  0.39395399060E+02 -0.32179723193E+00  0.44384589126E+02  0.00000000000E+00 0.  1.
<scales pt_clust_5="13000.00000" pt_clust_6="13000.00000" pt_clust_7="13000.00000" pt_clust_8="13000.00000" pt_clust_9="44.38344"></scales>
<clustering>
<clus scale="   44.383">  1  9  2 -1</clus>
<clus scale="   78.560">  5  6 -1 -1</clus>
<clus scale="   91.699">  7  8 -1 -1</clus>
<clus scale="  128.797">  1  5  2 -1</clus>
<clus scale="   44.383">  1  5  2 -1</clus>
</clustering>
</event>
<event>
 9    2  0.1941692E-004  0.1270453E+03  0.7546771E-02  0.1234347E+00
          2   -1    0    0  502    0 -0.00000000000E+00  0.00000000000E+00  0.83769670780E+03  0.83769670780E+03  0.00000000000E+00 0. -1.
         21   -1    0    0  501  502  0.00000000000E+00 -0.00000000000E+00 -0.12813528755E+03  0.12813528755E+03  0.00000000000E+00 0. -1.
         24    2    1    2    0    0  0.85458049465E+02  0.35411533310E+02  0.78311185614E+03  0.79256067497E+03  0.79568771355E+02 0.  0.
         23    2    1    2    0    0 -0.43737636678E+02 -0.42766607085E+02 -0.74310877518E+02  0.13090071471E+03  0.88718245306E+02 0.  0.
        -13    1    3    3    0    0  0.30033697755E+02 -0.23551029213E+02  0.17681574275E+03  0.18088803405E+03  0.00000000000E+00 0.  1.
         14    1    3    3    0    0  0.55424351710E+02  0.58962562523E+02  0.60629611339E+03  0.61167264092E+03  0.00000000000E+00 0. -1.
        -13    1    4    4    0    0 -0.58953631390E+02 -0.59864448105E+02 -0.64843893667E+02  0.10613205617E+03  0.00000000000E+00 0. -1.
         13    1    4    4    0    0  0.15215994712E+02  0.17097841020E+02 -0.94669838518E+01  0.24768658540E+02  0.00000000000E+00 0.  1.
          1    1    1    2  501    0 -0.41720412787E+02  0.73550737753E+01  0.76044162182E+00  0.42370605670E+02  0.00000000000E+00 0. -1.
<scales pt_clust_5="13000.00000" pt_clust_6="13000.00000" pt_clust_7="13000.00000" pt_clust_8="13000.00000" pt_clust_9="42.36378"></scales>
<clustering>
<clus scale="   42.364">  2  9  1 -1</clus>
<clus scale="   79.569">  5  6 -1 -1</clus>
<clus scale="   88.718">  7  8 -1 -1</clus>
<clus scale="  120.834">  1  5  2 -1</clus>
<clus scale="   42.364">  2  5  1 -1</clus>
</clustering>
</event>
<event>
 9    2  0.1302972E-004  0.1923673E+03  0.7546771E-02  0.1185218E+00
         -1   -1    0    0    0  501 -0.00000000000E+00  0.00000000000E+00  0.39095458054E+03  0.39095458054E+03  0.00000000000E+00 0.  1.
         21   -1    0    0  501  502  0.00000000000E+00 -0.00000000000E+00 -0.20205785010E+03  0.20205785010E+03  0.00000000000E+00 0.  1.
         24    2    1    2    0    0  0.17191151976E+02  0.57368088078E+02  0.81403776625E+02  0.12852408582E+03  0.79405494470E+02 0.  0.
         23    2    1    2    0    0  0.15206112306E+03 -0.14165251499E+02  0.19925049664E+03  0.26717573914E+03  0.91426887049E+02 0.  0.
        -13    1    3    3    0    0  0.48106194269E+01  0.74928025079E+02  0.49043618349E+02  0.89680697490E+02  0.00000000000E+00 0.  1.
         14    1    3    3    0    0  0.12380532549E+02 -0.17559937000E+02  0.32360158276E+02  0.38843388334E+02  0.00000000000E+00 0. -1.
        -11    1    4    4    0    0  0.22638800345E+02  0.59330856281E+01 -0.55722596175E+01  0.24057573930E+02  0.00000000000E+00 0. -1.
         11    1    4    4    0    0  0.12942232271E+03 -0.20098337127E+02  0.20482275626E+03  0.24311816521E+03  0.00000000000E+00 0.  1.
         -2    1    1    2    0  502 -0.16925227503E+03 -0.43202836579E+02 -0.91757542834E+02  0.19731260568E+03  0.00000000000E+00 0.  1.
<scales pt_clust_5="13000.00000" pt_clust_6="13000.00000" pt_clust_7="13000.00000" pt_clust_8="13000.00000" pt_clust_9="169.25215"></scales>
<clustering>
<clus scale="   79.405">  5  6 -1 -1</clus>
<clus scale="   91.427">  7  8 -1 -1</clus>
<clus scale="   99.458">  1  5  2 -1</clus>
<clus scale="  169.252">  2  9  1 -1</clus>
<clus scale="  169.252">  2  5  1 -1</clus>
</clustering>
</event>
<event>
 9    2  0.1302972E-004  0.2939440E+03  0.7546771E-02  0.1121942E+00
         21   -1    0    0  501  502  0.00000000000E+00  0.00000000000E+00  0.97632749320E+03  0.97632749320E+03  0.00000000000E+00 0. -1.
          2   -1    0    0  502    0 -0.00000000000E+00 -0.00000000000E+00 -0.13848593869E+03  0.13848593869E+03  0.00000000000E+00 0. -1.
         23    2    1    2    0    0 -0.69088523962E+02 -0.45992063074E+02  0.70344190050E+02  0.14239449667E+03  0.91866172228E+02 0.  0.
         24    2    1    2    0    0  0.27487451287E+03  0.19009582909E+03  0.40174503683E+03  0.52869770091E+03  0.80185798429E+02 0.  0.
        -11    1    4    4    0    0  0.52454054815E+02  0.77893629993E+02  0.12495984326E+03  0.15631317247E+03  0.00000000000E+00 0.  1.
         12    1    4    4    0    0  0.22242045806E+03  0.11220219909E+03  0.27678519357E+03  0.37238452844E+03  0.00000000000E+00 0. -1.
        -13    1    3    3    0    0 -0.35911414571E+02 -0.44134131338E+02  0.87979849637E+02  0.10477549899E+03  0.00000000000E+00 0. -1.
         13    1    3    3    0    0 -0.33177109391E+02 -0.18579317352E+01 -0.17635659587E+02  0.37618997687E+02  0.00000000000E+00 0.  1.
          1    1    1    2  501    0 -0.20578598891E+03 -0.14410376601E+03  0.36575232763E+03  0.44372123431E+03  0.00000000000E+00 0. -1.
<scales pt_clust_5="13000.00000" pt_clust_6="13000.00000" pt_clust_7="13000.00000" pt_clust_8="13000.00000" pt_clust_9="282.79557"></scales>
<clustering>
<clus scale="   80.186">  5  6 -1 -1</clus>
<clus scale="   91.866">  7  8 -1 -1</clus>
<clus scale="  123.806">  2  7  1 -1</clus>
<clus scale="  282.796">  1  9  2 -1</clus>
<clus scale="  282.796">  1  5  2 -1</clus>
</clustering>
</event>
<event>
 9    2  0.1302972E-004  0.1529727E+03  0.7546771E-02  0.1216923E+00
         -1   -1    0    0    0  501 -0.00000000000E+00  0.00000000000E+00  0.37169350985E+03  0.37169350985E+03  0.00000000000E+00 0.  1.
         21   -1    0    0  501  502  0.00000000000E+00 -0.00000000000E+00 -0.15014552191E+03  0.15014552191E+03  0.00000000000E+00 0. -1.
         24    2    1    2    0    0 -0.54674582412E+02  0.20327194438E+02 -0.64923914083E+02  0.11876977713E+03  0.80552098326E+02 0.  0.
         23    2    1    2    0    0 -0.33438265422E+02  0.96658058007E+02  0.14573188196E+03  0.19995062799E+03  0.91003156215E+02 0.  0.
        -13    1    3    3    0    0 -0.18610917399E+02 -0.19359647593E+02  0.82108774473E+01  0.28081679255E+02  0.00000000000E+00 0.  1.
         14    1    3    3    0    0 -0.36063665013E+02  0.39686842030E+02 -0.73134791530E+02  0.90688097877E+02  0.00000000000E+00 0. -1.
        -11    1    4    4    0    0  0.22845051165E+02  0.71832281260E+02  0.81464859954E+02  0.11098782096E+03  0.00000000000E+00 0. -1.
         11    1    4    4    0    0 -0.56283316587E+02  0.24825776747E+02  0.64267022004E+02  0.88962807028E+02  0.00000000000E+00 0.  1.
         -2    1    1    2    0  502  0.88112847833E+02 -0.11698525244E+03  0.14074002006E+03  0.20311862664E+03  0.00000000000E+00 0.  1.
<scales pt_clust_5="13000.00000" pt_clust_6="13000.00000" pt_clust_7="13000.00000" pt_clust_8="13000.00000" pt_clust_9="122.95970"></scales>
<clustering>
<clus scale="   80.552">  5  6 -1 -1</clus>
<clus scale="   91.003">  7  8 -1 -1</clus>
<clus scale="   99.454">  1  5  2 -1</clus>
<clus scale="  122.960">  2  9  1 -1</clus>
<clus scale="  122.960">  2  5  1 -1</clus>
</clustering>
</event>
<event>
 9    2  0.1302972E-004  0.9683195E+02  0.7546771E-02  0.1292588E+00
          2   -1    0    0  502    0 -0.00000000000E+00  0.00000000000E+00  0.25664957150E+03  0.25664957150E+03  0.00000000000E+00 0. -1.
         21   -1    0    0  501  502  0.00000000000E+00 -0.00000000000E+00 -0.96904153427E+02  0.96904153427E+02  0.00000000000E+00 0. -1.
         24    2    1    2    0    0  0.30663597964E+02  0.15748405674E+01  0.16919983970E+03  0.18989492545E+03  0.80552843494E+02 0.  0.
         23    2    1    2    0    0 -0.58278040331E+02  0.16996568957E+02 -0.42140950921E+02  0.11701264340E+03  0.90724228463E+02 0.  0.
        -11    1    3    3    0    0  0.86843032792E+01  0.32309075834E+02  0.27692978780E+02  0.43430341679E+02  0.00000000000E+00 0.  1.
         12    1    3    3    0    0  0.21979294685E+02 -0.30734235266E+02  0.14150686092E+03  0.14646458377E+03  0.00000000000E+00 0. -1.
        -11    1    4    4    0    0 -0.91153401853E+01 -0.35666929767E+02 -0.18412302606E+02  0.41161051893E+02  0.00000000000E+00 0.  1.
         11    1    4    4    0    0 -0.49162700146E+02  0.52663498725E+02 -0.23728648316E+02  0.75851591509E+02  0.00000000000E+00 0. -1.
          1    1    1    2  501    0  0.27614442367E+02 -0.18571409525E+02  0.32686529291E+02  0.46646156070E+02  0.00000000000E+00 0. -1.
<scales pt_clust_5="13000.00000" pt_clust_6="13000.00000" pt_clust_7="13000.00000" pt_clust_8="13000.00000" pt_clust_9="33.27846"></scales>
<clustering>
<clus scale="   33.278">  2  9  1 -1</clus>
<clus scale="   80.553">  5  6 -1 -1</clus>
<clus scale="   87.374">  1  5  2 -1</clus>
<clus scale="   90.724">  7  8 -1 -1</clus>
<clus scale="   33.278">  2  5  1 -1</clus>
</clustering>
</event>
<event>
 9    2  0.1302972E-004  0.1040608E+03  0.7546771E-02  0.1276596E+00
         -1   -1    0    0    0  501 -0.00000000000E+00  0.00000000000E+00  0.22193273056E+03  0.22193273056E+03  0.00000000000E+00 0.  1.
         21   -1    0    0  501  502  0.00000000000E+00 -0.00000000000E+00 -0.80008821087E+02  0.80008821087E+02  0.00000000000E+00 0. -1.
         23    2    1    2    0    0 -0.36793930704E+02  0.33974681527E+02  0.72085885273E+02  0.12558204762E+03  0.89813158878E+02 0.  0.
         24    2    1    2    0    0  0.54712355945E+02 -0.23387977039E+02 -0.43254253838E+01  0.99331161650E+02  0.79419966047E+02 0.  0.
        -13    1    4    4    0    0  0.50931048784E+02 -0.50505613679E+02 -0.85659184941E+00  0.71732297418E+02  0.00000000000E+00 0.  1.
         14    1    4    4    0    0  0.37813071610E+01  0.27117636640E+02 -0.34688335344E+01  0.27598864232E+02  0.00000000000E+00 0. -1.
        -13    1    3    3    0    0 -0.30833148646E+01 -0.28416433590E+02  0.72348565958E+01  0.29484634617E+02  0.00000000000E+00 0. -1.
         13    1    3    3    0    0 -0.33710615840E+02  0.62391115116E+02  0.64851028677E+02  0.96097413005E+02  0.00000000000E+00 0.  1.
         -2    1    1    2    0  502 -0.17918425241E+02 -0.10586704488E+02  0.74163449585E+02  0.77028342377E+02  0.00000000000E+00 0.  1.
<scales pt_clust_5="13000.00000" pt_clust_6="13000.00000" pt_clust_7="13000.00000" pt_clust_8="13000.00000" pt_clust_9="20.81222"></scales>
<clustering>
<clus scale="   20.812">  2  9  1 -1</clus>
<clus scale="   79.420">  5  6 -1 -1</clus>
<clus scale="   89.813">  7  8 -1 -1</clus>
<clus scale="   95.235">  2  5  1 -1</clus>
<clus scale="   20.812">  2  5  1 -1</clus>
</clustering>
</event>
<event>
 9    2  0.1302972E-004  0.1461537E+03  0.7546771E-02  0.1207004E+00
          2   -1    0    0  502    0 -0.00000000000E+00  0.00000000000E+00  0.14986554305E+04  0.14986554305E+04  0.00000000000E+00 0. -1.
         21   -1    0    0  501  502  0.00000000000E+00 -0.00000000000E+00 -0.28765123515E+02  0.28765123515E+02  0.00000000000E+00 0.  1.
         24    2    1    2    0    0 -0.10330786739E+03  0.34728127770E+02  0.12570485322E+04  0.12658421230E+04  0.10152196650E+03 0.  0.
         23    2    1    2    0    0  0.81022164555E+02 -0.29015819915E+02  0.16380381710E+03  0.20741198104E+03  0.93709820329E+02 0.  0.
        -11    1    3    3    0    0 -0.53171412489E+02  0.70770412985E+01  0.19476107368E+03  0.20201277049E+03  0.00000000000E+00 0.  1.
         12    1    3    3    0    0 -0.50136454900E+02  0.27651086471E+02  0.10622874585E+04  0.10638293525E+04  0.00000000000E+00 0. -1.
        -11    1    4    4    0    0 -0.20183292089E+02 -0.13406786750E+02  0.39754423521E+02  0.46556647216E+02  0.00000000000E+00 0. -1.
         11    1    4    4    0    0  0.10120545664E+03 -0.15609033165E+02  0.12404939358E+03  0.16085533382E+03  0.00000000000E+00 0.  1.
          1    1    1    2  501    0  0.22285702833E+02 -0.57123078544E+01  0.49037957715E+02  0.54166450028E+02  0.00000000000E+00 0. -1.
<scales pt_clust_5="13000.00000" pt_clust_6="13000.00000" pt_clust_7="13000.00000" pt_clust_8="13000.00000" pt_clust_9="23.00615"></scales>
<clustering>
<clus scale="   23.006">  2  9  1 -1</clus>
<clus scale="   93.710">  7  8 -1 -1</clus>
<clus scale="  101.522">  5  6 -1 -1</clus>
<clus scale="  140.839">  2  7  1 -1</clus>
<clus scale="   23.006">  2  5  1 -1</clus>
</clustering>
</event>
<event>
 9    2  0.1302972E-004  0.1812131E+03  0.7546771E-02  0.1168209E+00
         21   -1    0    0  501  502  0.00000000000E+00  0.00000000000E+00  0.42348028086E+03  0.42348028086E+03  0.00000000000E+00 0. -1.
          2   -1    0    0  502    0 -0.00000000000E+00 -0.00000000000E+00 -0.17013543708E+03  0.17013543708E+03  0.00000000000E+00 0. -1.
         23    2    1    2    0    0 -0.83733229217E+02 -0.13070258762E+03 -0.38443566228E+02  0.18601816282E+03  0.95028569544E+02 0.  0.
         24    2    1    2    0    0  0.51044335040E+02  0.14673666353E+03  0.80642208861E+02  0.19333516072E+03  0.82086210511E+02 0.  0.
        -11    1    4    4    0    0  0.45257469784E+02  0.14915395346E+03  0.91540131484E+02  0.18076154479E+03  0.00000000000E+00 0.  1.
         12    1    4    4    0    0  0.57868652558E+01 -0.24172899215E+01 -0.10897922624E+02  0.12573615930E+02  0.00000000000E+00 0. -1.
        -13    1    3    3    0    0 -0.98539498362E+02 -0.11542472950E+03 -0.52418690066E+02  0.16056344536E+03  0.00000000000E+00 0. -1.
         13    1    3    3    0    0  0.14806269146E+02 -0.15277858115E+02  0.13975123837E+02  0.25454717458E+02  0.00000000000E+00 0.  1.
          1    1    1    2  501    0  0.32688894177E+02 -0.16034075916E+02  0.21114620115E+03  0.21426239439E+03  0.00000000000E+00 0. -1.
<scales pt_clust_5="13000.00000" pt_clust_6="13000.00000" pt_clust_7="13000.00000" pt_clust_8="13000.00000" pt_clust_9="36.40955"></scales>
<clustering>
<clus scale="   36.410">  1  9  2 -1</clus>
<clus scale="   82.086">  5  6 -1 -1</clus>
<clus scale="   95.029">  7  8 -1 -1</clus>
<clus scale="  174.774">  1  5  2 -1</clus>
<clus scale="   36.410">  1  5  2 -1</clus>
</clustering>
</event>
<event>
 9    2  0.1302972E-004  0.1305159E+03  0.7546771E-02  0.1230364E+00
         21   -1    0    0  501  502  0.00000000000E+00  0.00000000000E+00  0.44799750999E+03  0.44799750999E+03  0.00000000000E+00 0.  1.
         -1   -1    0    0    0  501 -0.00000000000E+00 -0.00000000000E+00 -0.56919236481E+02  0.56919236481E+02  0.00000000000E+00 0.  1.
         23    2    1    2    0    0 -0.68790244930E+02 -0.38877478424E+02  0.11795113435E+03  0.17067173042E+03  0.94724935183E+02 0.  0.
         24    2    1    2    0    0  0.85458813674E+02  0.71860776301E+02  0.26121470543E+03  0.29541660892E+03  0.81059672389E+02 0.  0.
        -11    1    4    4    0    0  0.70106691752E+02  0.85903333156E+02  0.24538563365E+03  0.26927391273E+03  0.00000000000E+00 0.  1.
         12    1    4    4    0    0  0.15352121922E+02 -0.14042556856E+02  0.15829071777E+02  0.26142696186E+02  0.00000000000E+00 0. -1.
        -11    1    3    3    0    0 -0.27731161251E+02  0.31434221396E+02  0.41321367098E+02  0.58860708099E+02  0.00000000000E+00 0.  1.
         11    1    3    3    0    0 -0.41059083679E+02 -0.70311699820E+02  0.76629767249E+02  0.11181102232E+03  0.00000000000E+00 0. -1.
         -2    1    1    2    0  502 -0.16668568744E+02 -0.32983297877E+02  0.11912433735E+02  0.38828407131E+02  0.00000000000E+00 0.  1.
<scales pt_clust_5="13000.00000" pt_clust_6="13000.00000" pt_clust_7="13000.00000" pt_clust_8="13000.00000" pt_clust_9="36.95593"></scales>
<clustering>
<clus scale="   36.956">  1  9  2 -1</clus>
<clus scale="   81.060">  5  6 -1 -1</clus>
<clus scale="   94.725">  7  8 -1 -1</clus>
<clus scale="  120.964">  1  5  2 -1</clus>
<clus scale="   36.956">  1  5  2 -1</clus>
</clustering>
</event>
<event>
 9    2  0.1302972E-004  0.9662451E+02  0.7546771E-02  0.1295383E+00
          4   -1    0    0  502    0 -0.00000000000E+00  0.00000000000E+00  0.21659037956E+03  0.21659037956E+03  0.00000000000E+00 0. -1.
         21   -1    0    0  501  502  0.00000000000E+00 -0.00000000000E+00 -0.10768421020E+03  0.10768421020E+03  0.00000000000E+00 0. -1.
         23    2    1    2    0    0 -0.24921137185E+02 -0.14124728360E+02  0.13483349778E+03  0.16664354767E+03  0.93645228524E+02 0.  0.
         24    2    1    2    0    0 -0.29102332025E+01 -0.21338413374E-01 -0.68133836323E+02  0.10513260696E+03  0.80013595601E+02 0.  0.
        -11    1    4    4    0    0 -0.37609891704E+02 -0.17068405114E+02 -0.32514579200E+02  0.52564553339E+02  0.00000000000E+00 0.  1.
         12    1    4    4    0    0  0.34699658502E+02  0.17047066701E+02 -0.35619257122E+02  0.52568053618E+02  0.00000000000E+00 0. -1.
        -11    1    3    3    0    0  0.18840182301E+02 -0.39830291012E+02  0.83754694792E+02  0.94637484386E+02  0.00000000000E+00 0.  1.
         11    1    3    3    0    0 -0.43761319486E+02  0.25705562652E+02  0.51078802988E+02  0.72006063280E+02  0.00000000000E+00 0. -1.
          3    1    1    2  501    0  0.27831370387E+02  0.14146066773E+02  0.42206507898E+02  0.52498435135E+02  0.00000000000E+00 0. -1.
<scales pt_clust_5="13000.00000" pt_clust_6="13000.00000" pt_clust_7="13000.00000" pt_clust_8="13000.00000" pt_clust_9="31.22014"></scales>
<clustering>
<clus scale="   31.220">  2  9  1 -1</clus>
<clus scale="   80.014">  5  6 -1 -1</clus>
<clus scale="   83.481">  2  5  1 -1</clus>
<clus scale="   93.645">  7  8 -1 -1</clus>
<clus scale="   31.220">  2  5  1 -1</clus>
</clustering>
</event>
<event>
 9    2  0.1302972E-004  0.1913712E+03  0.7546771E-02  0.1161800E+00
         21   -1    0    0  501  502  0.00000000000E+00  0.00000000000E+00  0.29950844973E+02  0.29950844973E+02  0.00000000000E+00 0.  1.
          2   -1    0    0  502    0 -0.00000000000E+00 -0.00000000000E+00 -0.15583100347E+04  0.15583100347E+04  0.00000000000E+00 0. -1.
         23    2    1    2    0    0 -0.12344937200E+03 -0.55821445853E+02 -0.60665669853E+03  0.63248562760E+03  0.11683294905E+03 0.  0.
         24    2    1    2    0    0  0.16749666134E+03  0.40539288996E+02 -0.57056285604E+03  0.60155392099E+03  0.81403818418E+02 0.  0.
        -11    1    4    4    0    0  0.12819313010E+02  0.17690075925E+02 -0.21458957235E+02  0.30622874095E+02  0.00000000000E+00 0.  1.
         12    1    4    4    0    0  0.15467734833E+03  0.22849213072E+02 -0.54910389881E+03  0.57093104690E+03  0.00000000000E+00 0. -1.
        -11    1    3    3    0    0  0.75970453440E+01 -0.20059105330E+02 -0.16956690016E+02  0.27342496976E+02  0.00000000000E+00 0.  1.
         11    1    3    3    0    0 -0.13104641735E+03 -0.35762340524E+02 -0.58970000852E+03  0.60514313063E+03  0.00000000000E+00 0. -1.
          1    1    1    2  501    0 -0.44047289340E+02  0.15282156857E+02 -0.35113963518E+03  0.35422133110E+03  0.00000000000E+00 0. -1.
<scales pt_clust_5="13000.00000" pt_clust_6="13000.00000" pt_clust_7="13000.00000" pt_clust_8="13000.00000" pt_clust_9="46.62307"></scales>
<clustering>
<clus scale="   46.623">  1  9  2 -1</clus>
<clus scale="   81.404">  5  6 -1 -1</clus>
<clus scale="  116.833">  7  8 -1 -1</clus>
<clus scale="  172.045">  1  5  2 -1</clus>
<clus scale="   46.623">  1  5  2 -1</clus>
</clustering>
</event>
<event>
 9    2  0.1302972E-004  0.1058108E+03  0.7546771E-02  0.1278065E+00
         21   -1    0    0  501  502  0.00000000000E+00  0.00000000000E+00  0.25408490868E+02  0.25408490868E+02  0.00000000000E+00 0.  1.
          2   -1    0    0  502    0 -0.00000000000E+00 -0.00000000000E+00 -0.10078004186E+04  0.10078004186E+04  0.00000000000E+00 0. -1.
         24    2    1    2    0    0  0.26942428349E+02  0.38665296986E+02 -0.66647716275E+03  0.67296700086E+03  0.80447971647E+02 0.  0.
         23    2    1    2    0    0  0.18946972308E+02 -0.15537992157E+02 -0.27823021591E+03  0.29651723083E+03  0.99548973730E+02 0.  0.
        -11    1    3    3    0    0 -0.10723032515E+02 -0.18965869432E+02 -0.10160917669E+03  0.10391877798E+03  0.00000000000E+00 0.  1.
         12    1    3    3    0    0  0.37665460863E+02  0.57631166418E+02 -0.56486798606E+03  0.56904822288E+03  0.00000000000E+00 0. -1.
        -13    1    4    4    0    0 -0.27266062890E+02 -0.31177912567E+02 -0.60049121171E+02  0.72947908613E+02  0.00000000000E+00 0.  1.
         13    1    4    4    0    0  0.46213035198E+02  0.15639920410E+02 -0.21818109474E+03  0.22356932221E+03  0.00000000000E+00 0. -1.
          1    1    1    2  501    0 -0.45889400656E+02 -0.23127304830E+02 -0.37684549096E+02  0.63724677809E+02  0.00000000000E+00 0. -1.
<scales pt_clust_5="13000.00000" pt_clust_6="13000.00000" pt_clust_7="13000.00000" pt_clust_8="13000.00000" pt_clust_9="51.38783"></scales>
<clustering>
<clus scale="   51.388">  1  9  2 -1</clus>
<clus scale="   80.448">  5  6 -1 -1</clus>
<clus scale="   88.078">  2  5  1 -1</clus>
<clus scale="   99.549">  7  8 -1 -1</clus>
<clus scale="   51.388">  1  5  2 -1</clus>
</clustering>
</event>
<event>
 9    2  0.1302972E-004  0.3437762E+03  0.7546771E-02  0.1065449E+00
          2   -1    0    0  502    0 -0.00000000000E+00  0.00000000000E+00  0.30990287894E+03  0.30990287894E+03  0.00000000000E+00 0. -1.
         21   -1    0    0  501  502  0.00000000000E+00 -0.00000000000E+00 -0.46758886413E+03  0.46758886413E+03  0.00000000000E+00 0. -1.
         24    2    1    2    0    0  0.32964242370E+03  0.77525771486E+02 -0.52888369367E+00  0.34856403449E+03  0.82596813949E+02 0.  0.
         23    2    1    2    0    0 -0.32296339498E+03 -0.17295127689E+02 -0.14903290713E+03  0.36778572292E+03  0.91929617837E+02 0.  0.
        -13    1    3    3    0    0  0.88494440244E+02 -0.12178122297E+02 -0.16240768565E+02  0.90792814586E+02  0.00000000000E+00 0.  1.
         14    1    3    3    0    0  0.24114798345E+03  0.89703893783E+02  0.15711884871E+02  0.25777121990E+03  0.00000000000E+00 0. -1.
        -11    1    4    4    0    0 -0.21019957354E+03 -0.43252007512E+02 -0.63207028174E+02  0.22371795923E+03  0.00000000000E+00 0. -1.
         11    1    4    4    0    0 -0.11276382144E+03  0.25956879823E+02 -0.85825878961E+02  0.14406776369E+03  0.00000000000E+00 0.  1.
          1    1    1    2  501    0 -0.66790287188E+01 -0.60230643796E+02 -0.81241943568E+01  0.61141985662E+02  0.00000000000E+00 0. -1.
<scales pt_clust_5="13000.00000" pt_clust_6="13000.00000" pt_clust_7="13000.00000" pt_clust_8="13000.00000" pt_clust_9="60.59986"></scales>
<clustering>
<clus scale="   60.600">  2  9  1 -1</clus>
<clus scale="   82.597">  5  6 -1 -1</clus>
<clus scale="   91.930">  7  8 -1 -1</clus>
<clus scale="  341.399">  1  5  2 -1</clus>
<clus scale="   60.600">  2  5  1 -1</clus>
</clustering>
</event>
<event>
 9    2  0.1302972E-004  0.1429331E+03  0.7546771E-02  0.1223663E+00
          4   -1    0    0  502    0 -0.00000000000E+00  0.00000000000E+00  0.25604845878E+03  0.25604845878E+03  0.00000000000E+00 0. -1.
         21   -1    0    0  501  502  0.00000000000E+00 -0.00000000000E+00 -0.17900818206E+03  0.17900818206E+03  0.00000000000E+00 0. -1.
         23    2    1    2    0    0 -0.51439815010E+02  0.22237919669E+02 -0.37204273628E+02  0.11218605865E+03  0.89782927882E+02 0.  0.
         24    2    1    2    0    0 -0.50246581811E+02 -0.93931251479E+02  0.14261429211E+03  0.19525828117E+03  0.80244383377E+02 0.  0.
        -11    1    4    4    0    0 -0.54613050777E+02 -0.53587362546E+02  0.43165599513E+02  0.87849073536E+02  0.00000000000E+00 0.  1.
         12    1    4    4    0    0  0.43664689652E+01 -0.40343888933E+02  0.99448692598E+02  0.10740920764E+03  0.00000000000E+00 0. -1.
        -13    1    3    3    0    0 -0.64229401999E+01  0.45705088638E+02 -0.40373680417E+02  0.61320823206E+02  0.00000000000E+00 0.  1.
         13    1    3    3    0    0 -0.45016874810E+02 -0.23467168968E+02  0.31694067891E+01  0.50865235441E+02  0.00000000000E+00 0. -1.
          3    1    1    2  501    0  0.10168639682E+03  0.71693331809E+02 -0.28369741756E+02  0.12761230102E+03  0.00000000000E+00 0. -1.
<scales pt_clust_5="13000.00000" pt_clust_6="13000.00000" pt_clust_7="13000.00000" pt_clust_8="13000.00000" pt_clust_9="118.28238"></scales>
<clustering>
<clus scale="   80.244">  5  6 -1 -1</clus>
<clus scale="   89.783">  7  8 -1 -1</clus>
<clus scale="  105.837">  1  7  2 -1</clus>
<clus scale="  118.282">  2  9  1 -1</clus>
<clus scale="  118.282">  2  5  1 -1</clus>
</clustering>
</event>
<event>
 9    2  0.1302972E-004  0.3297757E+03  0.7546771E-02  0.1071236E+00
         21   -1    0    0  501  502  0.00000000000E+00  0.00000000000E+00  0.92769549755E+02  0.92769549755E+02  0.00000000000E+00 0.  1.
          2   -1    0    0  502    0 -0.00000000000E+00 -0.00000000000E+00 -0.12177125960E+04  0.12177125960E+04  0.00000000000E+00 0. -1.
         24    2    1    2    0    0 -0.22301126995E+02  0.12663973656E+03 -0.12327566269E+03  0.19527626684E+03  0.80006051272E+02 0.  0.
         23    2    1    2    0    0 -0.10616919940E+03  0.10969520991E+03 -0.18791494520E+03  0.25814586782E+03  0.89567429700E+02 0.  0.
        -11    1    3    3    0    0 -0.99095310436E+01  0.13424278044E+03 -0.99432388911E+02  0.16735029988E+03  0.00000000000E+00 0.  1.
         12    1    3    3    0    0 -0.12391595951E+02 -0.76030438791E+01 -0.23843273779E+02  0.27925966965E+02  0.00000000000E+00 0. -1.
        -11    1    4    4    0    0 -0.85746568037E+02  0.54954754466E+02 -0.61734457877E+02  0.11909509754E+03  0.00000000000E+00 0.  1.
         11    1    4    4    0    0 -0.20422631366E+02  0.54740455445E+02 -0.12618048732E+03  0.13905077028E+03  0.00000000000E+00 0. -1.
          1    1    1    2  501    0  0.12847032640E+03 -0.23633494647E+03 -0.81375243835E+03  0.85706001109E+03  0.00000000000E+00 0. -1.
<scales pt_clust_5="13000.00000" pt_clust_6="13000.00000" pt_clust_7="13000.00000" pt_clust_8="13000.00000" pt_clust_9="268.99610"></scales>
<clustering>
<clus scale="   80.006">  5  6 -1 -1</clus>
<clus scale="   89.567">  7  8 -1 -1</clus>
<clus scale="  120.197">  5  7 -1 -1</clus>
<clus scale="  268.996">  1  9  2 -1</clus>
<clus scale="  268.996">  1  5  2 -1</clus>
</clustering>
</event>
<event>
 9    2  0.1302972E-004  0.1847421E+03  0.7546771E-02  0.1176855E+00
         -1   -1    0    0    0  501 -0.00000000000E+00  0.00000000000E+00  0.17240390700E+03  0.17240390700E+03  0.00000000000E+00 0.  1.
         21   -1    0    0  501  502  0.00000000000E+00 -0.00000000000E+00 -0.38695571533E+03  0.38695571533E+03  0.00000000000E+00 0.  1.
         23    2    1    2    0    0  0.60489120053E+02 -0.82207499984E+02 -0.93860237391E+02  0.16480570135E+03  0.89073948698E+02 0.  0.
         24    2    1    2    0    0  0.87148890443E+02  0.15758324348E+03 -0.11685330336E+03  0.22874313379E+03  0.79002019085E+02 0.  0.
        -11    1    4    4    0    0  0.20447994692E+02  0.10509543556E+03 -0.89562440830E+02  0.13958725540E+03  0.00000000000E+00 0.  1.
         12    1    4    4    0    0  0.66700895751E+02  0.52487807914E+02 -0.27290862532E+02  0.89155878389E+02  0.00000000000E+00 0. -1.
        -11    1    3    3    0    0  0.82089824398E+02 -0.48566087982E+02 -0.63119413473E+02  0.11437423018E+03  0.00000000000E+00 0.  1.
         11    1    3    3    0    0 -0.21600704345E+02 -0.33641412002E+02 -0.30740823918E+02  0.50431471175E+02  0.00000000000E+00 0. -1.
         -2    1    1    2    0  502 -0.14763801050E+03 -0.75375743492E+02 -0.38382675775E+01  0.16581078719E+03  0.00000000000E+00 0.  1.
<scales pt_clust_5="13000.00000" pt_clust_6="13000.00000" pt_clust_7="13000.00000" pt_clust_8="13000.00000" pt_clust_9="166.99801"></scales>
<clustering>
<clus scale="   79.002">  5  6 -1 -1</clus>
<clus scale="   89.074">  7  8 -1 -1</clus>
<clus scale="  135.467">  1  7  2 -1</clus>
<clus scale="  166.998">  2  9  1 -1</clus>
<clus scale="  166.998">  2  5  1 -1</clus>
</clustering>
</event>
<event>
 9    2  0.1302972E-004  0.1127362E+03  0.7546771E-02  0.1259658E+00
         -1   -1    0    0    0  501 -0.00000000000E+00  0.00000000000E+00  0.11254775616E+03  0.11254775616E+03  0.00000000000E+00 0.  1.
         21   -1    0    0  501  502  0.00000000000E+00 -0.00000000000E+00 -0.20876652182E+03  0.20876652182E+03  0.00000000000E+00 0.  1.
         23    2    1    2    0    0 -0.32983081570E+02 -0.36096171615E+02 -0.69782333498E+02  0.12571103155E+03  0.92427658791E+02 0.  0.
         24    2    1    2    0    0  0.38060202056E+02  0.73020100174E+02 -0.72215027589E+02  0.13657076848E+03  0.81584622226E+02 0.  0.
        -11    1    4    4    0    0 -0.17216004858E+02  0.52479578647E+02 -0.23261476380E+02  0.59929903067E+02  0.00000000000E+00 0.  1.
         12    1    4    4    0    0  0.55276206914E+02  0.20540521527E+02 -0.48953551209E+02  0.76640865414E+02  0.00000000000E+00 0. -1.
        -13    1    3    3    0    0 -0.13372701657E+02 -0.57088482609E+02 -0.76326596609E+02  0.96247978400E+02  0.00000000000E+00 0.  1.
         13    1    3    3    0    0 -0.19610379913E+02  0.20992310994E+02  0.65442631103E+01  0.29463053149E+02  0.00000000000E+00 0. -1.
         -2    1    1    2    0  502 -0.50771204862E+01 -0.36923928559E+02  0.45778595430E+02  0.59032477944E+02  0.00000000000E+00 0.  1.
<scales pt_clust_5="13000.00000" pt_clust_6="13000.00000" pt_clust_7="13000.00000" pt_clust_8="13000.00000" pt_clust_9="37.27137"></scales>
<clustering>
<clus scale="   37.271">  2  9  1 -1</clus>
<clus scale="   81.585">  5  6 -1 -1</clus>
<clus scale="   92.428">  7  8 -1 -1</clus>
<clus scale="  104.032">  2  5  1 -1</clus>
<clus scale="   37.271">  2  5  1 -1</clus>
</clustering>
</event>
<event>
 9    2  0.1302972E-004  0.3276314E+03  0.7546771E-02  0.1072190E+00
          2   -1    0    0  502    0 -0.00000000000E+00  0.00000000000E+00  0.23645202907E+04  0.23645202907E+04  0.00000000000E+00 0. -1.
         21   -1    0    0  501  502  0.00000000000E+00 -0.00000000000E+00 -0.38282735438E+02  0.38282735438E+02  0.00000000000E+00 0. -1.
         24    2    1    2    0    0 -0.17313443509E+03  0.48417276577E+02  0.52277253507E+03  0.55897120111E+03  0.82691686210E+02 0.  0.
         23    2    1    2    0    0 -0.57127795773E+02  0.65463975403E+02  0.48983870349E+03  0.50532379948E+03  0.88662673976E+02 0.  0.
        -13    1    3    3    0    0 -0.42342489628E+02  0.47735621418E+02  0.12668520710E+03  0.14184751559E+03  0.00000000000E+00 0.  1.
         14    1    3    3    0    0 -0.13079194546E+03  0.68165515915E+00  0.39608732796E+03  0.41712368553E+03  0.00000000000E+00 0. -1.
        -13    1    4    4    0    0 -0.36804520116E+02  0.85688930163E+02  0.32957310194E+03  0.34251364203E+03  0.00000000000E+00 0.  1.
         13    1    4    4    0    0 -0.20323275657E+02 -0.20224954760E+02  0.16026560155E+03  0.16281015745E+03  0.00000000000E+00 0. -1.
          1    1    1    2  501    0  0.23026223086E+03 -0.11388125198E+03  0.13136263167E+04  0.13385080256E+04  0.00000000000E+00 0. -1.
<scales pt_clust_5="13000.00000" pt_clust_6="13000.00000" pt_clust_7="13000.00000" pt_clust_8="13000.00000" pt_clust_9="256.88461"></scales>
<clustering>
<clus scale="   82.692">  5  6 -1 -1</clus>
<clus scale="   88.663">  7  8 -1 -1</clus>
<clus scale="  108.293">  5  7 -1 -1</clus>
<clus scale="  256.885">  2  9  1 -1</clus>
<clus scale="  256.885">  2  5  1 -1</clus>
</clustering>
</event>
<event>
 9    2  0.1302972E-004  0.1135862E+03  0.7546771E-02  0.1258221E+00
         21   -1    0    0  501  502  0.00000000000E+00  0.00000000000E+00  0.17176179390E+03  0.17176179390E+03  0.00000000000E+00 0. -1.
          2   -1    0    0  502    0 -0.00000000000E+00 -0.00000000000E+00 -0.51543546027E+03  0.51543546027E+03  0.00000000000E+00 0. -1.
         24    2    1    2    0    0  0.69216798286E+02 -0.13284721440E+02 -0.35035035889E+03  0.36615190542E+03  0.79714458439E+02 0.  0.
         23    2    1    2    0    0 -0.51375749526E+02  0.42944747804E+02 -0.13447354126E+03  0.17571328526E+03  0.91149911223E+02 0.  0.
        -13    1    3    3    0    0  0.17868326359E+01 -0.34251714733E+02 -0.14493477011E+03  0.14893777331E+03  0.00000000000E+00 0.  1.
         14    1    3    3    0    0  0.67429965650E+02  0.20966993293E+02 -0.20541558878E+03  0.21721413211E+03  0.00000000000E+00 0. -1.
        -13    1    4    4    0    0 -0.16594628971E+02 -0.16362542623E+02  0.14923116733E+01  0.23352548167E+02  0.00000000000E+00 0.  1.
         13    1    4    4    0    0 -0.34781120555E+02  0.59307290427E+02 -0.13596585293E+03  0.15236073710E+03  0.00000000000E+00 0. -1.
          1    1    1    2  501    0 -0.17841048760E+02 -0.29660026364E+02  0.14115023377E+03  0.14533206348E+03  0.00000000000E+00 0. -1.
<scales pt_clust_5="13000.00000" pt_clust_6="13000.00000" pt_clust_7="13000.00000" pt_clust_8="13000.00000" pt_clust_9="34.61243"></scales>
<clustering>
<clus scale="   34.612">  1  9  2 -1</clus>
<clus scale="   79.714">  5  6 -1 -1</clus>
<clus scale="   91.150">  7  8 -1 -1</clus>
<clus scale="  104.632">  2  5  1 -1</clus>
<clus scale="   34.612">  1  5  2 -1</clus>
</clustering>
</event>
<event>
 9    2  0.1302972E-004  0.1533292E+03  0.7546771E-02  0.1197524E+00
          2   -1    0    0  502    0 -0.00000000000E+00  0.00000000000E+00  0.92727607935E+03  0.92727607935E+03  0.00000000000E+00 0. -1.
         21   -1    0    0  501  502  0.00000000000E+00 -0.00000000000E+00 -0.14234590085E+03  0.14234590085E+03  0.00000000000E+00 0.  1.
         23    2    1    2    0    0  0.89200400160E+02 -0.93621752460E+02  0.65363495855E+03  0.67213119907E+03  0.88317301825E+02 0.  0.
         24    2    1    2    0    0 -0.10086005071E+03  0.15994454222E+01 -0.89638682223E+02  0.15787475166E+03  0.81939220205E+02 0.  0.
        -11    1    4    4    0    0 -0.10754419682E+03  0.20112446446E+02 -0.82144195324E+02  0.13681349933E+03  0.00000000000E+00 0.  1.
         12    1    4    4    0    0  0.66841461145E+01 -0.18513001024E+02 -0.74944868996E+01  0.21061252339E+02  0.00000000000E+00 0. -1.
        -11    1    3    3    0    0  0.11872198099E+02  0.16673395784E+02  0.12149909412E+03  0.12321112404E+03  0.00000000000E+00 0.  1.
         11    1    3    3    0    0  0.77328202061E+02 -0.11029514824E+03  0.53213586443E+03  0.54892007503E+03  0.00000000000E+00 0. -1.
          1    1    1    2  501    0  0.11659650548E+02  0.92022307038E+02  0.22093390217E+03  0.23961602946E+03  0.00000000000E+00 0. -1.
<scales pt_clust_5="13000.00000" pt_clust_6="13000.00000" pt_clust_7="13000.00000" pt_clust_8="13000.00000" pt_clust_9="92.75808"></scales>
<clustering>
<clus scale="   81.939">  5  6 -1 -1</clus>
<clus scale="   88.317">  7  8 -1 -1</clus>
<clus scale="   92.758">  2  9  1 -1</clus>
<clus scale="  149.746">  2  5  1 -1</clus>
<clus scale="   92.758">  2  5  1 -1</clus>
</clustering>
</event>
<event>
 9    2  0.1302972E-004  0.1225658E+03  0.7546771E-02  0.1242497E+00
         21   -1    0    0  501  502  0.00000000000E+00  0.00000000000E+00  0.68618524592E+03  0.68618524592E+03  0.00000000000E+00 0.  1.
          2   -1    0    0  502    0 -0.00000000000E+00 -0.00000000000E+00 -0.38775680541E+02  0.38775680541E+02  0.00000000000E+00 0. -1.
         24    2    1    2    0    0 -0.87873731627E+02  0.18262986450E+02  0.12465250151E+03  0.17353640835E+03  0.80754625283E+02 0.  0.
         23    2    1    2    0    0  0.66284250956E+02  0.24868437076E+02  0.26899963465E+03  0.29312380528E+03  0.92459292071E+02 0.  0.
        -11    1    3    3    0    0 -0.89307181943E+02  0.35413266904E+02  0.12324842354E+03  0.15626914642E+03  0.00000000000E+00 0.  1.
         12    1    3    3    0    0  0.14334503169E+01 -0.17150280453E+02  0.14040779783E+01  0.17267261926E+02  0.00000000000E+00 0. -1.
        -13    1    4    4    0    0  0.36043439485E+02  0.59411357613E+02  0.18072749651E+03  0.19362661733E+03  0.00000000000E+00 0.  1.
         13    1    4    4    0    0  0.30240811471E+02 -0.34542920537E+02  0.88272138141E+02  0.99497187948E+02  0.00000000000E+00 0. -1.
          1    1    1    2  501    0  0.21589480671E+02 -0.43131423526E+02  0.25375742921E+03  0.25830071283E+03  0.00000000000E+00 0. -1.
<scales pt_clust_5="13000.00000" pt_clust_6="13000.00000" pt_clust_7="13000.00000" pt_clust_8="13000.00000" pt_clust_9="48.23303"></scales>
<clustering>
<clus scale="   48.233">  1  9  2 -1</clus>
<clus scale="   80.755">  5  6 -1 -1</clus>
<clus scale="   92.459">  7  8 -1 -1</clus>
<clus scale="  113.995">  2  5  1 -1</clus>
<clus scale="   48.233">  1  5  2 -1</clus>
</clustering>
</event>
<event>
 9    2  0.1302972E-004  0.1051047E+03  0.7546771E-02  0.1274359E+00
          2   -1    0    0  502    0 -0.00000000000E+00  0.00000000000E+00  0.11066577381E+03  0.11066577381E+03  0.00000000000E+00 0. -1.
         21   -1    0    0  501  502  0.00000000000E+00 -0.00000000000E+00 -0.69123447444E+03  0.69123447444E+03  0.00000000000E+00 0. -1.
         23    2    1    2    0    0 -0.22236870948E+02  0.42194702876E+02  0.67195047255E+02  0.12477638180E+03  0.93696850002E+02 0.  0.
         24    2    1    2    0    0  0.70343131290E+02 -0.11936270649E+02 -0.22448670700E+03  0.25004865253E+03  0.83901229653E+02 0.  0.
        -13    1    4    4    0    0  0.10716834027E+02 -0.38121165536E+02 -0.12517672548E+03  0.13129084658E+03  0.00000000000E+00 0.  1.
         14    1    4    4    0    0  0.59626297263E+02  0.26184894887E+02 -0.99309981514E+02  0.11875780595E+03  0.00000000000E+00 0. -1.
        -13    1    3    3    0    0 -0.18881802422E+02 -0.27479654017E+02  0.10710278553E+02  0.35019479069E+02  0.00000000000E+00 0.  1.
         13    1    3    3    0    0 -0.33550685264E+01  0.69674356893E+02  0.56484768702E+02  0.89756902735E+02  0.00000000000E+00 0. -1.
          1    1    1    2  501    0 -0.48106260342E+02 -0.30258432227E+02 -0.42327704088E+03  0.42707521392E+03  0.00000000000E+00 0. -1.
<scales pt_clust_5="13000.00000" pt_clust_6="13000.00000" pt_clust_7="13000.00000" pt_clust_8="13000.00000" pt_clust_9="56.83120"></scales>
<clustering>
<clus scale="   56.831">  2  9  1 -1</clus>
<clus scale="   83.901">  5  6 -1 -1</clus>
<clus scale="   93.697">  7  8 -1 -1</clus>
<clus scale="   96.474">  2  5  1 -1</clus>
<clus scale="   56.831">  2  5  1 -1</clus>
</clustering>
</event>
<event>
 9    2  0.1302972E-004  0.1424564E+03  0.7546771E-02  0.1211478E+00
          2   -1    0    0  502    0 -0.00000000000E+00  0.00000000000E+00  0.49607567574E+03  0.49607567574E+03  0.00000000000E+00 0. -1.
         21   -1    0    0  501  502  0.00000000000E+00 -0.00000000000E+00 -0.16997145061E+03  0.16997145061E+03  0.00000000000E+00 0. -1.
         24    2    1    2    0    0  0.10926375849E+03 -0.44747651056E+02  0.43047937475E+03  0.45346632185E+03  0.79864208329E+02 0.  0.
         23    2    1    2    0    0 -0.63892428748E+02  0.50930206279E+02 -0.26523635016E+02  0.12226115062E+03  0.86995157178E+02 0.  0.
        -13    1    3    3    0    0  0.42457332925E+02 -0.36039287910E+01  0.53429865990E+02  0.68340061469E+02  0.00000000000E+00 0.  1.
         14    1    3    3    0    0  0.66806425566E+02 -0.41143722265E+02  0.37704950876E+03  0.38512626038E+03  0.00000000000E+00 0. -1.
        -13    1    4    4    0    0 -0.72664020088E+02  0.20668854245E+02  0.74664133489E+01  0.75914482673E+02  0.00000000000E+00 0. -1.
         13    1    4    4    0    0  0.87715913397E+01  0.30261352035E+02 -0.33990048365E+02  0.46346667944E+02  0.00000000000E+00 0.  1.
          1    1    1    2  501    0 -0.45371329743E+02 -0.61825552234E+01 -0.77851514598E+02  0.90319653880E+02  0.00000000000E+00 0. -1.
<scales pt_clust_5="13000.00000" pt_clust_6="13000.00000" pt_clust_7="13000.00000" pt_clust_8="13000.00000" pt_clust_9="45.79063"></scales>
<clustering>
<clus scale="   45.791">  2  9  1 -1</clus>
<clus scale="   79.864">  5  6 -1 -1</clus>
<clus scale="   86.995">  7  8 -1 -1</clus>
<clus scale="  138.217">  1  5  2 -1</clus>
<clus scale="   45.791">  2  5  1 -1</clus>
</clustering>
</event>
<event>
 9    2  0.1302972E-004  0.9165676E+02  0.7546771E-02  0.1301912E+00
         21   -1    0    0  501  502  0.00000000000E+00  0.00000000000E+00  0.66663527879E+02  0.66663527879E+02  0.00000000000E+00 0. -1.
         -1   -1    0    0    0  501 -0.00000000000E+00 -0.00000000000E+00 -0.28188901768E+03  0.28188901768E+03  0.00000000000E+00 0.  1.
         23    2    1    2    0    0 -0.19965140286E+02  0.96384370281E+01 -0.10725817027E+03  0.14177303166E+03  0.90020948236E+02 0.  0.
         24    2    1    2    0    0  0.61305566030E+01  0.45774520810E+02 -0.15267301389E+02  0.97897536671E+02  0.84958499957E+02 0.  0.
        -11    1    4    4    0    0  0.33457831397E+02 -0.81839845469E+01  0.33665651423E+01  0.34608349364E+02  0.00000000000E+00 0.  1.
         12    1    4    4    0    0 -0.27327274794E+02  0.53958505357E+02 -0.18633866532E+02  0.63289187307E+02  0.00000000000E+00 0. -1.
        -13    1    3    3    0    0  0.26999466866E+02 -0.21096180183E+02 -0.25986373242E+02  0.43003623378E+02  0.00000000000E+00 0.  1.
         13    1    3    3    0    0 -0.46964607152E+02  0.30734617211E+02 -0.81271797030E+02  0.98769408283E+02  0.00000000000E+00 0. -1.
         -2    1    1    2    0  502  0.13834583683E+02 -0.55412957838E+02 -0.92700018144E+02  0.10888197723E+03  0.00000000000E+00 0.  1.
<scales pt_clust_5="13000.00000" pt_clust_6="13000.00000" pt_clust_7="13000.00000" pt_clust_8="13000.00000" pt_clust_9="57.11388"></scales>
<clustering>
<clus scale="   57.114">  1  9  2 -1</clus>
<clus scale="   84.958">  5  6 -1 -1</clus>
<clus scale="   86.690">  1  5  2 -1</clus>
<clus scale="   90.021">  7  8 -1 -1</clus>
<clus scale="   57.114">  1  5  2 -1</clus>
</clustering>
</event>
<event>
 9    2  0.1302972E-004  0.1704990E+03  0.7546771E-02  0.1179233E+00
         21   -1    0    0  501  502  0.00000000000E+00  0.00000000000E+00  0.36245659357E+02  0.36245659357E+02  0.00000000000E+00 0.  1.
          2   -1    0    0  502    0 -0.00000000000E+00 -0.00000000000E+00 -0.12713776038E+04  0.12713776038E+04  0.00000000000E+00 0. -1.
         24    2    1    2    0    0  0.11388077375E+03  0.59520199378E+02 -0.63045458179E+03  0.64830633032E+03  0.79477251274E+02 0.  0.
         23    2    1    2    0    0 -0.13680679085E+03 -0.99255831778E+02 -0.56999568573E+03  0.60180744270E+03  0.93323620649E+02 0.  0.
        -13    1    3    3    0    0  0.76154825122E+02 -0.58229689079E+00 -0.25199628660E+03  0.26325277761E+03  0.00000000000E+00 0.  1.
         14    1    3    3    0    0  0.37725948633E+02  0.60102496269E+02 -0.37845829519E+03  0.38505355271E+03  0.00000000000E+00 0. -1.
        -13    1    4    4    0    0 -0.25989180050E+02  0.18090234868E+02 -0.91834935893E+02  0.97140874649E+02  0.00000000000E+00 0.  1.
         13    1    4    4    0    0 -0.11081761080E+03 -0.11734606665E+03 -0.47816074984E+03  0.50466656805E+03  0.00000000000E+00 0. -1.
          1    1    1    2  501    0  0.22926017091E+02  0.39735632399E+02 -0.34681676923E+02  0.57509490139E+02  0.00000000000E+00 0. -1.
<scales pt_clust_5="13000.00000" pt_clust_6="13000.00000" pt_clust_7="13000.00000" pt_clust_8="13000.00000" pt_clust_9="45.87508"></scales>
<clustering>
<clus scale="   45.875">  1  9  2 -1</clus>
<clus scale="   79.477">  5  6 -1 -1</clus>
<clus scale="   93.324">  7  8 -1 -1</clus>
<clus scale="  163.332">  2  5  1 -1</clus>
<clus scale="   45.875">  1  5  2 -1</clus>
</clustering>
</event>
<event>
 9    2  0.1302972E-004  0.1230830E+03  0.7546771E-02  0.1248512E+00
         21   -1    0    0  501  502  0.00000000000E+00  0.00000000000E+00  0.88127511597E+02  0.88127511597E+02  0.00000000000E+00 0. -1.
          2   -1    0    0  502    0 -0.00000000000E+00 -0.00000000000E+00 -0.64893024493E+03  0.64893024493E+03  0.00000000000E+00 0. -1.
         23    2    1    2    0    0  0.29097095784E+02  0.26397627582E+02 -0.50807812246E+03  0.51777355055E+03  0.91665671916E+02 0.  0.
         24    2    1    2    0    0  0.13884899770E+02  0.65301439435E+02 -0.38449194007E+02  0.11701026814E+03  0.88068120776E+02 0.  0.
        -11    1    4    4    0    0 -0.23067661774E+02 -0.96306169630E+01  0.10001708693E+00  0.24997516001E+02  0.00000000000E+00 0.  1.
         12    1    4    4    0    0  0.36952561544E+02  0.74932056398E+02 -0.38549211094E+02  0.92012752142E+02  0.00000000000E+00 0. -1.
        -11    1    3    3    0    0 -0.92197786840E+01  0.51941480481E+02 -0.30606852845E+03  0.31058149627E+03  0.00000000000E+00 0. -1.
         11    1    3    3    0    0  0.38316874468E+02 -0.25543852899E+02 -0.20200959400E+03  0.20719205429E+03  0.00000000000E+00 0.  1.
          1    1    1    2  501    0 -0.42981995554E+02 -0.91699067017E+02 -0.14275416872E+02  0.10227393784E+03  0.00000000000E+00 0. -1.
<scales pt_clust_5="13000.00000" pt_clust_6="13000.00000" pt_clust_7="13000.00000" pt_clust_8="13000.00000" pt_clust_9="85.98504"></scales>
<clustering>
<clus scale="   88.068">  5  6 -1 -1</clus>
<clus scale="   91.666">  7  8 -1 -1</clus>
<clus scale="   99.730">  2  7  1 -1</clus>
<clus scale="   85.985">  1  9  2 -1</clus>
<clus scale="   85.985">  1  5  2 -1</clus>
</clustering>
</event>
<event>
 9    2  0.1302972E-004  0.1101426E+03  0.7546771E-02  0.1263815E+00
          2   -1    0    0  502    0 -0.00000000000E+00  0.00000000000E+00  0.24300227842E+03  0.24300227842E+03  0.00000000000E+00 0. -1.
         21   -1    0    0  501  502  0.00000000000E+00 -0.00000000000E+00 -0.22984712529E+03  0.22984712529E+03  0.00000000000E+00 0. -1.
         23    2    1    2    0    0 -0.41126938377E+01 -0.65112301274E+02  0.15164080712E+03  0.18688690633E+03  0.87608534653E+02 0.  0.
         24    2    1    2    0    0 -0.58129644433E+02  0.67543013128E+02  0.15764178767E+02  0.11961037706E+03  0.78211372469E+02 0.  0.
        -11    1    4    4    0    0  0.56913708594E+01  0.48751578665E+02  0.19873913883E+02  0.52953570018E+02  0.00000000000E+00 0.  1.
         12    1    4    4    0    0 -0.63821015293E+02  0.18791434463E+02 -0.41097351153E+01  0.66656807041E+02  0.00000000000E+00 0. -1.
        -11    1    3    3    0    0  0.72007649231E+01  0.20574043430E+02  0.21175905824E+02  0.30390150806E+02  0.00000000000E+00 0.  1.
         11    1    3    3    0    0 -0.11313458761E+02 -0.85686344704E+02  0.13046490130E+03  0.15649675552E+03  0.00000000000E+00 0. -1.
          1    1    1    2  501    0  0.62242338271E+02 -0.24307118548E+01 -0.15424983276E+03  0.16635212033E+03  0.00000000000E+00 0. -1.
<scales pt_clust_5="13000.00000" pt_clust_6="13000.00000" pt_clust_7="13000.00000" pt_clust_8="13000.00000" pt_clust_9="62.28978"></scales>
<clustering>
<clus scale="   62.290">  2  9  1 -1</clus>
<clus scale="   78.211">  5  6 -1 -1</clus>
<clus scale="   87.609">  7  8 -1 -1</clus>
<clus scale="  102.826">  2  5  1 -1</clus>
<clus scale="   62.290">  2  5  1 -1</clus>
</clustering>
</event>
<event>
 9    2  0.1302972E-004  0.9992362E+02  0.7546771E-02  0.1286656E+00
         21   -1    0    0  501  502  0.00000000000E+00  0.00000000000E+00  0.11485326507E+03  0.11485326507E+03  0.00000000000E+00 0.  1.
          2   -1    0    0  502    0 -0.00000000000E+00 -0.00000000000E+00 -0.24356918261E+03  0.24356918261E+03  0.00000000000E+00 0. -1.
         23    2    1    2    0    0 -0.30053168002E+02  0.33144665654E+02 -0.19301699743E+03  0.21841725415E+03  0.91917211903E+02 0.  0.
         24    2    1    2    0    0 -0.37826860755E+01 -0.10317124574E+02  0.56746020688E+02  0.98495669648E+02  0.79752957952E+02 0.  0.
        -13    1    4    4    0    0 -0.39459504277E+02  0.31105366332E+01  0.41753538508E+02  0.57533345930E+02  0.00000000000E+00 0.  1.
         14    1    4    4    0    0  0.35676818202E+02 -0.13427661207E+02  0.14992482180E+02  0.40962323718E+02  0.00000000000E+00 0. -1.
        -11    1    3    3    0    0  0.19186662508E+02  0.34635523942E+02 -0.34819483892E+02  0.52727070803E+02  0.00000000000E+00 0.  1.
         11    1    3    3    0    0 -0.49239830511E+02 -0.14908582871E+01 -0.15819751354E+03  0.16569018335E+03  0.00000000000E+00 0. -1.
          1    1    1    2  501    0  0.33835854078E+02 -0.22827541081E+02  0.75550592076E+01  0.41509523878E+02  0.00000000000E+00 0. -1.
<scales pt_clust_5="13000.00000" pt_clust_6="13000.00000" pt_clust_7="13000.00000" pt_clust_8="13000.00000" pt_clust_9="40.81619"></scales>
<clustering>
<clus scale="   40.816">  1  9  2 -1</clus>
<clus scale="   79.753">  5  6 -1 -1</clus>
<clus scale="   88.862">  1  5  2 -1</clus>
<clus scale="   91.917">  7  8 -1 -1</clus>
<clus scale="   40.816">  1  5  2 -1</clus>
</clustering>
</event>
<event>
 9    2  0.1302972E-004  0.3433426E+03  0.7546771E-02  0.1109555E+00
          2   -1    0    0  502    0 -0.00000000000E+00  0.00000000000E+00  0.16080060364E+04  0.16080060364E+04  0.00000000000E+00 0. -1.
         21   -1    0    0  501  502  0.00000000000E+00 -0.00000000000E+00 -0.98526993317E+02  0.98526993317E+02  0.00000000000E+00 0.  1.
         24    2    1    2    0    0 -0.58395688797E+02 -0.37318249337E+02  0.23758479287E+03  0.26022330366E+03  0.80417198147E+02 0.  0.
         23    2    1    2    0    0 -0.11777063882E+03  0.31330001630E+03  0.78954450456E+03  0.86333306460E+03  0.99682657296E+02 0.  0.
        -13    1    3    3    0    0 -0.72596711440E+02 -0.24839277878E+02  0.12971280273E+03  0.15070727729E+03  0.00000000000E+00 0.  1.
         14    1    3    3    0    0  0.14201022642E+02 -0.12478971459E+02  0.10787199014E+03  0.10951602636E+03  0.00000000000E+00 0. -1.
        -13    1    4    4    0    0 -0.59620604517E+02  0.97979682139E+02  0.38080226001E+03  0.39769963016E+03  0.00000000000E+00 0.  1.
         13    1    4    4    0    0 -0.58150034302E+02  0.21532033416E+03  0.40874224454E+03  0.46563343444E+03  0.00000000000E+00 0. -1.
          1    1    1    2  501    0  0.17616632762E+03 -0.27598176697E+03  0.48234974567E+03  0.58297666149E+03  0.00000000000E+00 0. -1.
<scales pt_clust_5="13000.00000" pt_clust_6="13000.00000" pt_clust_7="13000.00000" pt_clust_8="13000.00000" pt_clust_9="328.55361"></scales>
<clustering>
<clus scale="   80.417">  5  6 -1 -1</clus>
<clus scale="   99.683">  7  8 -1 -1</clus>
<clus scale="  106.159">  1  5  2 -1</clus>
<clus scale="  328.554">  2  9  1 -1</clus>
<clus scale="  328.554">  2  5  1 -1</clus>
</clustering>
</event>
<event>
 9    2  0.1302972E-004  0.1181042E+03  0.7546771E-02  0.1249762E+00
         21   -1    0    0  501  502  0.00000000000E+00  0.00000000000E+00  0.68056460812E+02  0.68056460812E+02  0.00000000000E+00 0. -1.
          2   -1    0    0  502    0 -0.00000000000E+00 -0.00000000000E+00 -0.37878652472E+03  0.37878652472E+03  0.00000000000E+00 0. -1.
         23    2    1    2    0    0 -0.88118045274E+02 -0.39071862935E+02 -0.12842122377E+03  0.18470964714E+03  0.91292073347E+02 0.  0.
         24    2    1    2    0    0  0.44955336768E+02  0.15311589276E+02 -0.24422585025E+02  0.96737934697E+02  0.80661876249E+02 0.  0.
        -13    1    4    4    0    0  0.15099577051E+02  0.13477440260E+02 -0.52157206524E+02  0.55946517456E+02  0.00000000000E+00 0.  1.
         14    1    4    4    0    0  0.29855759717E+02  0.18341490159E+01  0.27734621498E+02  0.40791417241E+02  0.00000000000E+00 0. -1.
        -11    1    3    3    0    0 -0.54972712737E+02 -0.65552532719E+02 -0.61078327845E+02  0.10511753338E+03  0.00000000000E+00 0. -1.
         11    1    3    3    0    0 -0.33145332537E+02  0.26480669785E+02 -0.67342895923E+02  0.79592113758E+02  0.00000000000E+00 0.  1.
          1    1    1    2  501    0  0.43162708506E+02  0.23760273659E+02 -0.15788625511E+03  0.16539540369E+03  0.00000000000E+00 0. -1.
<scales pt_clust_5="13000.00000" pt_clust_6="13000.00000" pt_clust_7="13000.00000" pt_clust_8="13000.00000" pt_clust_9="49.27040"></scales>
<clustering>
<clus scale="   49.270">  1  9  2 -1</clus>
<clus scale="   80.662">  5  6 -1 -1</clus>
<clus scale="   91.292">  7  8 -1 -1</clus>
<clus scale="  110.094">  1  5  2 -1</clus>
<clus scale="   49.270">  1  5  2 -1</clus>
</clustering>
</event>
<event>
 9    2  0.1302972E-004  0.1184398E+03  0.7546771E-02  0.1246396E+00
          2   -1    0    0  502    0 -0.00000000000E+00  0.00000000000E+00  0.10723868578E+04  0.10723868578E+04  0.00000000000E+00 0. -1.
         21   -1    0    0  501  502  0.00000000000E+00 -0.00000000000E+00 -0.26509043033E+02  0.26509043033E+02  0.00000000000E+00 0.  1.
         24    2    1    2    0    0  0.91012147370E+01  0.65855076827E+02  0.28049389344E+03  0.29941287117E+03  0.80941459778E+02 0.  0.
         23    2    1    2    0    0  0.18301007206E+02 -0.11390008553E+03  0.31422078896E+03  0.34494218811E+03  0.83320181095E+02 0.  0.
        -11    1    3    3    0    0 -0.30580028647E+02  0.42490918095E+02  0.19939076813E+03  0.20614871983E+03  0.00000000000E+00 0.  1.
         12    1    3    3    0    0  0.39681243384E+02  0.23364158732E+02  0.81103125313E+02  0.93264151341E+02  0.00000000000E+00 0. -1.
        -13    1    4    4    0    0  0.43978989307E+02 -0.91802403947E+02  0.18286243084E+03  0.20928569345E+03  0.00000000000E+00 0.  1.
         13    1    4    4    0    0 -0.25677982102E+02 -0.22097681585E+02  0.13135835812E+03  0.13565649466E+03  0.00000000000E+00 0. -1.
          1    1    1    2  501    0 -0.27402221943E+02  0.48045008706E+02  0.45116313240E+03  0.45454084158E+03  0.00000000000E+00 0. -1.
<scales pt_clust_5="13000.00000" pt_clust_6="13000.00000" pt_clust_7="13000.00000" pt_clust_8="13000.00000" pt_clust_9="55.31010"></scales>
<clustering>
<clus scale="   55.310">  2  9  1 -1</clus>
<clus scale="   80.941">  5  6 -1 -1</clus>
<clus scale="   83.320">  7  8 -1 -1</clus>
<clus scale="  116.779">  1  5  2 -1</clus>
<clus scale="   55.310">  2  5  1 -1</clus>
</clustering>
</event>
<event>
 9    2  0.1302972E-004  0.9747310E+02  0.7546771E-02  0.1290918E+00
         21   -1    0    0  501  502  0.00000000000E+00  0.00000000000E+00  0.90929729858E+02  0.90929729858E+02  0.00000000000E+00 0.  1.
         -1   -1    0    0    0  501 -0.00000000000E+00 -0.00000000000E+00 -0.62317862648E+03  0.62317862648E+03  0.00000000000E+00 0.  1.
         23    2    1    2    0    0  0.34635308125E+02 -0.30345915947E+02 -0.20687785271E+03  0.23077142351E+03  0.91304571546E+02 0.  0.
         24    2    1    2    0    0  0.28243847433E+02 -0.28205528770E+02  0.46277638504E+02  0.10188601459E+03  0.81522226244E+02 0.  0.
        -11    1    4    4    0    0  0.50235741459E+02 -0.11850303232E+02  0.43527208534E+01  0.51797737262E+02  0.00000000000E+00 0.  1.
         12    1    4    4    0    0 -0.21991894026E+02 -0.16355225538E+02  0.41924917651E+02  0.50088277324E+02  0.00000000000E+00 0. -1.
        -13    1    3    3    0    0 -0.14116397438E+02 -0.45823364413E+02 -0.71845658359E+02  0.86376223741E+02  0.00000000000E+00 0.  1.
         13    1    3    3    0    0  0.48751705562E+02  0.15477448466E+02 -0.13503219435E+03  0.14439519977E+03  0.00000000000E+00 0. -1.
         -2    1    1    2    0  502 -0.62879155558E+02  0.58551444717E+02 -0.37164868242E+03  0.38145091824E+03  0.00000000000E+00 0.  1.
<scales pt_clust_5="13000.00000" pt_clust_6="13000.00000" pt_clust_7="13000.00000" pt_clust_8="13000.00000" pt_clust_9="85.91896"></scales>
<clustering>
<clus scale="   81.522">  5  6 -1 -1</clus>
<clus scale="   85.919">  1  9  2 -1</clus>
<clus scale="   88.376">  1  5  2 -1</clus>
<clus scale="   91.305">  7  8 -1 -1</clus>
<clus scale="   85.919">  1  5  2 -1</clus>
</clustering>
</event>
<event>
 9    2  0.1302972E-004  0.1577146E+03  0.7546771E-02  0.1192024E+00
         21   -1    0    0  501  502  0.00000000000E+00  0.00000000000E+00  0.19595333958E+02  0.19595333958E+02  0.00000000000E+00 0.  1.
         -1   -1    0    0    0  501 -0.00000000000E+00 -0.00000000000E+00 -0.15030457649E+04  0.15030457649E+04  0.00000000000E+00 0.  1.
         23    2    1    2    0    0 -0.44342285811E+02  0.12396355606E+03 -0.78097500722E+03  0.79660518339E+03  0.85584196934E+02 0.  0.
         24    2    1    2    0    0  0.23385984984E+02 -0.13242489028E+03 -0.65377870067E+03  0.67235042806E+03  0.80902736732E+02 0.  0.
        -13    1    4    4    0    0  0.38810500681E+02 -0.13461255338E+03 -0.55829204903E+03  0.57560125652E+03  0.00000000000E+00 0.  1.
         14    1    4    4    0    0 -0.15424515697E+02  0.21876631027E+01 -0.95486651636E+02  0.96749171547E+02  0.00000000000E+00 0. -1.
        -11    1    3    3    0    0  0.21616531254E+02  0.57674801603E+02 -0.25124909734E+03  0.25868855034E+03  0.00000000000E+00 0. -1.
         11    1    3    3    0    0 -0.65958817066E+02  0.66288754457E+02 -0.52972590987E+03  0.53791663305E+03  0.00000000000E+00 0.  1.
         -2    1    1    2    0  502  0.20956300827E+02  0.84613342185E+01 -0.48696723039E+02  0.53685487386E+02  0.00000000000E+00 0.  1.
<scales pt_clust_5="13000.00000" pt_clust_6="13000.00000" pt_clust_7="13000.00000" pt_clust_8="13000.00000" pt_clust_9="22.60002"></scales>
<clustering>
<clus scale="   22.600">  1  9  2 -1</clus>
<clus scale="   80.903">  5  6 -1 -1</clus>
<clus scale="   85.584">  7  8 -1 -1</clus>
<clus scale="  155.224">  1  5  2 -1</clus>
<clus scale="   22.600">  1  5  2 -1</clus>
</clustering>
</event>
<event>
 9    2  0.1302972E-004  0.1937587E+03  0.7546771E-02  0.1156125E+00
          2   -1    0    0  502    0 -0.00000000000E+00  0.00000000000E+00  0.99003234972E+03  0.99003234972E+03  0.00000000000E+00 0. -1.
         21   -1    0    0  501  502  0.00000000000E+00 -0.00000000000E+00 -0.18962842845E+03  0.18962842845E+03  0.00000000000E+00 0. -1.
         24    2    1    2    0    0  0.17299406063E+03  0.12874947602E+03  0.66986795106E+03  0.70826302264E+03  0.80062880258E+02 0.  0.
         23    2    1    2    0    0 -0.34473070397E+02 -0.13058907472E+03  0.24345244127E+03  0.29267568555E+03  0.90266642426E+02 0.  0.
        -11    1    3    3    0    0  0.23631367797E+02  0.90892469431E+01  0.24948607450E+02  0.35545589989E+02  0.00000000000E+00 0.  1.
         12    1    3    3    0    0  0.14936269284E+03  0.11966022908E+03  0.64491934361E+03  0.67271743265E+03  0.00000000000E+00 0. -1.
        -11    1    4    4    0    0 -0.35898771086E+02 -0.99837789988E+01  0.90627078482E+02  0.97988085820E+02  0.00000000000E+00 0.  1.
         11    1    4    4    0    0  0.14257006893E+01 -0.12060529572E+03  0.15282536279E+03  0.19468759973E+03  0.00000000000E+00 0. -1.
          1    1    1    2  501    0 -0.13852099024E+03  0.18395987013E+01 -0.11291647106E+03  0.17872206997E+03  0.00000000000E+00 0. -1.
<scales pt_clust_5="13000.00000" pt_clust_6="13000.00000" pt_clust_7="13000.00000" pt_clust_8="13000.00000" pt_clust_9="138.53320"></scales>
<clustering>
<clus scale="   80.063">  5  6 -1 -1</clus>
<clus scale="   90.267">  7  8 -1 -1</clus>
<clus scale="  138.533">  2  9  1 -1</clus>
<clus scale="  189.221">  1  5  2 -1</clus>
<clus scale="  138.533">  2  5  1 -1</clus>
</clustering>
</event>
<event>
 9    2  0.1302972E-004  0.1316716E+03  0.7546771E-02  0.1227851E+00
         21   -1    0    0  501  502  0.00000000000E+00  0.00000000000E+00  0.20908224686E+03  0.20908224686E+03  0.00000000000E+00 0. -1.
          2   -1    0    0  502    0 -0.00000000000E+00 -0.00000000000E+00 -0.16144791159E+03  0.16144791159E+03  0.00000000000E+00 0. -1.
         23    2    1    2    0    0  0.31191211712E+02  0.13311042024E+03 -0.21550728841E+02  0.16566391564E+03  0.91042975387E+02 0.  0.
         24    2    1    2    0    0  0.12932890108E+02 -0.50287334723E+02  0.55250050180E+02  0.10999377858E+03  0.79686809458E+02 0.  0.
        -13    1    4    4    0    0 -0.24353921519E+02 -0.22091070942E+01 -0.43335722579E+01  0.24834924925E+02  0.00000000000E+00 0.  1.
         14    1    4    4    0    0  0.37286811627E+02 -0.48078227629E+02  0.59583622438E+02  0.85158853656E+02  0.00000000000E+00 0. -1.
        -11    1    3    3    0    0 -0.28160170795E+02  0.18081585957E+02  0.40777904010E+01  0.33713014467E+02  0.00000000000E+00 0.  1.
         11    1    3    3    0    0  0.59351382507E+02  0.11502883428E+03 -0.25628519242E+02  0.13195090117E+03  0.00000000000E+00 0. -1.
          1    1    1    2  501    0 -0.44124101820E+02 -0.82823085518E+02  0.13935013925E+02  0.94872464231E+02  0.00000000000E+00 0. -1.
<scales pt_clust_5="13000.00000" pt_clust_6="13000.00000" pt_clust_7="13000.00000" pt_clust_8="13000.00000" pt_clust_9="93.84349"></scales>
<clustering>
<clus scale="   79.687">  5  6 -1 -1</clus>
<clus scale="   91.043">  7  8 -1 -1</clus>
<clus scale="   93.843">  1  9  2 -1</clus>
<clus scale="  124.091">  1  5  2 -1</clus>
<clus scale="   93.843">  1  5  2 -1</clus>
</clustering>
</event>
<event>
 9    2  0.1302972E-004  0.2288486E+03  0.7546771E-02  0.1128082E+00
          2   -1    0    0  502    0 -0.00000000000E+00  0.00000000000E+00  0.13518279865E+04  0.13518279865E+04  0.00000000000E+00 0. -1.
         21   -1    0    0  501  502  0.00000000000E+00 -0.00000000000E+00 -0.28905365793E+03  0.28905365793E+03  0.00000000000E+00 0. -1.
         24    2    1    2    0    0  0.16761385194E+03 -0.13136252552E+03  0.12806190243E+04  0.13006757785E+04  0.80136625964E+02 0.  0.
         23    2    1    2    0    0 -0.10570588718E+03  0.13574037870E+03 -0.13340006747E+03  0.23540769343E+03  0.89565725214E+02 0.  0.
        -11    1    3    3    0    0  0.50820778148E+02  0.12251433031E+01  0.29063333982E+03  0.29504574337E+03  0.00000000000E+00 0.  1.
         12    1    3    3    0    0  0.11679307379E+03 -0.13258766882E+03  0.98998568453E+03  0.10056300351E+04  0.00000000000E+00 0. -1.
        -11    1    4    4    0    0  0.12262326454E+02  0.18266955918E+02 -0.36950288325E+02  0.43004303690E+02  0.00000000000E+00 0.  1.
         11    1    4    4    0    0 -0.11796821363E+03  0.11747342279E+03 -0.96449779143E+02  0.19240338974E+03  0.00000000000E+00 0. -1.
          1    1    1    2  501    0 -0.61907964766E+02 -0.43778531867E+01 -0.84444628325E+02  0.10479817247E+03  0.00000000000E+00 0. -1.
<scales pt_clust_5="13000.00000" pt_clust_6="13000.00000" pt_clust_7="13000.00000" pt_clust_8="13000.00000" pt_clust_9="62.06256"></scales>
<clustering>
<clus scale="   62.063">  2  9  1 -1</clus>
<clus scale="   80.137">  5  6 -1 -1</clus>
<clus scale="   89.566">  7  8 -1 -1</clus>
<clus scale="  225.325">  1  5  2 -1</clus>
<clus scale="   62.063">  2  5  1 -1</clus>
</clustering>
</event>
<event>
 9    2  0.1302972E-004  0.1281756E+03  0.7546771E-02  0.1232253E+00
         21   -1    0    0  501  502  0.00000000000E+00  0.00000000000E+00  0.53332206571E+02  0.53332206571E+02  0.00000000000E+00 0. -1.
          2   -1    0    0  502    0 -0.00000000000E+00 -0.00000000000E+00 -0.12173852766E+04  0.12173852766E+04  0.00000000000E+00 0. -1.
         24    2    1    2    0    0 -0.48905595180E+02  0.93542428445E+02 -0.93916547603E+03  0.94863653867E+03  0.82082567964E+02 0.  0.
         23    2    1    2    0    0  0.36019515384E+02 -0.46320001305E+02 -0.24628645782E+03  0.26865885124E+03  0.89875530787E+02 0.  0.
        -13    1    3    3    0    0 -0.45191008030E+02  0.47262755490E+02 -0.26781499464E+03  0.27568254682E+03  0.00000000000E+00 0.  1.
         14    1    3    3    0    0 -0.37145871495E+01  0.46279672956E+02 -0.67135048139E+03  0.67295399185E+03  0.00000000000E+00 0. -1.
        -13    1    4    4    0    0  0.29289891803E+02 -0.69998782446E+02 -0.13676063257E+03  0.15640076063E+03  0.00000000000E+00 0.  1.
         13    1    4    4    0    0  0.67296235811E+01  0.23678781140E+02 -0.10952582525E+03  0.11225809060E+03  0.00000000000E+00 0. -1.
          1    1    1    2  501    0  0.12886079796E+02 -0.47222427140E+02  0.21398863813E+02  0.53422093276E+02  0.00000000000E+00 0. -1.
<scales pt_clust_5="13000.00000" pt_clust_6="13000.00000" pt_clust_7="13000.00000" pt_clust_8="13000.00000" pt_clust_9="48.94904"></scales>
<clustering>
<clus scale="   48.949">  1  9  2 -1</clus>
<clus scale="   82.083">  5  6 -1 -1</clus>
<clus scale="   89.876">  7  8 -1 -1</clus>
<clus scale="  122.837">  2  5  1 -1</clus>
<clus scale="   48.949">  1  5  2 -1</clus>
</clustering>
</event>
<event>
 9    2  0.1302972E-004  0.1079917E+03  0.7546771E-02  0.1273011E+00
         21   -1    0    0  501  502  0.00000000000E+00  0.00000000000E+00  0.31145108632E+02  0.31145108632E+02  0.00000000000E+00 0. -1.
          2   -1    0    0  502    0 -0.00000000000E+00 -0.00000000000E+00 -0.73845099524E+03  0.73845099524E+03  0.00000000000E+00 0. -1.
         24    2    1    2    0    0 -0.43372378223E+01  0.71213459260E+02 -0.39182655142E+03  0.40642249692E+03  0.81000192539E+02 0.  0.
         23    2    1    2    0    0 -0.12660422640E+02  0.53347800022E+00 -0.22591516815E+03  0.24716376477E+03  0.99456988251E+02 0.  0.
        -13    1    3    3    0    0 -0.29726038766E+02  0.32036977329E+02 -0.80346763677E+02  0.91463696243E+02  0.00000000000E+00 0.  1.
         14    1    3    3    0    0  0.25388800944E+02  0.39176481932E+02 -0.31147978775E+03  0.31495880068E+03  0.00000000000E+00 0. -1.
        -11    1    4    4    0    0  0.93610282913E+01 -0.44869064524E+02 -0.73579845465E+02  0.86688265992E+02  0.00000000000E+00 0.  1.
         11    1    4    4    0    0 -0.22021450932E+02  0.45402542525E+02 -0.15233532269E+03  0.16047549877E+03  0.00000000000E+00 0. -1.
          1    1    1    2  501    0  0.16997660463E+02 -0.71746937260E+02 -0.89564167029E+02  0.11600984218E+03  0.00000000000E+00 0. -1.
<scales pt_clust_5="13000.00000" pt_clust_6="13000.00000" pt_clust_7="13000.00000" pt_clust_8="13000.00000" pt_clust_9="73.73292"></scales>
<clustering>
<clus scale="   73.733">  1  9  2 -1</clus>
<clus scale="   81.000">  5  6 -1 -1</clus>
<clus scale="   91.277">  2  5  1 -1</clus>
<clus scale="   99.457">  7  8 -1 -1</clus>
<clus scale="   73.733">  1  5  2 -1</clus>
</clustering>
</event>
<event>
 9    2  0.1302972E-004  0.9434013E+02  0.7546771E-02  0.1298912E+00
          2   -1    0    0  502    0 -0.00000000000E+00  0.00000000000E+00  0.84944223285E+02  0.84944223285E+02  0.00000000000E+00 0. -1.
         21   -1    0    0  501  502  0.00000000000E+00 -0.00000000000E+00 -0.22948817632E+03  0.22948817632E+03  0.00000000000E+00 0.  1.
         24    2    1    2    0    0  0.51538559506E+01 -0.29585489002E+02  0.15232003923E+02  0.87822974241E+02  0.81111019414E+02 0.  0.
         23    2    1    2    0    0  0.38842885416E+02 -0.88270822580E+01 -0.11857462144E+03  0.15513363275E+03  0.91759555531E+02 0.  0.
        -11    1    3    3    0    0 -0.18154714083E+01  0.25493545426E+02  0.19490302111E+02  0.32141696769E+02  0.00000000000E+00 0.  1.
         12    1    3    3    0    0  0.69693273589E+01 -0.55079034429E+02 -0.42582981878E+01  0.55681277472E+02  0.00000000000E+00 0. -1.
        -11    1    4    4    0    0  0.65297132276E+02 -0.18324537875E+02 -0.10204420258E+03  0.12252560325E+03  0.00000000000E+00 0.  1.
         11    1    4    4    0    0 -0.26454246859E+02  0.94974556168E+01 -0.16530418865E+02  0.32608029501E+02  0.00000000000E+00 0. -1.
          1    1    1    2  501    0 -0.43996741367E+02  0.38412571260E+02 -0.41201335515E+02  0.71475792615E+02  0.00000000000E+00 0. -1.
<scales pt_clust_5="13000.00000" pt_clust_6="13000.00000" pt_clust_7="13000.00000" pt_clust_8="13000.00000" pt_clust_9="58.40581"></scales>
<clustering>
<clus scale="   58.406">  2  9  1 -1</clus>
<clus scale="   81.111">  5  6 -1 -1</clus>
<clus scale="   84.019">  1  5  2 -1</clus>
<clus scale="   91.760">  7  8 -1 -1</clus>
<clus scale="   58.406">  2  5  1 -1</clus>
</clustering>
</event>
<event>
 9    2  0.1302972E-004  0.1178006E+03  0.7546771E-02  0.1250909E+00
          2   -1    0    0  502    0 -0.00000000000E+00  0.00000000000E+00  0.10661779643E+04  0.10661779643E+04  0.00000000000E+00 0. -1.
         21   -1    0    0  501  502  0.00000000000E+00 -0.00000000000E+00 -0.46115810844E+02  0.46115810844E+02  0.00000000000E+00 0. -1.
         24    2    1    2    0    0 -0.20160272286E+02 -0.69012341939E+02  0.94617336926E+03  0.95258110119E+03  0.83651477766E+02 0.  0.
         23    2    1    2    0    0  0.52049219107E+01  0.36800084621E+02  0.38153133561E+02  0.10933084436E+03  0.95478974061E+02 0.  0.
        -11    1    3    3    0    0 -0.44570640021E+02 -0.35796215907E+02  0.32101742026E+03  0.32606762357E+03  0.00000000000E+00 0.  1.
         12    1    3    3    0    0  0.24410367735E+02 -0.33216126032E+02  0.62515594900E+03  0.62651347763E+03  0.00000000000E+00 0. -1.
        -13    1    4    4    0    0  0.41085989791E+02  0.45537018887E+02  0.83963695166E+01  0.61904585188E+02  0.00000000000E+00 0.  1.
         13    1    4    4    0    0 -0.35881067881E+02 -0.87369342666E+01  0.29756764044E+02  0.47426259172E+02  0.00000000000E+00 0. -1.
          1    1    1    2  501    0  0.14955350375E+02  0.32212257319E+02  0.35735650623E+02  0.50381829581E+02  0.00000000000E+00 0. -1.
<scales pt_clust_5="13000.00000" pt_clust_6="13000.00000" pt_clust_7="13000.00000" pt_clust_8="13000.00000" pt_clust_9="35.51467"></scales>
<clustering>
<clus scale="   35.515">  2  9  1 -1</clus>
<clus scale="   83.651">  5  6 -1 -1</clus>
<clus scale="   95.479">  7  8 -1 -1</clus>
<clus scale="  108.436">  1  5  2 -1</clus>
<clus scale="   35.515">  2  5  1 -1</clus>
</clustering>
</event>
<event>
 9    2  0.1302972E-004  0.9503579E+02  0.7546771E-02  0.1295132E+00
          2   -1    0    0  502    0 -0.00000000000E+00  0.00000000000E+00  0.16406948723E+03  0.16406948723E+03  0.00000000000E+00 0. -1.
         21   -1    0    0  501  502  0.00000000000E+00 -0.00000000000E+00 -0.11111252934E+03  0.11111252934E+03  0.00000000000E+00 0. -1.
         23    2    1    2    0    0  0.32572736373E+02 -0.24283655592E+02  0.68996389613E+02  0.11586131218E+03  0.83741643144E+02 0.  0.
         24    2    1    2    0    0 -0.15993710421E+02  0.67121164518E+02 -0.36773240413E+02  0.10892420555E+03  0.75836415039E+02 0.  0.
        -11    1    4    4    0    0  0.49591394510E+01  0.54691241849E+02  0.10343886977E+02  0.55881311697E+02  0.00000000000E+00 0.  1.
         12    1    4    4    0    0 -0.20952849872E+02  0.12429922669E+02 -0.47117127391E+02  0.53042893858E+02  0.00000000000E+00 0. -1.
        -13    1    3    3    0    0  0.12581644692E+02 -0.45037618251E+02  0.67215489725E+01  0.47242608538E+02  0.00000000000E+00 0.  1.
         13    1    3    3    0    0  0.19991091681E+02  0.20753962659E+02  0.62274840640E+02  0.68618703641E+02  0.00000000000E+00 0. -1.
          1    1    1    2  501    0 -0.16579025952E+02 -0.42837508926E+02  0.20733808691E+02  0.50396498840E+02  0.00000000000E+00 0. -1.
<scales pt_clust_5="13000.00000" pt_clust_6="13000.00000" pt_clust_7="13000.00000" pt_clust_8="13000.00000" pt_clust_9="45.93385"></scales>
<clustering>
<clus scale="   45.934">  2  9  1 -1</clus>
<clus scale="   75.836">  5  6 -1 -1</clus>
<clus scale="   83.742">  7  8 -1 -1</clus>
<clus scale="   88.149">  2  5  1 -1</clus>
<clus scale="   45.934">  2  5  1 -1</clus>
</clustering>
</event>
<event>
 9    2  0.1302972E-004  0.9801209E+02  0.7546771E-02  0.1287956E+00
         21   -1    0    0  501  502  0.00000000000E+00  0.00000000000E+00  0.50831951817E+02  0.50831951817E+02  0.00000000000E+00 0. -1.
          2   -1    0    0  502    0 -0.00000000000E+00 -0.00000000000E+00 -0.46348703219E+03  0.46348703219E+03  0.00000000000E+00 0. -1.
         24    2    1    2    0    0  0.46895125420E+02  0.11799782628E+02 -0.34078155552E+03  0.35337362359E+03  0.80015383580E+02 0.  0.
         23    2    1    2    0    0 -0.18277908560E+02 -0.43713857136E+02 -0.62344706456E+02  0.11703349832E+03  0.86976974305E+02 0.  0.
        -13    1    3    3    0    0  0.62852681632E+02  0.28761078254E+02 -0.22957055492E+03  0.23975049301E+03  0.00000000000E+00 0.  1.
         14    1    3    3    0    0 -0.15957556211E+02 -0.16961295626E+02 -0.11121100060E+03  0.11362313058E+03  0.00000000000E+00 0. -1.
        -11    1    4    4    0    0  0.82753583653E+01 -0.62816359089E+02 -0.54065624290E+02  0.83291465680E+02  0.00000000000E+00 0. -1.
         11    1    4    4    0    0 -0.26553266925E+02  0.19102501953E+02 -0.82790821651E+01  0.33742032641E+02  0.00000000000E+00 0.  1.
          1    1    1    2  501    0 -0.28617216861E+02  0.31914074508E+02 -0.95288183979E+01  0.43911862095E+02  0.00000000000E+00 0. -1.
<scales pt_clust_5="13000.00000" pt_clust_6="13000.00000" pt_clust_7="13000.00000" pt_clust_8="13000.00000" pt_clust_9="42.86553"></scales>
<clustering>
<clus scale="   42.866">  1  9  2 -1</clus>
<clus scale="   80.015">  5  6 -1 -1</clus>
<clus scale="   86.977">  7  8 -1 -1</clus>
<clus scale="   91.890">  2  5  1 -1</clus>
<clus scale="   42.866">  1  5  2 -1</clus>
</clustering>
</event>
<event>
 9    2  0.1302972E-004  0.2221751E+03  0.7546771E-02  0.1163669E+00
         21   -1    0    0  501  502  0.00000000000E+00  0.00000000000E+00  0.13740016984E+03  0.13740016984E+03  0.00000000000E+00 0. -1.
          2   -1    0    0  502    0 -0.00000000000E+00 -0.00000000000E+00 -0.62196151244E+03  0.62196151244E+03  0.00000000000E+00 0. -1.
         24    2    1    2    0    0  0.30723324750E+02  0.61894095138E+02  0.75245278899E+01  0.10555744560E+03  0.79441513734E+02 0.  0.
         23    2    1    2    0    0 -0.19309182962E+03  0.66366523830E+02 -0.25303410346E+03  0.33763961963E+03  0.91023541360E+02 0.  0.
        -13    1    3    3    0    0  0.79383225303E+01 -0.18463198656E+02  0.89968711017E+01  0.22019317856E+02  0.00000000000E+00 0.  1.
         14    1    3    3    0    0  0.22785002220E+02  0.80357293794E+02 -0.14723432119E+01  0.83538127742E+02  0.00000000000E+00 0. -1.
        -11    1    4    4    0    0 -0.11853905813E+03 -0.69619003744E+01 -0.12681386690E+03  0.17372890720E+03  0.00000000000E+00 0.  1.
         11    1    4    4    0    0 -0.74552771489E+02  0.73328424204E+02 -0.12622023657E+03  0.16391071244E+03  0.00000000000E+00 0. -1.
          1    1    1    2  501    0  0.16236850487E+03 -0.12826061897E+03 -0.23905176703E+03  0.31616461705E+03  0.00000000000E+00 0. -1.
<scales pt_clust_5="13000.00000" pt_clust_6="13000.00000" pt_clust_7="13000.00000" pt_clust_8="13000.00000" pt_clust_9="202.67348"></scales>
<clustering>
<clus scale="   79.442">  5  6 -1 -1</clus>
<clus scale="   91.024">  7  8 -1 -1</clus>
<clus scale="  105.289">  2  5  1 -1</clus>
<clus scale="  202.673">  1  9  2 -1</clus>
<clus scale="  202.673">  1  5  2 -1</clus>
</clustering>
</event>
<event>
 9    2  0.1302972E-004  0.9879969E+02  0.7546771E-02  0.1296146E+00
          2   -1    0    0  502    0 -0.00000000000E+00  0.00000000000E+00  0.75081564251E+03  0.75081564251E+03  0.00000000000E+00 0. -1.
         21   -1    0    0  501  502  0.00000000000E+00 -0.00000000000E+00 -0.27742610637E+02  0.27742610637E+02  0.00000000000E+00 0.  1.
         24    2    1    2    0    0 -0.33300496536E+02 -0.20668599629E+02  0.60220776076E+03  0.60716548844E+03  0.66780454827E+02 0.  0.
         23    2    1    2    0    0  0.37151650432E+02 -0.15998748689E+01  0.10432205950E+03  0.14338572643E+03  0.91069038184E+02 0.  0.
        -13    1    3    3    0    0  0.19446806939E+02 -0.79456297162E+01  0.11103828813E+03  0.11300802079E+03  0.00000000000E+00 0.  1.
         14    1    3    3    0    0 -0.52747303475E+02 -0.12722969913E+02  0.49116947263E+03  0.49415746765E+03  0.00000000000E+00 0. -1.
        -11    1    4    4    0    0 -0.24622553115E+02 -0.41874015491E+01  0.66186754508E+02  0.70742426633E+02  0.00000000000E+00 0. -1.
         11    1    4    4    0    0  0.61774203548E+02  0.25875266802E+01  0.38135304990E+02  0.72643299794E+02  0.00000000000E+00 0.  1.
          1    1    1    2  501    0 -0.38511538962E+01  0.22268474498E+02  0.16543211606E+02  0.28007038277E+02  0.00000000000E+00 0. -1.
<scales pt_clust_5="13000.00000" pt_clust_6="13000.00000" pt_clust_7="13000.00000" pt_clust_8="13000.00000" pt_clust_9="22.59903"></scales>
<clustering>
<clus scale="   22.599">  2  9  1 -1</clus>
<clus scale="   66.780">  5  6 -1 -1</clus>
<clus scale="   76.990">  1  5  2 -1</clus>
<clus scale="   91.069">  7  8 -1 -1</clus>
<clus scale="   22.599">  2  5  1 -1</clus>
</clustering>
</event>
<event>
 9    2  0.1302972E-004  0.1348200E+03  0.7546771E-02  0.1224854E+00
         21   -1    0    0  501  502  0.00000000000E+00  0.00000000000E+00  0.56764252550E+02  0.56764252550E+02  0.00000000000E+00 0.  1.
          2   -1    0    0  502    0 -0.00000000000E+00 -0.00000000000E+00 -0.45725419103E+03  0.45725419103E+03  0.00000000000E+00 0. -1.
         24    2    1    2    0    0  0.37775979510E+02  0.10419544885E+03 -0.16446654961E+03  0.21110105604E+03  0.72323535105E+02 0.  0.
         23    2    1    2    0    0 -0.89246989545E+01 -0.85439474507E+02 -0.93197356965E+02  0.15600428958E+03  0.90950739229E+02 0.  0.
        -11    1    3    3    0    0 -0.12000224587E+02  0.58099647958E+02 -0.47983513129E+02  0.76301979104E+02  0.00000000000E+00 0.  1.
         12    1    3    3    0    0  0.49776204096E+02  0.46095800896E+02 -0.11648303648E+03  0.13479907693E+03  0.00000000000E+00 0. -1.
        -11    1    4    4    0    0  0.36536592083E+02 -0.12929733882E+02 -0.21268514867E+02  0.44209165384E+02  0.00000000000E+00 0.  1.
         11    1    4    4    0    0 -0.45461291037E+02 -0.72509740625E+02 -0.71928842098E+02  0.11179512420E+03  0.00000000000E+00 0. -1.
          1    1    1    2  501    0 -0.28851280555E+02 -0.18755974347E+02 -0.14282603190E+03  0.14691309796E+03  0.00000000000E+00 0. -1.
<scales pt_clust_5="13000.00000" pt_clust_6="13000.00000" pt_clust_7="13000.00000" pt_clust_8="13000.00000" pt_clust_9="34.41198"></scales>
<clustering>
<clus scale="   34.412">  1  9  2 -1</clus>
<clus scale="   72.324">  5  6 -1 -1</clus>
<clus scale="   90.951">  7  8 -1 -1</clus>
<clus scale="  123.025">  2  5  1 -1</clus>
<clus scale="   34.412">  1  5  2 -1</clus>
</clustering>
</event>
<event>
 9    2  0.1302972E-004  0.9604390E+02  0.7546771E-02  0.1294983E+00
         21   -1    0    0  501  502  0.00000000000E+00  0.00000000000E+00  0.46898622501E+02  0.46898622501E+02  0.00000000000E+00 0. -1.
         -1   -1    0    0    0  501 -0.00000000000E+00 -0.00000000000E+00 -0.31456286184E+03  0.31456286184E+03  0.00000000000E+00 0.  1.
         23    2    1    2    0    0  0.26350920248E+02  0.76170227190E+01 -0.15694336562E+03  0.18412039402E+03  0.92286019799E+02 0.  0.
         24    2    1    2    0    0 -0.11016991707E+02 -0.33178948782E+02 -0.33755294364E+02  0.94804784161E+02  0.81402152635E+02 0.  0.
        -11    1    4    4    0    0 -0.29233912161E+02 -0.11634780878E+02 -0.52305055958E+02  0.61039402234E+02  0.00000000000E+00 0.  1.
         12    1    4    4    0    0  0.18216920453E+02 -0.21544167904E+02  0.18549761594E+02  0.33765381927E+02  0.00000000000E+00 0. -1.
        -13    1    3    3    0    0  0.35413486765E+02  0.43983135817E+02 -0.73840131622E+02  0.92956959498E+02  0.00000000000E+00 0.  1.
         13    1    3    3    0    0 -0.90625665167E+01 -0.36366113098E+02 -0.83103233996E+02  0.91163434525E+02  0.00000000000E+00 0. -1.
         -2    1    1    2    0  502 -0.15333928541E+02  0.25561926063E+02 -0.76965579352E+02  0.82536306154E+02  0.00000000000E+00 0.  1.
<scales pt_clust_5="13000.00000" pt_clust_6="13000.00000" pt_clust_7="13000.00000" pt_clust_8="13000.00000" pt_clust_9="29.80843"></scales>
<clustering>
<clus scale="   29.808">  1  9  2 -1</clus>
<clus scale="   81.402">  5  6 -1 -1</clus>
<clus scale="   85.639">  1  5  2 -1</clus>
<clus scale="   92.286">  7  8 -1 -1</clus>
<clus scale="   29.808">  1  5  2 -1</clus>
</clustering>
</event>
<event>
 9    2  0.1302972E-004  0.1128303E+03  0.7546771E-02  0.1257485E+00
         21   -1    0    0  501  502  0.00000000000E+00  0.00000000000E+00  0.18575662135E+03  0.18575662135E+03  0.00000000000E+00 0. -1.
          2   -1    0    0  502    0 -0.00000000000E+00 -0.00000000000E+00 -0.18463159551E+03  0.18463159551E+03  0.00000000000E+00 0. -1.
         24    2    1    2    0    0 -0.75167870998E+02 -0.24675409611E+02 -0.27085586253E+02  0.11521907930E+03  0.79263627111E+02 0.  0.
         23    2    1    2    0    0  0.56275700615E+02  0.10851862297E+02  0.12140499566E+03  0.15907960800E+03  0.85337162563E+02 0.  0.
        -13    1    3    3    0    0 -0.21498164754E+01 -0.30673738460E+02 -0.28522708122E+02  0.41940968284E+02  0.00000000000E+00 0.  1.
         14    1    3    3    0    0 -0.73018054522E+02  0.59983288491E+01  0.14371218690E+01  0.73278111019E+02  0.00000000000E+00 0. -1.
        -13    1    4    4    0    0  0.19023300788E+02  0.22256399231E+02 -0.23155962761E+01  0.29369972177E+02  0.00000000000E+00 0.  1.
         13    1    4    4    0    0  0.37252399827E+02 -0.11404536933E+02  0.12372059194E+03  0.12970963582E+03  0.00000000000E+00 0. -1.
          1    1    1    2  501    0  0.18892170383E+02  0.13823547313E+02 -0.93194383565E+02  0.96089529556E+02  0.00000000000E+00 0. -1.
<scales pt_clust_5="13000.00000" pt_clust_6="13000.00000" pt_clust_7="13000.00000" pt_clust_8="13000.00000" pt_clust_9="23.40951"></scales>
<clustering>
<clus scale="   23.410">  1  9  2 -1</clus>
<clus scale="   79.264">  5  6 -1 -1</clus>
<clus scale="   85.337">  7  8 -1 -1</clus>
<clus scale="  108.310">  2  5  1 -1</clus>
<clus scale="   23.410">  1  5  2 -1</clus>
</clustering>
</event>
<event>
 9    2  0.1302972E-004  0.1619591E+03  0.7546771E-02  0.1189036E+00
         21   -1    0    0  501  502  0.00000000000E+00  0.00000000000E+00  0.15130551711E+03  0.15130551711E+03  0.00000000000E+00 0. -1.
          2   -1    0    0  502    0 -0.00000000000E+00 -0.00000000000E+00 -0.72202716236E+03  0.72202716236E+03  0.00000000000E+00 0. -1.
         24    2    1    2    0    0  0.50501832827E+02  0.13168522664E+03 -0.59083386650E+03  0.61234328166E+03  0.77383478613E+02 0.  0.
         23    2    1    2    0    0  0.55234266105E+02 -0.78744923902E+02  0.42099174058E+02  0.14071377947E+03  0.93682656265E+02 0.  0.
        -11    1    3    3    0    0 -0.20813020738E+02  0.28452964663E+02 -0.11899753887E+03  0.12410949717E+03  0.00000000000E+00 0.  1.
         12    1    3    3    0    0  0.71314853565E+02  0.10323226197E+03 -0.47183632763E+03  0.48823378449E+03  0.00000000000E+00 0. -1.
        -11    1    4    4    0    0  0.65000298868E+02 -0.16511255818E+02  0.41982908777E+01  0.67195878355E+02  0.00000000000E+00 0. -1.
         11    1    4    4    0    0 -0.97660327623E+01 -0.62233668084E+02  0.37900883180E+02  0.73517901119E+02  0.00000000000E+00 0.  1.
          1    1    1    2  501    0 -0.10573609893E+03 -0.52940302735E+02 -0.21986952811E+02  0.12027561833E+03  0.00000000000E+00 0. -1.
<scales pt_clust_5="13000.00000" pt_clust_6="13000.00000" pt_clust_7="13000.00000" pt_clust_8="13000.00000" pt_clust_9="118.24888"></scales>
<clustering>
<clus scale="   77.383">  5  6 -1 -1</clus>
<clus scale="   93.683">  7  8 -1 -1</clus>
<clus scale="  118.249">  1  9  2 -1</clus>
<clus scale="  153.110">  2  5  1 -1</clus>
<clus scale="  118.249">  1  5  2 -1</clus>
</clustering>
</event>
<event>
 9    2  0.1302972E-004  0.1045025E+03  0.7546771E-02  0.1273079E+00
          2   -1    0    0  502    0 -0.00000000000E+00  0.00000000000E+00  0.33985932940E+03  0.33985932940E+03  0.00000000000E+00 0. -1.
         21   -1    0    0  501  502  0.00000000000E+00 -0.00000000000E+00 -0.56890893093E+02  0.56890893093E+02  0.00000000000E+00 0. -1.
         24    2    1    2    0    0 -0.56828584831E+02  0.23193601576E+02  0.11754227516E+03  0.15477036316E+03  0.79813831228E+02 0.  0.
         23    2    1    2    0    0  0.65816780868E+02  0.35521237754E+02  0.13226881591E+03  0.17395317656E+03  0.84682117347E+02 0.  0.
        -11    1    3    3    0    0 -0.50060971686E+02 -0.20500757523E+02  0.47775686908E+02  0.72172697086E+02  0.00000000000E+00 0.  1.
         12    1    3    3    0    0 -0.67676131453E+01  0.43694359099E+02  0.69766588257E+02  0.82597666079E+02  0.00000000000E+00 0. -1.
        -13    1    4    4    0    0 -0.48406695013E+01  0.41634122115E+02  0.53432258973E+02  0.67910518364E+02  0.00000000000E+00 0. -1.
         13    1    4    4    0    0  0.70657450370E+02 -0.61128843610E+01  0.78836556934E+02  0.10604265820E+03  0.00000000000E+00 0.  1.
          1    1    1    2  501    0 -0.89881960376E+01 -0.58714839331E+02  0.33157345238E+02  0.68026682771E+02  0.00000000000E+00 0. -1.
<scales pt_clust_5="13000.00000" pt_clust_6="13000.00000" pt_clust_7="13000.00000" pt_clust_8="13000.00000" pt_clust_9="59.39882"></scales>
<clustering>
<clus scale="   59.399">  2  9  1 -1</clus>
<clus scale="   79.814">  5  6 -1 -1</clus>
<clus scale="   84.682">  7  8 -1 -1</clus>
<clus scale="  100.598">  1  5  2 -1</clus>
<clus scale="   59.399">  2  5  1 -1</clus>
</clustering>
</event>
<event>
 9    2  0.1302972E-004  0.1181514E+03  0.7546771E-02  0.1264046E+00
         21   -1    0    0  501  502  0.00000000000E+00  0.00000000000E+00  0.41331797185E+03  0.41331797185E+03  0.00000000000E+00 0. -1.
         -3   -1    0    0    0  501 -0.00000000000E+00 -0.00000000000E+00 -0.19047508574E+03  0.19047508574E+03  0.00000000000E+00 0.  1.
         24    2    1    2    0    0 -0.23635874519E+02  0.60098229160E+01 -0.15592248871E+03  0.17660320973E+03  0.79259691295E+02 0.  0.
         23    2    1    2    0    0 -0.58017339793E+02 -0.23458654080E+02  0.24604122710E+03  0.27038612181E+03  0.93037891545E+02 0.  0.
        -11    1    3    3    0    0 -0.44485290939E+02 -0.54106005261E+01 -0.14233254035E+03  0.14922053394E+03  0.00000000000E+00 0.  1.
         12    1    3    3    0    0  0.20849416420E+02  0.11420423442E+02 -0.13589948364E+02  0.27382675786E+02  0.00000000000E+00 0. -1.
        -11    1    4    4    0    0 -0.34679925817E+02  0.32838722671E+02  0.76079008381E+02  0.89828138562E+02  0.00000000000E+00 0. -1.
         11    1    4    4    0    0 -0.23337413976E+02 -0.56297376752E+02  0.16996221872E+03  0.18055798324E+03  0.00000000000E+00 0.  1.
         -4    1    1    2    0  502  0.81653214312E+02  0.17448831164E+02  0.13272414772E+03  0.15680372605E+03  0.00000000000E+00 0.  1.
<scales pt_clust_5="13000.00000" pt_clust_6="13000.00000" pt_clust_7="13000.00000" pt_clust_8="13000.00000" pt_clust_9="72.82652"></scales>
<clustering>
<clus scale="   79.260">  5  6 -1 -1</clus>
<clus scale="   82.927">  2  5  1 -1</clus>
<clus scale="   72.827">  1  9  2 -1</clus>
<clus scale="   93.038">  7  8 -1 -1</clus>
<clus scale="   72.827">  1  5  2 -1</clus>
</clustering>
</event>
<event>
 9    2  0.1302972E-004  0.2535330E+03  0.7546771E-02  0.1122203E+00
         21   -1    0    0  501  502  0.00000000000E+00  0.00000000000E+00  0.91117485660E+02  0.91117485660E+02  0.00000000000E+00 0. -1.
          2   -1    0    0  502    0 -0.00000000000E+00 -0.00000000000E+00 -0.15211276860E+04  0.15211276860E+04  0.00000000000E+00 0. -1.
         23    2    1    2    0    0  0.65879444039E+02  0.14923819528E+03 -0.28752619900E+03  0.34556916596E+03  0.10067071704E+03 0.  0.
         24    2    1    2    0    0  0.73589812069E+01 -0.33438209249E+03 -0.78301587788E+03  0.85575087701E+03  0.85616354255E+02 0.  0.
        -13    1    4    4    0    0  0.30864525090E+02 -0.55128148421E+02 -0.11249063343E+03  0.12901889112E+03  0.00000000000E+00 0.  1.
         14    1    4    4    0    0 -0.23505543883E+02 -0.27925394407E+03 -0.67052524445E+03  0.72673198589E+03  0.00000000000E+00 0. -1.
        -13    1    3    3    0    0  0.73025403965E+02  0.82853336398E+02 -0.10988723178E+03  0.15579662604E+03  0.00000000000E+00 0. -1.
         13    1    3    3    0    0 -0.71459599252E+01  0.66384858887E+02 -0.17763896722E+03  0.18977253992E+03  0.00000000000E+00 0.  1.
          1    1    1    2  501    0 -0.73238425246E+02  0.18514389721E+03 -0.35946812348E+03  0.41092512871E+03  0.00000000000E+00 0. -1.
<scales pt_clust_5="13000.00000" pt_clust_6="13000.00000" pt_clust_7="13000.00000" pt_clust_8="13000.00000" pt_clust_9="238.63954"></scales>
<clustering>
<clus scale="   85.616">  5  6 -1 -1</clus>
<clus scale="  100.671">  7  8 -1 -1</clus>
<clus scale="  191.694">  2  7  1 -1</clus>
<clus scale="  238.640">  1  9  2 -1</clus>
<clus scale="  238.640">  1  5  2 -1</clus>
</clustering>
</event>
<event>
 9    2  0.1302972E-004  0.1289592E+03  0.7546771E-02  0.1231527E+00
         21   -1    0    0  501  502  0.00000000000E+00  0.00000000000E+00  0.43850937588E+02  0.43850937588E+02  0.00000000000E+00 0.  1.
          2   -1    0    0  502    0 -0.00000000000E+00 -0.00000000000E+00 -0.46804779115E+03  0.46804779115E+03  0.00000000000E+00 0. -1.
         24    2    1    2    0    0  0.40192506221E+02 -0.92638220168E+02 -0.25197792458E+03  0.28324284332E+03  0.80847736024E+02 0.  0.
         23    2    1    2    0    0 -0.38150028525E+02  0.71138511879E+02 -0.16713798620E+03  0.20646973769E+03  0.90435245360E+02 0.  0.
        -11    1    3    3    0    0  0.22582679654E+02 -0.60899761171E+02 -0.61877472679E+02  0.89708304834E+02  0.00000000000E+00 0.  1.
         12    1    3    3    0    0  0.17609826567E+02 -0.31738458997E+02 -0.19010045190E+03  0.19353453848E+03  0.00000000000E+00 0. -1.
        -11    1    4    4    0    0  0.14803438658E+02  0.53695674047E+02 -0.42930799492E+02  0.70323685572E+02  0.00000000000E+00 0.  1.
         11    1    4    4    0    0 -0.52953467183E+02  0.17442837833E+02 -0.12420718671E+03  0.13614605212E+03  0.00000000000E+00 0. -1.
          1    1    1    2  501    0 -0.20424776963E+01  0.21499708289E+02 -0.50809427817E+01  0.22186147732E+02  0.00000000000E+00 0. -1.
<scales pt_clust_5="13000.00000" pt_clust_6="13000.00000" pt_clust_7="13000.00000" pt_clust_8="13000.00000" pt_clust_9="21.59651"></scales>
<clustering>
<clus scale="   21.597">  1  9  2 -1</clus>
<clus scale="   80.848">  5  6 -1 -1</clus>
<clus scale="   90.435">  7  8 -1 -1</clus>
<clus scale="  122.427">  2  5  1 -1</clus>
<clus scale="   21.597">  1  5  2 -1</clus>
</clustering>
</event>
<event>
 9    2  0.1302972E-004  0.3282871E+03  0.7546771E-02  0.1087239E+00
         21   -1    0    0  501  502  0.00000000000E+00  0.00000000000E+00  0.56170254061E+03  0.56170254061E+03  0.00000000000E+00 0.  1.
          4   -1    0    0  502    0 -0.00000000000E+00 -0.00000000000E+00 -0.52552804947E+03  0.52552804947E+03  0.00000000000E+00 0. -1.
         24    2    1    2    0    0 -0.48770551022E+02  0.19625501690E+03  0.66385294241E+02  0.22700039131E+03  0.78914967258E+02 0.  0.
         23    2    1    2    0    0  0.32421982220E+03 -0.48191793675E+02  0.26413376497E+03  0.43077269934E+03  0.91419530837E+02 0.  0.
        -11    1    3    3    0    0 -0.39829769025E+02  0.17734283281E+03  0.83451792397E+02  0.20000273124E+03  0.00000000000E+00 0.  1.
         12    1    3    3    0    0 -0.89407819964E+01  0.18912184087E+02 -0.17066498156E+02  0.26997660064E+02  0.00000000000E+00 0. -1.
        -11    1    4    4    0    0  0.25064094372E+03 -0.39170896672E+02  0.24828879826E+03  0.35496840585E+03  0.00000000000E+00 0.  1.
         11    1    4    4    0    0  0.73578878483E+02 -0.90208970037E+01  0.15844966711E+02  0.75804293491E+02  0.00000000000E+00 0. -1.
          3    1    1    2  501    0 -0.27544927118E+03 -0.14806322322E+03 -0.29434456807E+03  0.42945749943E+03  0.00000000000E+00 0. -1.
<scales pt_clust_5="13000.00000" pt_clust_6="13000.00000" pt_clust_7="13000.00000" pt_clust_8="13000.00000" pt_clust_9="315.30145"></scales>
<clustering>
<clus scale="   78.915">  5  6 -1 -1</clus>
<clus scale="   91.420">  7  8 -1 -1</clus>
<clus scale="  217.077">  2  5  1 -1</clus>
<clus scale="  315.301">  1  9  2 -1</clus>
<clus scale="  315.301">  1  5  2 -1</clus>
</clustering>
</event>
<event>
 9    2  0.1302972E-004  0.1586407E+03  0.7546771E-02  0.1207941E+00
          2   -1    0    0  502    0 -0.00000000000E+00  0.00000000000E+00  0.22441370551E+03  0.22441370551E+03  0.00000000000E+00 0. -1.
         21   -1    0    0  501  502  0.00000000000E+00 -0.00000000000E+00 -0.58883711883E+03  0.58883711883E+03  0.00000000000E+00 0. -1.
         23    2    1    2    0    0 -0.44228876696E+02 -0.98453808764E+01 -0.63937085180E+02  0.12545491062E+03  0.97968661713E+02 0.  0.
         24    2    1    2    0    0  0.17486209799E+03 -0.24487463807E+02  0.13220899956E+03  0.23450899648E+03  0.79616962178E+02 0.  0.
        -11    1    4    4    0    0  0.60467794568E+02  0.83440775939E+01  0.64772400884E+01  0.61383486785E+02  0.00000000000E+00 0.  1.
         12    1    4    4    0    0  0.11439430343E+03 -0.32831541400E+02  0.12573175947E+03  0.17312550969E+03  0.00000000000E+00 0. -1.
        -11    1    3    3    0    0  0.25823955440E+02 -0.88121502372E+01 -0.45424657595E+02  0.52989906435E+02  0.00000000000E+00 0.  1.
         11    1    3    3    0    0 -0.70052832136E+02 -0.10332306392E+01 -0.18512427585E+02  0.72465004181E+02  0.00000000000E+00 0. -1.
          1    1    1    2  501    0 -0.13063322130E+03  0.34332844683E+02 -0.43269532770E+03  0.45328691724E+03  0.00000000000E+00 0. -1.
<scales pt_clust_5="13000.00000" pt_clust_6="13000.00000" pt_clust_7="13000.00000" pt_clust_8="13000.00000" pt_clust_9="137.21516"></scales>
<clustering>
<clus scale="   79.617">  5  6 -1 -1</clus>
<clus scale="   97.969">  7  8 -1 -1</clus>
<clus scale="  107.940">  1  7  2 -1</clus>
<clus scale="  137.215">  2  9  1 -1</clus>
<clus scale="  137.215">  2  5  1 -1</clus>
</clustering>
</event>
<event>
 9    2  0.1302972E-004  0.1263699E+03  0.7546771E-02  0.1242341E+00
         -1   -1    0    0    0  501 -0.00000000000E+00  0.00000000000E+00  0.69735082527E+03  0.69735082527E+03  0.00000000000E+00 0.  1.
         21   -1    0    0  501  502  0.00000000000E+00 -0.00000000000E+00 -0.82232034074E+02  0.82232034074E+02  0.00000000000E+00 0.  1.
         23    2    1    2    0    0  0.23096021834E+02 -0.45158066632E+02  0.51203681019E+03  0.52255875757E+03  0.91177206142E+02 0.  0.
         24    2    1    2    0    0 -0.19107938565E+02 -0.77210117668E+02  0.42354410447E+02  0.12035766418E+03  0.79784432422E+02 0.  0.
        -13    1    4    4    0    0 -0.39707807503E+02 -0.64385099351E+02  0.49955010115E+01  0.75809669736E+02  0.00000000000E+00 0.  1.
         14    1    4    4    0    0  0.20599868938E+02 -0.12825018317E+02  0.37358909435E+02  0.44547994447E+02  0.00000000000E+00 0. -1.
        -11    1    3    3    0    0  0.53930147594E+02 -0.91513759064E+01  0.32713609982E+03  0.33167791048E+03  0.00000000000E+00 0.  1.
         11    1    3    3    0    0 -0.30834125760E+02 -0.36006690726E+02  0.18490071037E+03  0.19088084709E+03  0.00000000000E+00 0. -1.
         -2    1    1    2    0  502 -0.39880832691E+01  0.12236818430E+03  0.60727570561E+02  0.13666643759E+03  0.00000000000E+00 0.  1.
<scales pt_clust_5="13000.00000" pt_clust_6="13000.00000" pt_clust_7="13000.00000" pt_clust_8="13000.00000" pt_clust_9="97.99907"></scales>
<clustering>
<clus scale="   79.784">  5  6 -1 -1</clus>
<clus scale="   91.177">  7  8 -1 -1</clus>
<clus scale="  104.336">  1  7  2 -1</clus>
<clus scale="   97.999">  2  9  1 -1</clus>
<clus scale="   97.999">  2  5  1 -1</clus>
</clustering>
</event>
<event>
 9    2  0.1302972E-004  0.1361372E+03  0.7546771E-02  0.1242029E+00
         21   -1    0    0  501  502  0.00000000000E+00  0.00000000000E+00  0.31086812225E+02  0.31086812225E+02  0.00000000000E+00 0. -1.
          2   -1    0    0  502    0 -0.00000000000E+00 -0.00000000000E+00 -0.11106331972E+04  0.11106331972E+04  0.00000000000E+00 0. -1.
         24    2    1    2    0    0 -0.20464519662E+02 -0.74325815105E+01 -0.60848400996E+03  0.61425198345E+03  0.81108994338E+02 0.  0.
         23    2    1    2    0    0  0.10697320507E+03  0.32049365282E+02 -0.25412320446E+03  0.29262266747E+03  0.92622859235E+02 0.  0.
        -13    1    3    3    0    0 -0.19722928127E+02 -0.26932488767E+02 -0.10061399417E+03  0.10600721046E+03  0.00000000000E+00 0.  1.
         14    1    3    3    0    0 -0.74159153508E+00  0.19499907257E+02 -0.50787001579E+03  0.50824477300E+03  0.00000000000E+00 0. -1.
        -11    1    4    4    0    0 -0.89544057604E+01  0.21332721269E+02 -0.17842339179E+02  0.29216698079E+02  0.00000000000E+00 0.  1.
         11    1    4    4    0    0  0.11592761083E+03  0.10716644013E+02 -0.23628086528E+03  0.26340596939E+03  0.00000000000E+00 0. -1.
          1    1    1    2  501    0 -0.86508685405E+02 -0.24616783772E+02 -0.21693917060E+03  0.23484535856E+03  0.00000000000E+00 0. -1.
<scales pt_clust_5="13000.00000" pt_clust_6="13000.00000" pt_clust_7="13000.00000" pt_clust_8="13000.00000" pt_clust_9="99.77149"></scales>
<clustering>
<clus scale="   81.109">  5  6 -1 -1</clus>
<clus scale="   83.980">  2  5  1 -1</clus>
<clus scale="   92.623">  7  8 -1 -1</clus>
<clus scale="   99.771">  1  9  2 -1</clus>
<clus scale="   99.771">  1  5  2 -1</clus>
</clustering>
</event>
<event>
 9    2  0.1302972E-004  0.1665095E+03  0.7546771E-02  0.1202099E+00
         21   -1    0    0  501  502  0.00000000000E+00  0.00000000000E+00  0.66946138084E+02  0.66946138084E+02  0.00000000000E+00 0.  1.
          2   -1    0    0  502    0 -0.00000000000E+00 -0.00000000000E+00 -0.68732532233E+03  0.68732532233E+03  0.00000000000E+00 0. -1.
         24    2    1    2    0    0 -0.69658872372E+02 -0.14683970772E+02 -0.19862482403E+03  0.22507556929E+03  0.78353134424E+02 0.  0.
         23    2    1    2    0    0 -0.40442745735E+02 -0.10935463665E+03 -0.17285962074E+03  0.23010303968E+03  0.97328865973E+02 0.  0.
        -13    1    3    3    0    0 -0.63479625407E+02  0.21738743379E+02 -0.10718604972E+03  0.12645586211E+03  0.00000000000E+00 0.  1.
         14    1    3    3    0    0 -0.61792469654E+01 -0.36422714151E+02 -0.91438774307E+02  0.98619707189E+02  0.00000000000E+00 0. -1.
        -11    1    4    4    0    0  0.25721319476E+02 -0.70506387843E+02 -0.81290852826E+02  0.11063878052E+03  0.00000000000E+00 0.  1.
         11    1    4    4    0    0 -0.66164065211E+02 -0.38848248805E+02 -0.91568767910E+02  0.11946425916E+03  0.00000000000E+00 0. -1.
          1    1    1    2  501    0  0.11010161811E+03  0.12403860742E+03 -0.24889473948E+03  0.29909285144E+03  0.00000000000E+00 0. -1.
<scales pt_clust_5="13000.00000" pt_clust_6="13000.00000" pt_clust_7="13000.00000" pt_clust_8="13000.00000" pt_clust_9="135.10188"></scales>
<clustering>
<clus scale="   78.353">  5  6 -1 -1</clus>
<clus scale="   97.329">  7  8 -1 -1</clus>
<clus scale="  105.864">  2  5  1 -1</clus>
<clus scale="  135.102">  1  9  2 -1</clus>
<clus scale="  135.102">  1  5  2 -1</clus>
</clustering>
</event>
<event>
 9    2  0.1302972E-004  0.1400765E+03  0.7546771E-02  0.1215942E+00
          2   -1    0    0  502    0 -0.00000000000E+00  0.00000000000E+00  0.35135968562E+03  0.35135968562E+03  0.00000000000E+00 0. -1.
         21   -1    0    0  501  502  0.00000000000E+00 -0.00000000000E+00 -0.15041285075E+03  0.15041285075E+03  0.00000000000E+00 0. -1.
         23    2    1    2    0    0  0.43099639377E+00 -0.88059520597E+02  0.14740156730E+03  0.19469570796E+03  0.91785247887E+02 0.  0.
         24    2    1    2    0    0 -0.77539054374E+02  0.16145955497E+03  0.32833316515E+02  0.19862313982E+03  0.79319809361E+02 0.  0.
        -13    1    4    4    0    0 -0.50112252527E+02  0.11152642031E+03  0.59202542864E+02  0.13584668330E+03  0.00000000000E+00 0.  1.
         14    1    4    4    0    0 -0.27426801847E+02  0.49933134655E+02 -0.26369226349E+02  0.62776456528E+02  0.00000000000E+00 0. -1.
        -13    1    3    3    0    0 -0.43614820194E+02 -0.47173646575E+02  0.96544875701E+02  0.11596774765E+03  0.00000000000E+00 0.  1.
         13    1    3    3    0    0  0.44045816588E+02 -0.40885874021E+02  0.50856691594E+02  0.78727960302E+02  0.00000000000E+00 0. -1.
          1    1    1    2  501    0  0.77108057980E+02 -0.73400034370E+02  0.20711951058E+02  0.10845368858E+03  0.00000000000E+00 0. -1.
<scales pt_clust_5="13000.00000" pt_clust_6="13000.00000" pt_clust_7="13000.00000" pt_clust_8="13000.00000" pt_clust_9="106.45759"></scales>
<clustering>
<clus scale="   79.320">  5  6 -1 -1</clus>
<clus scale="   91.785">  7  8 -1 -1</clus>
<clus scale="  106.458">  2  9  1 -1</clus>
<clus scale="  132.244">  2  5  1 -1</clus>
<clus scale="  106.458">  2  5  1 -1</clus>
</clustering>
</event>
<event>
 9    2  0.1302972E-004  0.1100601E+03  0.7546771E-02  0.1261648E+00
          2   -1    0    0  502    0 -0.00000000000E+00  0.00000000000E+00  0.10388383575E+04  0.10388383575E+04  0.00000000000E+00 0. -1.
         21   -1    0    0  501  502  0.00000000000E+00 -0.00000000000E+00 -0.35874668047E+02  0.35874668047E+02  0.00000000000E+00 0. -1.
         24    2    1    2    0    0  0.42996676296E+02  0.31198272520E+02  0.45729952816E+03  0.46847951191E+03  0.86764902129E+02 0.  0.
         23    2    1    2    0    0 -0.95235313566E+02 -0.64697968380E+02  0.16425225322E+03  0.21980609682E+03  0.89890630494E+02 0.  0.
        -11    1    3    3    0    0  0.51279071284E+02  0.54649003826E+02  0.29957122755E+03  0.30880248889E+03  0.00000000000E+00 0.  1.
         12    1    3    3    0    0 -0.82823949874E+01 -0.23450731306E+02  0.15772830061E+03  0.15967702302E+03  0.00000000000E+00 0. -1.
        -13    1    4    4    0    0 -0.37366558409E+02 -0.52017982296E+01  0.11991230386E+03  0.12570711598E+03  0.00000000000E+00 0.  1.
         13    1    4    4    0    0 -0.57868755157E+02 -0.59496170150E+02  0.44339949363E+02  0.94098980842E+02  0.00000000000E+00 0. -1.
          1    1    1    2  501    0  0.52238637270E+02  0.33499695860E+02  0.38141190811E+03  0.38642741685E+03  0.00000000000E+00 0. -1.
<scales pt_clust_5="13000.00000" pt_clust_6="13000.00000" pt_clust_7="13000.00000" pt_clust_8="13000.00000" pt_clust_9="62.05730"></scales>
<clustering>
<clus scale="   62.057">  2  9  1 -1</clus>
<clus scale="   86.765">  5  6 -1 -1</clus>
<clus scale="   89.891">  7  8 -1 -1</clus>
<clus scale="  107.522">  1  5  2 -1</clus>
<clus scale="   62.057">  2  5  1 -1</clus>
</clustering>
</event>
<event>
 9    2  0.1302972E-004  0.1249794E+03  0.7546771E-02  0.1237060E+00
          2   -1    0    0  502    0 -0.00000000000E+00  0.00000000000E+00  0.59606244670E+03  0.59606244670E+03  0.00000000000E+00 0. -1.
         21   -1    0    0  501  502  0.00000000000E+00 -0.00000000000E+00 -0.10102111798E+03  0.10102111798E+03  0.00000000000E+00 0. -1.
         24    2    1    2    0    0 -0.71343079816E+02 -0.28579023386E+02  0.24857309575E+03  0.27336257356E+03  0.83856526750E+02 0.  0.
         23    2    1    2    0    0  0.96596730811E+02  0.11379327201E+02  0.31867114559E+03  0.34531922437E+03  0.90739463292E+02 0.  0.
        -11    1    3    3    0    0 -0.58924073461E+00 -0.25290975666E+02  0.15280611347E+02  0.29554656789E+02  0.00000000000E+00 0.  1.
         12    1    3    3    0    0 -0.70753839082E+02 -0.32880477195E+01  0.23329248440E+03  0.24380791677E+03  0.00000000000E+00 0. -1.
        -13    1    4    4    0    0  0.43529714203E+02  0.22719344222E+02  0.45940278850E+02  0.67242202829E+02  0.00000000000E+00 0.  1.
         13    1    4    4    0    0  0.53067016608E+02 -0.11340017021E+02  0.27273086674E+03  0.27807702155E+03  0.00000000000E+00 0. -1.
          1    1    1    2  501    0 -0.25253650994E+02  0.17199696185E+02 -0.72202912625E+02  0.78401766746E+02  0.00000000000E+00 0. -1.
<scales pt_clust_5="13000.00000" pt_clust_6="13000.00000" pt_clust_7="13000.00000" pt_clust_8="13000.00000" pt_clust_9="30.55448"></scales>
<clustering>
<clus scale="   30.554">  2  9  1 -1</clus>
<clus scale="   83.857">  5  6 -1 -1</clus>
<clus scale="   90.739">  7  8 -1 -1</clus>
<clus scale="  120.076">  1  5  2 -1</clus>
<clus scale="   30.554">  2  5  1 -1</clus>
</clustering>
</event>
<event>
 9    2  0.1302972E-004  0.1568860E+03  0.7546771E-02  0.1219068E+00
          2   -1    0    0  502    0 -0.00000000000E+00  0.00000000000E+00  0.11867241788E+03  0.11867241788E+03  0.00000000000E+00 0. -1.
         21   -1    0    0  501  502  0.00000000000E+00 -0.00000000000E+00 -0.44465364102E+03  0.44465364102E+03  0.00000000000E+00 0. -1.
         24    2    1    2    0    0 -0.20353457390E+02 -0.28182187537E+02  0.14255567254E+02  0.89268594945E+02  0.80976304705E+02 0.  0.
         23    2    1    2    0    0  0.11534032209E+03  0.81806440313E+02 -0.85738391135E+02  0.19716849672E+03  0.10737160150E+03 0.  0.
        -13    1    3    3    0    0 -0.93346041911E+01  0.27567921717E+02 -0.44434705317E+01  0.29442648888E+02  0.00000000000E+00 0.  1.
         14    1    3    3    0    0 -0.11018853198E+02 -0.55750109253E+02  0.18699037786E+02  0.59825946057E+02  0.00000000000E+00 0. -1.
        -11    1    4    4    0    0  0.60919894234E+02  0.10456474508E+02 -0.87841086600E+02  0.10740869549E+03  0.00000000000E+00 0.  1.
         11    1    4    4    0    0  0.54420427859E+02  0.71349965805E+02  0.21026954652E+01  0.89759801231E+02  0.00000000000E+00 0. -1.
          1    1    1    2  501    0 -0.94986864703E+02 -0.53624252776E+02 -0.25449839925E+03  0.27688896723E+03  0.00000000000E+00 0. -1.
<scales pt_clust_5="13000.00000" pt_clust_6="13000.00000" pt_clust_7="13000.00000" pt_clust_8="13000.00000" pt_clust_9="114.38780"></scales>
<clustering>
<clus scale="   80.976">  5  6 -1 -1</clus>
<clus scale="   88.123">  1  5  2 -1</clus>
<clus scale="  107.372">  7  8 -1 -1</clus>
<clus scale="  114.388">  2  9  1 -1</clus>
<clus scale="  114.388">  2  5  1 -1</clus>
</clustering>
</event>
<event>
 9    2  0.1302972E-004  0.1187107E+03  0.7546771E-02  0.1250224E+00
         21   -1    0    0  501  502  0.00000000000E+00  0.00000000000E+00  0.34139248201E+02  0.34139248201E+02  0.00000000000E+00 0. -1.
          2   -1    0    0  502    0 -0.00000000000E+00 -0.00000000000E+00 -0.93386841032E+03  0.93386841032E+03  0.00000000000E+00 0. -1.
         24    2    1    2    0    0 -0.44968301853E+02 -0.58010291930E+02 -0.25014088377E+03  0.27175181270E+03  0.76754438499E+02 0.  0.
         23    2    1    2    0    0  0.97099698208E+02  0.88154493551E+01 -0.19835321000E+03  0.23936318673E+03  0.91894916655E+02 0.  0.
        -13    1    3    3    0    0 -0.54617816754E+02 -0.10535728895E+02 -0.10633684623E+03  0.12000680129E+03  0.00000000000E+00 0.  1.
         14    1    3    3    0    0  0.96495149013E+01 -0.47474563035E+02 -0.14380403754E+03  0.15174501140E+03  0.00000000000E+00 0. -1.
        -13    1    4    4    0    0  0.92010973679E+02 -0.26650547682E+02 -0.12278996727E+03  0.15573582449E+03  0.00000000000E+00 0. -1.
         13    1    4    4    0    0  0.50887245284E+01  0.35465997037E+02 -0.75563242728E+02  0.83627362237E+02  0.00000000000E+00 0.  1.
          1    1    1    2  501    0 -0.52131396355E+02  0.49194842574E+02 -0.45123506835E+03  0.45689265909E+03  0.00000000000E+00 0. -1.
<scales pt_clust_5="13000.00000" pt_clust_6="13000.00000" pt_clust_7="13000.00000" pt_clust_8="13000.00000" pt_clust_9="71.67859"></scales>
<clustering>
<clus scale="   71.679">  1  9  2 -1</clus>
<clus scale="   76.754">  5  6 -1 -1</clus>
<clus scale="   91.895">  7  8 -1 -1</clus>
<clus scale="  107.419">  2  5  1 -1</clus>
<clus scale="   71.679">  1  5  2 -1</clus>
</clustering>
</event>
<event>
 9    2  0.1302972E-004  0.1003109E+03  0.7546771E-02  0.1284428E+00
         21   -1    0    0  501  502  0.00000000000E+00  0.00000000000E+00  0.25704886776E+02  0.25704886776E+02  0.00000000000E+00 0. -1.
         -3   -1    0    0    0  501 -0.00000000000E+00 -0.00000000000E+00 -0.52489135787E+03  0.52489135787E+03  0.00000000000E+00 0.  1.
         23    2    1    2    0    0 -0.60612455410E+01 -0.26964934760E+02 -0.22799910093E+03  0.24700505804E+03  0.90906887906E+02 0.  0.
         24    2    1    2    0    0  0.10255629722E+02  0.56852786064E+02 -0.24151364133E+03  0.26126617394E+03  0.81201954855E+02 0.  0.
        -13    1    4    4    0    0  0.41950749561E+02  0.52846532839E+02 -0.15532935713E+03  0.16935120492E+03  0.00000000000E+00 0.  1.
         14    1    4    4    0    0 -0.31695119840E+02  0.40062532252E+01 -0.86184284196E+02  0.91914969014E+02  0.00000000000E+00 0. -1.
        -11    1    3    3    0    0  0.35029187640E+02  0.13285947552E+02 -0.86854489467E+02  0.94589971612E+02  0.00000000000E+00 0. -1.
         11    1    3    3    0    0 -0.41090433181E+02 -0.40250882312E+02 -0.14114461146E+03  0.15241508643E+03  0.00000000000E+00 0.  1.
         -4    1    1    2    0  502 -0.41943841807E+01 -0.29887851304E+02 -0.29673728837E+02  0.42325012668E+02  0.00000000000E+00 0.  1.
<scales pt_clust_5="13000.00000" pt_clust_6="13000.00000" pt_clust_7="13000.00000" pt_clust_8="13000.00000" pt_clust_9="30.18073"></scales>
<clustering>
<clus scale="   30.181">  1  9  2 -1</clus>
<clus scale="   81.202">  5  6 -1 -1</clus>
<clus scale="   90.907">  7  8 -1 -1</clus>
<clus scale="   91.608">  1  5  2 -1</clus>
<clus scale="   30.181">  1  5  2 -1</clus>
</clustering>
</event>
<event>
 9    2  0.1302972E-004  0.2054050E+03  0.7546771E-02  0.1181183E+00
         21   -1    0    0  501  502  0.00000000000E+00  0.00000000000E+00  0.46021193790E+03  0.46021193790E+03  0.00000000000E+00 0. -1.
          2   -1    0    0  502    0 -0.00000000000E+00 -0.00000000000E+00 -0.19899547998E+03  0.19899547998E+03  0.00000000000E+00 0. -1.
         24    2    1    2    0    0  0.19193095656E+02 -0.25855837622E+02  0.51141076950E+02  0.10300062592E+03  0.83407553185E+02 0.  0.
         23    2    1    2    0    0  0.11059750815E+03  0.15457704262E+03 -0.69340330396E+02  0.22230876979E+03  0.92126200346E+02 0.  0.
        -13    1    3    3    0    0  0.10754608825E+02 -0.42379693938E+02 -0.48729508647E+01  0.43993700906E+02  0.00000000000E+00 0.  1.
         14    1    3    3    0    0  0.84384868311E+01  0.16523856316E+02  0.56014027814E+02  0.59006925013E+02  0.00000000000E+00 0. -1.
        -11    1    4    4    0    0  0.27005640178E+02 -0.81131989838E+01 -0.68346299116E+01  0.29014492330E+02  0.00000000000E+00 0.  1.
         11    1    4    4    0    0  0.83591867975E+02  0.16269024160E+03 -0.62505700484E+02  0.19329427746E+03  0.00000000000E+00 0. -1.
          1    1    1    2  501    0 -0.12979060381E+03 -0.12872120500E+03  0.27941571137E+03  0.33389802218E+03  0.00000000000E+00 0. -1.
<scales pt_clust_5="13000.00000" pt_clust_6="13000.00000" pt_clust_7="13000.00000" pt_clust_8="13000.00000" pt_clust_9="183.58640"></scales>
<clustering>
<clus scale="   83.408">  5  6 -1 -1</clus>
<clus scale="   89.408">  2  5  1 -1</clus>
<clus scale="   92.126">  7  8 -1 -1</clus>
<clus scale="  183.586">  1  9  2 -1</clus>
<clus scale="  183.586">  1  5  2 -1</clus>
</clustering>
</event>
<event>
 9    2  0.1302972E-004  0.1200867E+03  0.7546771E-02  0.1253915E+00
          2   -1    0    0  502    0 -0.00000000000E+00  0.00000000000E+00  0.97692473975E+03  0.97692473975E+03  0.00000000000E+00 0. -1.
         21   -1    0    0  501  502  0.00000000000E+00 -0.00000000000E+00 -0.32310826786E+02  0.32310826786E+02  0.00000000000E+00 0. -1.
         24    2    1    2    0    0 -0.37041006487E+02 -0.41433140903E+02  0.60096748512E+03  0.60865236622E+03  0.78784791738E+02 0.  0.
         23    2    1    2    0    0 -0.92185247373E+01 -0.47578821070E+02  0.20219581115E+03  0.22717227053E+03  0.91517042357E+02 0.  0.
        -11    1    3    3    0    0 -0.17040055138E+02  0.10855902814E+02  0.39183991762E+02  0.44086271281E+02  0.00000000000E+00 0.  1.
         12    1    3    3    0    0 -0.20000951348E+02 -0.52289043717E+02  0.56178349336E+03  0.56456609494E+03  0.00000000000E+00 0. -1.
        -13    1    4    4    0    0  0.42365219915E+01 -0.72857909197E+02  0.16335017123E+03  0.17891199370E+03  0.00000000000E+00 0. -1.
         13    1    4    4    0    0 -0.13455046729E+02  0.25279088127E+02  0.38845639919E+02  0.48260276830E+02  0.00000000000E+00 0.  1.
          1    1    1    2  501    0  0.46259531224E+02  0.89011961973E+02  0.14145061670E+03  0.17341092978E+03  0.00000000000E+00 0. -1.
<scales pt_clust_5="13000.00000" pt_clust_6="13000.00000" pt_clust_7="13000.00000" pt_clust_8="13000.00000" pt_clust_9="77.75257"></scales>
<clustering>
<clus scale="   78.785">  5  6 -1 -1</clus>
<clus scale="   91.517">  7  8 -1 -1</clus>
<clus scale="   96.415">  1  5  2 -1</clus>
<clus scale="   77.753">  2  9  1 -1</clus>
<clus scale="   77.753">  2  5  1 -1</clus>
</clustering>
</event>
<event>
 9    2  0.1302972E-004  0.1092731E+03  0.7546771E-02  0.1266661E+00
          2   -1    0    0  502    0 -0.00000000000E+00  0.00000000000E+00  0.93698100327E+02  0.93698100327E+02  0.00000000000E+00 0. -1.
         21   -1    0    0  501  502  0.00000000000E+00 -0.00000000000E+00 -0.23483029494E+03  0.23483029494E+03  0.00000000000E+00 0. -1.
         23    2    1    2    0    0 -0.44104384465E+02  0.36584376180E+02  0.78691010478E+01  0.10873581835E+03  0.92075741273E+02 0.  0.
         24    2    1    2    0    0  0.31517403201E+02 -0.60472147628E+02 -0.15919601010E+03  0.19093101208E+03  0.80380684235E+02 0.  0.
        -11    1    4    4    0    0  0.25028314853E+02  0.73862223013E+01 -0.12011832029E+02  0.28727285513E+02  0.00000000000E+00 0.  1.
         12    1    4    4    0    0  0.64890883484E+01 -0.67858369929E+02 -0.14718417807E+03  0.16220372657E+03  0.00000000000E+00 0. -1.
        -11    1    3    3    0    0 -0.68142426107E+02  0.44130490039E+01  0.54873857899E+01  0.68505303737E+02  0.00000000000E+00 0. -1.
         11    1    3    3    0    0  0.24038041643E+02  0.32171327176E+02  0.23817152579E+01  0.40230514611E+02  0.00000000000E+00 0.  1.
          1    1    1    2  501    0  0.12586981263E+02  0.23887771448E+02  0.10194714446E+02  0.28861564835E+02  0.00000000000E+00 0. -1.
<scales pt_clust_5="13000.00000" pt_clust_6="13000.00000" pt_clust_7="13000.00000" pt_clust_8="13000.00000" pt_clust_9="27.00108"></scales>
<clustering>
<clus scale="   27.001">  2  9  1 -1</clus>
<clus scale="   80.381">  5  6 -1 -1</clus>
<clus scale="   92.076">  7  8 -1 -1</clus>
<clus scale="   99.618">  2  5  1 -1</clus>
<clus scale="   27.001">  2  5  1 -1</clus>
</clustering>
</event>
<event>
 9    2  0.1302972E-004  0.1417730E+03  0.7546771E-02  0.1213898E+00
         21   -1    0    0  501  502  0.00000000000E+00  0.00000000000E+00  0.26612792199E+02  0.26612792199E+02  0.00000000000E+00 0.  1.
          2   -1    0    0  502    0 -0.00000000000E+00 -0.00000000000E+00 -0.12140900631E+04  0.12140900631E+04  0.00000000000E+00 0. -1.
         24    2    1    2    0    0 -0.11728824834E+03  0.29950844040E+02 -0.46241362104E+03  0.48409768849E+03  0.76620028837E+02 0.  0.
         23    2    1    2    0    0  0.72011365225E+02 -0.74219784968E+02 -0.34695787682E+03  0.37323366176E+03  0.90715956615E+02 0.  0.
        -11    1    3    3    0    0 -0.10457022428E+03 -0.23715318824E+00 -0.28264453553E+03  0.30136841493E+03  0.00000000000E+00 0.  1.
         12    1    3    3    0    0 -0.12718024055E+02  0.30187997229E+02 -0.17976908551E+03  0.18272927356E+03  0.00000000000E+00 0. -1.
        -13    1    4    4    0    0  0.11630030810E+02 -0.73481840215E+02 -0.22792890776E+03  0.23976326961E+03  0.00000000000E+00 0. -1.
         13    1    4    4    0    0  0.60381334416E+02 -0.73794475282E+00 -0.11902896906E+03  0.13347039216E+03  0.00000000000E+00 0.  1.
          1    1    1    2  501    0  0.45276883113E+02  0.44268940927E+02 -0.37810577307E+03  0.38337150508E+03  0.00000000000E+00 0. -1.
<scales pt_clust_5="13000.00000" pt_clust_6="13000.00000" pt_clust_7="13000.00000" pt_clust_8="13000.00000" pt_clust_9="63.32250"></scales>
<clustering>
<clus scale="   63.323">  1  9  2 -1</clus>
<clus scale="   76.620">  5  6 -1 -1</clus>
<clus scale="   90.716">  7  8 -1 -1</clus>
<clus scale="  133.195">  2  5  1 -1</clus>
<clus scale="   63.323">  1  5  2 -1</clus>
</clustering>
</event>
<event>
 9    2  0.1302972E-004  0.1955135E+03  0.7546771E-02  0.1154670E+00
          2   -1    0    0  502    0 -0.00000000000E+00  0.00000000000E+00  0.29394897395E+03  0.29394897395E+03  0.00000000000E+00 0. -1.
         21   -1    0    0  501  502  0.00000000000E+00 -0.00000000000E+00 -0.17565075324E+03  0.17565075324E+03  0.00000000000E+00 0. -1.
         23    2    1    2    0    0 -0.15178968074E+03  0.98830476136E+02  0.16222898687E+03  0.25958013955E+03  0.90862723254E+02 0.  0.
         24    2    1    2    0    0  0.12404457740E+03 -0.91812073437E+02 -0.50069561133E+02  0.18074957671E+03  0.79667650382E+02 0.  0.
        -13    1    4    4    0    0  0.42824926524E+02  0.87952484552E+01 -0.59083217694E+01  0.44116198763E+02  0.00000000000E+00 0.  1.
         14    1    4    4    0    0  0.81219650873E+02 -0.10060732189E+03 -0.44161239363E+02  0.13663337794E+03  0.00000000000E+00 0. -1.
        -11    1    3    3    0    0 -0.13431450199E+03  0.38791847301E+02  0.11860445589E+03  0.18333632978E+03  0.00000000000E+00 0. -1.
         11    1    3    3    0    0 -0.17475178747E+02  0.60038628836E+02  0.43624530988E+02  0.76243809773E+02  0.00000000000E+00 0.  1.
          1    1    1    2  501    0  0.27745103340E+02 -0.70184026991E+01  0.61387949671E+01  0.29270010923E+02  0.00000000000E+00 0. -1.
<scales pt_clust_5="13000.00000" pt_clust_6="13000.00000" pt_clust_7="13000.00000" pt_clust_8="13000.00000" pt_clust_9="28.61903"></scales>
<clustering>
<clus scale="   28.619">  2  9  1 -1</clus>
<clus scale="   79.668">  5  6 -1 -1</clus>
<clus scale="   90.863">  7  8 -1 -1</clus>
<clus scale="  190.569">  2  5  1 -1</clus>
<clus scale="   28.619">  2  5  1 -1</clus>
</clustering>
</event>
<event>
 9    2  0.1302972E-004  0.1027287E+03  0.7546771E-02  0.1279134E+00
          2   -1    0    0  502    0 -0.00000000000E+00  0.00000000000E+00  0.49977255073E+02  0.49977255073E+02  0.00000000000E+00 0. -1.
         21   -1    0    0  501  502  0.00000000000E+00 -0.00000000000E+00 -0.53168666679E+03  0.53168666679E+03  0.00000000000E+00 0. -1.
         24    2    1    2    0    0  0.33377292901E+02  0.18966612596E+02 -0.34095733217E+02  0.95789585701E+02  0.80866245310E+02 0.  0.
         23    2    1    2    0    0 -0.66707771769E+02 -0.52799174238E+02 -0.21374679480E+03  0.24723384852E+03  0.90549455845E+02 0.  0.
        -11    1    3    3    0    0  0.38038175868E+02 -0.23575843205E+02 -0.27395404217E+02  0.52471243347E+02  0.00000000000E+00 0.  1.
         12    1    3    3    0    0 -0.46608829664E+01  0.42542455801E+02 -0.67003289993E+01  0.43318342354E+02  0.00000000000E+00 0. -1.
        -11    1    4    4    0    0 -0.84187726337E+02 -0.35611963171E+02 -0.12308141492E+03  0.15331281710E+03  0.00000000000E+00 0. -1.
         11    1    4    4    0    0  0.17479954568E+02 -0.17187211067E+02 -0.90665379877E+02  0.93921031427E+02  0.00000000000E+00 0.  1.
          1    1    1    2  501    0  0.33330478868E+02  0.33832561642E+02 -0.23386688370E+03  0.23864048764E+03  0.00000000000E+00 0. -1.
<scales pt_clust_5="13000.00000" pt_clust_6="13000.00000" pt_clust_7="13000.00000" pt_clust_8="13000.00000" pt_clust_9="47.49277"></scales>
<clustering>
<clus scale="   47.493">  2  9  1 -1</clus>
<clus scale="   80.866">  5  6 -1 -1</clus>
<clus scale="   90.549">  7  8 -1 -1</clus>
<clus scale="   94.304">  1  5  2 -1</clus>
<clus scale="   47.493">  2  5  1 -1</clus>
</clustering>
</event>
<event>
 9    2  0.1302972E-004  0.9345810E+02  0.7546771E-02  0.1315397E+00
         -3   -1    0    0    0  501 -0.00000000000E+00  0.00000000000E+00  0.91877184049E+02  0.91877184049E+02  0.00000000000E+00 0.  1.
         21   -1    0    0  501  502  0.00000000000E+00 -0.00000000000E+00 -0.20361565136E+03  0.20361565136E+03  0.00000000000E+00 0.  1.
         24    2    1    2    0    0  0.77497766211E+01  0.21829939199E+02  0.12087190871E+01  0.65513081899E+02  0.61269059197E+02 0.  0.
         23    2    1    2    0    0  0.25685412317E+02 -0.56956084829E+00 -0.14874879927E+03  0.17657871391E+03  0.91617531707E+02 0.  0.
        -11    1    3    3    0    0  0.34375583074E+02  0.74070499961E+01  0.20016341599E+01  0.35221465623E+02  0.00000000000E+00 0.  1.
         12    1    3    3    0    0 -0.26625806453E+02  0.14422889203E+02 -0.79291507274E+00  0.30291616275E+02  0.00000000000E+00 0. -1.
        -13    1    4    4    0    0 -0.12663203617E+02 -0.38869922331E+02 -0.60572396655E+02  0.73076965074E+02  0.00000000000E+00 0. -1.
         13    1    4    4    0    0  0.38348615934E+02  0.38300361483E+02 -0.88176402613E+02  0.10350174883E+03  0.00000000000E+00 0.  1.
         -4    1    1    2    0  502 -0.33435188938E+02 -0.21260378351E+02  0.35801612868E+02  0.53401039605E+02  0.00000000000E+00 0.  1.
<scales pt_clust_5="13000.00000" pt_clust_6="13000.00000" pt_clust_7="13000.00000" pt_clust_8="13000.00000" pt_clust_9="39.62218"></scales>
<clustering>
<clus scale="   39.622">  2  9  1 -1</clus>
<clus scale="   61.269">  5  6 -1 -1</clus>
<clus scale="   63.989">  1  5  2 -1</clus>
<clus scale="   91.618">  7  8 -1 -1</clus>
<clus scale="   39.622">  2  5  1 -1</clus>
</clustering>
</event>
<event>
 9    2  0.1302972E-004  0.9508963E+02  0.7546771E-02  0.1297304E+00
          2   -1    0    0  502    0 -0.00000000000E+00  0.00000000000E+00  0.26078044918E+03  0.26078044918E+03  0.00000000000E+00 0. -1.
         21   -1    0    0  501  502  0.00000000000E+00 -0.00000000000E+00 -0.56900780584E+02  0.56900780584E+02  0.00000000000E+00 0. -1.
         23    2    1    2    0    0 -0.28175768769E+02 -0.14790171271E+02  0.16730322342E+03  0.19285444976E+03  0.90497774075E+02 0.  0.
         24    2    1    2    0    0  0.33175630211E+01  0.33012281515E+02  0.15195622819E+02  0.87315244987E+02  0.79323565849E+02 0.  0.
        -11    1    4    4    0    0  0.40806801426E+02  0.20198376033E+02  0.14159893594E+02  0.47683037063E+02  0.00000000000E+00 0.  1.
         12    1    4    4    0    0 -0.37489238405E+02  0.12813905483E+02  0.10357292250E+01  0.39632207924E+02  0.00000000000E+00 0. -1.
        -13    1    3    3    0    0  0.53637036614E+01  0.25090442159E+02  0.10682059331E+02  0.27792193080E+02  0.00000000000E+00 0.  1.
         13    1    3    3    0    0 -0.33539472430E+02 -0.39880613429E+02  0.15662116409E+03  0.16506225668E+03  0.00000000000E+00 0. -1.
          1    1    1    2  501    0  0.24858205748E+02 -0.18222110244E+02  0.21380822351E+02  0.37511535015E+02  0.00000000000E+00 0. -1.
<scales pt_clust_5="13000.00000" pt_clust_6="13000.00000" pt_clust_7="13000.00000" pt_clust_8="13000.00000" pt_clust_9="30.82168"></scales>
<clustering>
<clus scale="   30.822">  2  9  1 -1</clus>
<clus scale="   79.324">  5  6 -1 -1</clus>
<clus scale="   84.525">  2  5  1 -1</clus>
<clus scale="   90.498">  7  8 -1 -1</clus>
<clus scale="   30.822">  2  5  1 -1</clus>
</clustering>
</event>
<event>
 9    2  0.1302972E-004  0.1352928E+03  0.7546771E-02  0.1244313E+00
         21   -1    0    0  501  502  0.00000000000E+00  0.00000000000E+00  0.22022997030E+03  0.22022997030E+03  0.00000000000E+00 0. -1.
          2   -1    0    0  502    0 -0.00000000000E+00 -0.00000000000E+00 -0.16041285693E+03  0.16041285693E+03  0.00000000000E+00 0. -1.
         23    2    1    2    0    0 -0.98489153319E+01 -0.41081392132E+02  0.74139229607E+02  0.11032775502E+03  0.69935014462E+02 0.  0.
         24    2    1    2    0    0 -0.57822457337E+02  0.10391685839E+03  0.56035314776E+02  0.15422080622E+03  0.80634673300E+02 0.  0.
        -13    1    4    4    0    0  0.18981744145E+02  0.10310409449E+02  0.15294798084E+02  0.26467754008E+02  0.00000000000E+00 0.  1.
         14    1    4    4    0    0 -0.76804201482E+02  0.93606448942E+02  0.40740516692E+02  0.12775305221E+03  0.00000000000E+00 0. -1.
        -11    1    3    3    0    0 -0.33402995850E+02 -0.25524706397E+02  0.70202224034E+02  0.81826786737E+02  0.00000000000E+00 0. -1.
         11    1    3    3    0    0  0.23554080518E+02 -0.15556685735E+02  0.39370055736E+01  0.28500968281E+02  0.00000000000E+00 0.  1.
          1    1    1    2  501    0  0.67671372669E+02 -0.62835466259E+02 -0.70357431004E+02  0.11609426599E+03  0.00000000000E+00 0. -1.
<scales pt_clust_5="13000.00000" pt_clust_6="13000.00000" pt_clust_7="13000.00000" pt_clust_8="13000.00000" pt_clust_9="108.63792"></scales>
<clustering>
<clus scale="   69.935">  7  8 -1 -1</clus>
<clus scale="   80.635">  5  6 -1 -1</clus>
<clus scale="   81.704">  2  7  1 -1</clus>
<clus scale="  108.638">  1  9  2 -1</clus>
<clus scale="  108.638">  1  5  2 -1</clus>
</clustering>
</event>
<event>
 9    2  0.1302972E-004  0.3395253E+03  0.7546771E-02  0.1104686E+00
         21   -1    0    0  501  502  0.00000000000E+00  0.00000000000E+00  0.53168628618E+03  0.53168628618E+03  0.00000000000E+00 0. -1.
          2   -1    0    0  502    0 -0.00000000000E+00 -0.00000000000E+00 -0.29664704555E+03  0.29664704555E+03  0.00000000000E+00 0. -1.
         24    2    1    2    0    0 -0.82063208287E+01 -0.93890396653E+02  0.44518590163E+02  0.13208362371E+03  0.81126003835E+02 0.  0.
         23    2    1    2    0    0 -0.42802261996E+02  0.36827348839E+03  0.15516783977E+03  0.41493533267E+03  0.10313523118E+03 0.  0.
        -11    1    3    3    0    0 -0.44132230563E+02 -0.58135551287E+02  0.19444714918E+02  0.75534714113E+02  0.00000000000E+00 0.  1.
         12    1    3    3    0    0  0.35925909734E+02 -0.35754845366E+02  0.25073875245E+02  0.56548909602E+02  0.00000000000E+00 0. -1.
        -13    1    4    4    0    0 -0.20809921527E+01  0.62916442443E+02 -0.12533300103E+02  0.64186391623E+02  0.00000000000E+00 0.  1.
         13    1    4    4    0    0 -0.40721269843E+02  0.30535704595E+03  0.16770113988E+03  0.35074894104E+03  0.00000000000E+00 0. -1.
          1    1    1    2  501    0  0.51008582825E+02 -0.27438309174E+03  0.35352810688E+02  0.28131437535E+03  0.00000000000E+00 0. -1.
<scales pt_clust_5="13000.00000" pt_clust_6="13000.00000" pt_clust_7="13000.00000" pt_clust_8="13000.00000" pt_clust_9="323.48191"></scales>
<clustering>
<clus scale="   81.126">  5  6 -1 -1</clus>
<clus scale="  103.135">  7  8 -1 -1</clus>
<clus scale="  124.355">  2  5  1 -1</clus>
<clus scale="  323.482">  1  9  2 -1</clus>
<clus scale="  323.482">  1  5  2 -1</clus>
</clustering>
</event>
<event>
 9    2  0.1302972E-004  0.1016095E+03  0.7546771E-02  0.1283237E+00
         21   -1    0    0  501  502  0.00000000000E+00  0.00000000000E+00  0.12568418657E+03  0.12568418657E+03  0.00000000000E+00 0. -1.
         -3   -1    0    0    0  501 -0.00000000000E+00 -0.00000000000E+00 -0.30729325261E+03  0.30729325261E+03  0.00000000000E+00 0.  1.
         24    2    1    2    0    0 -0.98654694842E+01  0.42243490556E+02 -0.26621335694E+03  0.28140238758E+03  0.80224138143E+02 0.  0.
         23    2    1    2    0    0  0.12386581033E+02 -0.15457384692E+02  0.48849413999E+02  0.10682840153E+03  0.92917619394E+02 0.  0.
        -13    1    3    3    0    0  0.35426441887E+02  0.16701898004E+02 -0.11035771447E+03  0.11710171359E+03  0.00000000000E+00 0.  1.
         14    1    3    3    0    0 -0.45291911371E+02  0.25541592552E+02 -0.15585564247E+03  0.16430067399E+03  0.00000000000E+00 0. -1.
        -11    1    4    4    0    0  0.92039156081E+01 -0.54475824851E+02  0.34490945962E+02  0.65130276439E+02  0.00000000000E+00 0. -1.
         11    1    4    4    0    0  0.31826654246E+01  0.39018440158E+02  0.14358468037E+02  0.41698125089E+02  0.00000000000E+00 0.  1.
         -4    1    1    2    0  502 -0.25211115486E+01 -0.26786105864E+02  0.35754876899E+02  0.44746650075E+02  0.00000000000E+00 0.  1.
<scales pt_clust_5="13000.00000" pt_clust_6="13000.00000" pt_clust_7="13000.00000" pt_clust_8="13000.00000" pt_clust_9="26.90449"></scales>
<clustering>
<clus scale="   26.904">  1  9  2 -1</clus>
<clus scale="   80.224">  5  6 -1 -1</clus>
<clus scale="   90.148">  2  5  1 -1</clus>
<clus scale="   92.918">  7  8 -1 -1</clus>
<clus scale="   26.904">  1  5  2 -1</clus>
</clustering>
</event>
<event>
 9    2  0.1302972E-004  0.1263545E+03  0.7546771E-02  0.1258577E+00
         21   -1    0    0  501  502  0.00000000000E+00  0.00000000000E+00  0.27381894499E+03  0.27381894499E+03  0.00000000000E+00 0.  1.
          4   -1    0    0  502    0 -0.00000000000E+00 -0.00000000000E+00 -0.23426391085E+03  0.23426391085E+03  0.00000000000E+00 0. -1.
         24    2    1    2    0    0  0.20471290000E+02  0.48730014101E+01 -0.18190997203E+03  0.19694695141E+03  0.72484783835E+02 0.  0.
         23    2    1    2    0    0 -0.40150549464E+02  0.80805745035E+02  0.10629494904E+03  0.16624883494E+03  0.90545148263E+02 0.  0.
        -13    1    3    3    0    0  0.20905882436E+02 -0.18614223759E+02 -0.22772738710E+02  0.36085216847E+02  0.00000000000E+00 0.  1.
         14    1    3    3    0    0 -0.43459243582E+00  0.23487225169E+02 -0.15913723332E+03  0.16086173456E+03  0.00000000000E+00 0. -1.
        -11    1    4    4    0    0  0.26370394314E+02  0.34064744889E+02  0.19383762309E+02  0.47239123424E+02  0.00000000000E+00 0. -1.
         11    1    4    4    0    0 -0.66520943777E+02  0.46741000146E+02  0.86911186734E+02  0.11900971152E+03  0.00000000000E+00 0.  1.
          3    1    1    2  501    0  0.19679259464E+02 -0.85678746445E+02  0.11517005713E+03  0.14488706949E+03  0.00000000000E+00 0. -1.
<scales pt_clust_5="13000.00000" pt_clust_6="13000.00000" pt_clust_7="13000.00000" pt_clust_8="13000.00000" pt_clust_9="88.13082"></scales>
<clustering>
<clus scale="   72.485">  5  6 -1 -1</clus>
<clus scale="   75.478">  2  5  1 -1</clus>
<clus scale="   88.131">  1  9  2 -1</clus>
<clus scale="   90.545">  7  8 -1 -1</clus>
<clus scale="   88.131">  1  5  2 -1</clus>
</clustering>
</event>
<event>
 9    2  0.1302972E-004  0.9820487E+02  0.7546771E-02  0.1290781E+00
          2   -1    0    0  502    0 -0.00000000000E+00  0.00000000000E+00  0.81491087674E+02  0.81491087674E+02  0.00000000000E+00 0. -1.
         21   -1    0    0  501  502  0.00000000000E+00 -0.00000000000E+00 -0.20422169603E+03  0.20422169603E+03  0.00000000000E+00 0.  1.
         24    2    1    2    0    0  0.30522057306E+02 -0.92661515134E+01  0.90404591085E+01  0.86248903511E+02  0.79622144595E+02 0.  0.
         23    2    1    2    0    0 -0.29359105523E+02  0.40988192990E+02 -0.13078649500E+03  0.16770526317E+03  0.92075832764E+02 0.  0.
        -11    1    3    3    0    0  0.32110462845E+02  0.16728145169E+02 -0.24550400029E+02  0.43745111801E+02  0.00000000000E+00 0.  1.
         12    1    3    3    0    0 -0.15884055391E+01 -0.25994296682E+02  0.33590859137E+02  0.42503791710E+02  0.00000000000E+00 0. -1.
        -11    1    4    4    0    0 -0.19448051260E+02 -0.23704175630E+02 -0.77378617618E+02  0.83231995678E+02  0.00000000000E+00 0. -1.
         11    1    4    4    0    0 -0.99110542626E+01  0.64692368621E+02 -0.53407877380E+02  0.84473267491E+02  0.00000000000E+00 0.  1.
          1    1    1    2  501    0 -0.11629517830E+01 -0.31722041477E+02 -0.98457246720E+00  0.31758617024E+02  0.00000000000E+00 0. -1.
<scales pt_clust_5="13000.00000" pt_clust_6="13000.00000" pt_clust_7="13000.00000" pt_clust_8="13000.00000" pt_clust_9="31.74337"></scales>
<clustering>
<clus scale="   31.743">  2  9  1 -1</clus>
<clus scale="   79.622">  5  6 -1 -1</clus>
<clus scale="   86.637">  1  5  2 -1</clus>
<clus scale="   92.076">  7  8 -1 -1</clus>
<clus scale="   31.743">  2  5  1 -1</clus>
</clustering>
</event>
<event>
 9    2  0.1302972E-004  0.1434213E+03  0.7546771E-02  0.1227499E+00
          2   -1    0    0  502    0 -0.00000000000E+00  0.00000000000E+00  0.87206108559E+03  0.87206108559E+03  0.00000000000E+00 0. -1.
         21   -1    0    0  501  502  0.00000000000E+00 -0.00000000000E+00 -0.45985293619E+02  0.45985293619E+02  0.00000000000E+00 0. -1.
         23    2    1    2    0    0 -0.33628232406E+02  0.35957100368E+01  0.25082984436E+03  0.26883343540E+03  0.90620185534E+02 0.  0.
         24    2    1    2    0    0  0.34440312611E+02 -0.11689412362E+03  0.15161010133E+03  0.21068755086E+03  0.80952146318E+02 0.  0.
        -11    1    4    4    0    0 -0.19233068035E+02 -0.23311561622E+02  0.83573259071E+01  0.31355776303E+02  0.00000000000E+00 0.  1.
         12    1    4    4    0    0  0.53673380646E+02 -0.93582562003E+02  0.14325277542E+03  0.17933177456E+03  0.00000000000E+00 0. -1.
        -11    1    3    3    0    0  0.24549165985E+02  0.24711810143E+02  0.89631748756E+02  0.96162287287E+02  0.00000000000E+00 0.  1.
         11    1    3    3    0    0 -0.58177398391E+02 -0.21116100106E+02  0.16119809560E+03  0.17267114812E+03  0.00000000000E+00 0. -1.
          1    1    1    2  501    0 -0.81208020525E+00  0.11329841359E+03  0.42363584629E+03  0.43852539294E+03  0.00000000000E+00 0. -1.
<scales pt_clust_5="13000.00000" pt_clust_6="13000.00000" pt_clust_7="13000.00000" pt_clust_8="13000.00000" pt_clust_9="118.39098"></scales>
<clustering>
<clus scale="   80.952">  5  6 -1 -1</clus>
<clus scale="   90.620">  7  8 -1 -1</clus>
<clus scale="   96.725">  1  7  2 -1</clus>
<clus scale="  118.391">  2  9  1 -1</clus>
<clus scale="  118.391">  2  5  1 -1</clus>
</clustering>
</event>
<event>
 9    2  0.1667707E-004  0.8790945E+02  0.7546771E-02  0.1309853E+00
          2   -1    0    0  502    0 -0.00000000000E+00  0.00000000000E+00  0.43169337898E+03  0.43169337898E+03  0.00000000000E+00 0. -1.
         21   -1    0    0  501  502  0.00000000000E+00 -0.00000000000E+00 -0.30910717710E+03  0.30910717710E+03  0.00000000000E+00 0. -1.
         23    2    1    2    0    0 -0.27609262668E+02 -0.18636427149E+02  0.39565390374E+03  0.40460235847E+03  0.77791189287E+02 0.  0.
         24    2    1    2    0    0  0.22125961525E+02  0.59514347391E+02 -0.59870411014E+02  0.11904812099E+03  0.80972052453E+02 0.  0.
        -13    1    4    4    0    0  0.26237748664E+02  0.16971669224E+02 -0.68638732013E+02  0.75417057378E+02  0.00000000000E+00 0.  1.
         14    1    4    4    0    0 -0.41117871385E+01  0.42542678167E+02  0.87683209995E+01  0.43631063616E+02  0.00000000000E+00 0. -1.
        -13    1    3    3    0    0  0.24353575318E+02 -0.21300455876E+02  0.16668976271E+03  0.16980071567E+03  0.00000000000E+00 0. -1.
         13    1    3    3    0    0 -0.51962837985E+02  0.26640287273E+01  0.22896414103E+03  0.23480164279E+03  0.00000000000E+00 0.  1.
          1    1    1    2  501    0  0.54833011427E+01 -0.40877920241E+02 -0.21319729084E+03  0.21715007662E+03  0.00000000000E+00 0. -1.
<scales pt_clust_5="13000.00000" pt_clust_6="13000.00000" pt_clust_7="13000.00000" pt_clust_8="13000.00000" pt_clust_9="41.24404"></scales>
<clustering>
<clus scale="   41.244">  2  9  1 -1</clus>
<clus scale="   77.791">  7  8 -1 -1</clus>
<clus scale="   80.972">  5  6 -1 -1</clus>
<clus scale="   84.989">  1  7  2 -1</clus>
<clus scale="   41.244">  2  5  1 -1</clus>
</clustering>
</event>
<event>
 9    2  0.1302972E-004  0.1332304E+03  0.7546771E-02  0.1245518E+00
          2   -1    0    0  502    0 -0.00000000000E+00  0.00000000000E+00  0.34451865045E+02  0.34451865045E+02  0.00000000000E+00 0. -1.
         21   -1    0    0  501  502  0.00000000000E+00 -0.00000000000E+00 -0.72914789661E+03  0.72914789661E+03  0.00000000000E+00 0.  1.
         24    2    1    2    0    0 -0.18362482530E+02 -0.70742864585E+01 -0.16270268464E+03  0.18288049214E+03  0.81153462783E+02 0.  0.
         23    2    1    2    0    0  0.10859673323E+03  0.88981401460E+01 -0.30892548367E+03  0.34008506983E+03  0.91380921935E+02 0.  0.
        -11    1    3    3    0    0  0.11487168055E+02  0.31900234115E+02 -0.56745639332E+02  0.66103309672E+02  0.00000000000E+00 0.  1.
         12    1    3    3    0    0 -0.29849650585E+02 -0.38974520573E+02 -0.10595704531E+03  0.11677718246E+03  0.00000000000E+00 0. -1.
        -11    1    4    4    0    0  0.11409522924E+03 -0.15733726792E+02 -0.23006078478E+03  0.25728046212E+03  0.00000000000E+00 0.  1.
         11    1    4    4    0    0 -0.54984960090E+01  0.24631866938E+02 -0.78864698894E+02  0.82804607715E+02  0.00000000000E+00 0. -1.
          1    1    1    2  501    0 -0.90234250702E+02 -0.18238536874E+01 -0.22306786325E+03  0.24063419968E+03  0.00000000000E+00 0. -1.
<scales pt_clust_5="13000.00000" pt_clust_6="13000.00000" pt_clust_7="13000.00000" pt_clust_8="13000.00000" pt_clust_9="96.95289"></scales>
<clustering>
<clus scale="   81.153">  5  6 -1 -1</clus>
<clus scale="   83.505">  1  5  2 -1</clus>
<clus scale="   91.381">  7  8 -1 -1</clus>
<clus scale="   96.953">  2  9  1 -1</clus>
<clus scale="   96.953">  2  5  1 -1</clus>
</clustering>
</event>
<event>
 9    2  0.1302972E-004  0.1023113E+03  0.7546771E-02  0.1277572E+00
          2   -1    0    0  502    0 -0.00000000000E+00  0.00000000000E+00  0.73488410626E+03  0.73488410626E+03  0.00000000000E+00 0. -1.
         21   -1    0    0  501  502  0.00000000000E+00 -0.00000000000E+00 -0.65914643079E+02  0.65914643079E+02  0.00000000000E+00 0.  1.
         24    2    1    2    0    0  0.49105773536E+02  0.25332013345E+02  0.63516524130E+03  0.64261984193E+03  0.80450541258E+02 0.  0.
         23    2    1    2    0    0 -0.75303682238E+02 -0.21576299019E+02  0.67206374447E+00  0.11577400541E+03  0.85246627042E+02 0.  0.
        -11    1    3    3    0    0  0.28322814059E+02  0.57982047450E+01  0.58539728627E+02  0.65289362091E+02  0.00000000000E+00 0.  1.
         12    1    3    3    0    0  0.20782959477E+02  0.19533808600E+02  0.57662551268E+03  0.57733047984E+03  0.00000000000E+00 0. -1.
        -13    1    4    4    0    0 -0.64709421917E+02 -0.49314446757E+02  0.15122167631E+02  0.82752062800E+02  0.00000000000E+00 0.  1.
         13    1    4    4    0    0 -0.10594260321E+02  0.27738147738E+02 -0.14450103887E+02  0.33021942615E+02  0.00000000000E+00 0. -1.
          1    1    1    2  501    0  0.26197908702E+02 -0.37557143263E+01  0.33132158134E+02  0.42404901993E+02  0.00000000000E+00 0. -1.
<scales pt_clust_5="13000.00000" pt_clust_6="13000.00000" pt_clust_7="13000.00000" pt_clust_8="13000.00000" pt_clust_9="26.46575"></scales>
<clustering>
<clus scale="   26.466">  2  9  1 -1</clus>
<clus scale="   80.451">  5  6 -1 -1</clus>
<clus scale="   85.247">  7  8 -1 -1</clus>
<clus scale="   98.351">  1  5  2 -1</clus>
<clus scale="   26.466">  2  5  1 -1</clus>
</clustering>
</event>
<event>
 9    2  0.1302972E-004  0.1792148E+03  0.7546771E-02  0.1169662E+00
          2   -1    0    0  502    0 -0.00000000000E+00  0.00000000000E+00  0.42486774578E+03  0.42486774578E+03  0.00000000000E+00 0. -1.
         21   -1    0    0  501  502  0.00000000000E+00 -0.00000000000E+00 -0.10744474974E+03  0.10744474974E+03  0.00000000000E+00 0.  1.
         23    2    1    2    0    0 -0.83276174530E+02  0.13915201914E+03  0.26421045847E+03  0.32372492959E+03  0.93233352404E+02 0.  0.
         24    2    1    2    0    0  0.86047234993E+02 -0.10704922196E+03  0.65653163314E+02  0.17404719055E+03  0.84370753891E+02 0.  0.
        -13    1    4    4    0    0  0.24068184761E+02 -0.22289687564E+02  0.60616569536E+02  0.68923698332E+02  0.00000000000E+00 0.  1.
         14    1    4    4    0    0  0.61979050232E+02 -0.84759534397E+02  0.50365937773E+01  0.10512349222E+03  0.00000000000E+00 0. -1.
        -13    1    3    3    0    0 -0.21398205016E+02  0.52240750599E+02  0.17744496351E+03  0.18620873845E+03  0.00000000000E+00 0. -1.
         13    1    3    3    0    0 -0.61877969514E+02  0.86911268538E+02  0.86765494962E+02  0.13751619114E+03  0.00000000000E+00 0.  1.
          1    1    1    2  501    0 -0.27710604630E+01 -0.32102797176E+02 -0.12440625748E+02  0.34540375383E+02  0.00000000000E+00 0. -1.
<scales pt_clust_5="13000.00000" pt_clust_6="13000.00000" pt_clust_7="13000.00000" pt_clust_8="13000.00000" pt_clust_9="32.22217"></scales>
<clustering>
<clus scale="   32.222">  2  9  1 -1</clus>
<clus scale="   84.371">  5  6 -1 -1</clus>
<clus scale="   93.233">  7  8 -1 -1</clus>
<clus scale="  174.768">  2  5  1 -1</clus>
<clus scale="   32.222">  2  5  1 -1</clus>
</clustering>
</event>
<event>
 9    2  0.1302972E-004  0.1329575E+03  0.7546771E-02  0.1225800E+00
         21   -1    0    0  501  502  0.00000000000E+00  0.00000000000E+00  0.76435919408E+02  0.76435919408E+02  0.00000000000E+00 0.  1.
          2   -1    0    0  502    0 -0.00000000000E+00 -0.00000000000E+00 -0.41593059787E+03  0.41593059787E+03  0.00000000000E+00 0. -1.
         24    2    1    2    0    0 -0.21383398176E+02 -0.10012817966E+03 -0.20635525151E+03  0.24285637476E+03  0.76901409973E+02 0.  0.
         23    2    1    2    0    0  0.49534518747E+02  0.85256921988E+02 -0.16018229846E+03  0.20773746253E+03  0.88170705485E+02 0.  0.
        -13    1    3    3    0    0  0.14931229436E+02 -0.85771294113E+02 -0.16079294620E+03  0.18284974174E+03  0.00000000000E+00 0.  1.
         14    1    3    3    0    0 -0.36314627612E+02 -0.14356885546E+02 -0.45562305307E+02  0.60006633017E+02  0.00000000000E+00 0. -1.
        -11    1    4    4    0    0  0.38757040346E+02 -0.19586730304E+01 -0.79375089902E+02  0.88353548165E+02  0.00000000000E+00 0.  1.
         11    1    4    4    0    0  0.10777478401E+02  0.87215595018E+02 -0.80807208557E+02  0.11938391437E+03  0.00000000000E+00 0. -1.
          1    1    1    2  501    0 -0.28151120571E+02  0.14871257671E+02  0.27042871505E+02  0.41772679988E+02  0.00000000000E+00 0. -1.
<scales pt_clust_5="13000.00000" pt_clust_6="13000.00000" pt_clust_7="13000.00000" pt_clust_8="13000.00000" pt_clust_9="31.83771"></scales>
<clustering>
<clus scale="   31.838">  1  9  2 -1</clus>
<clus scale="   76.901">  5  6 -1 -1</clus>
<clus scale="   88.171">  7  8 -1 -1</clus>
<clus scale="  125.767">  2  5  1 -1</clus>
<clus scale="   31.838">  1  5  2 -1</clus>
</clustering>
</event>
<event>
 9    2  0.1302972E-004  0.1024138E+03  0.7546771E-02  0.1282584E+00
          2   -1    0    0  502    0 -0.00000000000E+00  0.00000000000E+00  0.74272595867E+03  0.74272595867E+03  0.00000000000E+00 0. -1.
         21   -1    0    0  501  502  0.00000000000E+00 -0.00000000000E+00 -0.43071229674E+02  0.43071229674E+02  0.00000000000E+00 0.  1.
         24    2    1    2    0    0  0.81660799379E+01 -0.26862336154E+02  0.56959829477E+03  0.57639988733E+03  0.83703899171E+02 0.  0.
         23    2    1    2    0    0 -0.53059595611E+02  0.36989804044E+02  0.83200994372E+02  0.14372062632E+03  0.97722293652E+02 0.  0.
        -13    1    3    3    0    0  0.21319496619E+02 -0.33703839071E+01  0.34974708125E+02  0.41098791128E+02  0.00000000000E+00 0.  1.
         14    1    3    3    0    0 -0.13153416681E+02 -0.23491952247E+02  0.53462358665E+03  0.53530109620E+03  0.00000000000E+00 0. -1.
        -11    1    4    4    0    0  0.18019642121E+02  0.38501174174E+02  0.48866679102E+02  0.64768821522E+02  0.00000000000E+00 0.  1.
         11    1    4    4    0    0 -0.71079237732E+02 -0.15113701302E+01  0.34334315270E+02  0.78951804801E+02  0.00000000000E+00 0. -1.
          1    1    1    2  501    0  0.44893515674E+02 -0.10127467890E+02  0.46855439855E+02  0.65676674698E+02  0.00000000000E+00 0. -1.
<scales pt_clust_5="13000.00000" pt_clust_6="13000.00000" pt_clust_7="13000.00000" pt_clust_8="13000.00000" pt_clust_9="46.02166"></scales>
<clustering>
<clus scale="   46.022">  2  9  1 -1</clus>
<clus scale="   83.704">  5  6 -1 -1</clus>
<clus scale="   89.136">  1  5  2 -1</clus>
<clus scale="   97.722">  7  8 -1 -1</clus>
<clus scale="   46.022">  2  5  1 -1</clus>
</clustering>
</event>
<event>
 9    2  0.1302972E-004  0.1115037E+03  0.7546771E-02  0.1262030E+00
         21   -1    0    0  501  502  0.00000000000E+00  0.00000000000E+00  0.10622966817E+03  0.10622966817E+03  0.00000000000E+00 0. -1.
          4   -1    0    0  502    0 -0.00000000000E+00 -0.00000000000E+00 -0.21708233150E+03  0.21708233150E+03  0.00000000000E+00 0. -1.
         23    2    1    2    0    0 -0.54141257376E+02 -0.48328360216E+02 -0.12139354914E+03  0.16777436907E+03  0.90249315751E+02 0.  0.
         24    2    1    2    0    0  0.47493935741E+02  0.94547145336E+01  0.45127848072E+02  0.10308188571E+03  0.79020800622E+02 0.  0.
        -11    1    4    4    0    0  0.27647379070E+02  0.43872277850E+02  0.17661052895E+02  0.54781996336E+02  0.00000000000E+00 0.  1.
         12    1    4    4    0    0  0.19846556671E+02 -0.34417563316E+02  0.27466795177E+02  0.48299889375E+02  0.00000000000E+00 0. -1.
        -11    1    3    3    0    0 -0.73503027117E+02 -0.58174615932E+02 -0.93231252831E+02  0.13220834860E+03  0.00000000000E+00 0. -1.
         11    1    3    3    0    0  0.19361769741E+02  0.98462557156E+01 -0.28162296309E+02  0.35566020476E+02  0.00000000000E+00 0.  1.
          3    1    1    2  501    0  0.66473216350E+01  0.38873645683E+02 -0.34586962257E+02  0.52455744888E+02  0.00000000000E+00 0. -1.
<scales pt_clust_5="13000.00000" pt_clust_6="13000.00000" pt_clust_7="13000.00000" pt_clust_8="13000.00000" pt_clust_9="39.43791"></scales>
<clustering>
<clus scale="   39.438">  1  9  2 -1</clus>
<clus scale="   79.021">  5  6 -1 -1</clus>
<clus scale="   90.249">  7  8 -1 -1</clus>
<clus scale="  102.628">  1  5  2 -1</clus>
<clus scale="   39.438">  1  5  2 -1</clus>
</clustering>
</event>
<event>
 9    2  0.1302972E-004  0.9111791E+02  0.7546771E-02  0.1306393E+00
         21   -1    0    0  501  502  0.00000000000E+00  0.00000000000E+00  0.18207417672E+03  0.18207417672E+03  0.00000000000E+00 0. -1.
         -3   -1    0    0    0  501 -0.00000000000E+00 -0.00000000000E+00 -0.11632962960E+03  0.11632962960E+03  0.00000000000E+00 0.  1.
         24    2    1    2    0    0  0.29044101100E+01  0.12174054190E+02 -0.44138261566E+02  0.92782246552E+02  0.80645619520E+02 0.  0.
         23    2    1    2    0    0 -0.36533345385E+02  0.43928058640E+02  0.55719669317E+02  0.12069807645E+03  0.90548243766E+02 0.  0.
        -13    1    3    3    0    0 -0.70677202420E+01  0.42780746521E+02 -0.42243261304E+02  0.60536254162E+02  0.00000000000E+00 0.  1.
         14    1    3    3    0    0  0.99721303520E+01 -0.30606692332E+02 -0.18950002618E+01  0.32245992390E+02  0.00000000000E+00 0. -1.
        -11    1    4    4    0    0 -0.16419092506E+02 -0.18563144774E+02 -0.10984253226E+02  0.27107762017E+02  0.00000000000E+00 0.  1.
         11    1    4    4    0    0 -0.20114252878E+02  0.62491203414E+02  0.66703922543E+02  0.93590314433E+02  0.00000000000E+00 0. -1.
         -4    1    1    2    0  502  0.33628935275E+02 -0.56102112830E+02  0.54163139370E+02  0.84923483314E+02  0.00000000000E+00 0.  1.
<scales pt_clust_5="13000.00000" pt_clust_6="13000.00000" pt_clust_7="13000.00000" pt_clust_8="13000.00000" pt_clust_9="65.40912"></scales>
<clustering>
<clus scale="   65.409">  1  9  2 -1</clus>
<clus scale="   80.646">  5  6 -1 -1</clus>
<clus scale="   81.285">  2  5  1 -1</clus>
<clus scale="   90.548">  7  8 -1 -1</clus>
<clus scale="   65.409">  1  5  2 -1</clus>
</clustering>
</event>
<event>
 9    2  0.1302972E-004  0.1011072E+03  0.7546771E-02  0.1282085E+00
         21   -1    0    0  501  502  0.00000000000E+00  0.00000000000E+00  0.15830106928E+03  0.15830106928E+03  0.00000000000E+00 0.  1.
         -1   -1    0    0    0  501 -0.00000000000E+00 -0.00000000000E+00 -0.15414627025E+03  0.15414627025E+03  0.00000000000E+00 0.  1.
         23    2    1    2    0    0  0.12866615552E+02  0.29974239813E+02  0.15372258203E+02  0.10176211604E+03  0.95158904422E+02 0.  0.
         24    2    1    2    0    0  0.76665757063E+02 -0.29653106471E+01  0.17297774976E+02  0.11291689233E+03  0.81022096863E+02 0.  0.
        -13    1    4    4    0    0  0.42764513800E+02 -0.34223056924E+02  0.33307248041E+02  0.64104555515E+02  0.00000000000E+00 0.  1.
         14    1    4    4    0    0  0.33901243263E+02  0.31257746276E+02 -0.16009473065E+02  0.48812336810E+02  0.00000000000E+00 0. -1.
        -13    1    3    3    0    0  0.23171976481E+02 -0.17732064455E+02 -0.24998572330E+02  0.38422587398E+02  0.00000000000E+00 0.  1.
         13    1    3    3    0    0 -0.10305360929E+02  0.47706304268E+02  0.40370830532E+02  0.63339528643E+02  0.00000000000E+00 0. -1.
         -2    1    1    2    0  502 -0.89532372614E+02 -0.27008929166E+02 -0.28515234143E+02  0.97768331166E+02  0.00000000000E+00 0.  1.
<scales pt_clust_5="13000.00000" pt_clust_6="13000.00000" pt_clust_7="13000.00000" pt_clust_8="13000.00000" pt_clust_9="93.51757"></scales>
<clustering>
<clus scale="   81.022">  5  6 -1 -1</clus>
<clus scale="   93.518">  1  9  2 -1</clus>
<clus scale="   93.518">  1  5  2 -1</clus>
<clus scale="   95.159">  7  8 -1 -1</clus>
<clus scale="   93.518">  1  5  2 -1</clus>
</clustering>
</event>
<event>
 9    2  0.1302972E-004  0.1246775E+03  0.7546771E-02  0.1236610E+00
         21   -1    0    0  501  502  0.00000000000E+00  0.00000000000E+00  0.50681570200E+02  0.50681570200E+02  0.00000000000E+00 0. -1.
          4   -1    0    0  502    0 -0.00000000000E+00 -0.00000000000E+00 -0.45896244732E+03  0.45896244732E+03  0.00000000000E+00 0. -1.
         23    2    1    2    0    0 -0.64035315590E+02  0.77614429545E+02 -0.22806749972E+03  0.26290872805E+03  0.83556529018E+02 0.  0.
         24    2    1    2    0    0  0.15570686218E+02 -0.86934244100E+02 -0.12083367523E+03  0.16952370825E+03  0.79608426213E+02 0.  0.
        -11    1    4    4    0    0 -0.23685833332E+02 -0.19051357883E+02 -0.69343590164E+02  0.75713317420E+02  0.00000000000E+00 0.  1.
         12    1    4    4    0    0  0.39256519550E+02 -0.67882886217E+02 -0.51490085064E+02  0.93810390833E+02  0.00000000000E+00 0. -1.
        -11    1    3    3    0    0 -0.32799903820E+02  0.49790181535E+02 -0.43876328897E+02  0.74027211925E+02  0.00000000000E+00 0.  1.
         11    1    3    3    0    0 -0.31235411771E+02  0.27824248010E+02 -0.18419117082E+03  0.18888151613E+03  0.00000000000E+00 0. -1.
          3    1    1    2  501    0  0.48464629372E+02  0.93198145545E+01 -0.59379702174E+02  0.77211581215E+02  0.00000000000E+00 0. -1.
<scales pt_clust_5="13000.00000" pt_clust_6="13000.00000" pt_clust_7="13000.00000" pt_clust_8="13000.00000" pt_clust_9="49.35260"></scales>
<clustering>
<clus scale="   49.353">  1  9  2 -1</clus>
<clus scale="   79.608">  5  6 -1 -1</clus>
<clus scale="   83.557">  7  8 -1 -1</clus>
<clus scale="  122.067">  1  5  2 -1</clus>
<clus scale="   49.353">  1  5  2 -1</clus>
</clustering>
</event>
<event>
 9    2  0.1302972E-004  0.1345741E+03  0.7546771E-02  0.1223665E+00
         -1   -1    0    0    0  501 -0.00000000000E+00  0.00000000000E+00  0.45709584857E+03  0.45709584857E+03  0.00000000000E+00 0.  1.
         21   -1    0    0  501  502  0.00000000000E+00 -0.00000000000E+00 -0.11261964990E+03  0.11261964990E+03  0.00000000000E+00 0. -1.
         23    2    1    2    0    0 -0.93202758686E+02 -0.67205466668E+02  0.33546627876E+03  0.36613090276E+03  0.91164054316E+02 0.  0.
         24    2    1    2    0    0 -0.39488176195E+01  0.68026632696E+02 -0.85146680709E+01  0.10486167904E+03  0.79248067748E+02 0.  0.
        -11    1    4    4    0    0  0.21786613522E+02 -0.17118044784E+01  0.15444535646E+02  0.26760427587E+02  0.00000000000E+00 0.  1.
         12    1    4    4    0    0 -0.25735431141E+02  0.69738437174E+02 -0.23959203717E+02  0.78101251451E+02  0.00000000000E+00 0. -1.
        -11    1    3    3    0    0 -0.45700973716E+01 -0.55330456130E+02  0.10211479858E+03  0.11623156737E+03  0.00000000000E+00 0. -1.
         11    1    3    3    0    0 -0.88632661314E+02 -0.11875010537E+02  0.23335148018E+03  0.24989933539E+03  0.00000000000E+00 0.  1.
         -2    1    1    2    0  502  0.97151576305E+02 -0.82116602804E+00  0.17524587980E+02  0.98722916672E+02  0.00000000000E+00 0.  1.
<scales pt_clust_5="13000.00000" pt_clust_6="13000.00000" pt_clust_7="13000.00000" pt_clust_8="13000.00000" pt_clust_9="97.15505"></scales>
<clustering>
<clus scale="   79.248">  5  6 -1 -1</clus>
<clus scale="   91.164">  7  8 -1 -1</clus>
<clus scale="   97.155">  2  9  1 -1</clus>
<clus scale="  126.805">  2  5  1 -1</clus>
<clus scale="   97.155">  2  5  1 -1</clus>
</clustering>
</event>
<event>
 9    2  0.1302972E-004  0.1715430E+03  0.7546771E-02  0.1207335E+00
          2   -1    0    0  502    0 -0.00000000000E+00  0.00000000000E+00  0.40547732037E+03  0.40547732037E+03  0.00000000000E+00 0. -1.
         21   -1    0    0  501  502  0.00000000000E+00 -0.00000000000E+00 -0.25112045749E+03  0.25112045749E+03  0.00000000000E+00 0. -1.
         24    2    1    2    0    0 -0.33878848263E+02 -0.22836899177E+00  0.28690118445E+03  0.29965341613E+03  0.79574189591E+02 0.  0.
         23    2    1    2    0    0 -0.27957426472E+02  0.14065632805E+03 -0.22478599260E+02  0.16811057294E+03  0.84794203771E+02 0.  0.
        -13    1    3    3    0    0  0.16483348337E+02  0.15517406240E+02  0.31101325423E+02  0.38467949151E+02  0.00000000000E+00 0.  1.
         14    1    3    3    0    0 -0.50362196601E+02 -0.15745775232E+02  0.25579985903E+03  0.26118546698E+03  0.00000000000E+00 0. -1.
        -11    1    4    4    0    0  0.25442032180E+02  0.59106979008E+02  0.10509840112E+02  0.65202674087E+02  0.00000000000E+00 0.  1.
         11    1    4    4    0    0 -0.53399458652E+02  0.81549349044E+02 -0.32988439373E+02  0.10290789885E+03  0.00000000000E+00 0. -1.
          1    1    1    2  501    0  0.61836274735E+02 -0.14042795906E+03 -0.11006572231E+03  0.18883378879E+03  0.00000000000E+00 0. -1.
<scales pt_clust_5="13000.00000" pt_clust_6="13000.00000" pt_clust_7="13000.00000" pt_clust_8="13000.00000" pt_clust_9="149.12062"></scales>
<clustering>
<clus scale="   79.574">  5  6 -1 -1</clus>
<clus scale="   84.794">  7  8 -1 -1</clus>
<clus scale="   86.486">  1  5  2 -1</clus>
<clus scale="  149.121">  2  9  1 -1</clus>
<clus scale="  149.121">  2  5  1 -1</clus>
</clustering>
</event>
<event>
 9    2  0.1302972E-004  0.9822094E+02  0.7546771E-02  0.1291595E+00
          2   -1    0    0  502    0 -0.00000000000E+00  0.00000000000E+00  0.41366065585E+03  0.41366065585E+03  0.00000000000E+00 0. -1.
         21   -1    0    0  501  502  0.00000000000E+00 -0.00000000000E+00 -0.71087230069E+02  0.71087230069E+02  0.00000000000E+00 0.  1.
         23    2    1    2    0    0 -0.31442858987E+02 -0.96570269500E+01  0.31359282603E+03  0.32884358739E+03  0.93358089513E+02 0.  0.
         24    2    1    2    0    0  0.27033652141E+02 -0.39234138025E+02  0.46476796904E+02  0.10378996238E+03  0.79637476769E+02 0.  0.
        -11    1    4    4    0    0  0.11864139875E+02 -0.63194690694E+02  0.29552824826E+02  0.70765077560E+02  0.00000000000E+00 0.  1.
         12    1    4    4    0    0  0.15169512267E+02  0.23960552669E+02  0.16923972079E+02  0.33024884822E+02  0.00000000000E+00 0. -1.
        -11    1    3    3    0    0  0.29208370987E+02  0.88932505475E+01  0.58549556684E+02  0.66032336237E+02  0.00000000000E+00 0.  1.
         11    1    3    3    0    0 -0.60651229974E+02 -0.18550277498E+02  0.25504326934E+03  0.26281125115E+03  0.00000000000E+00 0. -1.
          1    1    1    2  501    0  0.44092068454E+01  0.48891164975E+02 -0.17496197153E+02  0.52114336151E+02  0.00000000000E+00 0. -1.
<scales pt_clust_5="13000.00000" pt_clust_6="13000.00000" pt_clust_7="13000.00000" pt_clust_8="13000.00000" pt_clust_9="49.08958"></scales>
<clustering>
<clus scale="   49.090">  2  9  1 -1</clus>
<clus scale="   79.637">  5  6 -1 -1</clus>
<clus scale="   85.286">  2  5  1 -1</clus>
<clus scale="   93.358">  7  8 -1 -1</clus>
<clus scale="   49.090">  2  5  1 -1</clus>
</clustering>
</event>
<event>
 9    2  0.1302972E-004  0.1611113E+03  0.7546771E-02  0.1189112E+00
         21   -1    0    0  501  502  0.00000000000E+00  0.00000000000E+00  0.36900849197E+03  0.36900849197E+03  0.00000000000E+00 0. -1.
          2   -1    0    0  502    0 -0.00000000000E+00 -0.00000000000E+00 -0.18438679776E+03  0.18438679776E+03  0.00000000000E+00 0. -1.
         24    2    1    2    0    0 -0.10328080787E+03 -0.83424919262E+02 -0.10561167648E+03  0.18776224519E+03  0.80462364370E+02 0.  0.
         23    2    1    2    0    0  0.69115528274E+02  0.12366765958E+03  0.20477604021E+03  0.26518554676E+03  0.91211300236E+02 0.  0.
        -13    1    3    3    0    0 -0.71708909728E+02 -0.79844821406E+02 -0.39403045332E+02  0.11432393984E+03  0.00000000000E+00 0.  1.
         14    1    3    3    0    0 -0.31571898145E+02 -0.35800978557E+01 -0.66208631151E+02  0.73438305346E+02  0.00000000000E+00 0. -1.
        -13    1    4    4    0    0 -0.16220589450E+02  0.21840624935E+02  0.73664124670E+02  0.78527216193E+02  0.00000000000E+00 0.  1.
         13    1    4    4    0    0  0.85336117724E+02  0.10182703465E+03  0.13111191554E+03  0.18665833057E+03  0.00000000000E+00 0. -1.
          1    1    1    2  501    0  0.34165279599E+02 -0.40242740319E+02  0.85457330478E+02  0.10044749778E+03  0.00000000000E+00 0. -1.
<scales pt_clust_5="13000.00000" pt_clust_6="13000.00000" pt_clust_7="13000.00000" pt_clust_8="13000.00000" pt_clust_9="52.78962"></scales>
<clustering>
<clus scale="   52.790">  1  9  2 -1</clus>
<clus scale="   80.462">  5  6 -1 -1</clus>
<clus scale="   91.211">  7  8 -1 -1</clus>
<clus scale="  155.279">  2  5  1 -1</clus>
<clus scale="   52.790">  1  5  2 -1</clus>
</clustering>
</event>
<event>
 9    2  0.1302972E-004  0.2019039E+03  0.7546771E-02  0.1169539E+00
         21   -1    0    0  501  502  0.00000000000E+00  0.00000000000E+00  0.24949992101E+03  0.24949992101E+03  0.00000000000E+00 0.  1.
          2   -1    0    0  502    0 -0.00000000000E+00 -0.00000000000E+00 -0.30903772344E+03  0.30903772344E+03  0.00000000000E+00 0. -1.
         23    2    1    2    0    0 -0.78667511062E+02 -0.26888940114E+02  0.70986276725E+02  0.14163911888E+03  0.90061068824E+02 0.  0.
         24    2    1    2    0    0 -0.12831969475E+03 -0.61865605435E+02 -0.94198047458E+02  0.18877431970E+03  0.80431178263E+02 0.  0.
        -13    1    4    4    0    0 -0.13600198438E+03 -0.57340593918E+02 -0.70726655835E+02  0.16366656138E+03  0.00000000000E+00 0.  1.
         14    1    4    4    0    0  0.76822896354E+01 -0.45250115175E+01 -0.23471391623E+02  0.25107758323E+02  0.00000000000E+00 0. -1.
        -11    1    3    3    0    0 -0.93334559404E+02 -0.16665135569E+01  0.55617498012E+02  0.10866196819E+03  0.00000000000E+00 0.  1.
         11    1    3    3    0    0  0.14667048342E+02 -0.25222426557E+02  0.15368778713E+02  0.32977150690E+02  0.00000000000E+00 0. -1.
          1    1    1    2  501    0  0.20698720581E+03  0.88754545549E+02 -0.36326031700E+02  0.22812420587E+03  0.00000000000E+00 0. -1.
<scales pt_clust_5="13000.00000" pt_clust_6="13000.00000" pt_clust_7="13000.00000" pt_clust_8="13000.00000" pt_clust_9="185.19196"></scales>
<clustering>
<clus scale="   80.431">  5  6 -1 -1</clus>
<clus scale="   90.061">  7  8 -1 -1</clus>
<clus scale="  122.567">  2  7  1 -1</clus>
<clus scale="  185.192">  1  9  2 -1</clus>
<clus scale="  185.192">  1  5  2 -1</clus>
</clustering>
</event>
<event>
 9    2  0.1302972E-004  0.9718070E+02  0.7546771E-02  0.1291357E+00
         21   -1    0    0  501  502  0.00000000000E+00  0.00000000000E+00  0.38369157918E+03  0.38369157918E+03  0.00000000000E+00 0.  1.
          2   -1    0    0  502    0 -0.00000000000E+00 -0.00000000000E+00 -0.61594426763E+02  0.61594426763E+02  0.00000000000E+00 0. -1.
         23    2    1    2    0    0 -0.21135734531E+02 -0.10263866659E+02  0.40920903222E+02  0.10285912759E+03  0.91397010755E+02 0.  0.
         24    2    1    2    0    0  0.54562721909E+02  0.46428778543E+02  0.27109312185E+03  0.29215826196E+03  0.82050272525E+02 0.  0.
        -13    1    4    4    0    0  0.57311070519E+02  0.31268594818E+02  0.26875931112E+03  0.27657521787E+03  0.00000000000E+00 0.  1.
         14    1    4    4    0    0 -0.27483486101E+01  0.15160183725E+02  0.23338107248E+01  0.15583044091E+02  0.00000000000E+00 0. -1.
        -11    1    3    3    0    0  0.26448512351E+02 -0.27918911724E+02  0.34566219667E+02  0.51708925530E+02  0.00000000000E+00 0. -1.
         11    1    3    3    0    0 -0.47584246882E+02  0.17655045065E+02  0.63546835548E+01  0.51150202059E+02  0.00000000000E+00 0.  1.
          1    1    1    2  501    0 -0.33426987378E+02 -0.36164911884E+02  0.10083127348E+02  0.50268616391E+02  0.00000000000E+00 0. -1.
<scales pt_clust_5="13000.00000" pt_clust_6="13000.00000" pt_clust_7="13000.00000" pt_clust_8="13000.00000" pt_clust_9="49.24700"></scales>
<clustering>
<clus scale="   49.247">  1  9  2 -1</clus>
<clus scale="   82.050">  5  6 -1 -1</clus>
<clus scale="   88.447">  1  5  2 -1</clus>
<clus scale="   91.397">  7  8 -1 -1</clus>
<clus scale="   49.247">  1  5  2 -1</clus>
</clustering>
</event>
<event>
 9    2  0.1302972E-004  0.1009635E+03  0.7546771E-02  0.1282918E+00
         21   -1    0    0  501  502  0.00000000000E+00  0.00000000000E+00  0.13162906374E+03  0.13162906374E+03  0.00000000000E+00 0.  1.
          2   -1    0    0  502    0 -0.00000000000E+00 -0.00000000000E+00 -0.23897674281E+03  0.23897674281E+03  0.00000000000E+00 0. -1.
         24    2    1    2    0    0 -0.33957907953E+02  0.39126458935E+02 -0.18133114799E+03  0.20535835538E+03  0.81283759689E+02 0.  0.
         23    2    1    2    0    0 -0.91714625110E+01 -0.27791699166E+01  0.45719947088E+02  0.10215945960E+03  0.90853740231E+02 0.  0.
        -11    1    3    3    0    0  0.22739070008E+02  0.11615510463E+02 -0.95636532550E+02  0.98986523054E+02  0.00000000000E+00 0.  1.
         12    1    3    3    0    0 -0.56696977961E+02  0.27510948472E+02 -0.85694615441E+02  0.10637183232E+03  0.00000000000E+00 0. -1.
        -11    1    4    4    0    0  0.10905954200E+02  0.35706457693E+02  0.45361663364E+02  0.58750076265E+02  0.00000000000E+00 0.  1.
         11    1    4    4    0    0 -0.20077416711E+02 -0.38485627609E+02  0.35828372402E+00  0.43409383335E+02  0.00000000000E+00 0. -1.
          1    1    1    2  501    0  0.43129370464E+02 -0.36347289018E+02  0.28263521833E+02  0.63087991583E+02  0.00000000000E+00 0. -1.
<scales pt_clust_5="13000.00000" pt_clust_6="13000.00000" pt_clust_7="13000.00000" pt_clust_8="13000.00000" pt_clust_9="56.40273"></scales>
<clustering>
<clus scale="   56.403">  1  9  2 -1</clus>
<clus scale="   81.284">  5  6 -1 -1</clus>
<clus scale="   90.854">  7  8 -1 -1</clus>
<clus scale="   92.446">  2  5  1 -1</clus>
<clus scale="   56.403">  1  5  2 -1</clus>
</clustering>
</event>
<event>
 9    2  0.1926639E-004  0.9531002E+02  0.7546771E-02  0.1296928E+00
         21   -1    0    0  501  502  0.00000000000E+00  0.00000000000E+00  0.63339978589E+02  0.63339978589E+02  0.00000000000E+00 0.  1.
          2   -1    0    0  502    0 -0.00000000000E+00 -0.00000000000E+00 -0.91965534127E+03  0.91965534127E+03  0.00000000000E+00 0. -1.
         23    2    1    2    0    0 -0.21233284472E+02 -0.51162146971E+01 -0.36302937600E+03  0.37490175747E+03  0.91016327637E+02 0.  0.
         24    2    1    2    0    0  0.92094049909E+02 -0.29392149052E+02 -0.18272151866E+02  0.12658528778E+03  0.79653945877E+02 0.  0.
        -13    1    4    4    0    0  0.60807655744E+02 -0.44850359659E+02  0.16480830739E+02  0.77335267120E+02  0.00000000000E+00 0.  1.
         14    1    4    4    0    0  0.31286394164E+02  0.15458210607E+02 -0.34752982605E+02  0.49250020659E+02  0.00000000000E+00 0. -1.
        -11    1    3    3    0    0 -0.47062635032E+02 -0.31489770401E+02 -0.22623338571E+03  0.23321243978E+03  0.00000000000E+00 0. -1.
         11    1    3    3    0    0  0.25829350559E+02  0.26373555704E+02 -0.13679599029E+03  0.14168931770E+03  0.00000000000E+00 0.  1.
          1    1    1    2  501    0 -0.70860765436E+02  0.34508363749E+02 -0.47501383482E+03  0.48150827461E+03  0.00000000000E+00 0. -1.
<scales pt_clust_5="13000.00000" pt_clust_6="13000.00000" pt_clust_7="13000.00000" pt_clust_8="13000.00000" pt_clust_9="78.81676"></scales>
<clustering>
<clus scale="   78.817">  1  9  2 -1</clus>
<clus scale="   79.654">  5  6 -1 -1</clus>
<clus scale="   84.527">  1  5  2 -1</clus>
<clus scale="   91.016">  7  8 -1 -1</clus>
<clus scale="   78.817">  1  5  2 -1</clus>
</clustering>
</event>
<event>
 9    2  0.1302972E-004  0.1276581E+03  0.7546771E-02  0.1233131E+00
         21   -1    0    0  501  502  0.00000000000E+00  0.00000000000E+00  0.14711471684E+03  0.14711471684E+03  0.00000000000E+00 0. -1.
         -1   -1    0    0    0  501 -0.00000000000E+00 -0.00000000000E+00 -0.15629311393E+03  0.15629311393E+03  0.00000000000E+00 0.  1.
         24    2    1    2    0    0 -0.94494199901E+02 -0.16281991561E+02 -0.19850086394E+02  0.12720049502E+03  0.81189179936E+02 0.  0.
         23    2    1    2    0    0  0.86823376191E+02 -0.30683687620E+02  0.68738924277E+01  0.12846804566E+03  0.89314058354E+02 0.  0.
        -11    1    3    3    0    0 -0.31164744624E+02  0.32133987385E+02 -0.15476436810E+02  0.47364063900E+02  0.00000000000E+00 0.  1.
         12    1    3    3    0    0 -0.63329455277E+02 -0.48415978946E+02 -0.43736495838E+01  0.79836431118E+02  0.00000000000E+00 0. -1.
        -11    1    4    4    0    0  0.56930411323E+02  0.25754144876E+02  0.14510409094E+02  0.64147483846E+02  0.00000000000E+00 0. -1.
         11    1    4    4    0    0  0.29892964869E+02 -0.56437832496E+02 -0.76365166668E+01  0.64320561815E+02  0.00000000000E+00 0.  1.
         -2    1    1    2    0  502  0.76708237102E+01  0.46965679181E+02  0.37977968677E+01  0.47739290091E+02  0.00000000000E+00 0.  1.
<scales pt_clust_5="13000.00000" pt_clust_6="13000.00000" pt_clust_7="13000.00000" pt_clust_8="13000.00000" pt_clust_9="47.58799"></scales>
<clustering>
<clus scale="   47.588">  1  9  2 -1</clus>
<clus scale="   81.189">  5  6 -1 -1</clus>
<clus scale="   89.314">  7  8 -1 -1</clus>
<clus scale="  122.112">  2  5  1 -1</clus>
<clus scale="   47.588">  1  5  2 -1</clus>
</clustering>
</event>
<event>
 9    2  0.1302972E-004  0.1669912E+03  0.7546771E-02  0.1212832E+00
          2   -1    0    0  502    0 -0.00000000000E+00  0.00000000000E+00  0.72976498336E+03  0.72976498336E+03  0.00000000000E+00 0. -1.
         21   -1    0    0  501  502  0.00000000000E+00 -0.00000000000E+00 -0.75217180151E+02  0.75217180151E+02  0.00000000000E+00 0. -1.
         23    2    1    2    0    0 -0.26252631394E+02  0.20470536713E+01  0.24956262053E+03  0.26312017985E+03  0.79103327313E+02 0.  0.
         24    2    1    2    0    0  0.15434397361E+03  0.56388941082E+02  0.34132741357E+03  0.38734833054E+03  0.80824198443E+02 0.  0.
        -11    1    4    4    0    0  0.53855499612E+02 -0.14495411666E+02  0.14869092587E+03  0.15880655917E+03  0.00000000000E+00 0.  1.
         12    1    4    4    0    0  0.10048847400E+03  0.70884352748E+02  0.19263648770E+03  0.22854177138E+03  0.00000000000E+00 0. -1.
        -11    1    3    3    0    0 -0.21376011061E+02  0.31308124849E+02  0.21146104772E+03  0.21483227698E+03  0.00000000000E+00 0. -1.
         11    1    3    3    0    0 -0.48766203328E+01 -0.29261071178E+02  0.38101572814E+02  0.48287902866E+02  0.00000000000E+00 0.  1.
          1    1    1    2  501    0 -0.12809134221E+03 -0.58435994753E+02  0.63657769107E+02  0.15451365312E+03  0.00000000000E+00 0. -1.
<scales pt_clust_5="13000.00000" pt_clust_6="13000.00000" pt_clust_7="13000.00000" pt_clust_8="13000.00000" pt_clust_9="146.12844"></scales>
<clustering>
<clus scale="   79.103">  7  8 -1 -1</clus>
<clus scale="   80.824">  5  6 -1 -1</clus>
<clus scale="   83.371">  1  7  2 -1</clus>
<clus scale="  146.128">  2  9  1 -1</clus>
<clus scale="  146.128">  2  5  1 -1</clus>
</clustering>
</event>
<event>
 9    2  0.1302972E-004  0.3101690E+03  0.7546771E-02  0.1123032E+00
         21   -1    0    0  501  502  0.00000000000E+00  0.00000000000E+00  0.98418500402E+02  0.98418500402E+02  0.00000000000E+00 0. -1.
          2   -1    0    0  502    0 -0.00000000000E+00 -0.00000000000E+00 -0.14273574462E+04  0.14273574462E+04  0.00000000000E+00 0. -1.
         24    2    1    2    0    0  0.37015950463E+02 -0.51667403979E+02 -0.13388627085E+03  0.16865025947E+03  0.80484006330E+02 0.  0.
         23    2    1    2    0    0 -0.22007331678E+03 -0.19375779994E+03 -0.39456962249E+03  0.50008622050E+03  0.91797010589E+02 0.  0.
        -11    1    3    3    0    0 -0.17241294753E+02 -0.39627603031E+02 -0.81633465738E+02  0.92366833307E+02  0.00000000000E+00 0.  1.
         12    1    3    3    0    0  0.54257245216E+02 -0.12039800948E+02 -0.52252805116E+02  0.76283426167E+02  0.00000000000E+00 0. -1.
        -11    1    4    4    0    0 -0.40066107586E+02  0.31050674192E+01 -0.59504593028E+02  0.71803419223E+02  0.00000000000E+00 0.  1.
         11    1    4    4    0    0 -0.18000720919E+03 -0.19686286736E+03 -0.33506502946E+03  0.42828280128E+03  0.00000000000E+00 0. -1.
          1    1    1    2  501    0  0.18305736631E+03  0.24542520392E+03 -0.80048305247E+03  0.85703946664E+03  0.00000000000E+00 0. -1.
<scales pt_clust_5="13000.00000" pt_clust_6="13000.00000" pt_clust_7="13000.00000" pt_clust_8="13000.00000" pt_clust_9="296.27386"></scales>
<clustering>
<clus scale="   80.484">  5  6 -1 -1</clus>
<clus scale="   91.797">  7  8 -1 -1</clus>
<clus scale="  102.554">  2  5  1 -1</clus>
<clus scale="  296.274">  1  9  2 -1</clus>
<clus scale="  296.274">  1  5  2 -1</clus>
</clustering>
</event>
<event>
 9    2  0.1302972E-004  0.1484240E+03  0.7546771E-02  0.1205107E+00
         21   -1    0    0  501  502  0.00000000000E+00  0.00000000000E+00  0.21437557447E+03  0.21437557447E+03  0.00000000000E+00 0. -1.
          2   -1    0    0  502    0 -0.00000000000E+00 -0.00000000000E+00 -0.48317683440E+03  0.48317683440E+03  0.00000000000E+00 0. -1.
         24    2    1    2    0    0 -0.90265242349E+02 -0.38292055910E+02 -0.18150504408E+03  0.22103688685E+03  0.79367051094E+02 0.  0.
         23    2    1    2    0    0  0.12631759796E+03  0.53015892577E+02 -0.25511596683E+03  0.30423658388E+03  0.93321605306E+02 0.  0.
        -13    1    3    3    0    0 -0.76481375195E+02 -0.42325439570E+01 -0.70480801788E+02  0.10409062686E+03  0.00000000000E+00 0.  1.
         14    1    3    3    0    0 -0.13783867154E+02 -0.34059511953E+02 -0.11102424229E+03  0.11694625999E+03  0.00000000000E+00 0. -1.
        -13    1    4    4    0    0  0.80189904259E+02 -0.12195845925E+02 -0.16470677980E+03  0.18359597685E+03  0.00000000000E+00 0. -1.
         13    1    4    4    0    0  0.46127693697E+02  0.65211738502E+02 -0.90409187034E+02  0.12064060703E+03  0.00000000000E+00 0.  1.
          1    1    1    2  501    0 -0.36052355608E+02 -0.14723836668E+02  0.16781975098E+03  0.17227893815E+03  0.00000000000E+00 0. -1.
<scales pt_clust_5="13000.00000" pt_clust_6="13000.00000" pt_clust_7="13000.00000" pt_clust_8="13000.00000" pt_clust_9="38.94308"></scales>
<clustering>
<clus scale="   38.943">  1  9  2 -1</clus>
<clus scale="   79.367">  5  6 -1 -1</clus>
<clus scale="   93.322">  7  8 -1 -1</clus>
<clus scale="  140.071">  2  5  1 -1</clus>
<clus scale="   38.943">  1  5  2 -1</clus>
</clustering>
</event>
<event>
 9    2  0.1302972E-004  0.1105606E+03  0.7546771E-02  0.1263730E+00
         -3   -1    0    0    0  501 -0.00000000000E+00  0.00000000000E+00  0.28793184985E+03  0.28793184985E+03  0.00000000000E+00 0.  1.
         21   -1    0    0  501  502  0.00000000000E+00 -0.00000000000E+00 -0.88089691489E+02  0.88089691489E+02  0.00000000000E+00 0. -1.
         24    2    1    2    0    0 -0.61729766871E+02 -0.82624588309E+02  0.13019449528E+03  0.18445165874E+03  0.80214843391E+02 0.  0.
         23    2    1    2    0    0  0.14791046717E+02  0.11586823495E+02  0.42406368524E+02  0.10217359851E+03  0.91039082811E+02 0.  0.
        -13    1    3    3    0    0 -0.11790027898E+02 -0.38803339380E+02  0.10642081312E+03  0.11388631775E+03  0.00000000000E+00 0.  1.
         14    1    3    3    0    0 -0.49939738972E+02 -0.43821248929E+02  0.23773682161E+02  0.70565340995E+02  0.00000000000E+00 0. -1.
        -13    1    4    4    0    0  0.20839689753E+02 -0.34344896210E+02  0.12306850056E+01  0.40191779635E+02  0.00000000000E+00 0.  1.
         13    1    4    4    0    0 -0.60486430358E+01  0.45931719705E+02  0.41175683519E+02  0.61981818873E+02  0.00000000000E+00 0. -1.
         -4    1    1    2    0  502  0.46938720153E+02  0.71037764814E+02  0.27241294553E+02  0.89396284085E+02  0.00000000000E+00 0.  1.
<scales pt_clust_5="13000.00000" pt_clust_6="13000.00000" pt_clust_7="13000.00000" pt_clust_8="13000.00000" pt_clust_9="85.14463"></scales>
<clustering>
<clus scale="   80.215">  5  6 -1 -1</clus>
<clus scale="   85.145">  2  9  1 -1</clus>
<clus scale="   91.039">  7  8 -1 -1</clus>
<clus scale="  101.833">  1  5  2 -1</clus>
<clus scale="   85.145">  2  5  1 -1</clus>
</clustering>
</event>
<event>
 9    2  0.1302972E-004  0.1085067E+03  0.7546771E-02  0.1268571E+00
         -1   -1    0    0    0  501 -0.00000000000E+00  0.00000000000E+00  0.80090564010E+03  0.80090564010E+03  0.00000000000E+00 0.  1.
         21   -1    0    0  501  502  0.00000000000E+00 -0.00000000000E+00 -0.20223608138E+02  0.20223608138E+02  0.00000000000E+00 0. -1.
         24    2    1    2    0    0  0.50737914152E+02  0.68860992137E+01  0.38217069235E+03  0.39380011055E+03  0.80014590457E+02 0.  0.
         23    2    1    2    0    0 -0.64985544545E+02 -0.28256980652E+02  0.24063965552E+03  0.26738171450E+03  0.92541663509E+02 0.  0.
        -13    1    3    3    0    0  0.41487897340E+02  0.36515416549E+02  0.15582787639E+03  0.16533888935E+03  0.00000000000E+00 0.  1.
         14    1    3    3    0    0  0.92500168117E+01 -0.29629317336E+02  0.22634281596E+03  0.22846122121E+03  0.00000000000E+00 0. -1.
        -13    1    4    4    0    0 -0.76481756520E+02 -0.31188040777E+01  0.21984938207E+03  0.23279376455E+03  0.00000000000E+00 0. -1.
         13    1    4    4    0    0  0.11496211975E+02 -0.25138176574E+02  0.20790273448E+02  0.34587949943E+02  0.00000000000E+00 0.  1.
         -2    1    1    2    0  502  0.14247630393E+02  0.21370881438E+02  0.15787168409E+03  0.15994742319E+03  0.00000000000E+00 0.  1.
<scales pt_clust_5="13000.00000" pt_clust_6="13000.00000" pt_clust_7="13000.00000" pt_clust_8="13000.00000" pt_clust_9="25.68482"></scales>
<clustering>
<clus scale="   25.685">  2  9  1 -1</clus>
<clus scale="   80.015">  5  6 -1 -1</clus>
<clus scale="   92.542">  7  8 -1 -1</clus>
<clus scale="   98.041">  1  5  2 -1</clus>
<clus scale="   25.685">  2  5  1 -1</clus>
</clustering>
</event>
<event>
 9    2  0.1302972E-004  0.1255438E+03  0.7546771E-02  0.1237899E+00
         21   -1    0    0  501  502  0.00000000000E+00  0.00000000000E+00  0.35199612024E+02  0.35199612024E+02  0.00000000000E+00 0.  1.
         -1   -1    0    0    0  501 -0.00000000000E+00 -0.00000000000E+00 -0.66286431021E+03  0.66286431021E+03  0.00000000000E+00 0.  1.
         24    2    1    2    0    0 -0.80401001834E+01 -0.95360795115E+02 -0.35448838400E+03  0.37599561950E+03  0.80946692586E+02 0.  0.
         23    2    1    2    0    0 -0.99062790581E+01  0.59912703513E+02 -0.12002971296E+03  0.16385161210E+03  0.93555076760E+02 0.  0.
        -13    1    3    3    0    0  0.35766116267E+02 -0.52830264277E+02 -0.16454134648E+03  0.17647692936E+03  0.00000000000E+00 0.  1.
         14    1    3    3    0    0 -0.43806216451E+02 -0.42530530838E+02 -0.18994703752E+03  0.19951869014E+03  0.00000000000E+00 0. -1.
        -11    1    4    4    0    0  0.41556909386E+02  0.21304761414E+02 -0.42912167692E+02  0.63421792096E+02  0.00000000000E+00 0.  1.
         11    1    4    4    0    0 -0.51463188444E+02  0.38607942100E+02 -0.77117545268E+02  0.10042982000E+03  0.00000000000E+00 0. -1.
         -2    1    1    2    0  502  0.17946379241E+02  0.35448091602E+02 -0.15314660123E+03  0.15821669064E+03  0.00000000000E+00 0.  1.
<scales pt_clust_5="13000.00000" pt_clust_6="13000.00000" pt_clust_7="13000.00000" pt_clust_8="13000.00000" pt_clust_9="39.73212"></scales>
<clustering>
<clus scale="   39.732">  1  9  2 -1</clus>
<clus scale="   80.947">  5  6 -1 -1</clus>
<clus scale="   93.555">  7  8 -1 -1</clus>
<clus scale="  116.452">  2  5  1 -1</clus>
<clus scale="   39.732">  1  5  2 -1</clus>
</clustering>
</event>
<event>
 9    2  0.1302972E-004  0.1003042E+03  0.7546771E-02  0.1284224E+00
         -1   -1    0    0    0  501 -0.00000000000E+00  0.00000000000E+00  0.49668006598E+02  0.49668006598E+02  0.00000000000E+00 0.  1.
         21   -1    0    0  501  502  0.00000000000E+00 -0.00000000000E+00 -0.46470944569E+03  0.46470944569E+03  0.00000000000E+00 0. -1.
         23    2    1    2    0    0  0.28574923870E+02 -0.12052723600E+02 -0.39407949172E+02  0.10486986732E+03  0.92102704595E+02 0.  0.
         24    2    1    2    0    0 -0.76099812007E+02 -0.43104983495E+01 -0.25119368476E+03  0.27530015174E+03  0.82958691533E+02 0.  0.
        -11    1    4    4    0    0 -0.13480608651E+02 -0.27166540282E+02 -0.24434600601E+02  0.38946083591E+02  0.00000000000E+00 0.  1.
         12    1    4    4    0    0 -0.62619203355E+02  0.22856041933E+02 -0.22675908416E+03  0.23635406815E+03  0.00000000000E+00 0. -1.
        -13    1    3    3    0    0  0.33077651670E+02  0.24046933470E+02 -0.52195884928E+02  0.66308343764E+02  0.00000000000E+00 0.  1.
         13    1    3    3    0    0 -0.45027277993E+01 -0.36099657070E+02  0.12787935756E+02  0.38561523558E+02  0.00000000000E+00 0. -1.
         -2    1    1    2    0  502  0.47524888136E+02  0.16363221949E+02 -0.12443980516E+03  0.13420743323E+03  0.00000000000E+00 0.  1.
<scales pt_clust_5="13000.00000" pt_clust_6="13000.00000" pt_clust_7="13000.00000" pt_clust_8="13000.00000" pt_clust_9="50.26301"></scales>
<clustering>
<clus scale="   50.263">  2  9  1 -1</clus>
<clus scale="   82.959">  5  6 -1 -1</clus>
<clus scale="   91.979">  2  5  1 -1</clus>
<clus scale="   92.103">  7  8 -1 -1</clus>
<clus scale="   50.263">  2  5  1 -1</clus>
</clustering>
</event>
<event>
 9    2  0.1302972E-004  0.1962519E+03  0.7546771E-02  0.1167988E+00
         21   -1    0    0  501  502  0.00000000000E+00  0.00000000000E+00  0.31574247859E+03  0.31574247859E+03  0.00000000000E+00 0. -1.
          2   -1    0    0  502    0 -0.00000000000E+00 -0.00000000000E+00 -0.58451335677E+03  0.58451335677E+03  0.00000000000E+00 0. -1.
         23    2    1    2    0    0 -0.87986194140E+02 -0.54111459289E+02  0.21895706017E+03  0.25897456202E+03  0.91956561415E+02 0.  0.
         24    2    1    2    0    0 -0.15072948281E+02  0.19161659288E+03 -0.13308413286E+03  0.24719869650E+03  0.80322454499E+02 0.  0.
        -13    1    4    4    0    0  0.17674189903E+02  0.15327388421E+03 -0.79304039531E+02  0.17347735084E+03  0.00000000000E+00 0.  1.
         14    1    4    4    0    0 -0.32747138185E+02  0.38342708671E+02 -0.53780093329E+02  0.73721345660E+02  0.00000000000E+00 0. -1.
        -11    1    3    3    0    0 -0.32459288080E+02 -0.27336517469E+02  0.13597459438E+02  0.44562108042E+02  0.00000000000E+00 0.  1.
         11    1    3    3    0    0 -0.55526906060E+02 -0.26774941820E+02  0.20535960073E+03  0.21441245398E+03  0.00000000000E+00 0. -1.
          1    1    1    2  501    0  0.10305914242E+03 -0.13750513359E+03 -0.35464380549E+03  0.39408257685E+03  0.00000000000E+00 0. -1.
<scales pt_clust_5="13000.00000" pt_clust_6="13000.00000" pt_clust_7="13000.00000" pt_clust_8="13000.00000" pt_clust_9="179.06184"></scales>
<clustering>
<clus scale="   80.322">  5  6 -1 -1</clus>
<clus scale="   91.957">  7  8 -1 -1</clus>
<clus scale="  138.296">  2  7  1 -1</clus>
<clus scale="  179.062">  1  9  2 -1</clus>
<clus scale="  179.062">  1  5  2 -1</clus>
</clustering>
</event>
<event>
 9    2  0.1370172E-004  0.1677092E+03  0.7546771E-02  0.1180609E+00
          2   -1    0    0  502    0 -0.00000000000E+00  0.00000000000E+00  0.51644300871E+03  0.51644300871E+03  0.00000000000E+00 0. -1.
         21   -1    0    0  501  502  0.00000000000E+00 -0.00000000000E+00 -0.38830088887E+03  0.38830088887E+03  0.00000000000E+00 0. -1.
         24    2    1    2    0    0 -0.14629754663E+03 -0.34324126803E+02 -0.87508927470E+02  0.19238784475E+03  0.82305240343E+02 0.  0.
         23    2    1    2    0    0  0.10668438179E+03  0.10301146136E+03 -0.21489624859E+03  0.27456828830E+03  0.84937793670E+02 0.  0.
        -11    1    3    3    0    0 -0.73999043423E+02 -0.52950072132E+02 -0.72243701560E+02  0.11618399624E+03  0.00000000000E+00 0.  1.
         12    1    3    3    0    0 -0.72298503209E+02  0.18625945329E+02 -0.15265225910E+02  0.76203848510E+02  0.00000000000E+00 0. -1.
        -11    1    4    4    0    0 -0.32702782918E+01  0.47415790195E+02 -0.54547326181E+02  0.72348895454E+02  0.00000000000E+00 0.  1.
         11    1    4    4    0    0  0.10995466008E+03  0.55595671166E+02 -0.16034892241E+03  0.20221939285E+03  0.00000000000E+00 0. -1.
          1    1    1    2  501    0  0.39613164841E+02 -0.68687334558E+02  0.43054729591E+03  0.43778776453E+03  0.00000000000E+00 0. -1.
<scales pt_clust_5="13000.00000" pt_clust_6="13000.00000" pt_clust_7="13000.00000" pt_clust_8="13000.00000" pt_clust_9="79.29161"></scales>
<clustering>
<clus scale="   79.292">  2  9  1 -1</clus>
<clus scale="   82.305">  5  6 -1 -1</clus>
<clus scale="   84.938">  7  8 -1 -1</clus>
<clus scale="  166.391">  1  5  2 -1</clus>
<clus scale="   79.292">  2  5  1 -1</clus>
</clustering>
</event>
<event>
 9    2  0.1302972E-004  0.1846614E+03  0.7546771E-02  0.1164194E+00
          2   -1    0    0  502    0 -0.00000000000E+00  0.00000000000E+00  0.10909025634E+04  0.10909025634E+04  0.00000000000E+00 0. -1.
         21   -1    0    0  501  502  0.00000000000E+00 -0.00000000000E+00 -0.10432944182E+03  0.10432944182E+03  0.00000000000E+00 0. -1.
         24    2    1    2    0    0 -0.14853709921E+03 -0.67607626663E+02  0.88670144984E+03  0.90544150801E+03  0.83371471395E+02 0.  0.
         23    2    1    2    0    0  0.16274369040E+03 -0.16085733805E+02  0.64521449223E+02  0.19783374626E+03  0.90724385660E+02 0.  0.
        -13    1    3    3    0    0 -0.89779850170E+02 -0.39814369350E+02  0.31241853048E+03  0.32749189867E+03  0.00000000000E+00 0.  1.
         14    1    3    3    0    0 -0.58757249037E+02 -0.27793257312E+02  0.57428291936E+03  0.57794960934E+03  0.00000000000E+00 0. -1.
        -11    1    4    4    0    0  0.10953374372E+03 -0.53562656466E+02  0.42733041682E+02  0.12920027876E+03  0.00000000000E+00 0. -1.
         11    1    4    4    0    0  0.53209946675E+02  0.37476922661E+02  0.21788407542E+02  0.68633467496E+02  0.00000000000E+00 0.  1.
          1    1    1    2  501    0 -0.14206591190E+02  0.83693360468E+02  0.35350222553E+02  0.91956750998E+02  0.00000000000E+00 0. -1.
<scales pt_clust_5="13000.00000" pt_clust_6="13000.00000" pt_clust_7="13000.00000" pt_clust_8="13000.00000" pt_clust_9="84.89055"></scales>
<clustering>
<clus scale="   83.371">  5  6 -1 -1</clus>
<clus scale="   84.891">  2  9  1 -1</clus>
<clus scale="   90.724">  7  8 -1 -1</clus>
<clus scale="  181.162">  1  5  2 -1</clus>
<clus scale="   84.891">  2  5  1 -1</clus>
</clustering>
</event>
<event>
 9    2  0.1302972E-004  0.1340814E+03  0.7546771E-02  0.1224032E+00
         21   -1    0    0  501  502  0.00000000000E+00  0.00000000000E+00  0.24349526150E+03  0.24349526150E+03  0.00000000000E+00 0. -1.
          2   -1    0    0  502    0 -0.00000000000E+00 -0.00000000000E+00 -0.63444868424E+03  0.63444868424E+03  0.00000000000E+00 0. -1.
         23    2    1    2    0    0  0.71145133896E+02 -0.71910507439E+02 -0.53932829062E+03  0.55605922089E+03  0.89967221375E+02 0.  0.
         24    2    1    2    0    0 -0.45475964980E+02  0.81367495356E+02 -0.42081518638E+02  0.12947376877E+03  0.79396913654E+02 0.  0.
        -11    1    4    4    0    0 -0.63353271327E+02  0.38869504412E+02 -0.14436761205E+02  0.75715886280E+02  0.00000000000E+00 0.  1.
         12    1    4    4    0    0  0.17877306347E+02  0.42497990944E+02 -0.27644757433E+02  0.53757882492E+02  0.00000000000E+00 0. -1.
        -13    1    3    3    0    0  0.39470847812E+02 -0.90438226840E+02 -0.39096206136E+03  0.40322246233E+03  0.00000000000E+00 0. -1.
         13    1    3    3    0    0  0.31674286085E+02  0.18527719402E+02 -0.14836622925E+03  0.15283675856E+03  0.00000000000E+00 0.  1.
          1    1    1    2  501    0 -0.25669168916E+02 -0.94569879173E+01  0.19045638652E+03  0.19241095608E+03  0.00000000000E+00 0. -1.
<scales pt_clust_5="13000.00000" pt_clust_6="13000.00000" pt_clust_7="13000.00000" pt_clust_8="13000.00000" pt_clust_9="27.35582"></scales>
<clustering>
<clus scale="   27.356">  1  9  2 -1</clus>
<clus scale="   79.397">  5  6 -1 -1</clus>
<clus scale="   89.967">  7  8 -1 -1</clus>
<clus scale="  127.230">  1  5  2 -1</clus>
<clus scale="   27.356">  1  5  2 -1</clus>
</clustering>
</event>
<event>
 9    2  0.1302972E-004  0.1856239E+03  0.7546771E-02  0.1185051E+00
          2   -1    0    0  502    0 -0.00000000000E+00  0.00000000000E+00  0.92125408938E+03  0.92125408938E+03  0.00000000000E+00 0. -1.
         21   -1    0    0  501  502  0.00000000000E+00 -0.00000000000E+00 -0.78580795066E+02  0.78580795066E+02  0.00000000000E+00 0. -1.
         23    2    1    2    0    0  0.63804816479E+02  0.25907481803E+01  0.14822195378E+03  0.18524288684E+03  0.90925315293E+02 0.  0.
         24    2    1    2    0    0  0.10594337659E+03 -0.61274467051E+02  0.58762989143E+03  0.60562058832E+03  0.80553388075E+02 0.  0.
        -11    1    4    4    0    0  0.18647085758E+02 -0.53258483202E+02  0.28582459101E+03  0.29134151209E+03  0.00000000000E+00 0.  1.
         12    1    4    4    0    0  0.87296290835E+02 -0.80159838489E+01  0.30180530042E+03  0.31427907623E+03  0.00000000000E+00 0. -1.
        -11    1    3    3    0    0  0.10646127496E+02 -0.38863356972E+02  0.34520476806E+02  0.53060002495E+02  0.00000000000E+00 0. -1.
         11    1    3    3    0    0  0.53158688984E+02  0.41454105152E+02  0.11370147697E+03  0.13218288434E+03  0.00000000000E+00 0.  1.
          1    1    1    2  501    0 -0.16974819307E+03  0.58683718870E+02  0.10682144910E+03  0.20897140929E+03  0.00000000000E+00 0. -1.
<scales pt_clust_5="13000.00000" pt_clust_6="13000.00000" pt_clust_7="13000.00000" pt_clust_8="13000.00000" pt_clust_9="167.23456"></scales>
<clustering>
<clus scale="   80.553">  5  6 -1 -1</clus>
<clus scale="   90.925">  7  8 -1 -1</clus>
<clus scale="  111.109">  1  7  2 -1</clus>
<clus scale="  167.235">  2  9  1 -1</clus>
<clus scale="  167.235">  2  5  1 -1</clus>
</clustering>
</event>
<event>
 9    2  0.1302972E-004  0.9183860E+02  0.7546771E-02  0.1305982E+00
          2   -1    0    0  502    0 -0.00000000000E+00  0.00000000000E+00  0.25559872866E+03  0.25559872866E+03  0.00000000000E+00 0. -1.
         21   -1    0    0  501  502  0.00000000000E+00 -0.00000000000E+00 -0.12678779922E+03  0.12678779922E+03  0.00000000000E+00 0. -1.
         23    2    1    2    0    0  0.93288341242E+01  0.11147249480E+02  0.12542694905E+02  0.93643593228E+02  0.91654323630E+02 0.  0.
         24    2    1    2    0    0  0.14347324257E+02  0.61443148778E+01 -0.65645226307E+02  0.10448207090E+03  0.79772232537E+02 0.  0.
        -13    1    4    4    0    0 -0.23887162479E+02  0.50420363445E+01 -0.61303727656E+02  0.65986102221E+02  0.00000000000E+00 0.  1.
         14    1    4    4    0    0  0.38234486736E+02  0.11022785333E+01 -0.43414986506E+01  0.38495968679E+02  0.00000000000E+00 0. -1.
        -11    1    3    3    0    0 -0.36866674497E+02  0.47662061292E+01  0.25695761669E+02  0.45190049536E+02  0.00000000000E+00 0. -1.
         11    1    3    3    0    0  0.46195508621E+02  0.63810433510E+01 -0.13153066764E+02  0.48453543692E+02  0.00000000000E+00 0.  1.
          1    1    1    2  501    0 -0.23676158382E+02 -0.17291564358E+02  0.18191346084E+03  0.18426086374E+03  0.00000000000E+00 0. -1.
<scales pt_clust_5="13000.00000" pt_clust_6="13000.00000" pt_clust_7="13000.00000" pt_clust_8="13000.00000" pt_clust_9="29.31825"></scales>
<clustering>
<clus scale="   29.318">  2  9  1 -1</clus>
<clus scale="   79.772">  5  6 -1 -1</clus>
<clus scale="   79.984">  2  5  1 -1</clus>
<clus scale="   91.654">  7  8 -1 -1</clus>
<clus scale="   29.318">  2  5  1 -1</clus>
</clustering>
</event>
<event>
 9    2  0.1302972E-004  0.9796445E+02  0.7546771E-02  0.1291983E+00
         21   -1    0    0  501  502  0.00000000000E+00  0.00000000000E+00  0.11186524953E+03  0.11186524953E+03  0.00000000000E+00 0. -1.
          2   -1    0    0  502    0 -0.00000000000E+00 -0.00000000000E+00 -0.28239211944E+03  0.28239211944E+03  0.00000000000E+00 0. -1.
         23    2    1    2    0    0 -0.25282136223E+02  0.16614663913E+02 -0.20507455656E+03  0.22724068648E+03  0.93099529411E+02 0.  0.
         24    2    1    2    0    0  0.11928750958E+02 -0.34463509491E+02 -0.34698777564E+02  0.94270775447E+02  0.79705365898E+02 0.  0.
        -13    1    4    4    0    0  0.38127325770E+02 -0.43416254953E+02 -0.13333914891E+02  0.59299725555E+02  0.00000000000E+00 0.  1.
         14    1    4    4    0    0 -0.26198574812E+02  0.89527454618E+01 -0.21364862673E+02  0.34971049892E+02  0.00000000000E+00 0. -1.
        -13    1    3    3    0    0  0.20916872593E+01 -0.30108438796E+02 -0.13684453291E+03  0.14013322030E+03  0.00000000000E+00 0.  1.
         13    1    3    3    0    0 -0.27373823483E+02  0.46723102709E+02 -0.68230023644E+02  0.87107466185E+02  0.00000000000E+00 0. -1.
          1    1    1    2  501    0  0.13353385265E+02  0.17848845578E+02  0.69246464206E+02  0.72745907043E+02  0.00000000000E+00 0. -1.
<scales pt_clust_5="13000.00000" pt_clust_6="13000.00000" pt_clust_7="13000.00000" pt_clust_8="13000.00000" pt_clust_9="22.29112"></scales>
<clustering>
<clus scale="   22.291">  1  9  2 -1</clus>
<clus scale="   79.705">  5  6 -1 -1</clus>
<clus scale="   85.337">  1  5  2 -1</clus>
<clus scale="   93.100">  7  8 -1 -1</clus>
<clus scale="   22.291">  1  5  2 -1</clus>
</clustering>
</event>
<event>
 9    2  0.1302972E-004  0.2546500E+03  0.7546771E-02  0.1110899E+00
          2   -1    0    0  502    0 -0.00000000000E+00  0.00000000000E+00  0.96422445994E+03  0.96422445994E+03  0.00000000000E+00 0. -1.
         21   -1    0    0  501  502  0.00000000000E+00 -0.00000000000E+00 -0.11896514208E+03  0.11896514208E+03  0.00000000000E+00 0. -1.
         24    2    1    2    0    0 -0.38645168906E+02 -0.17848904108E+03  0.24362452189E+03  0.31551761297E+03  0.82744604432E+02 0.  0.
         23    2    1    2    0    0  0.91530187145E+02  0.30844281020E+03  0.45401106948E+03  0.56401155625E+03  0.92023051742E+02 0.  0.
        -13    1    3    3    0    0  0.23435338475E+02 -0.35165376590E+02  0.34802825838E+02  0.54745369544E+02  0.00000000000E+00 0.  1.
         14    1    3    3    0    0 -0.62080507381E+02 -0.14332366449E+03  0.20882169605E+03  0.26077224343E+03  0.00000000000E+00 0. -1.
        -13    1    4    4    0    0  0.12406155180E+02  0.14367262374E+03  0.26098085936E+03  0.29817234018E+03  0.00000000000E+00 0.  1.
         13    1    4    4    0    0  0.79124031965E+02  0.16477018646E+03  0.19303021012E+03  0.26583921607E+03  0.00000000000E+00 0. -1.
          1    1    1    2  501    0 -0.52885018239E+02 -0.12995376912E+03  0.14762372650E+03  0.20366043280E+03  0.00000000000E+00 0. -1.
<scales pt_clust_5="13000.00000" pt_clust_6="13000.00000" pt_clust_7="13000.00000" pt_clust_8="13000.00000" pt_clust_9="140.30256"></scales>
<clustering>
<clus scale="   82.745">  5  6 -1 -1</clus>
<clus scale="   92.023">  7  8 -1 -1</clus>
<clus scale="  140.303">  2  9  1 -1</clus>
<clus scale="  251.446">  1  5  2 -1</clus>
<clus scale="  140.303">  2  5  1 -1</clus>
</clustering>
</event>
<event>
 9    2  0.1302972E-004  0.4068800E+03  0.7546771E-02  0.1041455E+00
         21   -1    0    0  501  502  0.00000000000E+00  0.00000000000E+00  0.69241057582E+03  0.69241057582E+03  0.00000000000E+00 0. -1.
          4   -1    0    0  502    0 -0.00000000000E+00 -0.00000000000E+00 -0.42576192565E+03  0.42576192565E+03  0.00000000000E+00 0. -1.
         23    2    1    2    0    0  0.43708430462E+03  0.16317764382E+03 -0.11197437919E+03  0.48845938123E+03  0.91567858605E+02 0.  0.
         24    2    1    2    0    0 -0.25296440662E+03 -0.15865495193E+03  0.18547647738E+03  0.36283078263E+03  0.89901437008E+02 0.  0.
        -11    1    4    4    0    0 -0.18612139981E+03 -0.65811484322E+02  0.11524003272E+03  0.22858825884E+03  0.00000000000E+00 0.  1.
         12    1    4    4    0    0 -0.66843006807E+02 -0.92843467607E+02  0.70236444658E+02  0.13424252379E+03  0.00000000000E+00 0. -1.
        -13    1    3    3    0    0  0.39602941099E+03  0.12417941730E+03 -0.77648875091E+02  0.42224302227E+03  0.00000000000E+00 0.  1.
         13    1    3    3    0    0  0.41054893630E+02  0.38998226525E+02 -0.34325504098E+02  0.66216358965E+02  0.00000000000E+00 0. -1.
          3    1    1    2  501    0 -0.18411989800E+03 -0.45226918948E+01  0.19314655198E+03  0.26688233760E+03  0.00000000000E+00 0. -1.
<scales pt_clust_5="13000.00000" pt_clust_6="13000.00000" pt_clust_7="13000.00000" pt_clust_8="13000.00000" pt_clust_9="184.17544"></scales>
<clustering>
<clus scale="   89.901">  5  6 -1 -1</clus>
<clus scale="   91.568">  7  8 -1 -1</clus>
<clus scale="  184.175">  1  9  2 -1</clus>
<clus scale="  406.508">  1  5  2 -1</clus>
<clus scale="  184.175">  1  5  2 -1</clus>
</clustering>
</event>
<event>
 9    2  0.1302972E-004  0.1185237E+03  0.7546771E-02  0.1248782E+00
         21   -1    0    0  501  502  0.00000000000E+00  0.00000000000E+00  0.11408356450E+03  0.11408356450E+03  0.00000000000E+00 0. -1.
         -3   -1    0    0    0  501 -0.00000000000E+00 -0.00000000000E+00 -0.27484420030E+03  0.27484420030E+03  0.00000000000E+00 0.  1.
         24    2    1    2    0    0  0.40225992517E+02 -0.51079603359E+02 -0.28157601350E+02  0.10767427450E+03  0.81078002697E+02 0.  0.
         23    2    1    2    0    0 -0.11205787713E+03  0.95302211324E+00 -0.32004832429E+02  0.14786498989E+03  0.91004779320E+02 0.  0.
        -13    1    3    3    0    0 -0.12965835678E+02 -0.19942214538E+02 -0.38423036305E+02  0.45189982678E+02  0.00000000000E+00 0.  1.
         14    1    3    3    0    0  0.53191828195E+02 -0.31137388821E+02  0.10265434955E+02  0.62484291819E+02  0.00000000000E+00 0. -1.
        -13    1    4    4    0    0 -0.19928639379E+02 -0.30585330910E+02 -0.34817102265E+02  0.50446444320E+02  0.00000000000E+00 0. -1.
         13    1    4    4    0    0 -0.92129237749E+02  0.31538353023E+02  0.28122698364E+01  0.97418545571E+02  0.00000000000E+00 0.  1.
         -4    1    1    2    0  502  0.71831884611E+02  0.50126581246E+02 -0.10059820201E+03  0.13338850041E+03  0.00000000000E+00 0.  1.
<scales pt_clust_5="13000.00000" pt_clust_6="13000.00000" pt_clust_7="13000.00000" pt_clust_8="13000.00000" pt_clust_9="87.59282"></scales>
<clustering>
<clus scale="   81.078">  5  6 -1 -1</clus>
<clus scale="   87.593">  1  9  2 -1</clus>
<clus scale="   91.005">  7  8 -1 -1</clus>
<clus scale="  111.084">  2  5  1 -1</clus>
<clus scale="   87.593">  1  5  2 -1</clus>
</clustering>
</event>
<event>
 9    2  0.1302972E-004  0.2495927E+03  0.7546771E-02  0.1128599E+00
         21   -1    0    0  501  502  0.00000000000E+00  0.00000000000E+00  0.30070843742E+03  0.30070843742E+03  0.00000000000E+00 0.  1.
         -3   -1    0    0    0  501 -0.00000000000E+00 -0.00000000000E+00 -0.44960578192E+03  0.44960578192E+03  0.00000000000E+00 0.  1.
         23    2    1    2    0    0  0.59568018693E+00 -0.14433576861E+03 -0.50145978489E+02  0.17866615471E+03  0.92594852693E+02 0.  0.
         24    2    1    2    0    0  0.23324450108E+03  0.81428170211E+01  0.64454786042E+02  0.25563224461E+03  0.82000745653E+02 0.  0.
        -13    1    4    4    0    0  0.42789564791E+02  0.31299289399E+02 -0.68093849042E+00  0.53019393141E+02  0.00000000000E+00 0.  1.
         14    1    4    4    0    0  0.19045493629E+03 -0.23156472378E+02  0.65135724532E+02  0.20261285147E+03  0.00000000000E+00 0. -1.
        -13    1    3    3    0    0  0.29515946017E+02 -0.13197871427E+03 -0.56524477764E+02  0.14657622139E+03  0.00000000000E+00 0. -1.
         13    1    3    3    0    0 -0.28920265830E+02 -0.12357054336E+02  0.63784992741E+01  0.32089933321E+02  0.00000000000E+00 0.  1.
         -4    1    1    2    0  502 -0.23384018126E+03  0.13619295158E+03 -0.16320615206E+03  0.31601582002E+03  0.00000000000E+00 0.  1.
<scales pt_clust_5="13000.00000" pt_clust_6="13000.00000" pt_clust_7="13000.00000" pt_clust_8="13000.00000" pt_clust_9="235.73814"></scales>
<clustering>
<clus scale="   82.001">  5  6 -1 -1</clus>
<clus scale="   92.595">  7  8 -1 -1</clus>
<clus scale="  171.485">  2  7  1 -1</clus>
<clus scale="  235.738">  1  9  2 -1</clus>
<clus scale="  235.738">  1  5  2 -1</clus>
</clustering>
</event>
<event>
 9    2  0.1302972E-004  0.1298074E+03  0.7546771E-02  0.1231052E+00
         21   -1    0    0  501  502  0.00000000000E+00  0.00000000000E+00  0.20196819660E+03  0.20196819660E+03  0.00000000000E+00 0. -1.
          4   -1    0    0  502    0 -0.00000000000E+00 -0.00000000000E+00 -0.28643343731E+03  0.28643343731E+03  0.00000000000E+00 0. -1.
         24    2    1    2    0    0  0.77595888003E+02  0.28633393494E+02 -0.14923096520E+03  0.18889824640E+03  0.81065858779E+02 0.  0.
         23    2    1    2    0    0 -0.10045383402E+03 -0.12431989856E+03  0.76726180606E+02  0.20040018142E+03  0.93417963873E+02 0.  0.
        -11    1    3    3    0    0  0.89971722095E+02  0.70451333466E+01 -0.10803076923E+03  0.14076644409E+03  0.00000000000E+00 0.  1.
         12    1    3    3    0    0 -0.12375834092E+02  0.21588260148E+02 -0.41200195968E+02  0.48131802309E+02  0.00000000000E+00 0. -1.
        -11    1    4    4    0    0 -0.50470716643E+02 -0.71449314228E+01 -0.13419729803E+01  0.50991608869E+02  0.00000000000E+00 0.  1.
         11    1    4    4    0    0 -0.49983117376E+02 -0.11717496714E+03  0.78068153586E+02  0.14940857255E+03  0.00000000000E+00 0. -1.
          3    1    1    2  501    0  0.22857946016E+02  0.95686505070E+02 -0.11960456113E+02  0.99103206099E+02  0.00000000000E+00 0. -1.
<scales pt_clust_5="13000.00000" pt_clust_6="13000.00000" pt_clust_7="13000.00000" pt_clust_8="13000.00000" pt_clust_9="98.37882"></scales>
<clustering>
<clus scale="   81.066">  5  6 -1 -1</clus>
<clus scale="   93.418">  7  8 -1 -1</clus>
<clus scale="   98.379">  1  9  2 -1</clus>
<clus scale="  121.222">  2  5  1 -1</clus>
<clus scale="   98.379">  1  5  2 -1</clus>
</clustering>
</event>
<event>
 9    2  0.1302972E-004  0.1555040E+03  0.7546771E-02  0.1208720E+00
          2   -1    0    0  502    0 -0.00000000000E+00  0.00000000000E+00  0.16047806329E+03  0.16047806329E+03  0.00000000000E+00 0. -1.
         21   -1    0    0  501  502  0.00000000000E+00 -0.00000000000E+00 -0.27197170412E+03  0.27197170412E+03  0.00000000000E+00 0. -1.
         24    2    1    2    0    0 -0.60868091295E+02 -0.50320905545E+02 -0.79913684493E+02  0.13816342609E+03  0.80410305730E+02 0.  0.
         23    2    1    2    0    0 -0.86981215151E+02  0.26015230815E+02  0.27693070714E+02  0.13315448545E+03  0.93384617605E+02 0.  0.
        -11    1    3    3    0    0 -0.71753625377E+00 -0.24642765664E+02 -0.67143051520E+02  0.71526010131E+02  0.00000000000E+00 0.  1.
         12    1    3    3    0    0 -0.60150555041E+02 -0.25678139882E+02 -0.12770632973E+02  0.66637415962E+02  0.00000000000E+00 0. -1.
        -13    1    4    4    0    0  0.10965926115E+02  0.24730398218E+02 -0.90623084527E+01  0.28530151877E+02  0.00000000000E+00 0.  1.
         13    1    4    4    0    0 -0.97947141266E+02  0.12848325968E+01  0.36755379166E+02  0.10462433357E+03  0.00000000000E+00 0. -1.
          1    1    1    2  501    0  0.14784930645E+03  0.24305674730E+02 -0.59273027054E+02  0.16113185587E+03  0.00000000000E+00 0. -1.
<scales pt_clust_5="13000.00000" pt_clust_6="13000.00000" pt_clust_7="13000.00000" pt_clust_8="13000.00000" pt_clust_9="124.34148"></scales>
<clustering>
<clus scale="   80.410">  5  6 -1 -1</clus>
<clus scale="   93.385">  7  8 -1 -1</clus>
<clus scale="  112.707">  1  5  2 -1</clus>
<clus scale="  124.341">  2  9  1 -1</clus>
<clus scale="  124.341">  2  5  1 -1</clus>
</clustering>
</event>
<event>
 9    2  0.1302972E-004  0.1239969E+03  0.7546771E-02  0.1240585E+00
         21   -1    0    0  501  502  0.00000000000E+00  0.00000000000E+00  0.42394764700E+02  0.42394764700E+02  0.00000000000E+00 0.  1.
          2   -1    0    0  502    0 -0.00000000000E+00 -0.00000000000E+00 -0.49507276158E+03  0.49507276158E+03  0.00000000000E+00 0. -1.
         23    2    1    2    0    0 -0.24299526785E+02 -0.85934188719E+02 -0.32432876788E+03  0.34913352090E+03  0.93434008528E+02 0.  0.
         24    2    1    2    0    0  0.37073562799E+02  0.59471354977E+02 -0.11237033987E+03  0.15488579969E+03  0.80319527782E+02 0.  0.
        -11    1    4    4    0    0  0.55984461418E+02  0.46743512174E+02 -0.49855657455E+02  0.88344792891E+02  0.00000000000E+00 0.  1.
         12    1    4    4    0    0 -0.18910898619E+02  0.12727842803E+02 -0.62514682415E+02  0.66541006804E+02  0.00000000000E+00 0. -1.
        -11    1    3    3    0    0 -0.17915813350E+02 -0.49186394733E+02 -0.30015745648E+03  0.30468799857E+03  0.00000000000E+00 0. -1.
         11    1    3    3    0    0 -0.63837134358E+01 -0.36747793986E+02 -0.24171311398E+02  0.44445522325E+02  0.00000000000E+00 0.  1.
          1    1    1    2  501    0 -0.12774036013E+02  0.26462833742E+02 -0.15978889130E+02  0.33448205685E+02  0.00000000000E+00 0. -1.
<scales pt_clust_5="13000.00000" pt_clust_6="13000.00000" pt_clust_7="13000.00000" pt_clust_8="13000.00000" pt_clust_9="29.38465"></scales>
<clustering>
<clus scale="   29.385">  1  9  2 -1</clus>
<clus scale="   80.320">  5  6 -1 -1</clus>
<clus scale="   93.434">  7  8 -1 -1</clus>
<clus scale="  114.440">  1  5  2 -1</clus>
<clus scale="   29.385">  1  5  2 -1</clus>
</clustering>
</event>
<event>
 9    2  0.1302972E-004  0.2479885E+03  0.7546771E-02  0.1142330E+00
          2   -1    0    0  502    0 -0.00000000000E+00  0.00000000000E+00  0.31978536027E+04  0.31978536027E+04  0.00000000000E+00 0. -1.
         21   -1    0    0  501  502  0.00000000000E+00 -0.00000000000E+00 -0.31351013499E+02  0.31351013499E+02  0.00000000000E+00 0. -1.
         24    2    1    2    0    0  0.53849045248E+02  0.78088644750E+02  0.87018746515E+03  0.87914810418E+03  0.81716635236E+02 0.  0.
         23    2    1    2    0    0  0.19667720523E+03 -0.10429622559E+03  0.92834493022E+03  0.95908825548E+03  0.92012752427E+02 0.  0.
        -11    1    3    3    0    0  0.29440672056E+02  0.86965296418E+02  0.52359766832E+03  0.53158652562E+03  0.00000000000E+00 0.  1.
         12    1    3    3    0    0  0.24408373191E+02 -0.88766516675E+01  0.34658979683E+03  0.34756157856E+03  0.00000000000E+00 0. -1.
        -13    1    4    4    0    0  0.64798695313E+02  0.10984493684E+02  0.25456986761E+03  0.26291699738E+03  0.00000000000E+00 0. -1.
         13    1    4    4    0    0  0.13187850992E+03 -0.11528071927E+03  0.67377506261E+03  0.69617125810E+03  0.00000000000E+00 0.  1.
          1    1    1    2  501    0 -0.25052625048E+03  0.26207580836E+02  0.13679701938E+04  0.13909682565E+04  0.00000000000E+00 0. -1.
<scales pt_clust_5="13000.00000" pt_clust_6="13000.00000" pt_clust_7="13000.00000" pt_clust_8="13000.00000" pt_clust_9="230.28683"></scales>
<clustering>
<clus scale="   81.717">  5  6 -1 -1</clus>
<clus scale="   92.013">  7  8 -1 -1</clus>
<clus scale="  125.200">  1  5  2 -1</clus>
<clus scale="  230.287">  2  9  1 -1</clus>
<clus scale="  230.287">  2  5  1 -1</clus>
</clustering>
</event>
<event>
 9    2  0.1302972E-004  0.1173534E+03  0.7546771E-02  0.1252465E+00
         21   -1    0    0  501  502  0.00000000000E+00  0.00000000000E+00  0.26342052496E+03  0.26342052496E+03  0.00000000000E+00 0. -1.
          2   -1    0    0  502    0 -0.00000000000E+00 -0.00000000000E+00 -0.15412473229E+03  0.15412473229E+03  0.00000000000E+00 0. -1.
         23    2    1    2    0    0 -0.33021207979E+02  0.97767310713E+02 -0.61092488871E+02  0.15115018701E+03  0.92006736793E+02 0.  0.
         24    2    1    2    0    0 -0.23128696226E+01 -0.43278348517E+02  0.52133432668E+01  0.88911819560E+02  0.77458168667E+02 0.  0.
        -11    1    4    4    0    0 -0.30409139702E+02 -0.25688663563E+02 -0.22481434101E+02  0.45716934416E+02  0.00000000000E+00 0.  1.
         12    1    4    4    0    0  0.28096270080E+02 -0.17589684953E+02  0.27694777368E+02  0.43194885144E+02  0.00000000000E+00 0. -1.
        -13    1    3    3    0    0 -0.46795926523E+02  0.63780109755E+02 -0.77708477730E+02  0.11088899247E+03  0.00000000000E+00 0. -1.
         13    1    3    3    0    0  0.13774718544E+02  0.33987200958E+02  0.16615988859E+02  0.40261194538E+02  0.00000000000E+00 0.  1.
          1    1    1    2  501    0  0.35334077602E+02 -0.54488962196E+02  0.16517493827E+03  0.17748325069E+03  0.00000000000E+00 0. -1.
<scales pt_clust_5="13000.00000" pt_clust_6="13000.00000" pt_clust_7="13000.00000" pt_clust_8="13000.00000" pt_clust_9="64.94262"></scales>
<clustering>
<clus scale="   64.943">  1  9  2 -1</clus>
<clus scale="   77.458">  5  6 -1 -1</clus>
<clus scale="   92.007">  7  8 -1 -1</clus>
<clus scale="  106.331">  1  5  2 -1</clus>
<clus scale="   64.943">  1  5  2 -1</clus>
</clustering>
</event>
<event>
 9    2  0.1302972E-004  0.1251487E+03  0.7546771E-02  0.1250392E+00
         -1   -1    0    0    0  501 -0.00000000000E+00  0.00000000000E+00  0.47371965004E+03  0.47371965004E+03  0.00000000000E+00 0.  1.
         21   -1    0    0  501  502  0.00000000000E+00 -0.00000000000E+00 -0.82300528442E+02  0.82300528442E+02  0.00000000000E+00 0.  1.
         23    2    1    2    0    0 -0.15455706822E+02  0.23741404690E+02  0.29801481401E+03  0.31170785817E+03  0.86870169263E+02 0.  0.
         24    2    1    2    0    0  0.49518622221E+00  0.78480459347E+02  0.82921064787E+02  0.14047097477E+03  0.81833758669E+02 0.  0.
        -13    1    4    4    0    0  0.27948890250E+02  0.14877691236E+02 -0.96666517258E+00  0.31676814933E+02  0.00000000000E+00 0.  1.
         14    1    4    4    0    0 -0.27453704028E+02  0.63602768111E+02  0.83887729959E+02  0.10879415983E+03  0.00000000000E+00 0. -1.
        -13    1    3    3    0    0 -0.47081977706E+02  0.25439276276E+02  0.12748253001E+03  0.13825941147E+03  0.00000000000E+00 0. -1.
         13    1    3    3    0    0  0.31626270884E+02 -0.16978715856E+01  0.17053228400E+03  0.17344844670E+03  0.00000000000E+00 0.  1.
         -2    1    1    2    0  502  0.14960520600E+02 -0.10222186404E+03  0.10483242800E+02  0.10384134554E+03  0.00000000000E+00 0.  1.
<scales pt_clust_5="13000.00000" pt_clust_6="13000.00000" pt_clust_7="13000.00000" pt_clust_8="13000.00000" pt_clust_9="94.68597"></scales>
<clustering>
<clus scale="   81.834">  5  6 -1 -1</clus>
<clus scale="   86.870">  7  8 -1 -1</clus>
<clus scale="   91.373">  1  7  2 -1</clus>
<clus scale="   94.686">  2  9  1 -1</clus>
<clus scale="   94.686">  2  5  1 -1</clus>
</clustering>
</event>
<event>
 9    2  0.1302972E-004  0.1964337E+03  0.7546771E-02  0.1186281E+00
          2   -1    0    0  502    0 -0.00000000000E+00  0.00000000000E+00  0.18831336803E+04  0.18831336803E+04  0.00000000000E+00 0. -1.
         21   -1    0    0  501  502  0.00000000000E+00 -0.00000000000E+00 -0.31374973307E+02  0.31374973307E+02  0.00000000000E+00 0.  1.
         24    2    1    2    0    0  0.37186694178E+02  0.65382422199E+01  0.22873141703E+03  0.24625209749E+03  0.83044780365E+02 0.  0.
         23    2    1    2    0    0 -0.14481642657E+03  0.11454233167E+03  0.64274387870E+03  0.67467705197E+03  0.89317902459E+02 0.  0.
        -13    1    3    3    0    0  0.38826167335E+02 -0.29462346339E+01  0.35225728579E+02  0.52507175914E+02  0.00000000000E+00 0.  1.
         14    1    3    3    0    0 -0.16394731572E+01  0.94844768539E+01  0.19350568845E+03  0.19374492158E+03  0.00000000000E+00 0. -1.
        -13    1    4    4    0    0 -0.17982736758E+02  0.64171342529E+02  0.16889610333E+03  0.18156881269E+03  0.00000000000E+00 0. -1.
         13    1    4    4    0    0 -0.12683368981E+03  0.50370989142E+02  0.47384777537E+03  0.49310823927E+03  0.00000000000E+00 0.  1.
          1    1    1    2  501    0  0.10762973239E+03 -0.12108057389E+03  0.98028341124E+03  0.99357950412E+03  0.00000000000E+00 0. -1.
<scales pt_clust_5="13000.00000" pt_clust_6="13000.00000" pt_clust_7="13000.00000" pt_clust_8="13000.00000" pt_clust_9="174.95301"></scales>
<clustering>
<clus scale="   83.045">  5  6 -1 -1</clus>
<clus scale="   89.318">  7  8 -1 -1</clus>
<clus scale="   91.225">  1  5  2 -1</clus>
<clus scale="  174.953">  2  9  1 -1</clus>
<clus scale="  174.953">  2  5  1 -1</clus>
</clustering>
</event>
<event>
 9    2  0.1302972E-004  0.2050429E+03  0.7546771E-02  0.1177467E+00
         -1   -1    0    0    0  501 -0.00000000000E+00  0.00000000000E+00  0.42012740515E+03  0.42012740515E+03  0.00000000000E+00 0.  1.
         21   -1    0    0  501  502  0.00000000000E+00 -0.00000000000E+00 -0.30582760594E+03  0.30582760594E+03  0.00000000000E+00 0.  1.
         24    2    1    2    0    0 -0.51715374748E+02 -0.19581459762E+02  0.23197709843E+03  0.25172009789E+03  0.80571210326E+02 0.  0.
         23    2    1    2    0    0  0.15034078778E+02  0.18828959555E+03 -0.19353106490E+03  0.28565668986E+03  0.92013455891E+02 0.  0.
        -11    1    3    3    0    0 -0.14584081263E+02  0.31090969850E+02  0.95251230103E+02  0.10125285511E+03  0.00000000000E+00 0.  1.
         12    1    3    3    0    0 -0.37131293485E+02 -0.50672429612E+02  0.13672586832E+03  0.15046724277E+03  0.00000000000E+00 0. -1.
        -13    1    4    4    0    0 -0.26952913070E+02  0.15023573407E+03 -0.12966025172E+03  0.20027235503E+03  0.00000000000E+00 0.  1.
         13    1    4    4    0    0  0.41986991848E+02  0.38053861479E+02 -0.63870813179E+02  0.85384334829E+02  0.00000000000E+00 0. -1.
         -2    1    1    2    0  502  0.36681295970E+02 -0.16870813579E+03  0.75853765674E+02  0.18857822335E+03  0.00000000000E+00 0.  1.
<scales pt_clust_5="13000.00000" pt_clust_6="13000.00000" pt_clust_7="13000.00000" pt_clust_8="13000.00000" pt_clust_9="183.23795"></scales>
<clustering>
<clus scale="   80.571">  5  6 -1 -1</clus>
<clus scale="   92.013">  7  8 -1 -1</clus>
<clus scale="   97.722">  1  5  2 -1</clus>
<clus scale="  183.238">  2  9  1 -1</clus>
<clus scale="  183.238">  2  5  1 -1</clus>
</clustering>
</event>
<event>
 9    2  0.1302972E-004  0.3220291E+03  0.7546771E-02  0.1075129E+00
         21   -1    0    0  501  502  0.00000000000E+00  0.00000000000E+00  0.21350039822E+03  0.21350039822E+03  0.00000000000E+00 0.  1.
         -1   -1    0    0    0  501 -0.00000000000E+00 -0.00000000000E+00 -0.85415058707E+03  0.85415058707E+03  0.00000000000E+00 0.  1.
         24    2    1    2    0    0  0.24842664253E+03  0.20846417904E+03 -0.61797406959E+03  0.70248481108E+03  0.80123956765E+02 0.  0.
         23    2    1    2    0    0 -0.16363658215E+03 -0.20639608164E+03 -0.22646039370E+02  0.28035089098E+03  0.93314015245E+02 0.  0.
        -13    1    3    3    0    0  0.22366437860E+03  0.21013091561E+03 -0.59032890390E+03  0.66533372884E+03  0.00000000000E+00 0.  1.
         14    1    3    3    0    0  0.24762263926E+02 -0.16667365671E+01 -0.27645165690E+02  0.37151082239E+02  0.00000000000E+00 0. -1.
        -13    1    4    4    0    0 -0.76213832785E+02 -0.16678535291E+03 -0.18112820737E+02  0.18426604822E+03  0.00000000000E+00 0.  1.
         13    1    4    4    0    0 -0.87422749361E+02 -0.39610728734E+02 -0.45332186323E+01  0.96084842758E+02  0.00000000000E+00 0. -1.
         -2    1    1    2    0  502 -0.84790060380E+02 -0.20680973947E+01 -0.30079888965E-01  0.84815283238E+02  0.00000000000E+00 0.  1.
<scales pt_clust_5="13000.00000" pt_clust_6="13000.00000" pt_clust_7="13000.00000" pt_clust_8="13000.00000" pt_clust_9="84.81528"></scales>
<clustering>
<clus scale="   80.124">  5  6 -1 -1</clus>
<clus scale="   84.815">  1  9  2 -1</clus>
<clus scale="   93.314">  7  8 -1 -1</clus>
<clus scale="  318.457">  2  5  1 -1</clus>
<clus scale="   84.815">  1  5  2 -1</clus>
</clustering>
</event>
<event>
 9    2  0.1302972E-004  0.1337291E+03  0.7546771E-02  0.1241637E+00
         21   -1    0    0  501  502  0.00000000000E+00  0.00000000000E+00  0.28833991025E+02  0.28833991025E+02  0.00000000000E+00 0. -1.
          2   -1    0    0  502    0 -0.00000000000E+00 -0.00000000000E+00 -0.12373830028E+04  0.12373830028E+04  0.00000000000E+00 0. -1.
         24    2    1    2    0    0  0.40323824248E+02 -0.60367157251E+01 -0.27352487892E+03  0.28773447016E+03  0.79453213842E+02 0.  0.
         23    2    1    2    0    0 -0.48886198402E+02 -0.87837330093E+02 -0.23048036109E+03  0.26766076185E+03  0.91737831005E+02 0.  0.
        -13    1    3    3    0    0 -0.62351745541E+00 -0.37413734757E+02 -0.12674356825E+03  0.13215183848E+03  0.00000000000E+00 0.  1.
         14    1    3    3    0    0  0.40947341703E+02  0.31377019032E+02 -0.14678131068E+03  0.15558263168E+03  0.00000000000E+00 0. -1.
        -11    1    4    4    0    0  0.38587578732E+01 -0.31527177928E+02 -0.88318126074E+01  0.32967466909E+02  0.00000000000E+00 0.  1.
         11    1    4    4    0    0 -0.52744956275E+02 -0.56310152164E+02 -0.22164854848E+03  0.23469329495E+03  0.00000000000E+00 0. -1.
          1    1    1    2  501    0  0.85623741544E+01  0.93874045818E+02 -0.70454377173E+03  0.71082176178E+03  0.00000000000E+00 0. -1.
<scales pt_clust_5="13000.00000" pt_clust_6="13000.00000" pt_clust_7="13000.00000" pt_clust_8="13000.00000" pt_clust_9="97.30185"></scales>
<clustering>
<clus scale="   79.453">  5  6 -1 -1</clus>
<clus scale="   89.304">  2  5  1 -1</clus>
<clus scale="   91.738">  7  8 -1 -1</clus>
<clus scale="   97.302">  1  9  2 -1</clus>
<clus scale="   97.302">  1  5  2 -1</clus>
</clustering>
</event>
<event>
 9    2  0.1302972E-004  0.1322165E+03  0.7546771E-02  0.1226999E+00
         -1   -1    0    0    0  501 -0.00000000000E+00  0.00000000000E+00  0.55088314372E+03  0.55088314372E+03  0.00000000000E+00 0.  1.
         21   -1    0    0  501  502  0.00000000000E+00 -0.00000000000E+00 -0.12402150406E+03  0.12402150406E+03  0.00000000000E+00 0.  1.
         24    2    1    2    0    0 -0.90572146717E+02  0.24453879136E+02  0.28445594574E+03  0.31025389336E+03  0.80876370536E+02 0.  0.
         23    2    1    2    0    0  0.82259840866E+02 -0.87668168727E+02 -0.52004190033E+02  0.16005274903E+03  0.91978570671E+02 0.  0.
        -13    1    3    3    0    0 -0.76291496530E+02  0.24669721928E+02  0.11497471852E+03  0.14017194270E+03  0.00000000000E+00 0.  1.
         14    1    3    3    0    0 -0.14280650188E+02 -0.21584279136E+00  0.16948122722E+03  0.17008195066E+03  0.00000000000E+00 0. -1.
        -11    1    4    4    0    0  0.13502419439E+00 -0.39142343920E+02 -0.51467875554E+02  0.64661298572E+02  0.00000000000E+00 0. -1.
         11    1    4    4    0    0  0.82124816672E+02 -0.48525824807E+02 -0.53631447963E+00  0.95391450454E+02  0.00000000000E+00 0.  1.
         -2    1    1    2    0  502  0.83123058515E+01  0.63214289591E+02  0.19440988395E+03  0.20459800540E+03  0.00000000000E+00 0.  1.
<scales pt_clust_5="13000.00000" pt_clust_6="13000.00000" pt_clust_7="13000.00000" pt_clust_8="13000.00000" pt_clust_9="63.75849"></scales>
<clustering>
<clus scale="   63.758">  2  9  1 -1</clus>
<clus scale="   80.876">  5  6 -1 -1</clus>
<clus scale="   91.979">  7  8 -1 -1</clus>
<clus scale="  124.748">  1  5  2 -1</clus>
<clus scale="   63.758">  2  5  1 -1</clus>
</clustering>
</event>
<event>
 9    2  0.1302972E-004  0.1933708E+03  0.7546771E-02  0.1157138E+00
          2   -1    0    0  502    0 -0.00000000000E+00  0.00000000000E+00  0.14406156069E+04  0.14406156069E+04  0.00000000000E+00 0. -1.
         21   -1    0    0  501  502  0.00000000000E+00 -0.00000000000E+00 -0.88276252720E+02  0.88276252720E+02  0.00000000000E+00 0. -1.
         24    2    1    2    0    0  0.11771161086E+03 -0.13285192874E+03  0.12477856891E+04  0.12629194514E+04  0.80565231122E+02 0.  0.
         23    2    1    2    0    0 -0.58240924769E+02  0.10613685675E+03  0.12350346715E+03  0.19807872237E+03  0.96566226903E+02 0.  0.
        -13    1    3    3    0    0  0.64401982184E+02 -0.10906862224E+03  0.64538312577E+03  0.65769518677E+03  0.00000000000E+00 0.  1.
         14    1    3    3    0    0  0.53309628678E+02 -0.23783306497E+02  0.60240256337E+03  0.60522426466E+03  0.00000000000E+00 0. -1.
        -11    1    4    4    0    0  0.94684703061E+01  0.75760834339E+02  0.39405918667E+02  0.85919627418E+02  0.00000000000E+00 0. -1.
         11    1    4    4    0    0 -0.67709395075E+02  0.30376022409E+02  0.84097548487E+02  0.11215909495E+03  0.00000000000E+00 0.  1.
          1    1    1    2  501    0 -0.59470686092E+02  0.26715071993E+02 -0.18949802107E+02  0.67893685832E+02  0.00000000000E+00 0. -1.
<scales pt_clust_5="13000.00000" pt_clust_6="13000.00000" pt_clust_7="13000.00000" pt_clust_8="13000.00000" pt_clust_9="65.19553"></scales>
<clustering>
<clus scale="   65.196">  2  9  1 -1</clus>
<clus scale="   80.565">  5  6 -1 -1</clus>
<clus scale="   96.566">  7  8 -1 -1</clus>
<clus scale="  185.898">  1  5  2 -1</clus>
<clus scale="   65.196">  2  5  1 -1</clus>
</clustering>
</event>
<event>
 9    2  0.1302972E-004  0.1409520E+03  0.7546771E-02  0.1214886E+00
         -1   -1    0    0    0  501 -0.00000000000E+00  0.00000000000E+00  0.27954448832E+03  0.27954448832E+03  0.00000000000E+00 0.  1.
         21   -1    0    0  501  502  0.00000000000E+00 -0.00000000000E+00 -0.12397726488E+03  0.12397726488E+03  0.00000000000E+00 0.  1.
         23    2    1    2    0    0  0.11685616701E+03  0.32380322270E+02  0.13148569765E+03  0.20085548821E+03  0.91381559517E+02 0.  0.
         24    2    1    2    0    0 -0.58460497589E+02 -0.79690794400E+02  0.11858475700E+02  0.12652338658E+03  0.78097960370E+02 0.  0.
        -11    1    4    4    0    0 -0.34118689091E+02 -0.89118348965E+02 -0.48174779617E+01  0.95547753304E+02  0.00000000000E+00 0.  1.
         12    1    4    4    0    0 -0.24341808498E+02  0.94275545644E+01  0.16675953662E+02  0.30975633272E+02  0.00000000000E+00 0. -1.
        -13    1    3    3    0    0  0.12180847364E+03  0.80762977254E+01  0.86941219151E+02  0.14987096591E+03  0.00000000000E+00 0.  1.
         13    1    3    3    0    0 -0.49523066251E+01  0.24304024545E+02  0.44544478495E+02  0.50984522303E+02  0.00000000000E+00 0. -1.
         -2    1    1    2    0  502 -0.58395669423E+02  0.47310472130E+02  0.12223050095E+02  0.76142878421E+02  0.00000000000E+00 0.  1.
<scales pt_clust_5="13000.00000" pt_clust_6="13000.00000" pt_clust_7="13000.00000" pt_clust_8="13000.00000" pt_clust_9="75.15541"></scales>
<clustering>
<clus scale="   75.155">  2  9  1 -1</clus>
<clus scale="   78.098">  5  6 -1 -1</clus>
<clus scale="   91.382">  7  8 -1 -1</clus>
<clus scale="  132.726">  2  5  1 -1</clus>
<clus scale="   75.155">  2  5  1 -1</clus>
</clustering>
</event>
<event>
 9    2  0.1302972E-004  0.1345220E+03  0.7546771E-02  0.1231106E+00
          2   -1    0    0  502    0 -0.00000000000E+00  0.00000000000E+00  0.96315464048E+03  0.96315464048E+03  0.00000000000E+00 0. -1.
         21   -1    0    0  501  502  0.00000000000E+00 -0.00000000000E+00 -0.36233351918E+02  0.36233351918E+02  0.00000000000E+00 0. -1.
         24    2    1    2    0    0  0.13343509440E+02  0.73314781688E+02  0.15902139482E+03  0.19267751229E+03  0.79269876218E+02 0.  0.
         23    2    1    2    0    0  0.12718660708E+02  0.58317838917E+02  0.35704399244E+03  0.37449646465E+03  0.95939850067E+02 0.  0.
        -11    1    3    3    0    0 -0.30845473514E+02  0.47105256293E+02  0.69337608391E+02  0.89319943709E+02  0.00000000000E+00 0.  1.
         12    1    3    3    0    0  0.44188982954E+02  0.26209525395E+02  0.89683786427E+02  0.10335756859E+03  0.00000000000E+00 0. -1.
        -11    1    4    4    0    0 -0.29565884983E+02  0.63780759348E+02  0.21650620739E+03  0.22763361934E+03  0.00000000000E+00 0.  1.
         11    1    4    4    0    0  0.42284545690E+02 -0.54629204315E+01  0.14053778505E+03  0.14686284530E+03  0.00000000000E+00 0. -1.
          1    1    1    2  501    0 -0.26062170147E+02 -0.13163262060E+03  0.41085590131E+03  0.43221401546E+03  0.00000000000E+00 0. -1.
<scales pt_clust_5="13000.00000" pt_clust_6="13000.00000" pt_clust_7="13000.00000" pt_clust_8="13000.00000" pt_clust_9="94.29600"></scales>
<clustering>
<clus scale="   79.270">  5  6 -1 -1</clus>
<clus scale="   95.940">  7  8 -1 -1</clus>
<clus scale="  108.797">  1  5  2 -1</clus>
<clus scale="   94.296">  2  9  1 -1</clus>
<clus scale="   94.296">  2  5  1 -1</clus>
</clustering>
</event>
<event>
 9    2  0.1302972E-004  0.1196901E+03  0.7546771E-02  0.1245947E+00
          2   -1    0    0  502    0 -0.00000000000E+00  0.00000000000E+00  0.42959015385E+03  0.42959015385E+03  0.00000000000E+00 0. -1.
         21   -1    0    0  501  502  0.00000000000E+00 -0.00000000000E+00 -0.62554129978E+02  0.62554129978E+02  0.00000000000E+00 0.  1.
         24    2    1    2    0    0  0.50339856418E+02 -0.71580217860E+02  0.30799850083E+03  0.33048140861E+03  0.81835543559E+02 0.  0.
         23    2    1    2    0    0 -0.31574522343E+02  0.50779696865E+02  0.73395984213E+02  0.13018328113E+03  0.89359879776E+02 0.  0.
        -11    1    3    3    0    0  0.29757835915E+02 -0.28789584090E+02  0.37549681945E+02  0.55895863573E+02  0.00000000000E+00 0.  1.
         12    1    3    3    0    0  0.20582020503E+02 -0.42790633771E+02  0.27044881888E+03  0.27458554503E+03  0.00000000000E+00 0. -1.
        -11    1    4    4    0    0 -0.29197741927E+02  0.72670347487E+02  0.34697002235E+02  0.85658446762E+02  0.00000000000E+00 0.  1.
         11    1    4    4    0    0 -0.23767804159E+01 -0.21890650622E+02  0.38698981979E+02  0.44524834373E+02  0.00000000000E+00 0. -1.
          1    1    1    2  501    0 -0.18765334075E+02  0.20800520995E+02 -0.14358461170E+02  0.31479594086E+02  0.00000000000E+00 0. -1.
<scales pt_clust_5="13000.00000" pt_clust_6="13000.00000" pt_clust_7="13000.00000" pt_clust_8="13000.00000" pt_clust_9="28.01427"></scales>
<clustering>
<clus scale="   28.014">  2  9  1 -1</clus>
<clus scale="   81.836">  5  6 -1 -1</clus>
<clus scale="   89.360">  7  8 -1 -1</clus>
<clus scale="  114.182">  1  5  2 -1</clus>
<clus scale="   28.014">  2  5  1 -1</clus>
</clustering>
</event>
<event>
 9    2  0.1302972E-004  0.9487360E+02  0.7546771E-02  0.1298865E+00
          2   -1    0    0  502    0 -0.00000000000E+00  0.00000000000E+00  0.26180858796E+03  0.26180858796E+03  0.00000000000E+00 0. -1.
         21   -1    0    0  501  502  0.00000000000E+00 -0.00000000000E+00 -0.64917740473E+02  0.64917740473E+02  0.00000000000E+00 0.  1.
         24    2    1    2    0    0  0.12082308258E+02 -0.18445467086E+02  0.13225283085E+03  0.15648790908E+03  0.80693475526E+02 0.  0.
         23    2    1    2    0    0 -0.31131131152E+02 -0.30911602893E+02  0.54044356713E+02  0.11628284835E+03  0.93146303245E+02 0.  0.
        -13    1    3    3    0    0 -0.77894801583E+01 -0.46273437408E+02  0.56999352667E+02  0.73829758331E+02  0.00000000000E+00 0.  1.
         14    1    3    3    0    0  0.19871788416E+02  0.27827970322E+02  0.75253478185E+02  0.82658150754E+02  0.00000000000E+00 0. -1.
        -13    1    4    4    0    0 -0.86971326281E+01 -0.63116027744E+02  0.33320988876E+02  0.71899661848E+02  0.00000000000E+00 0.  1.
         13    1    4    4    0    0 -0.22433998524E+02  0.32204424851E+02  0.20723367838E+02  0.44383186505E+02  0.00000000000E+00 0. -1.
          1    1    1    2  501    0  0.19048822894E+02  0.49357069979E+02  0.10593659917E+02  0.53955570992E+02  0.00000000000E+00 0. -1.
<scales pt_clust_5="13000.00000" pt_clust_6="13000.00000" pt_clust_7="13000.00000" pt_clust_8="13000.00000" pt_clust_9="52.90537"></scales>
<clustering>
<clus scale="   52.905">  2  9  1 -1</clus>
<clus scale="   80.693">  5  6 -1 -1</clus>
<clus scale="   82.681">  1  5  2 -1</clus>
<clus scale="   93.146">  7  8 -1 -1</clus>
<clus scale="   52.905">  2  5  1 -1</clus>
</clustering>
</event>
<event>
 9    2  0.1302972E-004  0.2516543E+03  0.7546771E-02  0.1147622E+00
          2   -1    0    0  502    0 -0.00000000000E+00  0.00000000000E+00  0.17160591259E+04  0.17160591259E+04  0.00000000000E+00 0. -1.
         21   -1    0    0  501  502  0.00000000000E+00 -0.00000000000E+00 -0.10586903291E+03  0.10586903291E+03  0.00000000000E+00 0. -1.
         23    2    1    2    0    0 -0.41382450899E+02 -0.32371767658E+02  0.23476225726E+02  0.10814900115E+03  0.91567650900E+02 0.  0.
         24    2    1    2    0    0 -0.19367707207E+03  0.94898323935E+02  0.13660225387E+04  0.13853477157E+04  0.81573383805E+02 0.  0.
        -11    1    4    4    0    0 -0.73421511558E+02  0.80515949187E+02  0.60115658882E+03  0.61095235552E+03  0.00000000000E+00 0.  1.
         12    1    4    4    0    0 -0.12025556051E+03  0.14382374748E+02  0.76486594993E+03  0.77439536020E+03  0.00000000000E+00 0. -1.
        -13    1    3    3    0    0 -0.36017848589E+01 -0.56120403731E+02 -0.29023947072E+01  0.56310713582E+02  0.00000000000E+00 0.  1.
         13    1    3    3    0    0 -0.37780666040E+02  0.23748636073E+02  0.26378620433E+02  0.51838287566E+02  0.00000000000E+00 0. -1.
          1    1    1    2  501    0  0.23505952297E+03 -0.62526556277E+02  0.22069132853E+03  0.32843144196E+03  0.00000000000E+00 0. -1.
<scales pt_clust_5="13000.00000" pt_clust_6="13000.00000" pt_clust_7="13000.00000" pt_clust_8="13000.00000" pt_clust_9="238.06657"></scales>
<clustering>
<clus scale="   81.573">  5  6 -1 -1</clus>
<clus scale="   91.568">  7  8 -1 -1</clus>
<clus scale="  105.570">  1  7  2 -1</clus>
<clus scale="  238.067">  2  9  1 -1</clus>
<clus scale="  238.067">  2  5  1 -1</clus>
</clustering>
</event>
<event>
 9    2  0.1302972E-004  0.1786513E+03  0.7546771E-02  0.1197879E+00
          2   -1    0    0  502    0 -0.00000000000E+00  0.00000000000E+00  0.44619986746E+03  0.44619986746E+03  0.00000000000E+00 0. -1.
         21   -1    0    0  501  502  0.00000000000E+00 -0.00000000000E+00 -0.65375724479E+03  0.65375724479E+03  0.00000000000E+00 0. -1.
         23    2    1    2    0    0 -0.82422212381E+01  0.48831903893E+01  0.27640621642E+03  0.29193341255E+03  0.93450206654E+02 0.  0.
         24    2    1    2    0    0 -0.28919409503E+02 -0.15927018376E+03  0.97134605061E+02  0.20561897929E+03  0.81490548295E+02 0.  0.
        -11    1    4    4    0    0  0.25614247826E+02 -0.68354740860E+02  0.55587287239E+02  0.91751876234E+02  0.00000000000E+00 0.  1.
         12    1    4    4    0    0 -0.54533657329E+02 -0.90915442904E+02  0.41547317822E+02  0.11386710306E+03  0.00000000000E+00 0. -1.
        -13    1    3    3    0    0 -0.34270917649E+02  0.35717417806E+02  0.10868364510E+03  0.11942514159E+03  0.00000000000E+00 0.  1.
         13    1    3    3    0    0  0.26028696411E+02 -0.30834227416E+02  0.16772257132E+03  0.17250827096E+03  0.00000000000E+00 0. -1.
          1    1    1    2  501    0  0.37161630741E+02  0.15438699338E+03 -0.58109819881E+03  0.60240472042E+03  0.00000000000E+00 0. -1.
<scales pt_clust_5="13000.00000" pt_clust_6="13000.00000" pt_clust_7="13000.00000" pt_clust_8="13000.00000" pt_clust_9="158.98298"></scales>
<clustering>
<clus scale="   81.491">  5  6 -1 -1</clus>
<clus scale="   93.450">  7  8 -1 -1</clus>
<clus scale="   93.940">  1  7  2 -1</clus>
<clus scale="  158.983">  2  9  1 -1</clus>
<clus scale="  158.983">  2  5  1 -1</clus>
</clustering>
</event>
<event>
 9    2  0.1302972E-004  0.1225279E+03  0.7546771E-02  0.1242859E+00
         -1   -1    0    0    0  501 -0.00000000000E+00  0.00000000000E+00  0.37907027453E+03  0.37907027453E+03  0.00000000000E+00 0.  1.
         21   -1    0    0  501  502  0.00000000000E+00 -0.00000000000E+00 -0.68987472055E+02  0.68987472055E+02  0.00000000000E+00 0.  1.
         24    2    1    2    0    0 -0.71316155157E+01  0.89075569426E+02  0.18301943445E+03  0.21891534804E+03  0.80265180588E+02 0.  0.
         23    2    1    2    0    0  0.61579033724E+02 -0.51669143210E+02  0.97241763441E+02  0.15666419374E+03  0.92876430206E+02 0.  0.
        -11    1    3    3    0    0 -0.35965331770E+02  0.58993864872E+02  0.15200599080E+03  0.16697186117E+03  0.00000000000E+00 0.  1.
         12    1    3    3    0    0  0.28833716255E+02  0.30081704554E+02  0.31013443641E+02  0.51943486872E+02  0.00000000000E+00 0. -1.
        -11    1    4    4    0    0  0.85885143220E+02 -0.42839184659E+02  0.67978682444E+02  0.11761188220E+03  0.00000000000E+00 0.  1.
         11    1    4    4    0    0 -0.24306109496E+02 -0.88299585513E+01  0.29263080998E+02  0.39052311536E+02  0.00000000000E+00 0. -1.
         -2    1    1    2    0  502 -0.54447418208E+02 -0.37406426216E+02  0.29821604589E+02  0.72478204807E+02  0.00000000000E+00 0.  1.
<scales pt_clust_5="13000.00000" pt_clust_6="13000.00000" pt_clust_7="13000.00000" pt_clust_8="13000.00000" pt_clust_9="66.05878"></scales>
<clustering>
<clus scale="   66.059">  2  9  1 -1</clus>
<clus scale="   80.265">  5  6 -1 -1</clus>
<clus scale="   92.876">  7  8 -1 -1</clus>
<clus scale="  113.268">  1  5  2 -1</clus>
<clus scale="   66.059">  2  5  1 -1</clus>
</clustering>
</event>
<event>
 9    2  0.1302972E-004  0.2900942E+03  0.7546771E-02  0.1124453E+00
          2   -1    0    0  502    0 -0.00000000000E+00  0.00000000000E+00  0.12280029870E+04  0.12280029870E+04  0.00000000000E+00 0. -1.
         21   -1    0    0  501  502  0.00000000000E+00 -0.00000000000E+00 -0.10770900039E+03  0.10770900039E+03  0.00000000000E+00 0. -1.
         23    2    1    2    0    0 -0.54737771508E+02 -0.52856523624E+02  0.85900784247E+02  0.14839531431E+03  0.94086071527E+02 0.  0.
         24    2    1    2    0    0  0.23059264755E+03 -0.16325192758E+03  0.42027484049E+03  0.51295092477E+03  0.81630562370E+02 0.  0.
        -13    1    4    4    0    0  0.55402050313E+02 -0.49822841697E+02  0.17927612627E+03  0.19414332897E+03  0.00000000000E+00 0.  1.
         14    1    4    4    0    0  0.17519059724E+03 -0.11342908588E+03  0.24099871422E+03  0.31880759580E+03  0.00000000000E+00 0. -1.
        -11    1    3    3    0    0  0.26034357849E+02 -0.13324152465E+02  0.32864935336E+02  0.43993463176E+02  0.00000000000E+00 0.  1.
         11    1    3    3    0    0 -0.80772129358E+02 -0.39532371158E+02  0.53035848911E+02  0.10440185113E+03  0.00000000000E+00 0. -1.
          1    1    1    2  501    0 -0.17585487604E+03  0.21610845120E+03  0.61411836188E+03  0.67436574832E+03  0.00000000000E+00 0. -1.
<scales pt_clust_5="13000.00000" pt_clust_6="13000.00000" pt_clust_7="13000.00000" pt_clust_8="13000.00000" pt_clust_9="278.37235"></scales>
<clustering>
<clus scale="   81.631">  5  6 -1 -1</clus>
<clus scale="   94.086">  7  8 -1 -1</clus>
<clus scale="  121.005">  1  7  2 -1</clus>
<clus scale="  278.372">  2  9  1 -1</clus>
<clus scale="  278.372">  2  5  1 -1</clus>
</clustering>
</event>
<event>
 9    2  0.1302972E-004  0.1018239E+03  0.7546771E-02  0.1282214E+00
          2   -1    0    0  502    0 -0.00000000000E+00  0.00000000000E+00  0.46558858684E+03  0.46558858684E+03  0.00000000000E+00 0. -1.
         21   -1    0    0  501  502  0.00000000000E+00 -0.00000000000E+00 -0.74627843160E+02  0.74627843160E+02  0.00000000000E+00 0.  1.
         23    2    1    2    0    0  0.37853583132E+02  0.10900443603E+01  0.20486698284E+03  0.22690862679E+03  0.89905296296E+02 0.  0.
         24    2    1    2    0    0 -0.99634297998E+02  0.18728148014E+02  0.13014422792E+02  0.12846712928E+03  0.77824746963E+02 0.  0.
        -11    1    4    4    0    0 -0.47698923266E+02  0.40494137870E+01 -0.32505799551E+02  0.57863736806E+02  0.00000000000E+00 0.  1.
         12    1    4    4    0    0 -0.51935374732E+02  0.14678734227E+02  0.45520222343E+02  0.70603392476E+02  0.00000000000E+00 0. -1.
        -11    1    3    3    0    0  0.48542208325E+02 -0.29703340316E+02  0.82148808264E+02  0.99935284631E+02  0.00000000000E+00 0. -1.
         11    1    3    3    0    0 -0.10688625193E+02  0.30793384676E+02  0.12271817458E+03  0.12697334216E+03  0.00000000000E+00 0.  1.
          1    1    1    2  501    0  0.61780714865E+02 -0.19818192374E+02  0.17307933804E+03  0.18484067392E+03  0.00000000000E+00 0. -1.
<scales pt_clust_5="13000.00000" pt_clust_6="13000.00000" pt_clust_7="13000.00000" pt_clust_8="13000.00000" pt_clust_9="64.88160"></scales>
<clustering>
<clus scale="   64.882">  2  9  1 -1</clus>
<clus scale="   77.825">  5  6 -1 -1</clus>
<clus scale="   89.905">  7  8 -1 -1</clus>
<clus scale="   91.334">  2  5  1 -1</clus>
<clus scale="   64.882">  2  5  1 -1</clus>
</clustering>
</event>
<event>
 9    2  0.1302972E-004  0.1004960E+03  0.7546771E-02  0.1282827E+00
         21   -1    0    0  501  502  0.00000000000E+00  0.00000000000E+00  0.36252085440E+03  0.36252085440E+03  0.00000000000E+00 0.  1.
          4   -1    0    0  502    0 -0.00000000000E+00 -0.00000000000E+00 -0.81395971330E+02  0.81395971330E+02  0.00000000000E+00 0. -1.
         24    2    1    2    0    0  0.13399224134E+01 -0.78475669984E+02  0.11229483213E+03  0.16071953937E+03  0.84026274706E+02 0.  0.
         23    2    1    2    0    0  0.19022495550E+01 -0.77284838490E+01  0.17410819352E+03  0.19677086328E+03  0.91333244606E+02 0.  0.
        -13    1    3    3    0    0  0.41419197611E+02 -0.44595332372E+02  0.73659891922E+02  0.95551416934E+02  0.00000000000E+00 0.  1.
         14    1    3    3    0    0 -0.40079275198E+02 -0.33880337612E+02  0.38634940209E+02  0.65168122438E+02  0.00000000000E+00 0. -1.
        -11    1    4    4    0    0 -0.33259937285E+02 -0.14707498161E+02  0.26830190024E+02  0.45192842653E+02  0.00000000000E+00 0.  1.
         11    1    4    4    0    0  0.35162186840E+02  0.69790143118E+01  0.14727800350E+03  0.15157802063E+03  0.00000000000E+00 0. -1.
          3    1    1    2  501    0 -0.32421719683E+01  0.86204153833E+02 -0.52781425786E+01  0.86426423079E+02  0.00000000000E+00 0. -1.
<scales pt_clust_5="13000.00000" pt_clust_6="13000.00000" pt_clust_7="13000.00000" pt_clust_8="13000.00000" pt_clust_9="86.26515"></scales>
<clustering>
<clus scale="   84.026">  5  6 -1 -1</clus>
<clus scale="   86.265">  1  9  2 -1</clus>
<clus scale="   91.333">  7  8 -1 -1</clus>
<clus scale="   93.905">  2  5  1 -1</clus>
<clus scale="   86.265">  1  5  2 -1</clus>
</clustering>
</event>
<event>
 9    2  0.1302972E-004  0.1499637E+03  0.7546771E-02  0.1204053E+00
          2   -1    0    0  502    0 -0.00000000000E+00  0.00000000000E+00  0.48072263890E+02  0.48072263890E+02  0.00000000000E+00 0. -1.
         21   -1    0    0  501  502  0.00000000000E+00 -0.00000000000E+00 -0.95405238736E+03  0.95405238736E+03  0.00000000000E+00 0. -1.
         23    2    1    2    0    0 -0.11549651588E+03 -0.26612182223E+02 -0.10257987698E+03  0.18488737262E+03  0.98046193036E+02 0.  0.
         24    2    1    2    0    0  0.89788053980E+02  0.17980284300E+02 -0.61835415380E+03  0.63021457654E+03  0.80145915107E+02 0.  0.
        -13    1    4    4    0    0  0.10353636436E+03  0.18917827917E+02 -0.57970842501E+03  0.58918547248E+03  0.00000000000E+00 0.  1.
         14    1    4    4    0    0 -0.13748310383E+02 -0.93754361732E+00 -0.38645728791E+02  0.41029104063E+02  0.00000000000E+00 0. -1.
        -13    1    3    3    0    0 -0.22613005199E+02 -0.27402485571E+02  0.11896421047E+02  0.37466906108E+02  0.00000000000E+00 0. -1.
         13    1    3    3    0    0 -0.92883510685E+02  0.79030334763E+00 -0.11447629803E+03  0.14742046651E+03  0.00000000000E+00 0.  1.
          1    1    1    2  501    0  0.25708461903E+02  0.86318979235E+01 -0.18504609269E+03  0.18702270209E+03  0.00000000000E+00 0. -1.
<scales pt_clust_5="13000.00000" pt_clust_6="13000.00000" pt_clust_7="13000.00000" pt_clust_8="13000.00000" pt_clust_9="27.11890"></scales>
<clustering>
<clus scale="   27.119">  2  9  1 -1</clus>
<clus scale="   80.146">  5  6 -1 -1</clus>
<clus scale="   98.046">  7  8 -1 -1</clus>
<clus scale="  138.922">  2  5  1 -1</clus>
<clus scale="   27.119">  2  5  1 -1</clus>
</clustering>
</event>
<event>
 9    2  0.1302972E-004  0.1386646E+03  0.7546771E-02  0.1217549E+00
          2   -1    0    0  502    0 -0.00000000000E+00  0.00000000000E+00  0.19176808666E+03  0.19176808666E+03  0.00000000000E+00 0. -1.
         21   -1    0    0  501  502  0.00000000000E+00 -0.00000000000E+00 -0.32399919237E+03  0.32399919237E+03  0.00000000000E+00 0. -1.
         24    2    1    2    0    0  0.10967689514E+03  0.40547138710E+02  0.97096317448E+02  0.17170159130E+03  0.79878969746E+02 0.  0.
         23    2    1    2    0    0 -0.63778165149E+02  0.66182592480E+02 -0.17027155604E+03  0.21373716294E+03  0.90793073113E+02 0.  0.
        -13    1    3    3    0    0  0.10368142387E+03  0.31204730014E+02  0.43038208900E+02  0.11651549363E+03  0.00000000000E+00 0.  1.
         14    1    3    3    0    0  0.59954712709E+01  0.93424086952E+01  0.54058108548E+02  0.55186097667E+02  0.00000000000E+00 0. -1.
        -11    1    4    4    0    0 -0.61897955607E+02  0.19625865633E+02 -0.42174049988E+02  0.77428560638E+02  0.00000000000E+00 0.  1.
         11    1    4    4    0    0 -0.18802095419E+01  0.46556726846E+02 -0.12809750606E+03  0.13630860230E+03  0.00000000000E+00 0. -1.
          1    1    1    2  501    0 -0.45898729995E+02 -0.10672973119E+03 -0.59055867115E+02  0.13032852480E+03  0.00000000000E+00 0. -1.
<scales pt_clust_5="13000.00000" pt_clust_6="13000.00000" pt_clust_7="13000.00000" pt_clust_8="13000.00000" pt_clust_9="116.18059"></scales>
<clustering>
<clus scale="   79.879">  5  6 -1 -1</clus>
<clus scale="   90.793">  7  8 -1 -1</clus>
<clus scale="  116.181">  2  9  1 -1</clus>
<clus scale="  131.777">  1  5  2 -1</clus>
<clus scale="  116.181">  2  5  1 -1</clus>
</clustering>
</event>
<event>
 9    2  0.1302972E-004  0.8633588E+02  0.7546771E-02  0.1315426E+00
         21   -1    0    0  501  502  0.00000000000E+00  0.00000000000E+00  0.14524279391E+03  0.14524279391E+03  0.00000000000E+00 0.  1.
          2   -1    0    0  502    0 -0.00000000000E+00 -0.00000000000E+00 -0.82913564610E+02  0.82913564610E+02  0.00000000000E+00 0. -1.
         23    2    1    2    0    0  0.88800550151E+01  0.18173764622E+02  0.12003815479E+02  0.89066301464E+02  0.85904443265E+02 0.  0.
         24    2    1    2    0    0 -0.55179464428E+01  0.18213446232E+02  0.58748481460E+02  0.10158964430E+03  0.80665323401E+02 0.  0.
        -13    1    4    4    0    0 -0.39450770075E+02 -0.73873871935E+01  0.32369134823E+02  0.51562560432E+02  0.00000000000E+00 0.  1.
         14    1    4    4    0    0  0.33932823633E+02  0.25600833425E+02  0.26379346636E+02  0.50027083872E+02  0.00000000000E+00 0. -1.
        -13    1    3    3    0    0  0.32970486398E+02 -0.18063199622E+02  0.23146217510E+02  0.44148380932E+02  0.00000000000E+00 0. -1.
         13    1    3    3    0    0 -0.24090431383E+02  0.36236964244E+02 -0.11142402031E+02  0.44917920532E+02  0.00000000000E+00 0.  1.
          1    1    1    2  501    0 -0.33621085724E+01 -0.36387210854E+02 -0.84230676431E+01  0.37500412748E+02  0.00000000000E+00 0. -1.
<scales pt_clust_5="13000.00000" pt_clust_6="13000.00000" pt_clust_7="13000.00000" pt_clust_8="13000.00000" pt_clust_9="36.54223"></scales>
<clustering>
<clus scale="   36.542">  1  9  2 -1</clus>
<clus scale="   80.665">  5  6 -1 -1</clus>
<clus scale="   81.125">  1  5  2 -1</clus>
<clus scale="   85.904">  7  8 -1 -1</clus>
<clus scale="   36.542">  1  5  2 -1</clus>
</clustering>
</event>
<event>
 9    2  0.1302972E-004  0.1502128E+03  0.7546771E-02  0.1203981E+00
         21   -1    0    0  501  502  0.00000000000E+00  0.00000000000E+00  0.63566771401E+02  0.63566771401E+02  0.00000000000E+00 0. -1.
          2   -1    0    0  502    0 -0.00000000000E+00 -0.00000000000E+00 -0.47290137579E+03  0.47290137579E+03  0.00000000000E+00 0. -1.
         23    2    1    2    0    0  0.99910227528E+02 -0.67683989107E+02 -0.29716321529E+03  0.33544254234E+03  0.98247375248E+02 0.  0.
         24    2    1    2    0    0 -0.98892714428E+02  0.32697746168E+02 -0.97234407552E+02  0.16297056648E+03  0.79094651878E+02 0.  0.
        -11    1    4    4    0    0 -0.26919461812E+02  0.48142058010E+02 -0.55975054772E+02  0.78584489121E+02  0.00000000000E+00 0.  1.
         12    1    4    4    0    0 -0.71973252616E+02 -0.15444311842E+02 -0.41259352780E+02  0.84386077360E+02  0.00000000000E+00 0. -1.
        -11    1    3    3    0    0  0.54614282714E+02 -0.82587000133E+02 -0.24761073581E+03  0.26667285006E+03  0.00000000000E+00 0. -1.
         11    1    3    3    0    0  0.45295944814E+02  0.14903011026E+02 -0.49552479474E+02  0.68769692279E+02  0.00000000000E+00 0.  1.
          1    1    1    2  501    0 -0.10175130992E+01  0.34986242939E+02 -0.14936981551E+02  0.38055038375E+02  0.00000000000E+00 0. -1.
<scales pt_clust_5="13000.00000" pt_clust_6="13000.00000" pt_clust_7="13000.00000" pt_clust_8="13000.00000" pt_clust_9="35.00104"></scales>
<clustering>
<clus scale="   35.001">  1  9  2 -1</clus>
<clus scale="   79.095">  5  6 -1 -1</clus>
<clus scale="   98.247">  7  8 -1 -1</clus>
<clus scale="  138.446">  1  5  2 -1</clus>
<clus scale="   35.001">  1  5  2 -1</clus>
</clustering>
</event>
<event>
 9    2  0.1302972E-004  0.1043371E+03  0.7546771E-02  0.1274047E+00
         -3   -1    0    0    0  501 -0.00000000000E+00  0.00000000000E+00  0.84405988466E+02  0.84405988466E+02  0.00000000000E+00 0.  1.
         21   -1    0    0  501  502  0.00000000000E+00 -0.00000000000E+00 -0.22187931078E+03  0.22187931078E+03  0.00000000000E+00 0. -1.
         23    2    1    2    0    0  0.49923695844E+02 -0.15377372174E+01 -0.13266591875E+02  0.10197107167E+03  0.87905386377E+02 0.  0.
         24    2    1    2    0    0 -0.62894987484E+02 -0.18202095372E+02 -0.32583084537E+02  0.10969494896E+03  0.81757132435E+02 0.  0.
        -11    1    4    4    0    0 -0.69658125184E+02  0.13164303892E+02 -0.12910440470E+02  0.72057149362E+02  0.00000000000E+00 0.  1.
         12    1    4    4    0    0  0.67631376999E+01 -0.31366399264E+02 -0.19672644068E+02  0.37637799603E+02  0.00000000000E+00 0. -1.
        -11    1    3    3    0    0 -0.83537227041E+01  0.32490516844E+02 -0.62264117095E+01  0.34120178349E+02  0.00000000000E+00 0.  1.
         11    1    3    3    0    0  0.58277418548E+02 -0.34028254061E+02 -0.70401801650E+01  0.67850893317E+02  0.00000000000E+00 0. -1.
         -4    1    1    2    0  502  0.12971291639E+02  0.19739832589E+02 -0.91623645907E+02  0.94619278621E+02  0.00000000000E+00 0.  1.
<scales pt_clust_5="13000.00000" pt_clust_6="13000.00000" pt_clust_7="13000.00000" pt_clust_8="13000.00000" pt_clust_9="23.62023"></scales>
<clustering>
<clus scale="   23.620">  2  9  1 -1</clus>
<clus scale="   81.757">  5  6 -1 -1</clus>
<clus scale="   87.905">  7  8 -1 -1</clus>
<clus scale="   99.212">  2  5  1 -1</clus>
<clus scale="   23.620">  2  5  1 -1</clus>
</clustering>
</event>
<event>
 9    2  0.1302972E-004  0.1473370E+03  0.7546771E-02  0.1227917E+00
         21   -1    0    0  501  502  0.00000000000E+00  0.00000000000E+00  0.40720848810E+03  0.40720848810E+03  0.00000000000E+00 0. -1.
          2   -1    0    0  502    0 -0.00000000000E+00 -0.00000000000E+00 -0.27940379670E+03  0.27940379670E+03  0.00000000000E+00 0. -1.
         23    2    1    2    0    0  0.11830140120E+02 -0.27830778554E+02  0.10180656744E+03  0.13486157386E+03  0.83117762718E+02 0.  0.
         24    2    1    2    0    0 -0.13521907808E+03  0.42193702442E+02 -0.22186073969E+03  0.27450508000E+03  0.77886735247E+02 0.  0.
        -13    1    4    4    0    0 -0.75813562189E+01  0.20698072233E+02 -0.77688029441E+02  0.80754672154E+02  0.00000000000E+00 0.  1.
         14    1    4    4    0    0 -0.12763772186E+03  0.21495630209E+02 -0.14417271025E+03  0.19375040784E+03  0.00000000000E+00 0. -1.
        -11    1    3    3    0    0 -0.62022985989E+01 -0.55239008927E+02  0.61733082566E+02  0.83070994326E+02  0.00000000000E+00 0. -1.
         11    1    3    3    0    0  0.18032438719E+02  0.27408230373E+02  0.40073484872E+02  0.51790579531E+02  0.00000000000E+00 0.  1.
          1    1    1    2  501    0  0.12338893796E+03 -0.14362923887E+02  0.24785886365E+03  0.27724563095E+03  0.00000000000E+00 0. -1.
<scales pt_clust_5="13000.00000" pt_clust_6="13000.00000" pt_clust_7="13000.00000" pt_clust_8="13000.00000" pt_clust_9="125.06737"></scales>
<clustering>
<clus scale="   77.887">  5  6 -1 -1</clus>
<clus scale="   83.118">  7  8 -1 -1</clus>
<clus scale="   88.448">  2  7  1 -1</clus>
<clus scale="  125.067">  1  9  2 -1</clus>
<clus scale="  125.067">  1  5  2 -1</clus>
</clustering>
</event>
<event>
 9    2  0.1302972E-004  0.1713769E+03  0.7546771E-02  0.1178115E+00
         -1   -1    0    0    0  501 -0.00000000000E+00  0.00000000000E+00  0.53496268728E+03  0.53496268728E+03  0.00000000000E+00 0.  1.
         21   -1    0    0  501  502  0.00000000000E+00 -0.00000000000E+00 -0.29766794689E+03  0.29766794689E+03  0.00000000000E+00 0.  1.
         23    2    1    2    0    0 -0.31907480769E+02 -0.14127526106E+03  0.45099457606E+03  0.48248975820E+03  0.91779477085E+02 0.  0.
         24    2    1    2    0    0 -0.53488655408E+02  0.15717629866E+03 -0.17888219883E+03  0.25655876814E+03  0.79108377125E+02 0.  0.
        -13    1    4    4    0    0 -0.35571926142E+02  0.16110530721E+03 -0.15436830945E+03  0.22594215389E+03  0.00000000000E+00 0.  1.
         14    1    4    4    0    0 -0.17916729266E+02 -0.39290085454E+01 -0.24513889376E+02  0.30616614249E+02  0.00000000000E+00 0. -1.
        -13    1    3    3    0    0 -0.44921812544E+02 -0.99652668418E+02  0.40335358392E+03  0.41790278442E+03  0.00000000000E+00 0.  1.
         13    1    3    3    0    0  0.13014331775E+02 -0.41622592637E+02  0.47640992135E+02  0.64586973772E+02  0.00000000000E+00 0. -1.
         -2    1    1    2    0  502  0.85396136176E+02 -0.15901037610E+02 -0.34817636845E+02  0.93582107832E+02  0.00000000000E+00 0.  1.
<scales pt_clust_5="13000.00000" pt_clust_6="13000.00000" pt_clust_7="13000.00000" pt_clust_8="13000.00000" pt_clust_9="86.86393"></scales>
<clustering>
<clus scale="   79.108">  5  6 -1 -1</clus>
<clus scale="   86.864">  2  9  1 -1</clus>
<clus scale="   91.779">  7  8 -1 -1</clus>
<clus scale="  164.939">  2  5  1 -1</clus>
<clus scale="   86.864">  2  5  1 -1</clus>
</clustering>
</event>
<event>
 9    2  0.1302972E-004  0.2038761E+03  0.7546771E-02  0.1181232E+00
         21   -1    0    0  501  502  0.00000000000E+00  0.00000000000E+00  0.90260568914E+02  0.90260568914E+02  0.00000000000E+00 0. -1.
          2   -1    0    0  502    0 -0.00000000000E+00 -0.00000000000E+00 -0.71135243930E+03  0.71135243930E+03  0.00000000000E+00 0. -1.
         24    2    1    2    0    0  0.21113889562E+02  0.34055880647E+02 -0.13843077127E+03  0.16584613822E+03  0.82074745131E+02 0.  0.
         23    2    1    2    0    0 -0.19253219771E+03 -0.17742759956E+02 -0.14386356298E+03  0.25572197164E+03  0.85519292197E+02 0.  0.
        -13    1    3    3    0    0 -0.98844632627E+01 -0.22992520994E+02 -0.26516165075E+02  0.36461838214E+02  0.00000000000E+00 0.  1.
         14    1    3    3    0    0  0.30998352824E+02  0.57048401641E+02 -0.11191460619E+03  0.12938430000E+03  0.00000000000E+00 0. -1.
        -13    1    4    4    0    0 -0.14866134995E+03 -0.13829251505E+02 -0.14953822963E+03  0.21131286588E+03  0.00000000000E+00 0. -1.
         13    1    4    4    0    0 -0.43870847763E+02 -0.39135084512E+01  0.56746666593E+01  0.44409105751E+02  0.00000000000E+00 0.  1.
          1    1    1    2  501    0  0.17141830815E+03 -0.16313120690E+02 -0.33879753614E+03  0.38004489837E+03  0.00000000000E+00 0. -1.
<scales pt_clust_5="13000.00000" pt_clust_6="13000.00000" pt_clust_7="13000.00000" pt_clust_8="13000.00000" pt_clust_9="185.07284"></scales>
<clustering>
<clus scale="   82.075">  5  6 -1 -1</clus>
<clus scale="   85.519">  7  8 -1 -1</clus>
<clus scale="   91.334">  2  5  1 -1</clus>
<clus scale="  185.073">  1  9  2 -1</clus>
<clus scale="  185.073">  1  5  2 -1</clus>
</clustering>
</event>
<event>
 9    2  0.1302972E-004  0.9783465E+02  0.7546771E-02  0.1290305E+00
          2   -1    0    0  502    0 -0.00000000000E+00  0.00000000000E+00  0.41766636699E+03  0.41766636699E+03  0.00000000000E+00 0. -1.
         21   -1    0    0  501  502  0.00000000000E+00 -0.00000000000E+00 -0.13076345972E+03  0.13076345972E+03  0.00000000000E+00 0. -1.
         24    2    1    2    0    0  0.54419165871E+00 -0.33250796078E+02  0.33849857987E+03  0.34995173696E+03  0.82334792412E+02 0.  0.
         23    2    1    2    0    0 -0.23658593580E+02  0.24403736644E+02  0.38007661184E+02  0.10551947821E+03  0.92382393133E+02 0.  0.
        -13    1    3    3    0    0  0.53956639704E+01 -0.49049137779E+02  0.10662182477E+03  0.11748678489E+03  0.00000000000E+00 0.  1.
         14    1    3    3    0    0 -0.48514723117E+01  0.15798341701E+02  0.23187675510E+03  0.23246495207E+03  0.00000000000E+00 0. -1.
        -13    1    4    4    0    0 -0.16239897301E+02  0.45660065613E+02  0.57880220524E+02  0.75489706477E+02  0.00000000000E+00 0.  1.
         13    1    4    4    0    0 -0.74186962797E+01 -0.21256328969E+02 -0.19872559339E+02  0.30029771735E+02  0.00000000000E+00 0. -1.
          1    1    1    2  501    0  0.23114401922E+02  0.88470594347E+01 -0.89603333779E+02  0.92958611550E+02  0.00000000000E+00 0. -1.
<scales pt_clust_5="13000.00000" pt_clust_6="13000.00000" pt_clust_7="13000.00000" pt_clust_8="13000.00000" pt_clust_9="24.74967"></scales>
<clustering>
<clus scale="   24.750">  2  9  1 -1</clus>
<clus scale="   82.335">  5  6 -1 -1</clus>
<clus scale="   88.409">  1  5  2 -1</clus>
<clus scale="   92.382">  7  8 -1 -1</clus>
<clus scale="   24.750">  2  5  1 -1</clus>
</clustering>
</event>
<event>
 9    2  0.1302972E-004  0.1833693E+03  0.7546771E-02  0.1181662E+00
          2   -1    0    0  502    0 -0.00000000000E+00  0.00000000000E+00  0.13382530212E+04  0.13382530212E+04  0.00000000000E+00 0. -1.
         21   -1    0    0  501  502  0.00000000000E+00 -0.00000000000E+00 -0.46879930841E+02  0.46879930841E+02  0.00000000000E+00 0. -1.
         23    2    1    2    0    0 -0.64503589051E+02  0.47593099199E+02  0.27695322751E+03  0.30357858179E+03  0.95031831518E+02 0.  0.
         24    2    1    2    0    0 -0.60042594242E+02 -0.13802670213E+03  0.77700197442E+03  0.79861048526E+03  0.10672467049E+03 0.  0.
        -11    1    4    4    0    0 -0.55794889772E+02 -0.12318399905E+02  0.19654286920E+03  0.20468002378E+03  0.00000000000E+00 0.  1.
         12    1    4    4    0    0 -0.42477044695E+01 -0.12570830222E+03  0.58045910522E+03  0.59393046148E+03  0.00000000000E+00 0. -1.
        -13    1    3    3    0    0  0.20806515545E+02  0.30809440299E+02  0.75185041164E+02  0.83874448525E+02  0.00000000000E+00 0.  1.
         13    1    3    3    0    0 -0.85310104596E+02  0.16783658900E+02  0.20176818635E+03  0.21970413327E+03  0.00000000000E+00 0. -1.
          1    1    1    2  501    0  0.12454618329E+03  0.90433602930E+02  0.23741788846E+03  0.28294388503E+03  0.00000000000E+00 0. -1.
<scales pt_clust_5="13000.00000" pt_clust_6="13000.00000" pt_clust_7="13000.00000" pt_clust_8="13000.00000" pt_clust_9="149.11120"></scales>
<clustering>
<clus scale="   95.032">  7  8 -1 -1</clus>
<clus scale="  106.725">  5  6 -1 -1</clus>
<clus scale="  124.326">  1  7  2 -1</clus>
<clus scale="  149.111">  2  9  1 -1</clus>
<clus scale="  149.111">  2  5  1 -1</clus>
</clustering>
</event>
<event>
 9    2  0.1302972E-004  0.3145013E+03  0.7546771E-02  0.1109787E+00
         21   -1    0    0  501  502  0.00000000000E+00  0.00000000000E+00  0.69800334154E+03  0.69800334154E+03  0.00000000000E+00 0.  1.
          4   -1    0    0  502    0 -0.00000000000E+00 -0.00000000000E+00 -0.21935812544E+03  0.21935812544E+03  0.00000000000E+00 0. -1.
         23    2    1    2    0    0  0.10092510328E+03  0.21440362118E+02  0.14777009455E+03  0.20171686510E+03  0.90598715343E+02 0.  0.
         24    2    1    2    0    0  0.13106155407E+03 -0.24951524979E+03  0.77605268280E+02  0.30335637485E+03  0.81040247203E+02 0.  0.
        -11    1    4    4    0    0  0.12584612489E+03 -0.23630760799E+03  0.50062945356E+02  0.27236892489E+03  0.00000000000E+00 0.  1.
         12    1    4    4    0    0  0.52154291713E+01 -0.13207641797E+02  0.27542322925E+02  0.30987449966E+02  0.00000000000E+00 0. -1.
        -13    1    3    3    0    0  0.63180857979E+02  0.47869543150E+02  0.13014314129E+03  0.15238290981E+03  0.00000000000E+00 0. -1.
         13    1    3    3    0    0  0.37744245298E+02 -0.26429181032E+02  0.17626953256E+02  0.49333955286E+02  0.00000000000E+00 0.  1.
          3    1    1    2  501    0 -0.23198665734E+03  0.22807488767E+03  0.25326985327E+03  0.41228822703E+03  0.00000000000E+00 0. -1.
<scales pt_clust_5="13000.00000" pt_clust_6="13000.00000" pt_clust_7="13000.00000" pt_clust_8="13000.00000" pt_clust_9="303.88086"></scales>
<clustering>
<clus scale="   81.040">  5  6 -1 -1</clus>
<clus scale="   90.599">  7  8 -1 -1</clus>
<clus scale="  137.309">  2  7  1 -1</clus>
<clus scale="  303.881">  1  9  2 -1</clus>
<clus scale="  303.881">  1  5  2 -1</clus>
</clustering>
</event>
<event>
 9    2  0.1302972E-004  0.9579744E+02  0.7546771E-02  0.1296257E+00
         21   -1    0    0  501  502  0.00000000000E+00  0.00000000000E+00  0.42695627778E+02  0.42695627778E+02  0.00000000000E+00 0. -1.
          2   -1    0    0  502    0 -0.00000000000E+00 -0.00000000000E+00 -0.15193303367E+04  0.15193303367E+04  0.00000000000E+00 0. -1.
         24    2    1    2    0    0  0.83370687212E-01 -0.27453554010E+02 -0.12489688635E+04  0.12517956026E+04  0.79468888235E+02 0.  0.
         23    2    1    2    0    0 -0.21298772606E+02  0.31043998018E+02 -0.25609662300E+03  0.27457515643E+03  0.91589675668E+02 0.  0.
        -13    1    3    3    0    0 -0.29674896547E+01 -0.33487663372E+02 -0.20006835950E+03  0.20287330546E+03  0.00000000000E+00 0.  1.
         14    1    3    3    0    0  0.30508603419E+01  0.60341093627E+01 -0.10489005039E+04  0.10489222971E+04  0.00000000000E+00 0. -1.
        -13    1    4    4    0    0  0.27657935225E+02 -0.13535766666E+02 -0.57416759586E+02  0.65152610397E+02  0.00000000000E+00 0. -1.
         13    1    4    4    0    0 -0.48956707831E+02  0.44579764684E+02 -0.19867986341E+03  0.20942254603E+03  0.00000000000E+00 0.  1.
          1    1    1    2  501    0  0.21215401919E+02 -0.35904440083E+01  0.28430777522E+02  0.35655205472E+02  0.00000000000E+00 0. -1.
<scales pt_clust_5="13000.00000" pt_clust_6="13000.00000" pt_clust_7="13000.00000" pt_clust_8="13000.00000" pt_clust_9="21.51708"></scales>
<clustering>
<clus scale="   21.517">  1  9  2 -1</clus>
<clus scale="   79.469">  5  6 -1 -1</clus>
<clus scale="   84.284">  2  5  1 -1</clus>
<clus scale="   91.590">  7  8 -1 -1</clus>
<clus scale="   21.517">  1  5  2 -1</clus>
</clustering>
</event>
<event>
 9    2  0.1302972E-004  0.9163752E+02  0.7546771E-02  0.1303794E+00
         21   -1    0    0  501  502  0.00000000000E+00  0.00000000000E+00  0.43783975066E+02  0.43783975066E+02  0.00000000000E+00 0.  1.
          2   -1    0    0  502    0 -0.00000000000E+00 -0.00000000000E+00 -0.44523000372E+03  0.44523000372E+03  0.00000000000E+00 0. -1.
         24    2    1    2    0    0  0.13584339170E+02  0.13109006518E+02 -0.29635278164E+03  0.30770509009E+03  0.80629219013E+02 0.  0.
         23    2    1    2    0    0 -0.11724903724E+02 -0.49943995546E+02 -0.47641705367E+02  0.11303771210E+03  0.88746358838E+02 0.  0.
        -13    1    3    3    0    0 -0.19685072910E+02  0.21714753242E+02 -0.43038906140E+02  0.52070913624E+02  0.00000000000E+00 0.  1.
         14    1    3    3    0    0  0.33269412080E+02 -0.86057467242E+01 -0.25331387549E+03  0.25563417646E+03  0.00000000000E+00 0. -1.
        -13    1    4    4    0    0 -0.42603695517E+02 -0.47697757766E+02 -0.10709044618E+02  0.64844696037E+02  0.00000000000E+00 0.  1.
         13    1    4    4    0    0  0.30878791793E+02 -0.22462377809E+01 -0.36932660749E+02  0.48193016058E+02  0.00000000000E+00 0. -1.
          1    1    1    2  501    0 -0.18594354465E+01  0.36834989029E+02 -0.57451541651E+02  0.68271176605E+02  0.00000000000E+00 0. -1.
<scales pt_clust_5="13000.00000" pt_clust_6="13000.00000" pt_clust_7="13000.00000" pt_clust_8="13000.00000" pt_clust_9="36.88191"></scales>
<clustering>
<clus scale="   36.882">  1  9  2 -1</clus>
<clus scale="   80.629">  5  6 -1 -1</clus>
<clus scale="   83.801">  2  5  1 -1</clus>
<clus scale="   88.746">  7  8 -1 -1</clus>
<clus scale="   36.882">  1  5  2 -1</clus>
</clustering>
</event>
<event>
 9    2  0.1302972E-004  0.1623805E+03  0.7546771E-02  0.1187971E+00
         -3   -1    0    0    0  501 -0.00000000000E+00  0.00000000000E+00  0.99080848028E+02  0.99080848028E+02  0.00000000000E+00 0.  1.
         21   -1    0    0  501  502  0.00000000000E+00 -0.00000000000E+00 -0.59597460477E+03  0.59597460477E+03  0.00000000000E+00 0. -1.
         24    2    1    2    0    0  0.14039603732E+03  0.83315463526E+02 -0.61224533169E+02  0.19157561691E+03  0.79374175744E+02 0.  0.
         23    2    1    2    0    0 -0.21734602863E+02 -0.78885363475E+02 -0.29318359280E+03  0.31800122043E+03  0.92048159032E+02 0.  0.
        -11    1    3    3    0    0  0.10855585204E+03  0.94604939034E+02 -0.64208582528E+02  0.15766169342E+03  0.00000000000E+00 0.  1.
         12    1    3    3    0    0  0.31840185279E+02 -0.11289475509E+02  0.29840493586E+01  0.33913923489E+02  0.00000000000E+00 0. -1.
        -11    1    4    4    0    0 -0.22786500194E+02 -0.21133736945E+02 -0.16176875569E+02  0.35036420073E+02  0.00000000000E+00 0.  1.
         11    1    4    4    0    0  0.10518973314E+01 -0.57751626530E+02 -0.27700671723E+03  0.28296480036E+03  0.00000000000E+00 0. -1.
         -4    1    1    2    0  502 -0.11866143445E+03 -0.44301000512E+01 -0.14248563078E+03  0.18547861546E+03  0.00000000000E+00 0.  1.
<scales pt_clust_5="13000.00000" pt_clust_6="13000.00000" pt_clust_7="13000.00000" pt_clust_8="13000.00000" pt_clust_9="118.74410"></scales>
<clustering>
<clus scale="   79.374">  5  6 -1 -1</clus>
<clus scale="   92.048">  7  8 -1 -1</clus>
<clus scale="  118.744">  2  9  1 -1</clus>
<clus scale="  155.547">  1  5  2 -1</clus>
<clus scale="  118.744">  2  5  1 -1</clus>
</clustering>
</event>
<event>
 9    2  0.1302972E-004  0.1921919E+03  0.7546771E-02  0.1157791E+00
         21   -1    0    0  501  502  0.00000000000E+00  0.00000000000E+00  0.17321570779E+03  0.17321570779E+03  0.00000000000E+00 0.  1.
          2   -1    0    0  502    0 -0.00000000000E+00 -0.00000000000E+00 -0.50583141494E+03  0.50583141494E+03  0.00000000000E+00 0. -1.
         23    2    1    2    0    0 -0.16177967546E+03  0.16130364433E+02 -0.15180813768E+03  0.24037962506E+03  0.91125196455E+02 0.  0.
         24    2    1    2    0    0  0.13189575917E+03 -0.15634838586E+03 -0.19673452786E+03  0.29441837293E+03  0.78335144240E+02 0.  0.
        -13    1    4    4    0    0  0.14167086263E+03 -0.14239154573E+03 -0.18863239627E+03  0.27555066056E+03  0.00000000000E+00 0.  1.
         14    1    4    4    0    0 -0.97751034574E+01 -0.13956840127E+02 -0.81021315848E+01  0.18867712372E+02  0.00000000000E+00 0. -1.
        -13    1    3    3    0    0 -0.63592778877E+02  0.25774289758E+02 -0.11723176615E+03  0.13583682318E+03  0.00000000000E+00 0. -1.
         13    1    3    3    0    0 -0.98186896582E+02 -0.96439253244E+01 -0.34576371531E+02  0.10454280188E+03  0.00000000000E+00 0.  1.
          1    1    1    2  501    0  0.29883916291E+02  0.14021802142E+03  0.15926958378E+02  0.14424912474E+03  0.00000000000E+00 0. -1.
<scales pt_clust_5="13000.00000" pt_clust_6="13000.00000" pt_clust_7="13000.00000" pt_clust_8="13000.00000" pt_clust_9="143.36716"></scales>
<clustering>
<clus scale="   78.335">  5  6 -1 -1</clus>
<clus scale="   91.125">  7  8 -1 -1</clus>
<clus scale="  143.367">  1  9  2 -1</clus>
<clus scale="  186.468">  1  5  2 -1</clus>
<clus scale="  143.367">  1  5  2 -1</clus>
</clustering>
</event>
<event>
 9    2  0.1302972E-004  0.1390930E+03  0.7546771E-02  0.1216957E+00
         -1   -1    0    0    0  501 -0.00000000000E+00  0.00000000000E+00  0.39702509080E+03  0.39702509080E+03  0.00000000000E+00 0.  1.
         21   -1    0    0  501  502  0.00000000000E+00 -0.00000000000E+00 -0.69384249399E+02  0.69384249399E+02  0.00000000000E+00 0.  1.
         24    2    1    2    0    0  0.11324214769E+03 -0.45414768654E+02  0.15200101868E+03  0.21192096969E+03  0.83185951280E+02 0.  0.
         23    2    1    2    0    0 -0.71519852706E+02  0.36653487855E+02  0.73239567616E+02  0.14356802888E+03  0.93750611463E+02 0.  0.
        -11    1    3    3    0    0  0.94884111469E+02 -0.53479613093E+02  0.15716348529E+03  0.19121564981E+03  0.00000000000E+00 0.  1.
         12    1    3    3    0    0  0.18358036221E+02  0.80648444398E+01 -0.51624666101E+01  0.20705319877E+02  0.00000000000E+00 0. -1.
        -13    1    4    4    0    0 -0.28135272790E+02  0.65308742927E+02  0.47807251016E+02  0.85687564602E+02  0.00000000000E+00 0.  1.
         13    1    4    4    0    0 -0.43384579917E+02 -0.28655255072E+02  0.25432316600E+02  0.57880464281E+02  0.00000000000E+00 0. -1.
         -2    1    1    2    0  502 -0.41722294984E+02  0.87612807985E+01  0.10240025510E+03  0.11092034162E+03  0.00000000000E+00 0.  1.
<scales pt_clust_5="13000.00000" pt_clust_6="13000.00000" pt_clust_7="13000.00000" pt_clust_8="13000.00000" pt_clust_9="42.63229"></scales>
<clustering>
<clus scale="   42.632">  2  9  1 -1</clus>
<clus scale="   83.186">  5  6 -1 -1</clus>
<clus scale="   93.751">  7  8 -1 -1</clus>
<clus scale="  132.203">  1  5  2 -1</clus>
<clus scale="   42.632">  2  5  1 -1</clus>
</clustering>
</event>
<event>
 9    2  0.1302972E-004  0.2128586E+03  0.7546771E-02  0.1155196E+00
         21   -1    0    0  501  502  0.00000000000E+00  0.00000000000E+00  0.86578392055E+02  0.86578392055E+02  0.00000000000E+00 0. -1.
          2   -1    0    0  502    0 -0.00000000000E+00 -0.00000000000E+00 -0.13842310418E+04  0.13842310418E+04  0.00000000000E+00 0. -1.
         24    2    1    2    0    0 -0.12159356607E+03  0.14595741989E+02 -0.25958182296E+03  0.29775479585E+03  0.79228559565E+02 0.  0.
         23    2    1    2    0    0  0.27725891828E+03  0.68137566038E+02 -0.90197415848E+03  0.95034674577E+03  0.89923962149E+02 0.  0.
        -13    1    3    3    0    0 -0.11218706511E+03  0.39387807005E+02 -0.20277419011E+03  0.23506320233E+03  0.00000000000E+00 0.  1.
         14    1    3    3    0    0 -0.94065009641E+01 -0.24792065016E+02 -0.56807632850E+02  0.62691593521E+02  0.00000000000E+00 0. -1.
        -11    1    4    4    0    0  0.30501913639E+02 -0.16501795270E+02 -0.65168429592E+02  0.73821407453E+02  0.00000000000E+00 0.  1.
         11    1    4    4    0    0  0.24675700464E+03  0.84639361308E+02 -0.83680572889E+03  0.87652533832E+03  0.00000000000E+00 0. -1.
          1    1    1    2  501    0 -0.15566535221E+03 -0.82733308027E+02 -0.13609666832E+03  0.22270789224E+03  0.00000000000E+00 0. -1.
<scales pt_clust_5="13000.00000" pt_clust_6="13000.00000" pt_clust_7="13000.00000" pt_clust_8="13000.00000" pt_clust_9="192.93129"></scales>
<clustering>
<clus scale="   79.229">  5  6 -1 -1</clus>
<clus scale="   89.924">  7  8 -1 -1</clus>
<clus scale="  145.860">  2  5  1 -1</clus>
<clus scale="  192.931">  1  9  2 -1</clus>
<clus scale="  192.931">  1  5  2 -1</clus>
</clustering>
</event>
<event>
 9    2  0.1302972E-004  0.1088971E+03  0.7546771E-02  0.1273714E+00
         21   -1    0    0  501  502  0.00000000000E+00  0.00000000000E+00  0.19195234265E+02  0.19195234265E+02  0.00000000000E+00 0.  1.
          4   -1    0    0  502    0 -0.00000000000E+00 -0.00000000000E+00 -0.13627500719E+04  0.13627500719E+04  0.00000000000E+00 0. -1.
         24    2    1    2    0    0  0.27740899345E+02  0.29901203973E+02 -0.50532064485E+03  0.51289562210E+03  0.77777410346E+02 0.  0.
         23    2    1    2    0    0  0.23090408765E+02  0.44580059672E+02 -0.20770374277E+03  0.23210390230E+03  0.90613619305E+02 0.  0.
        -11    1    3    3    0    0 -0.17636627988E+02 -0.15541953413E+02 -0.12503857452E+03  0.12722911648E+03  0.00000000000E+00 0.  1.
         12    1    3    3    0    0  0.45377527333E+02  0.45443157386E+02 -0.38028207034E+03  0.38566650562E+03  0.00000000000E+00 0. -1.
        -13    1    4    4    0    0  0.50115418531E+02  0.54311116997E+02 -0.16296537231E+03  0.17893843963E+03  0.00000000000E+00 0.  1.
         13    1    4    4    0    0 -0.27025009766E+02 -0.97310573255E+01 -0.44738370459E+02  0.53165462670E+02  0.00000000000E+00 0. -1.
          3    1    1    2  501    0 -0.50831308110E+02 -0.74481263645E+02 -0.63053044998E+03  0.63694578173E+03  0.00000000000E+00 0. -1.
<scales pt_clust_5="13000.00000" pt_clust_6="13000.00000" pt_clust_7="13000.00000" pt_clust_8="13000.00000" pt_clust_9="60.39661"></scales>
<clustering>
<clus scale="   77.777">  5  6 -1 -1</clus>
<clus scale="   87.823">  2  5  1 -1</clus>
<clus scale="   60.397">  1  9  2 -1</clus>
<clus scale="   90.614">  7  8 -1 -1</clus>
<clus scale="   60.397">  1  5  2 -1</clus>
</clustering>
</event>
<event>
 9    2  0.1302972E-004  0.1711953E+03  0.7546771E-02  0.1193601E+00
         21   -1    0    0  501  502  0.00000000000E+00  0.00000000000E+00  0.83165510181E+02  0.83165510181E+02  0.00000000000E+00 0.  1.
         -1   -1    0    0    0  501 -0.00000000000E+00 -0.00000000000E+00 -0.79964997176E+03  0.79964997176E+03  0.00000000000E+00 0.  1.
         23    2    1    2    0    0  0.43145853263E+01 -0.72864672927E+02 -0.17537250660E+03  0.21094681761E+03  0.91734222503E+02 0.  0.
         24    2    1    2    0    0 -0.13959768441E+03 -0.95041827836E+01 -0.47298281747E+03  0.49945136629E+03  0.78492539024E+02 0.  0.
        -11    1    4    4    0    0 -0.51626170470E+02 -0.18801936095E+02 -0.30182096606E+03  0.30678114322E+03  0.00000000000E+00 0.  1.
         12    1    4    4    0    0 -0.87971513938E+02  0.92977533115E+01 -0.17116185141E+03  0.19267022308E+03  0.00000000000E+00 0. -1.
        -13    1    3    3    0    0 -0.25834593829E+02 -0.54193098910E+02 -0.42844437778E+02  0.73756111993E+02  0.00000000000E+00 0.  1.
         13    1    3    3    0    0  0.30149179155E+02 -0.18671574017E+02 -0.13252806882E+03  0.13719070561E+03  0.00000000000E+00 0. -1.
         -2    1    1    2    0  502  0.13528309908E+03  0.82368855711E+02 -0.68129137502E+02  0.17241729804E+03  0.00000000000E+00 0.  1.
<scales pt_clust_5="13000.00000" pt_clust_6="13000.00000" pt_clust_7="13000.00000" pt_clust_8="13000.00000" pt_clust_9="152.14056"></scales>
<clustering>
<clus scale="   78.493">  5  6 -1 -1</clus>
<clus scale="   91.734">  7  8 -1 -1</clus>
<clus scale="  117.231">  2  7  1 -1</clus>
<clus scale="  152.141">  1  9  2 -1</clus>
<clus scale="  152.141">  1  5  2 -1</clus>
</clustering>
</event>
<event>
 9    2  0.1302972E-004  0.1364695E+03  0.7546771E-02  0.1221101E+00
         21   -1    0    0  501  502  0.00000000000E+00  0.00000000000E+00  0.71824797726E+03  0.71824797726E+03  0.00000000000E+00 0. -1.
          2   -1    0    0  502    0 -0.00000000000E+00 -0.00000000000E+00 -0.45356136281E+02  0.45356136281E+02  0.00000000000E+00 0. -1.
         24    2    1    2    0    0 -0.53892681038E+02 -0.71919456333E+02  0.13679720608E+03  0.18240626484E+03  0.80509257814E+02 0.  0.
         23    2    1    2    0    0  0.38962393185E+02  0.11442004164E+03  0.25977755048E+03  0.30123295020E+03  0.92988711915E+02 0.  0.
        -11    1    3    3    0    0  0.19305422296E+02 -0.31742081638E+02  0.43062990344E+02  0.56874249130E+02  0.00000000000E+00 0.  1.
         12    1    3    3    0    0 -0.73198103334E+02 -0.40177374696E+02  0.93734215739E+02  0.12553201571E+03  0.00000000000E+00 0. -1.
        -13    1    4    4    0    0 -0.24528502737E+02  0.66560558008E+02  0.98068911870E+02  0.12103498174E+03  0.00000000000E+00 0. -1.
         13    1    4    4    0    0  0.63490895922E+02  0.47859483634E+02  0.16170863861E+03  0.18019796846E+03  0.00000000000E+00 0.  1.
          1    1    1    2  501    0  0.14930287853E+02 -0.42500585308E+02  0.27631708442E+03  0.27996489850E+03  0.00000000000E+00 0. -1.
<scales pt_clust_5="13000.00000" pt_clust_6="13000.00000" pt_clust_7="13000.00000" pt_clust_8="13000.00000" pt_clust_9="45.04679"></scales>
<clustering>
<clus scale="   45.047">  1  9  2 -1</clus>
<clus scale="   80.509">  5  6 -1 -1</clus>
<clus scale="   92.989">  7  8 -1 -1</clus>
<clus scale="  128.292">  2  5  1 -1</clus>
<clus scale="   45.047">  1  5  2 -1</clus>
</clustering>
</event>
<event>
 9    2  0.1302972E-004  0.9173488E+02  0.7546771E-02  0.1304721E+00
         21   -1    0    0  501  502  0.00000000000E+00  0.00000000000E+00  0.96935020686E+02  0.96935020686E+02  0.00000000000E+00 0.  1.
         -1   -1    0    0    0  501 -0.00000000000E+00 -0.00000000000E+00 -0.31840389759E+03  0.31840389759E+03  0.00000000000E+00 0.  1.
         23    2    1    2    0    0 -0.64197069449E+01 -0.15579012108E+02 -0.24032702072E+03  0.25761845536E+03  0.91248415864E+02 0.  0.
         24    2    1    2    0    0 -0.39747186510E+02 -0.23308131293E+02 -0.23910083643E+01  0.93727350462E+02  0.81584260025E+02 0.  0.
        -13    1    4    4    0    0 -0.43007124238E+02 -0.49451614671E+02  0.66498707236E+01  0.65873330791E+02  0.00000000000E+00 0.  1.
         14    1    4    4    0    0  0.32599377288E+01  0.26143483378E+02 -0.90408790878E+01  0.27854019671E+02  0.00000000000E+00 0. -1.
        -11    1    3    3    0    0  0.35644049611E+01 -0.40531705693E+02 -0.22049435339E+03  0.22421704669E+03  0.00000000000E+00 0. -1.
         11    1    3    3    0    0 -0.99841119060E+01  0.24952693585E+02 -0.19832667331E+02  0.33401408670E+02  0.00000000000E+00 0.  1.
         -2    1    1    2    0  502  0.46166893455E+02  0.38887143400E+02  0.21249152181E+02  0.63993112454E+02  0.00000000000E+00 0.  1.
<scales pt_clust_5="13000.00000" pt_clust_6="13000.00000" pt_clust_7="13000.00000" pt_clust_8="13000.00000" pt_clust_9="60.36217"></scales>
<clustering>
<clus scale="   60.362">  1  9  2 -1</clus>
<clus scale="   81.584">  5  6 -1 -1</clus>
<clus scale="   82.128">  1  5  2 -1</clus>
<clus scale="   91.248">  7  8 -1 -1</clus>
<clus scale="   60.362">  1  5  2 -1</clus>
</clustering>
</event>
<event>
 9    2  0.1302972E-004  0.9746233E+02  0.7546771E-02  0.1291718E+00
          2   -1    0    0  502    0 -0.00000000000E+00  0.00000000000E+00  0.28818265492E+03  0.28818265492E+03  0.00000000000E+00 0. -1.
         21   -1    0    0  501  502  0.00000000000E+00 -0.00000000000E+00 -0.86483150689E+02  0.86483150689E+02  0.00000000000E+00 0. -1.
         23    2    1    2    0    0 -0.28355787698E+02  0.31401427092E+02  0.12634963002E+03  0.16243644645E+03  0.92904627497E+02 0.  0.
         24    2    1    2    0    0  0.30481905844E+02  0.34285762154E+02  0.10434795531E+03  0.14039471627E+03  0.81960481388E+02 0.  0.
        -13    1    4    4    0    0  0.34833595765E+02  0.17510888034E+02  0.47214678470E+01  0.39272163835E+02  0.00000000000E+00 0.  1.
         14    1    4    4    0    0 -0.43516899213E+01  0.16774874120E+02  0.99626487467E+02  0.10112255244E+03  0.00000000000E+00 0. -1.
        -11    1    3    3    0    0 -0.53723914184E+02  0.63967935401E+01  0.11132847532E+03  0.12377886467E+03  0.00000000000E+00 0.  1.
         11    1    3    3    0    0  0.25368126486E+02  0.25004633552E+02  0.15021154702E+02  0.38657581780E+02  0.00000000000E+00 0. -1.
          1    1    1    2  501    0 -0.21261181459E+01 -0.65687189246E+02 -0.28998081107E+02  0.71834642878E+02  0.00000000000E+00 0. -1.
<scales pt_clust_5="13000.00000" pt_clust_6="13000.00000" pt_clust_7="13000.00000" pt_clust_8="13000.00000" pt_clust_9="65.72159"></scales>
<clustering>
<clus scale="   65.722">  2  9  1 -1</clus>
<clus scale="   81.960">  5  6 -1 -1</clus>
<clus scale="   87.093">  2  5  1 -1</clus>
<clus scale="   92.905">  7  8 -1 -1</clus>
<clus scale="   65.722">  2  5  1 -1</clus>
</clustering>
</event>
<event>
 9    2  0.1302972E-004  0.1644686E+03  0.7546771E-02  0.1188236E+00
         21   -1    0    0  501  502  0.00000000000E+00  0.00000000000E+00  0.16289667109E+03  0.16289667109E+03  0.00000000000E+00 0. -1.
          2   -1    0    0  502    0 -0.00000000000E+00 -0.00000000000E+00 -0.85701796315E+03  0.85701796315E+03  0.00000000000E+00 0. -1.
         23    2    1    2    0    0 -0.49237190490E+02 -0.10715544800E+03  0.66048123994E+02  0.16281988057E+03  0.90781979827E+02 0.  0.
         24    2    1    2    0    0  0.12618298309E+03 -0.27287068059E+02 -0.64845245409E+03  0.66610751663E+03  0.80882069682E+02 0.  0.
        -13    1    4    4    0    0  0.12311461650E+03 -0.45197689122E+02 -0.60419035117E+03  0.61826047937E+03  0.00000000000E+00 0.  1.
         14    1    4    4    0    0  0.30683665851E+01  0.17910621063E+02 -0.44262102913E+02  0.47847037261E+02  0.00000000000E+00 0. -1.
        -11    1    3    3    0    0 -0.70628543469E+02 -0.50465237228E+02  0.27722226985E+02  0.91124383071E+02  0.00000000000E+00 0.  1.
         11    1    3    3    0    0  0.21391352980E+02 -0.56690210769E+02  0.38325897009E+02  0.71695497494E+02  0.00000000000E+00 0. -1.
          1    1    1    2  501    0 -0.76945792599E+02  0.13444251606E+03 -0.11171696197E+03  0.19098723704E+03  0.00000000000E+00 0. -1.
<scales pt_clust_5="13000.00000" pt_clust_6="13000.00000" pt_clust_7="13000.00000" pt_clust_8="13000.00000" pt_clust_9="143.20617"></scales>
<clustering>
<clus scale="   80.882">  5  6 -1 -1</clus>
<clus scale="   90.782">  7  8 -1 -1</clus>
<clus scale="  148.822">  2  7  1 -1</clus>
<clus scale="  143.206">  1  9  2 -1</clus>
<clus scale="  143.206">  1  5  2 -1</clus>
</clustering>
</event>
<event>
 9    2  0.1302972E-004  0.9099235E+02  0.7546771E-02  0.1305987E+00
         -3   -1    0    0    0  501 -0.00000000000E+00  0.00000000000E+00  0.12968691054E+03  0.12968691054E+03  0.00000000000E+00 0.  1.
         21   -1    0    0  501  502  0.00000000000E+00 -0.00000000000E+00 -0.17504321888E+03  0.17504321888E+03  0.00000000000E+00 0. -1.
         23    2    1    2    0    0 -0.38868303232E+01  0.49440681492E+02 -0.19792152738E+02  0.10422868833E+03  0.89512019995E+02 0.  0.
         24    2    1    2    0    0 -0.52104834164E+01  0.30848233403E+02 -0.67300709345E+02  0.10955634286E+03  0.80588114148E+02 0.  0.
        -13    1    4    4    0    0  0.27165960078E+02  0.20988500020E+02 -0.11725181335E+00  0.34329582987E+02  0.00000000000E+00 0.  1.
         14    1    4    4    0    0 -0.32376443495E+02  0.98597333828E+01 -0.67183457532E+02  0.75226759877E+02  0.00000000000E+00 0. -1.
        -11    1    3    3    0    0  0.34650344638E+02  0.24895885979E+02 -0.35922368992E+02  0.55775156801E+02  0.00000000000E+00 0. -1.
         11    1    3    3    0    0 -0.38537174961E+02  0.24544795513E+02  0.16130216254E+02  0.48453531524E+02  0.00000000000E+00 0.  1.
         -4    1    1    2    0  502  0.90973137395E+01 -0.80288914894E+02  0.41736553744E+02  0.90945098222E+02  0.00000000000E+00 0.  1.
<scales pt_clust_5="13000.00000" pt_clust_6="13000.00000" pt_clust_7="13000.00000" pt_clust_8="13000.00000" pt_clust_9="80.80271"></scales>
<clustering>
<clus scale="   80.588">  5  6 -1 -1</clus>
<clus scale="   80.803">  2  9  1 -1</clus>
<clus scale="   82.229">  2  5  1 -1</clus>
<clus scale="   89.512">  7  8 -1 -1</clus>
<clus scale="   80.803">  2  5  1 -1</clus>
</clustering>
</event>
<event>
 9    2  0.1302972E-004  0.1257554E+03  0.7546771E-02  0.1236534E+00
         21   -1    0    0  501  502  0.00000000000E+00  0.00000000000E+00  0.22431314941E+03  0.22431314941E+03  0.00000000000E+00 0.  1.
         -1   -1    0    0    0  501 -0.00000000000E+00 -0.00000000000E+00 -0.22767886777E+03  0.22767886777E+03  0.00000000000E+00 0.  1.
         24    2    1    2    0    0  0.40226387470E+02 -0.80279839365E+02 -0.11836584225E+03  0.16924750686E+03  0.81063130387E+02 0.  0.
         23    2    1    2    0    0 -0.60847941895E+02  0.60332954749E+02 -0.35452767420E+02  0.12958054844E+03  0.90507913221E+02 0.  0.
        -11    1    3    3    0    0  0.43149401139E+02 -0.42737023019E+02 -0.20031929088E+02  0.63949997171E+02  0.00000000000E+00 0.  1.
         12    1    3    3    0    0 -0.29230136691E+01 -0.37542816346E+02 -0.98333913166E+02  0.10529750969E+03  0.00000000000E+00 0. -1.
        -11    1    4    4    0    0 -0.83764309783E+02  0.38008493664E+02 -0.32046945310E+02  0.97406939628E+02  0.00000000000E+00 0.  1.
         11    1    4    4    0    0  0.22916367889E+02  0.22324461085E+02 -0.34058221104E+01  0.32173608815E+02  0.00000000000E+00 0. -1.
         -2    1    1    2    0  502  0.20621554425E+02  0.19946884616E+02  0.15045289131E+03  0.15316396188E+03  0.00000000000E+00 0.  1.
<scales pt_clust_5="13000.00000" pt_clust_6="13000.00000" pt_clust_7="13000.00000" pt_clust_8="13000.00000" pt_clust_9="28.69018"></scales>
<clustering>
<clus scale="   28.690">  1  9  2 -1</clus>
<clus scale="   81.063">  5  6 -1 -1</clus>
<clus scale="   90.508">  7  8 -1 -1</clus>
<clus scale="  119.138">  2  5  1 -1</clus>
<clus scale="   28.690">  1  5  2 -1</clus>
</clustering>
</event>
<event>
 9    2  0.1302972E-004  0.1794147E+03  0.7546771E-02  0.1202311E+00
         -3   -1    0    0    0  501 -0.00000000000E+00  0.00000000000E+00  0.13554687887E+04  0.13554687887E+04  0.00000000000E+00 0.  1.
         21   -1    0    0  501  502  0.00000000000E+00 -0.00000000000E+00 -0.37840183260E+02  0.37840183260E+02  0.00000000000E+00 0. -1.
         24    2    1    2    0    0 -0.32876503008E+02  0.11262324409E+02  0.11821218745E+03  0.14515423976E+03  0.76732832995E+02 0.  0.
         23    2    1    2    0    0  0.11815574579E+03 -0.11899896676E+03  0.49477733794E+03  0.53024389755E+03  0.90732807761E+02 0.  0.
        -11    1    3    3    0    0 -0.14255051157E+02 -0.16415732117E+02  0.10814552966E+03  0.11030928488E+03  0.00000000000E+00 0.  1.
         12    1    3    3    0    0 -0.18621451851E+02  0.27678056526E+02  0.10066657786E+02  0.34844954887E+02  0.00000000000E+00 0. -1.
        -11    1    4    4    0    0  0.44145792722E+02 -0.30360528711E+02  0.29215445757E+03  0.29702666512E+03  0.00000000000E+00 0.  1.
         11    1    4    4    0    0  0.74009953069E+02 -0.88638438047E+02  0.20262288037E+03  0.23321723243E+03  0.00000000000E+00 0. -1.
         -4    1    1    2    0  502 -0.85279242783E+02  0.10773664235E+03  0.70463908007E+03  0.71791083465E+03  0.00000000000E+00 0.  1.
<scales pt_clust_5="13000.00000" pt_clust_6="13000.00000" pt_clust_7="13000.00000" pt_clust_8="13000.00000" pt_clust_9="154.78117"></scales>
<clustering>
<clus scale="   76.733">  5  6 -1 -1</clus>
<clus scale="   84.236">  1  5  2 -1</clus>
<clus scale="   90.733">  7  8 -1 -1</clus>
<clus scale="  154.781">  2  9  1 -1</clus>
<clus scale="  154.781">  2  5  1 -1</clus>
</clustering>
</event>
<event>
 9    2  0.1302972E-004  0.9723348E+02  0.7546771E-02  0.1293204E+00
          2   -1    0    0  502    0 -0.00000000000E+00  0.00000000000E+00  0.39886489553E+03  0.39886489553E+03  0.00000000000E+00 0. -1.
         21   -1    0    0  501  502  0.00000000000E+00 -0.00000000000E+00 -0.13990145961E+03  0.13990145961E+03  0.00000000000E+00 0. -1.
         23    2    1    2    0    0 -0.13780237255E+02 -0.27837136618E+02  0.33581909874E+03  0.34991489265E+03  0.93280029528E+02 0.  0.
         24    2    1    2    0    0  0.44102141144E+02 -0.37862916218E+02 -0.36494993209E+02  0.10599677977E+03  0.80776441577E+02 0.  0.
        -13    1    4    4    0    0 -0.22163264706E+02 -0.74078807201E+01  0.21400696422E+01  0.23466292789E+02  0.00000000000E+00 0.  1.
         14    1    4    4    0    0  0.66265405849E+02 -0.30455035498E+02 -0.38635062851E+02  0.82530486980E+02  0.00000000000E+00 0. -1.
        -13    1    3    3    0    0 -0.49691964490E+02  0.23194723811E+01  0.14054998684E+03  0.14909382981E+03  0.00000000000E+00 0. -1.
         13    1    3    3    0    0  0.35911727234E+02 -0.30156608999E+02  0.19526911190E+03  0.20082106284E+03  0.00000000000E+00 0.  1.
          1    1    1    2  501    0 -0.30321903888E+02  0.65700052837E+02 -0.40360669610E+02  0.82854682725E+02  0.00000000000E+00 0. -1.
<scales pt_clust_5="13000.00000" pt_clust_6="13000.00000" pt_clust_7="13000.00000" pt_clust_8="13000.00000" pt_clust_9="72.35962"></scales>
<clustering>
<clus scale="   72.360">  2  9  1 -1</clus>
<clus scale="   80.776">  5  6 -1 -1</clus>
<clus scale="   85.311">  2  5  1 -1</clus>
<clus scale="   93.280">  7  8 -1 -1</clus>
<clus scale="   72.360">  2  5  1 -1</clus>
</clustering>
</event>
<event>
 9    2  0.1302972E-004  0.2362799E+03  0.7546771E-02  0.1123269E+00
         21   -1    0    0  501  502  0.00000000000E+00  0.00000000000E+00  0.20226872302E+03  0.20226872302E+03  0.00000000000E+00 0.  1.
          2   -1    0    0  502    0 -0.00000000000E+00 -0.00000000000E+00 -0.46801455991E+03  0.46801455991E+03  0.00000000000E+00 0. -1.
         24    2    1    2    0    0 -0.19610511159E+03  0.10972911336E+03 -0.33164915097E+03  0.40844708117E+03  0.79625157249E+02 0.  0.
         23    2    1    2    0    0  0.16731244764E+03 -0.79902362914E+02  0.71165676998E+02  0.22004690884E+03  0.94753605595E+02 0.  0.
        -11    1    3    3    0    0 -0.56805386163E+02 -0.15100761222E+01 -0.53321921343E+02  0.77925345830E+02  0.00000000000E+00 0.  1.
         12    1    3    3    0    0 -0.13929972543E+03  0.11123918948E+03 -0.27832722962E+03  0.33052173534E+03  0.00000000000E+00 0. -1.
        -11    1    4    4    0    0  0.17156106601E+03 -0.54694715438E+02  0.73253684571E+02  0.19439859457E+03  0.00000000000E+00 0.  1.
         11    1    4    4    0    0 -0.42486183703E+01 -0.25207647475E+02 -0.20880075738E+01  0.25648314271E+02  0.00000000000E+00 0. -1.
          1    1    1    2  501    0  0.28792663954E+02 -0.29826750444E+02 -0.52623629129E+01  0.41789292924E+02  0.00000000000E+00 0. -1.
<scales pt_clust_5="13000.00000" pt_clust_6="13000.00000" pt_clust_7="13000.00000" pt_clust_8="13000.00000" pt_clust_9="41.45663"></scales>
<clustering>
<clus scale="   41.457">  1  9  2 -1</clus>
<clus scale="   79.625">  5  6 -1 -1</clus>
<clus scale="   94.754">  7  8 -1 -1</clus>
<clus scale="  230.630">  2  5  1 -1</clus>
<clus scale="   41.457">  1  5  2 -1</clus>
</clustering>
</event>
<event>
 9    2  0.1302972E-004  0.9763361E+02  0.7546771E-02  0.1291402E+00
          2   -1    0    0  502    0 -0.00000000000E+00  0.00000000000E+00  0.42693799041E+03  0.42693799041E+03  0.00000000000E+00 0. -1.
         21   -1    0    0  501  502  0.00000000000E+00 -0.00000000000E+00 -0.67715792098E+02  0.67715792098E+02  0.00000000000E+00 0.  1.
         24    2    1    2    0    0  0.32469452472E+02  0.20823182975E+02  0.29277570828E+03  0.30610558024E+03  0.80592435152E+02 0.  0.
         23    2    1    2    0    0 -0.27182690833E+02  0.16734621050E+02  0.98862364005E+02  0.13865504264E+03  0.91828686204E+02 0.  0.
        -11    1    3    3    0    0 -0.67450606123E+01  0.40566548140E+02  0.18904516003E+03  0.19346631025E+03  0.00000000000E+00 0.  1.
         12    1    3    3    0    0  0.39214513084E+02 -0.19743365165E+02  0.10373054825E+03  0.11263926999E+03  0.00000000000E+00 0. -1.
        -13    1    4    4    0    0  0.11847324618E+02  0.39088485705E+02  0.15036064878E+02  0.43524154929E+02  0.00000000000E+00 0.  1.
         13    1    4    4    0    0 -0.39030015450E+02 -0.22353864655E+02  0.83826299127E+02  0.95130887709E+02  0.00000000000E+00 0. -1.
          1    1    1    2  501    0 -0.52867616392E+01 -0.37557804024E+02 -0.32415873975E+02  0.49893159625E+02  0.00000000000E+00 0. -1.
<scales pt_clust_5="13000.00000" pt_clust_6="13000.00000" pt_clust_7="13000.00000" pt_clust_8="13000.00000" pt_clust_9="37.92807"></scales>
<clustering>
<clus scale="   37.928">  2  9  1 -1</clus>
<clus scale="   80.592">  5  6 -1 -1</clus>
<clus scale="   87.149">  1  5  2 -1</clus>
<clus scale="   91.829">  7  8 -1 -1</clus>
<clus scale="   37.928">  2  5  1 -1</clus>
</clustering>
</event>
<event>
 9    2  0.1302972E-004  0.1121825E+03  0.7546771E-02  0.1260627E+00
          2   -1    0    0  502    0 -0.00000000000E+00  0.00000000000E+00  0.10598534696E+03  0.10598534696E+03  0.00000000000E+00 0. -1.
         21   -1    0    0  501  502  0.00000000000E+00 -0.00000000000E+00 -0.17972440632E+03  0.17972440632E+03  0.00000000000E+00 0.  1.
         23    2    1    2    0    0 -0.69472476003E+02  0.24171474175E+02 -0.15105175951E+02  0.11810066785E+03  0.91153257328E+02 0.  0.
         24    2    1    2    0    0  0.56532475882E+02  0.84659667011E+01 -0.79595377444E+02  0.12671861732E+03  0.80340465791E+02 0.  0.
        -11    1    4    4    0    0  0.25677890168E+02 -0.65065183020E+00 -0.89454020766E+02  0.93068787585E+02  0.00000000000E+00 0.  1.
         12    1    4    4    0    0  0.30854585714E+02  0.91166185313E+01  0.98586433223E+01  0.33649829735E+02  0.00000000000E+00 0. -1.
        -11    1    3    3    0    0 -0.69350024675E+02 -0.20173409995E+02 -0.37348067500E+01  0.72321097715E+02  0.00000000000E+00 0.  1.
         11    1    3    3    0    0 -0.12245132774E+00  0.44344884170E+02 -0.11370369201E+02  0.45779570140E+02  0.00000000000E+00 0. -1.
          1    1    1    2  501    0  0.12940000121E+02 -0.32637440876E+02  0.20961494034E+02  0.40890468109E+02  0.00000000000E+00 0. -1.
<scales pt_clust_5="13000.00000" pt_clust_6="13000.00000" pt_clust_7="13000.00000" pt_clust_8="13000.00000" pt_clust_9="35.10908"></scales>
<clustering>
<clus scale="   35.109">  2  9  1 -1</clus>
<clus scale="   80.340">  5  6 -1 -1</clus>
<clus scale="   91.153">  7  8 -1 -1</clus>
<clus scale="  103.589">  2  5  1 -1</clus>
<clus scale="   35.109">  2  5  1 -1</clus>
</clustering>
</event>
<event>
 9    2  0.1302972E-004  0.1938301E+03  0.7546771E-02  0.1180289E+00
          2   -1    0    0  502    0 -0.00000000000E+00  0.00000000000E+00  0.99733579147E+03  0.99733579147E+03  0.00000000000E+00 0. -1.
         21   -1    0    0  501  502  0.00000000000E+00 -0.00000000000E+00 -0.61561177618E+02  0.61561177618E+02  0.00000000000E+00 0.  1.
         23    2    1    2    0    0  0.29561411302E+02 -0.48550272195E+02  0.18190717503E+03  0.21183761776E+03  0.92487566743E+02 0.  0.
         24    2    1    2    0    0  0.14206672534E+02  0.19618644906E+03  0.29167061132E+03  0.35988587787E+03  0.75862686813E+02 0.  0.
        -13    1    4    4    0    0  0.33691188541E+02  0.18442640213E+03  0.25109876337E+03  0.31336685044E+03  0.00000000000E+00 0.  1.
         14    1    4    4    0    0 -0.19484516008E+02  0.11760046923E+02  0.40571847945E+02  0.46519027433E+02  0.00000000000E+00 0. -1.
        -11    1    3    3    0    0  0.37928613383E+02 -0.73244832756E+02  0.13880599578E+03  0.16146358630E+03  0.00000000000E+00 0. -1.
         11    1    3    3    0    0 -0.83672020817E+01  0.24694560561E+02  0.43101179254E+02  0.50374031456E+02  0.00000000000E+00 0.  1.
          1    1    1    2  501    0 -0.43768083835E+02 -0.14763617686E+03  0.46219682750E+03  0.48717347345E+03  0.00000000000E+00 0. -1.
<scales pt_clust_5="13000.00000" pt_clust_6="13000.00000" pt_clust_7="13000.00000" pt_clust_8="13000.00000" pt_clust_9="178.36754"></scales>
<clustering>
<clus scale="   75.863">  5  6 -1 -1</clus>
<clus scale="   92.488">  7  8 -1 -1</clus>
<clus scale="  108.559">  1  7  2 -1</clus>
<clus scale="  178.368">  2  9  1 -1</clus>
<clus scale="  178.368">  2  5  1 -1</clus>
</clustering>
</event>
<event>
 9    2  0.1302972E-004  0.1955094E+03  0.7546771E-02  0.1153926E+00
         -1   -1    0    0    0  501 -0.00000000000E+00  0.00000000000E+00  0.85043163059E+02  0.85043163059E+02  0.00000000000E+00 0.  1.
         21   -1    0    0  501  502  0.00000000000E+00 -0.00000000000E+00 -0.69674198976E+03  0.69674198976E+03  0.00000000000E+00 0.  1.
         24    2    1    2    0    0 -0.78927111948E+02  0.12520721742E+03 -0.22111383061E+03  0.27984862961E+03  0.86704054780E+02 0.  0.
         23    2    1    2    0    0  0.68459735300E+02 -0.20244799468E+03 -0.32927412684E+03  0.40276633447E+03  0.90151781290E+02 0.  0.
        -13    1    3    3    0    0 -0.19998301629E+02  0.83528196861E+02 -0.17287178630E+03  0.19303250047E+03  0.00000000000E+00 0.  1.
         14    1    3    3    0    0 -0.58928810319E+02  0.41679020557E+02 -0.48242044307E+02  0.86816129142E+02  0.00000000000E+00 0. -1.
        -13    1    4    4    0    0  0.90314833620E+02 -0.15087987052E+03 -0.24477118663E+03  0.30138752181E+03  0.00000000000E+00 0.  1.
         13    1    4    4    0    0 -0.21855098320E+02 -0.51568124156E+02 -0.84502940215E+02  0.10137881266E+03  0.00000000000E+00 0. -1.
         -2    1    1    2    0  502  0.10467376648E+02  0.77240777260E+02 -0.61310869253E+02  0.99170188737E+02  0.00000000000E+00 0.  1.
<scales pt_clust_5="13000.00000" pt_clust_6="13000.00000" pt_clust_7="13000.00000" pt_clust_8="13000.00000" pt_clust_9="77.94684"></scales>
<clustering>
<clus scale="   77.947">  2  9  1 -1</clus>
<clus scale="   86.704">  5  6 -1 -1</clus>
<clus scale="   90.152">  7  8 -1 -1</clus>
<clus scale="  193.944">  1  5  2 -1</clus>
<clus scale="   77.947">  2  5  1 -1</clus>
</clustering>
</event>
<event>
 9    2  0.1302972E-004  0.1665287E+03  0.7546771E-02  0.1216301E+00
         21   -1    0    0  501  502  0.00000000000E+00  0.00000000000E+00  0.19926802460E+03  0.19926802460E+03  0.00000000000E+00 0. -1.
          4   -1    0    0  502    0 -0.00000000000E+00 -0.00000000000E+00 -0.31199318653E+03  0.31199318653E+03  0.00000000000E+00 0. -1.
         24    2    1    2    0    0  0.25553188200E+02  0.11649038377E+02 -0.16014486332E+03  0.17817813021E+03  0.72886235435E+02 0.  0.
         23    2    1    2    0    0  0.11511344004E+03  0.27701625798E+02 -0.48989667423E+02  0.15806782025E+03  0.92557896118E+02 0.  0.
        -13    1    3    3    0    0 -0.35727101675E+01  0.33410585888E+02 -0.37943182284E+02  0.50682507724E+02  0.00000000000E+00 0.  1.
         14    1    3    3    0    0  0.29125898367E+02 -0.21761547511E+02 -0.12220168103E+03  0.12749562248E+03  0.00000000000E+00 0. -1.
        -13    1    4    4    0    0  0.75520762188E+02  0.55396533135E+02 -0.56181754418E+02  0.10921790574E+03  0.00000000000E+00 0.  1.
         13    1    4    4    0    0  0.39592677856E+02 -0.27694907338E+02  0.71920869948E+01  0.48849914510E+02  0.00000000000E+00 0. -1.
          3    1    1    2  501    0 -0.14066662824E+03 -0.39350664175E+02  0.96409368806E+02  0.17501526067E+03  0.00000000000E+00 0. -1.
<scales pt_clust_5="13000.00000" pt_clust_6="13000.00000" pt_clust_7="13000.00000" pt_clust_8="13000.00000" pt_clust_9="138.43711"></scales>
<clustering>
<clus scale="   72.886">  5  6 -1 -1</clus>
<clus scale="   78.109">  2  5  1 -1</clus>
<clus scale="   92.558">  7  8 -1 -1</clus>
<clus scale="  138.437">  1  9  2 -1</clus>
<clus scale="  138.437">  1  5  2 -1</clus>
</clustering>
</event>
<event>
 9    2  0.1302972E-004  0.1243529E+03  0.7546771E-02  0.1240738E+00
          2   -1    0    0  502    0 -0.00000000000E+00  0.00000000000E+00  0.42721854337E+03  0.42721854337E+03  0.00000000000E+00 0. -1.
         21   -1    0    0  501  502  0.00000000000E+00 -0.00000000000E+00 -0.12069135310E+03  0.12069135310E+03  0.00000000000E+00 0. -1.
         24    2    1    2    0    0 -0.73719615539E+02 -0.40710393044E+02  0.35646361739E+03  0.37505379576E+03  0.80666730281E+02 0.  0.
         23    2    1    2    0    0  0.35183713434E+02  0.39815147726E+02  0.28674577198E+00  0.10954587792E+03  0.95797063972E+02 0.  0.
        -13    1    3    3    0    0 -0.11697405523E+02 -0.51538319482E+02  0.14096432823E+03  0.15054557285E+03  0.00000000000E+00 0.  1.
         14    1    3    3    0    0 -0.62022210016E+02  0.10827926438E+02  0.21549928916E+03  0.22450822291E+03  0.00000000000E+00 0. -1.
        -11    1    4    4    0    0  0.24035898776E+01 -0.28083676405E+02  0.16167602507E+02  0.32494022458E+02  0.00000000000E+00 0. -1.
         11    1    4    4    0    0  0.32780123556E+02  0.67898824131E+02 -0.15880856735E+02  0.77051855457E+02  0.00000000000E+00 0.  1.
          1    1    1    2  501    0  0.38535902105E+02  0.89524531771E+00 -0.50223172886E+02  0.63310222792E+02  0.00000000000E+00 0. -1.
<scales pt_clust_5="13000.00000" pt_clust_6="13000.00000" pt_clust_7="13000.00000" pt_clust_8="13000.00000" pt_clust_9="38.54630"></scales>
<clustering>
<clus scale="   38.546">  2  9  1 -1</clus>
<clus scale="   80.667">  5  6 -1 -1</clus>
<clus scale="   95.797">  7  8 -1 -1</clus>
<clus scale="  113.109">  1  5  2 -1</clus>
<clus scale="   38.546">  2  5  1 -1</clus>
</clustering>
</event>
<event>
 9    2  0.1302972E-004  0.1385355E+03  0.7546771E-02  0.1240080E+00
         21   -1    0    0  501  502  0.00000000000E+00  0.00000000000E+00  0.49325410546E+02  0.49325410546E+02  0.00000000000E+00 0. -1.
          2   -1    0    0  502    0 -0.00000000000E+00 -0.00000000000E+00 -0.55164787554E+03  0.55164787554E+03  0.00000000000E+00 0. -1.
         24    2    1    2    0    0 -0.16656185740E+02 -0.12000510634E+01 -0.14812855013E+03  0.16975122650E+03  0.81206790900E+02 0.  0.
         23    2    1    2    0    0  0.11558050603E+03  0.10275114056E+02 -0.21805542618E+03  0.26269293447E+03  0.89414638570E+02 0.  0.
        -13    1    3    3    0    0 -0.55514966347E+01  0.36268332863E+02 -0.10654897319E+03  0.11268937293E+03  0.00000000000E+00 0.  1.
         14    1    3    3    0    0 -0.11104689106E+02 -0.37468383926E+02 -0.41579576938E+02  0.57061853567E+02  0.00000000000E+00 0. -1.
        -13    1    4    4    0    0  0.32135559237E+02 -0.17676658014E+02 -0.14110114649E+03  0.14578988973E+03  0.00000000000E+00 0.  1.
         13    1    4    4    0    0  0.83444946790E+02  0.27951772069E+02 -0.76954279684E+02  0.11690304473E+03  0.00000000000E+00 0. -1.
          1    1    1    2  501    0 -0.98924320286E+02 -0.90750629922E+01 -0.13613848869E+03  0.16852912512E+03  0.00000000000E+00 0. -1.
<scales pt_clust_5="13000.00000" pt_clust_6="13000.00000" pt_clust_7="13000.00000" pt_clust_8="13000.00000" pt_clust_9="105.81633"></scales>
<clustering>
<clus scale="   81.207">  5  6 -1 -1</clus>
<clus scale="   82.906">  2  5  1 -1</clus>
<clus scale="   89.415">  7  8 -1 -1</clus>
<clus scale="  105.816">  1  9  2 -1</clus>
<clus scale="  105.816">  1  5  2 -1</clus>
</clustering>
</event>
<event>
 9    2  0.1302972E-004  0.1530342E+03  0.7546771E-02  0.1215677E+00
          4   -1    0    0  502    0 -0.00000000000E+00  0.00000000000E+00  0.21554528651E+03  0.21554528651E+03  0.00000000000E+00 0. -1.
         21   -1    0    0  501  502  0.00000000000E+00 -0.00000000000E+00 -0.20797253212E+03  0.20797253212E+03  0.00000000000E+00 0.  1.
         24    2    1    2    0    0  0.48809625753E+02  0.36703463819E+02 -0.52136158297E+02  0.11453835145E+03  0.81678216971E+02 0.  0.
         23    2    1    2    0    0 -0.12254292731E+03  0.51465997078E+02 -0.29311957234E+02  0.16360007086E+03  0.90775957492E+02 0.  0.
        -11    1    3    3    0    0  0.66282162078E+02  0.40292291059E+02 -0.56753369381E+02  0.96113155524E+02  0.00000000000E+00 0.  1.
         12    1    3    3    0    0 -0.17472536325E+02 -0.35888272406E+01  0.46172110836E+01  0.18425195923E+02  0.00000000000E+00 0. -1.
        -13    1    4    4    0    0 -0.21692701197E+02 -0.20942121120E+02 -0.25337640434E+02  0.39384536876E+02  0.00000000000E+00 0. -1.
         13    1    4    4    0    0 -0.10085022612E+03  0.72408118198E+02 -0.39743168006E+01  0.12421553398E+03  0.00000000000E+00 0.  1.
          3    1    1    2  501    0  0.73733301560E+02 -0.88169460897E+02  0.89020869924E+02  0.14537939632E+03  0.00000000000E+00 0. -1.
<scales pt_clust_5="13000.00000" pt_clust_6="13000.00000" pt_clust_7="13000.00000" pt_clust_8="13000.00000" pt_clust_9="123.20398"></scales>
<clustering>
<clus scale="   81.678">  5  6 -1 -1</clus>
<clus scale="   90.776">  7  8 -1 -1</clus>
<clus scale="  101.985">  1  5  2 -1</clus>
<clus scale="  123.204">  2  9  1 -1</clus>
<clus scale="  123.204">  2  5  1 -1</clus>
</clustering>
</event>
<event>
 9    2  0.1302972E-004  0.1940098E+03  0.7546771E-02  0.1155964E+00
         21   -1    0    0  501  502  0.00000000000E+00  0.00000000000E+00  0.79797098824E+02  0.79797098824E+02  0.00000000000E+00 0. -1.
          2   -1    0    0  502    0 -0.00000000000E+00 -0.00000000000E+00 -0.11107766350E+04  0.11107766350E+04  0.00000000000E+00 0. -1.
         23    2    1    2    0    0  0.15605741596E+03 -0.70499661595E+02 -0.55408358766E+03  0.58694496756E+03  0.90397198314E+02 0.  0.
         24    2    1    2    0    0 -0.16486208705E+03  0.51544888473E+02 -0.52110996785E+03  0.55472390791E+03  0.79540129128E+02 0.  0.
        -11    1    4    4    0    0 -0.63050417566E+02  0.27312300080E+02 -0.10373433558E+03  0.12442720470E+03  0.00000000000E+00 0.  1.
         12    1    4    4    0    0 -0.10181166948E+03  0.24232588393E+02 -0.41737563227E+03  0.43029670321E+03  0.00000000000E+00 0. -1.
        -11    1    3    3    0    0  0.49034393298E+02  0.16123908688E+02 -0.21196852340E+03  0.21816279947E+03  0.00000000000E+00 0. -1.
         11    1    3    3    0    0  0.10702302266E+03 -0.86623570284E+02 -0.34211506426E+03  0.36878216809E+03  0.00000000000E+00 0.  1.
          1    1    1    2  501    0  0.88046710872E+01  0.18954773123E+02  0.44214019378E+02  0.48904858313E+02  0.00000000000E+00 0. -1.
<scales pt_clust_5="13000.00000" pt_clust_6="13000.00000" pt_clust_7="13000.00000" pt_clust_8="13000.00000" pt_clust_9="20.89990"></scales>
<clustering>
<clus scale="   20.900">  1  9  2 -1</clus>
<clus scale="   79.540">  5  6 -1 -1</clus>
<clus scale="   90.397">  7  8 -1 -1</clus>
<clus scale="  189.195">  1  5  2 -1</clus>
<clus scale="   20.900">  1  5  2 -1</clus>
</clustering>
</event>
<event>
 9    2  0.1302972E-004  0.2223673E+03  0.7546771E-02  0.1157111E+00
         21   -1    0    0  501  502  0.00000000000E+00  0.00000000000E+00  0.16274137705E+03  0.16274137705E+03  0.00000000000E+00 0. -1.
          2   -1    0    0  502    0 -0.00000000000E+00 -0.00000000000E+00 -0.69992902533E+03  0.69992902533E+03  0.00000000000E+00 0. -1.
         24    2    1    2    0    0  0.86016545849E+02  0.32730510665E+02  0.16474017392E+02  0.12342753883E+03  0.80578108720E+02 0.  0.
         23    2    1    2    0    0  0.12959512901E+03 -0.80408682721E+02 -0.47069368117E+03  0.50335032683E+03  0.92458403120E+02 0.  0.
        -13    1    3    3    0    0  0.24403640760E+02 -0.17756200377E+02 -0.19597961347E+02  0.35984724859E+02  0.00000000000E+00 0.  1.
         14    1    3    3    0    0  0.61612905089E+02  0.50486711043E+02  0.36071978739E+02  0.87442813973E+02  0.00000000000E+00 0. -1.
        -13    1    4    4    0    0  0.91860928060E+02 -0.78464049245E+01 -0.19347990353E+03  0.21432328209E+03  0.00000000000E+00 0. -1.
         13    1    4    4    0    0  0.37734200947E+02 -0.72562277796E+02 -0.27721377763E+03  0.28902704474E+03  0.00000000000E+00 0.  1.
          1    1    1    2  501    0 -0.21561167486E+03  0.47678172055E+02 -0.82967984502E+02  0.23589253671E+03  0.00000000000E+00 0. -1.
<scales pt_clust_5="13000.00000" pt_clust_6="13000.00000" pt_clust_7="13000.00000" pt_clust_8="13000.00000" pt_clust_9="202.23419"></scales>
<clustering>
<clus scale="   80.578">  5  6 -1 -1</clus>
<clus scale="   92.458">  7  8 -1 -1</clus>
<clus scale="  122.323">  2  5  1 -1</clus>
<clus scale="  202.234">  1  9  2 -1</clus>
<clus scale="  202.234">  1  5  2 -1</clus>
</clustering>
</event>
<event>
 9    2  0.1302972E-004  0.9975807E+02  0.7546771E-02  0.1283890E+00
         -1   -1    0    0    0  501 -0.00000000000E+00  0.00000000000E+00  0.10820973651E+03  0.10820973651E+03  0.00000000000E+00 0.  1.
         21   -1    0    0  501  502  0.00000000000E+00 -0.00000000000E+00 -0.25362005132E+03  0.25362005132E+03  0.00000000000E+00 0.  1.
         24    2    1    2    0    0  0.60058577932E+02  0.31349686483E+02  0.37787137301E+02  0.11181612184E+03  0.80530377695E+02 0.  0.
         23    2    1    2    0    0 -0.73445582063E+01  0.25167018880E+02 -0.80274401134E+02  0.12130445776E+03  0.87083124777E+02 0.  0.
        -13    1    3    3    0    0  0.67384631778E+02  0.35973626057E+02  0.35156853234E+01  0.76466662114E+02  0.00000000000E+00 0.  1.
         14    1    3    3    0    0 -0.73260538459E+01 -0.46239395742E+01  0.34271451978E+02  0.35349459724E+02  0.00000000000E+00 0. -1.
        -13    1    4    4    0    0  0.93637035348E+01 -0.29148538142E+02 -0.44973594484E+02  0.54405334486E+02  0.00000000000E+00 0. -1.
         13    1    4    4    0    0 -0.16708261741E+02  0.54315557022E+02 -0.35300806650E+02  0.66899123276E+02  0.00000000000E+00 0.  1.
         -2    1    1    2    0  502 -0.52714019726E+02 -0.56516705363E+02 -0.10292305098E+03  0.12870920823E+03  0.00000000000E+00 0.  1.
<scales pt_clust_5="13000.00000" pt_clust_6="13000.00000" pt_clust_7="13000.00000" pt_clust_8="13000.00000" pt_clust_9="77.28458"></scales>
<clustering>
<clus scale="   77.285">  2  9  1 -1</clus>
<clus scale="   80.530">  5  6 -1 -1</clus>
<clus scale="   87.083">  7  8 -1 -1</clus>
<clus scale="   94.092">  1  5  2 -1</clus>
<clus scale="   77.285">  2  5  1 -1</clus>
</clustering>
</event>
<event>
 9    2  0.1302972E-004  0.1038961E+03  0.7546771E-02  0.1274502E+00
          2   -1    0    0  502    0 -0.00000000000E+00  0.00000000000E+00  0.67935085010E+03  0.67935085010E+03  0.00000000000E+00 0. -1.
         21   -1    0    0  501  502  0.00000000000E+00 -0.00000000000E+00 -0.33413252478E+02  0.33413252478E+02  0.00000000000E+00 0. -1.
         24    2    1    2    0    0 -0.55827818373E+01  0.42338467413E+02  0.33541189423E+03  0.34795130532E+03  0.82129524563E+02 0.  0.
         23    2    1    2    0    0  0.45246770387E+02 -0.77845654257E+02  0.27068140370E+03  0.29831798150E+03  0.87281038376E+02 0.  0.
        -11    1    3    3    0    0  0.25008271836E+00  0.30672359927E+02  0.32244713705E+02  0.44503682621E+02  0.00000000000E+00 0.  1.
         12    1    3    3    0    0 -0.58328645556E+01  0.11666107485E+02  0.30316718052E+03  0.30344762269E+03  0.00000000000E+00 0. -1.
        -11    1    4    4    0    0  0.46249621914E+02 -0.20125866162E+01  0.71409689860E+02  0.85102419695E+02  0.00000000000E+00 0. -1.
         11    1    4    4    0    0 -0.10028515271E+01 -0.75833067641E+02  0.19927171384E+03  0.21321556180E+03  0.00000000000E+00 0.  1.
          1    1    1    2  501    0 -0.39663988549E+02  0.35507186844E+02  0.39844299693E+02  0.66494815763E+02  0.00000000000E+00 0. -1.
<scales pt_clust_5="13000.00000" pt_clust_6="13000.00000" pt_clust_7="13000.00000" pt_clust_8="13000.00000" pt_clust_9="53.23525"></scales>
<clustering>
<clus scale="   53.235">  2  9  1 -1</clus>
<clus scale="   82.130">  5  6 -1 -1</clus>
<clus scale="   87.281">  7  8 -1 -1</clus>
<clus scale="   99.608">  1  5  2 -1</clus>
<clus scale="   53.235">  2  5  1 -1</clus>
</clustering>
</event>
<event>
 9    2  0.1302972E-004  0.2464781E+03  0.7546771E-02  0.1134428E+00
         21   -1    0    0  501  502  0.00000000000E+00  0.00000000000E+00  0.30115462879E+03  0.30115462879E+03  0.00000000000E+00 0.  1.
          2   -1    0    0  502    0 -0.00000000000E+00 -0.00000000000E+00 -0.75915579016E+03  0.75915579016E+03  0.00000000000E+00 0. -1.
         24    2    1    2    0    0 -0.12938821340E+03 -0.17768039151E+02 -0.79671067422E+02  0.17372533374E+03  0.82316460179E+02 0.  0.
         23    2    1    2    0    0 -0.14354665735E+03  0.16781812495E+03  0.14344923215E+03  0.27891565446E+03  0.91911338809E+02 0.  0.
        -11    1    3    3    0    0 -0.93430897473E+02  0.20581038087E+02 -0.27227955712E+02  0.99469961816E+02  0.00000000000E+00 0.  1.
         12    1    3    3    0    0 -0.35957315930E+02 -0.38349077238E+02 -0.52443111710E+02  0.74255371925E+02  0.00000000000E+00 0. -1.
        -11    1    4    4    0    0 -0.15317314927E+03  0.13250996535E+03  0.11910724508E+03  0.23496263619E+03  0.00000000000E+00 0.  1.
         11    1    4    4    0    0  0.96264919170E+01  0.35308159598E+02  0.24341987071E+02  0.43953018274E+02  0.00000000000E+00 0. -1.
          1    1    1    2  501    0  0.27293487076E+03 -0.15005008580E+03 -0.52177932610E+03  0.60766943075E+03  0.00000000000E+00 0. -1.
<scales pt_clust_5="13000.00000" pt_clust_6="13000.00000" pt_clust_7="13000.00000" pt_clust_8="13000.00000" pt_clust_9="228.70022"></scales>
<clustering>
<clus scale="   82.316">  5  6 -1 -1</clus>
<clus scale="   91.911">  7  8 -1 -1</clus>
<clus scale="  154.379">  2  5  1 -1</clus>
<clus scale="  228.700">  1  9  2 -1</clus>
<clus scale="  228.700">  1  5  2 -1</clus>
</clustering>
</event>
<event>
 9    2  0.1302972E-004  0.1148608E+03  0.7546771E-02  0.1255195E+00
         21   -1    0    0  501  502  0.00000000000E+00  0.00000000000E+00  0.69226263413E+03  0.69226263413E+03  0.00000000000E+00 0.  1.
         -1   -1    0    0    0  501 -0.00000000000E+00 -0.00000000000E+00 -0.30816044328E+02  0.30816044328E+02  0.00000000000E+00 0.  1.
         23    2    1    2    0    0 -0.47406033143E+02  0.55385008716E+02  0.16863349533E+03  0.20445221368E+03  0.89714105702E+02 0.  0.
         24    2    1    2    0    0  0.68179843878E+01 -0.78940481372E+02  0.38310627185E+03  0.39930405731E+03  0.79970182850E+02 0.  0.
        -13    1    4    4    0    0 -0.53446253493E+01 -0.73732200612E+02  0.16508091411E+03  0.18087761230E+03  0.00000000000E+00 0.  1.
         14    1    4    4    0    0  0.12162609737E+02 -0.52082807602E+01  0.21802535774E+03  0.21842644501E+03  0.00000000000E+00 0. -1.
        -11    1    3    3    0    0 -0.28668624734E+02  0.74747371124E+02  0.15453918214E+03  0.17404429997E+03  0.00000000000E+00 0.  1.
         11    1    3    3    0    0 -0.18737408409E+02 -0.19362362409E+02  0.14094313186E+02  0.30407913709E+02  0.00000000000E+00 0. -1.
         -2    1    1    2    0  502  0.40588048756E+02  0.23555472656E+02  0.10970682262E+03  0.11932240747E+03  0.00000000000E+00 0.  1.
<scales pt_clust_5="13000.00000" pt_clust_6="13000.00000" pt_clust_7="13000.00000" pt_clust_8="13000.00000" pt_clust_9="46.92814"></scales>
<clustering>
<clus scale="   46.928">  1  9  2 -1</clus>
<clus scale="   79.970">  5  6 -1 -1</clus>
<clus scale="   89.714">  7  8 -1 -1</clus>
<clus scale="  107.423">  1  5  2 -1</clus>
<clus scale="   46.928">  1  5  2 -1</clus>
</clustering>
</event>
<event>
 9    2  0.1302972E-004  0.1665775E+03  0.7546771E-02  0.1183066E+00
         21   -1    0    0  501  502  0.00000000000E+00  0.00000000000E+00  0.21848115973E+03  0.21848115973E+03  0.00000000000E+00 0. -1.
          2   -1    0    0  502    0 -0.00000000000E+00 -0.00000000000E+00 -0.68810120663E+03  0.68810120663E+03  0.00000000000E+00 0. -1.
         24    2    1    2    0    0  0.14063336108E+03 -0.39005240258E+02 -0.62061788919E+03  0.64266128056E+03  0.80918515324E+02 0.  0.
         23    2    1    2    0    0 -0.47138880292E+02  0.67381028879E+01  0.12361559237E+03  0.16129470663E+03  0.92020061092E+02 0.  0.
        -13    1    3    3    0    0  0.53763227859E+01 -0.27817321623E+02 -0.68947569617E+02  0.74541770740E+02  0.00000000000E+00 0.  1.
         14    1    3    3    0    0  0.13525703830E+03 -0.11187918635E+02 -0.55167031958E+03  0.56811950982E+03  0.00000000000E+00 0. -1.
        -13    1    4    4    0    0  0.83588087711E+01  0.36399356611E+02  0.66714247807E+02  0.76456351640E+02  0.00000000000E+00 0.  1.
         13    1    4    4    0    0 -0.55497689063E+02 -0.29661253723E+02  0.56901344562E+02  0.84838354986E+02  0.00000000000E+00 0. -1.
          1    1    1    2  501    0 -0.93494480793E+02  0.32267137370E+02  0.27382249925E+02  0.10262637918E+03  0.00000000000E+00 0. -1.
<scales pt_clust_5="13000.00000" pt_clust_6="13000.00000" pt_clust_7="13000.00000" pt_clust_8="13000.00000" pt_clust_9="98.90595"></scales>
<clustering>
<clus scale="   80.919">  5  6 -1 -1</clus>
<clus scale="   92.020">  7  8 -1 -1</clus>
<clus scale="   98.906">  1  9  2 -1</clus>
<clus scale="  160.711">  2  5  1 -1</clus>
<clus scale="   98.906">  1  5  2 -1</clus>
</clustering>
</event>
<event>
 9    2  0.1302972E-004  0.2284010E+03  0.7546771E-02  0.1128884E+00
         21   -1    0    0  501  502  0.00000000000E+00  0.00000000000E+00  0.11973726651E+03  0.11973726651E+03  0.00000000000E+00 0. -1.
          2   -1    0    0  502    0 -0.00000000000E+00 -0.00000000000E+00 -0.12900010178E+04  0.12900010178E+04  0.00000000000E+00 0. -1.
         24    2    1    2    0    0  0.15983659468E+03  0.98302831871E+02 -0.74600174929E+03  0.77323296417E+03  0.78481992797E+02 0.  0.
         23    2    1    2    0    0 -0.23391308383E+03 -0.21769589860E+03 -0.31438778280E+03  0.45813947509E+03  0.94579414308E+02 0.  0.
        -11    1    3    3    0    0  0.26648025415E+02 -0.74266122477E+01 -0.54377889935E+02  0.61010054432E+02  0.00000000000E+00 0.  1.
         12    1    3    3    0    0  0.13318856927E+03  0.10572944412E+03 -0.69162385935E+03  0.71222290974E+03  0.00000000000E+00 0. -1.
        -13    1    4    4    0    0 -0.86040691834E+02 -0.36448731819E+02 -0.53232712463E+02  0.10754177039E+03  0.00000000000E+00 0.  1.
         13    1    4    4    0    0 -0.14787239200E+03 -0.18124716678E+03 -0.26115507034E+03  0.35059770470E+03  0.00000000000E+00 0. -1.
          1    1    1    2  501    0  0.74076489151E+02  0.11939306673E+03 -0.10987421916E+03  0.17836584500E+03  0.00000000000E+00 0. -1.
<scales pt_clust_5="13000.00000" pt_clust_6="13000.00000" pt_clust_7="13000.00000" pt_clust_8="13000.00000" pt_clust_9="140.50634"></scales>
<clustering>
<clus scale="   78.482">  5  6 -1 -1</clus>
<clus scale="   94.579">  7  8 -1 -1</clus>
<clus scale="  140.506">  1  9  2 -1</clus>
<clus scale="  222.219">  2  5  1 -1</clus>
<clus scale="  140.506">  1  5  2 -1</clus>
</clustering>
</event>
<event>
 9    2  0.1302972E-004  0.1256873E+03  0.7546771E-02  0.1237380E+00
          4   -1    0    0  502    0 -0.00000000000E+00  0.00000000000E+00  0.58050778439E+03  0.58050778439E+03  0.00000000000E+00 0. -1.
         21   -1    0    0  501  502  0.00000000000E+00 -0.00000000000E+00 -0.50932806599E+02  0.50932806599E+02  0.00000000000E+00 0. -1.
         24    2    1    2    0    0  0.64251206519E+02 -0.46764505314E+02  0.22673528172E+03  0.25305870384E+03  0.79464980454E+02 0.  0.
         23    2    1    2    0    0 -0.92996456046E+02  0.50607342905E+02  0.96304597459E+02  0.16982061622E+03  0.91405810581E+02 0.  0.
        -13    1    3    3    0    0 -0.26786642089E+01 -0.36988510035E+02  0.40469279910E+02  0.54891599840E+02  0.00000000000E+00 0.  1.
         14    1    3    3    0    0  0.66929870728E+02 -0.97759952788E+01  0.18626600181E+03  0.19816710400E+03  0.00000000000E+00 0. -1.
        -11    1    4    4    0    0 -0.41658316747E+02 -0.24153132448E+02  0.23823299693E+02  0.53724656997E+02  0.00000000000E+00 0. -1.
         11    1    4    4    0    0 -0.51338139300E+02  0.74760475352E+02  0.72481297766E+02  0.11609595922E+03  0.00000000000E+00 0.  1.
          3    1    1    2  501    0  0.28745249527E+02 -0.38428375904E+01  0.20653509861E+03  0.20856127092E+03  0.00000000000E+00 0. -1.
<scales pt_clust_5="13000.00000" pt_clust_6="13000.00000" pt_clust_7="13000.00000" pt_clust_8="13000.00000" pt_clust_9="29.00099"></scales>
<clustering>
<clus scale="   29.001">  2  9  1 -1</clus>
<clus scale="   79.465">  5  6 -1 -1</clus>
<clus scale="   91.406">  7  8 -1 -1</clus>
<clus scale="  117.290">  1  5  2 -1</clus>
<clus scale="   29.001">  2  5  1 -1</clus>
</clustering>
</event>
<event>
 9    2  0.1302972E-004  0.2021069E+03  0.7546771E-02  0.1148619E+00
         21   -1    0    0  501  502  0.00000000000E+00  0.00000000000E+00  0.16183226854E+03  0.16183226854E+03  0.00000000000E+00 0.  1.
         -3   -1    0    0    0  501 -0.00000000000E+00 -0.00000000000E+00 -0.30205919615E+03  0.30205919615E+03  0.00000000000E+00 0.  1.
         24    2    1    2    0    0  0.72096430991E+02 -0.17143485807E+03 -0.89873316673E+02  0.22325739082E+03  0.84728056637E+02 0.  0.
         23    2    1    2    0    0 -0.97990759235E+02  0.14514890774E+03 -0.49168830632E+02  0.20371698942E+03  0.91720464235E+02 0.  0.
        -11    1    3    3    0    0  0.32575886424E+02 -0.15829733545E+03 -0.80567761992E+02  0.18058349609E+03  0.00000000000E+00 0.  1.
         12    1    3    3    0    0  0.39520544567E+02 -0.13137522620E+02 -0.93055546803E+01  0.42673894729E+02  0.00000000000E+00 0. -1.
        -13    1    4    4    0    0 -0.11474876005E+02  0.62635222084E+02 -0.54825417871E+02  0.84027794626E+02  0.00000000000E+00 0. -1.
         13    1    4    4    0    0 -0.86515883230E+02  0.82513685652E+02  0.56565872394E+01  0.11968919479E+03  0.00000000000E+00 0.  1.
         -4    1    1    2    0  502  0.25894328244E+02  0.26285950332E+02 -0.11847803009E+01  0.36917084452E+02  0.00000000000E+00 0.  1.
<scales pt_clust_5="13000.00000" pt_clust_6="13000.00000" pt_clust_7="13000.00000" pt_clust_8="13000.00000" pt_clust_9="36.89807"></scales>
<clustering>
<clus scale="   36.898">  1  9  2 -1</clus>
<clus scale="   84.728">  5  6 -1 -1</clus>
<clus scale="   91.720">  7  8 -1 -1</clus>
<clus scale="  199.031">  2  5  1 -1</clus>
<clus scale="   36.898">  1  5  2 -1</clus>
</clustering>
</event>
<event>
 9    2  0.1302972E-004  0.1038210E+03  0.7546771E-02  0.1276310E+00
         21   -1    0    0  501  502  0.00000000000E+00  0.00000000000E+00  0.66838095950E+02  0.66838095950E+02  0.00000000000E+00 0.  1.
          2   -1    0    0  502    0 -0.00000000000E+00 -0.00000000000E+00 -0.59507531162E+03  0.59507531162E+03  0.00000000000E+00 0. -1.
         23    2    1    2    0    0 -0.42293642793E+02  0.16937514570E+02 -0.42438209235E+03  0.43599280520E+03  0.88960295960E+02 0.  0.
         24    2    1    2    0    0  0.76986428297E+02 -0.69382037189E+02 -0.96219614672E+02  0.16257773923E+03  0.80203053676E+02 0.  0.
        -11    1    4    4    0    0  0.61166452976E+02 -0.85551201686E+02 -0.91650834492E+02  0.13949988725E+03  0.00000000000E+00 0.  1.
         12    1    4    4    0    0  0.15819975321E+02  0.16169164497E+02 -0.45687801802E+01  0.23077851980E+02  0.00000000000E+00 0. -1.
        -13    1    3    3    0    0  0.19393001200E+02  0.27002597685E+02 -0.92893004081E+02  0.98662753785E+02  0.00000000000E+00 0.  1.
         13    1    3    3    0    0 -0.61686643993E+02 -0.10065083115E+02 -0.33148908827E+03  0.33733005141E+03  0.00000000000E+00 0. -1.
          1    1    1    2  501    0 -0.34692785503E+02  0.52444522619E+02 -0.76355086479E+01  0.63342863142E+02  0.00000000000E+00 0. -1.
<scales pt_clust_5="13000.00000" pt_clust_6="13000.00000" pt_clust_7="13000.00000" pt_clust_8="13000.00000" pt_clust_9="62.88098"></scales>
<clustering>
<clus scale="   62.881">  1  9  2 -1</clus>
<clus scale="   80.203">  5  6 -1 -1</clus>
<clus scale="   88.960">  7  8 -1 -1</clus>
<clus scale="   96.423">  1  5  2 -1</clus>
<clus scale="   62.881">  1  5  2 -1</clus>
</clustering>
</event>
<event>
 9    2  0.1302972E-004  0.1799388E+03  0.7546771E-02  0.1173455E+00
          2   -1    0    0  502    0 -0.00000000000E+00  0.00000000000E+00  0.28420122803E+03  0.28420122803E+03  0.00000000000E+00 0. -1.
         21   -1    0    0  501  502  0.00000000000E+00 -0.00000000000E+00 -0.19666439028E+03  0.19666439028E+03  0.00000000000E+00 0. -1.
         23    2    1    2    0    0 -0.76439793092E+02  0.12681109963E+03  0.74445589123E+02  0.20293574819E+03  0.11711821035E+03 0.  0.
         24    2    1    2    0    0  0.38848161620E-01 -0.12835875457E+03 -0.68552371558E+02  0.16610330647E+03  0.80093129478E+02 0.  0.
        -13    1    4    4    0    0 -0.25261556326E+02 -0.12003132615E+02 -0.29830290271E+02  0.40890923666E+02  0.00000000000E+00 0.  1.
         14    1    4    4    0    0  0.25300404488E+02 -0.11635562196E+03 -0.38722081286E+02  0.12521238280E+03  0.00000000000E+00 0. -1.
        -11    1    3    3    0    0  0.24917131593E+02 -0.33424688843E+00  0.22288559826E+01  0.25018852227E+02  0.00000000000E+00 0.  1.
         11    1    3    3    0    0 -0.10135692468E+03  0.12714534652E+03  0.72216733140E+02  0.17791689596E+03  0.00000000000E+00 0. -1.
          1    1    1    2  501    0  0.76400944931E+02  0.15476549392E+01  0.81643620179E+02  0.11182656365E+03  0.00000000000E+00 0. -1.
<scales pt_clust_5="13000.00000" pt_clust_6="13000.00000" pt_clust_7="13000.00000" pt_clust_8="13000.00000" pt_clust_9="76.41666"></scales>
<clustering>
<clus scale="   76.417">  2  9  1 -1</clus>
<clus scale="   80.093">  5  6 -1 -1</clus>
<clus scale="  117.118">  7  8 -1 -1</clus>
<clus scale="  158.355">  2  5  1 -1</clus>
<clus scale="   76.417">  2  5  1 -1</clus>
</clustering>
</event>
<event>
 9    2  0.1302972E-004  0.2674641E+03  0.7546771E-02  0.1122207E+00
          2   -1    0    0  502    0 -0.00000000000E+00  0.00000000000E+00  0.90362888274E+03  0.90362888274E+03  0.00000000000E+00 0. -1.
         21   -1    0    0  501  502  0.00000000000E+00 -0.00000000000E+00 -0.37545808565E+03  0.37545808565E+03  0.00000000000E+00 0. -1.
         23    2    1    2    0    0 -0.67466447752E+01 -0.13092292622E+03 -0.13979282770E+03  0.21493148970E+03  0.97299438666E+02 0.  0.
         24    2    1    2    0    0  0.25573413507E+03  0.10520693921E+03  0.74656410686E+03  0.80179290877E+03  0.95107596968E+02 0.  0.
        -13    1    4    4    0    0  0.59440589052E+02  0.22459958728E+02  0.30476853050E+03  0.31132216522E+03  0.00000000000E+00 0.  1.
         14    1    4    4    0    0  0.19629354602E+03  0.82746980483E+02  0.44179557636E+03  0.49047074356E+03  0.00000000000E+00 0. -1.
        -13    1    3    3    0    0 -0.50446911872E+02 -0.48600869064E+02 -0.58972187509E+02  0.91567757922E+02  0.00000000000E+00 0.  1.
         13    1    3    3    0    0  0.43700267097E+02 -0.82322057154E+02 -0.80820640191E+02  0.12336373178E+03  0.00000000000E+00 0. -1.
          1    1    1    2  501    0 -0.24898749030E+03  0.25715987006E+02 -0.78600482069E+02  0.26236256992E+03  0.00000000000E+00 0. -1.
<scales pt_clust_5="13000.00000" pt_clust_6="13000.00000" pt_clust_7="13000.00000" pt_clust_8="13000.00000" pt_clust_9="249.98314"></scales>
<clustering>
<clus scale="   95.108">  5  6 -1 -1</clus>
<clus scale="   97.299">  7  8 -1 -1</clus>
<clus scale="  163.259">  1  7  2 -1</clus>
<clus scale="  249.983">  2  9  1 -1</clus>
<clus scale="  249.983">  2  5  1 -1</clus>
</clustering>
</event>
<event>
 9    2  0.1302972E-004  0.2103876E+03  0.7546771E-02  0.1179359E+00
         21   -1    0    0  501  502  0.00000000000E+00  0.00000000000E+00  0.22785295501E+03  0.22785295501E+03  0.00000000000E+00 0.  1.
         -1   -1    0    0    0  501 -0.00000000000E+00 -0.00000000000E+00 -0.45474012763E+03  0.45474012763E+03  0.00000000000E+00 0.  1.
         24    2    1    2    0    0 -0.87026018654E+01  0.31199957202E+02 -0.16226955632E+03  0.18397242001E+03  0.80406901488E+02 0.  0.
         23    2    1    2    0    0 -0.14475075370E+03  0.84588727298E+02 -0.18865998623E+03  0.26983809919E+03  0.95456670204E+02 0.  0.
        -11    1    3    3    0    0  0.18207633074E+01  0.35596453618E+02 -0.16762513119E+03  0.17137271456E+03  0.00000000000E+00 0.  1.
         12    1    3    3    0    0 -0.10523365173E+02 -0.43964964155E+01  0.53555748674E+01  0.12599705451E+02  0.00000000000E+00 0. -1.
        -11    1    4    4    0    0 -0.13808359660E+03  0.53939556690E+02 -0.18671846070E+03  0.23841212006E+03  0.00000000000E+00 0.  1.
         11    1    4    4    0    0 -0.66671570999E+01  0.30649170608E+02 -0.19415255319E+01  0.31425979128E+02  0.00000000000E+00 0. -1.
         -2    1    1    2    0  502  0.15345335556E+03 -0.11578868450E+03  0.12404236994E+03  0.22878256344E+03  0.00000000000E+00 0.  1.
<scales pt_clust_5="13000.00000" pt_clust_6="13000.00000" pt_clust_7="13000.00000" pt_clust_8="13000.00000" pt_clust_9="187.48586"></scales>
<clustering>
<clus scale="   80.407">  5  6 -1 -1</clus>
<clus scale="   86.686">  2  5  1 -1</clus>
<clus scale="   95.457">  7  8 -1 -1</clus>
<clus scale="  187.486">  1  9  2 -1</clus>
<clus scale="  187.486">  1  5  2 -1</clus>
</clustering>
</event>
<event>
 9    2  0.1302972E-004  0.1606404E+03  0.7546771E-02  0.1189820E+00
          2   -1    0    0  502    0 -0.00000000000E+00  0.00000000000E+00  0.10609752550E+04  0.10609752550E+04  0.00000000000E+00 0. -1.
         21   -1    0    0  501  502  0.00000000000E+00 -0.00000000000E+00 -0.39001327751E+02  0.39001327751E+02  0.00000000000E+00 0. -1.
         24    2    1    2    0    0  0.13468782479E+03 -0.45127277621E+02  0.60898177593E+03  0.63032663268E+03  0.79218552868E+02 0.  0.
         23    2    1    2    0    0 -0.11365768487E+03  0.39537592497E+02  0.42039306706E+03  0.44666550052E+03  0.91095817529E+02 0.  0.
        -13    1    3    3    0    0  0.93260089768E+02 -0.41530984161E+02  0.54166628561E+03  0.55120289545E+03  0.00000000000E+00 0.  1.
         14    1    3    3    0    0  0.41427735022E+02 -0.35962934599E+01  0.67315490318E+02  0.79123737225E+02  0.00000000000E+00 0. -1.
        -13    1    4    4    0    0 -0.67185439360E+02 -0.18075380538E+02  0.27305470715E+03  0.28177912581E+03  0.00000000000E+00 0. -1.
         13    1    4    4    0    0 -0.46472245513E+02  0.57612973035E+02  0.14733835991E+03  0.16488637471E+03  0.00000000000E+00 0.  1.
          1    1    1    2  501    0 -0.21030139917E+02  0.55896851244E+01 -0.74009157849E+01  0.22984449507E+02  0.00000000000E+00 0. -1.
<scales pt_clust_5="13000.00000" pt_clust_6="13000.00000" pt_clust_7="13000.00000" pt_clust_8="13000.00000" pt_clust_9="21.76032"></scales>
<clustering>
<clus scale="   21.760">  2  9  1 -1</clus>
<clus scale="   79.219">  5  6 -1 -1</clus>
<clus scale="   91.096">  7  8 -1 -1</clus>
<clus scale="  154.216">  1  5  2 -1</clus>
<clus scale="   21.760">  2  5  1 -1</clus>
</clustering>
</event>
<event>
 9    2  0.1579180E-004  0.1377075E+03  0.7546771E-02  0.1218313E+00
         21   -1    0    0  501  502  0.00000000000E+00  0.00000000000E+00  0.43150221699E+03  0.43150221699E+03  0.00000000000E+00 0. -1.
          2   -1    0    0  502    0 -0.00000000000E+00 -0.00000000000E+00 -0.29572929325E+03  0.29572929325E+03  0.00000000000E+00 0. -1.
         24    2    1    2    0    0 -0.68572574619E+02  0.89946105987E+02  0.42504799092E+02  0.14452293136E+03  0.79295143435E+02 0.  0.
         23    2    1    2    0    0  0.70870280430E+02 -0.46252050991E+02  0.32486283750E+03  0.34701691395E+03  0.87880751660E+02 0.  0.
        -11    1    3    3    0    0 -0.35798618907E+02  0.97579674413E+02  0.26524727719E+02  0.10727019695E+03  0.00000000000E+00 0.  1.
         12    1    3    3    0    0 -0.32773955712E+02 -0.76335684261E+01  0.15980071373E+02  0.37252734410E+02  0.00000000000E+00 0. -1.
        -11    1    4    4    0    0  0.76875860221E+02 -0.20295787012E+02  0.30075244156E+03  0.31108495296E+03  0.00000000000E+00 0.  1.
         11    1    4    4    0    0 -0.60055797905E+01 -0.25956263980E+02  0.24110395943E+02  0.35931960995E+02  0.00000000000E+00 0. -1.
          1    1    1    2  501    0 -0.22977058109E+01 -0.43694054995E+02 -0.23159471285E+03  0.23569166492E+03  0.00000000000E+00 0. -1.
<scales pt_clust_5="13000.00000" pt_clust_6="13000.00000" pt_clust_7="13000.00000" pt_clust_8="13000.00000" pt_clust_9="43.75445"></scales>
<clustering>
<clus scale="   43.754">  1  9  2 -1</clus>
<clus scale="   79.295">  5  6 -1 -1</clus>
<clus scale="   87.881">  7  8 -1 -1</clus>
<clus scale="  132.394">  2  5  1 -1</clus>
<clus scale="   43.754">  1  5  2 -1</clus>
</clustering>
</event>
<event>
 9    2  0.1302972E-004  0.1259865E+03  0.7546771E-02  0.1253408E+00
         -1   -1    0    0    0  501 -0.00000000000E+00  0.00000000000E+00  0.12123410622E+03  0.12123410622E+03  0.00000000000E+00 0.  1.
         21   -1    0    0  501  502  0.00000000000E+00 -0.00000000000E+00 -0.77198002462E+03  0.77198002462E+03  0.00000000000E+00 0.  1.
         24    2    1    2    0    0  0.99666426582E+01 -0.21888808047E+02  0.70433292069E+02  0.10988175798E+03  0.80837480305E+02 0.  0.
         23    2    1    2    0    0  0.64895914280E+02 -0.26444880502E+02 -0.90141273309E+02  0.14603383527E+03  0.91047353029E+02 0.  0.
        -11    1    3    3    0    0  0.31436618514E+02  0.19337065424E+02  0.39434839846E+02  0.54011940129E+02  0.00000000000E+00 0.  1.
         12    1    3    3    0    0 -0.21469975856E+02 -0.41225873472E+02  0.30998452223E+02  0.55869817853E+02  0.00000000000E+00 0. -1.
        -11    1    4    4    0    0  0.52166248873E+02  0.19514347670E+02 -0.16124275384E+02  0.57983786899E+02  0.00000000000E+00 0.  1.
         11    1    4    4    0    0  0.12729665407E+02 -0.45959228172E+02 -0.74016997925E+02  0.88050048367E+02  0.00000000000E+00 0. -1.
         -2    1    1    2    0  502 -0.74862556938E+02  0.48333688549E+02 -0.63103793716E+03  0.63729853759E+03  0.00000000000E+00 0.  1.
<scales pt_clust_5="13000.00000" pt_clust_6="13000.00000" pt_clust_7="13000.00000" pt_clust_8="13000.00000" pt_clust_9="87.08025"></scales>
<clustering>
<clus scale="   80.837">  5  6 -1 -1</clus>
<clus scale="   84.340">  1  5  2 -1</clus>
<clus scale="   87.080">  2  9  1 -1</clus>
<clus scale="   91.047">  7  8 -1 -1</clus>
<clus scale="   87.080">  2  5  1 -1</clus>
</clustering>
</event>
<event>
 9    2  0.1302972E-004  0.1576046E+03  0.7546771E-02  0.1221094E+00
         21   -1    0    0  501  502  0.00000000000E+00  0.00000000000E+00  0.61762687196E+02  0.61762687196E+02  0.00000000000E+00 0. -1.
          2   -1    0    0  502    0 -0.00000000000E+00 -0.00000000000E+00 -0.58322371145E+03  0.58322371145E+03  0.00000000000E+00 0. -1.
         24    2    1    2    0    0  0.15688076750E+01 -0.28560223995E+02 -0.17775800988E+03  0.19630939756E+03  0.78238877433E+02 0.  0.
         23    2    1    2    0    0 -0.99706593219E+02  0.98668957305E+02 -0.20721801065E+03  0.26653854913E+03  0.91796113042E+02 0.  0.
        -11    1    3    3    0    0  0.54826651681E+01  0.26987005164E+02 -0.62931042194E+02  0.68692606128E+02  0.00000000000E+00 0.  1.
         12    1    3    3    0    0 -0.39138574931E+01 -0.55547229158E+02 -0.11482696769E+03  0.12761679144E+03  0.00000000000E+00 0. -1.
        -11    1    4    4    0    0 -0.60960891236E+02  0.10911783437E+03 -0.17511953663E+03  0.21515060805E+03  0.00000000000E+00 0. -1.
         11    1    4    4    0    0 -0.38745701982E+02 -0.10448877061E+02 -0.32098474022E+02  0.51387941080E+02  0.00000000000E+00 0.  1.
          1    1    1    2  501    0  0.98137785544E+02 -0.70108733310E+02 -0.13648500373E+03  0.18213845195E+03  0.00000000000E+00 0. -1.
<scales pt_clust_5="13000.00000" pt_clust_6="13000.00000" pt_clust_7="13000.00000" pt_clust_8="13000.00000" pt_clust_9="128.11194"></scales>
<clustering>
<clus scale="   78.239">  5  6 -1 -1</clus>
<clus scale="   83.303">  2  5  1 -1</clus>
<clus scale="   91.796">  7  8 -1 -1</clus>
<clus scale="  128.112">  1  9  2 -1</clus>
<clus scale="  128.112">  1  5  2 -1</clus>
</clustering>
</event>
<event>
 9    2  0.1302972E-004  0.9888917E+02  0.7546771E-02  0.1287296E+00
         21   -1    0    0  501  502  0.00000000000E+00  0.00000000000E+00  0.13656689009E+03  0.13656689009E+03  0.00000000000E+00 0.  1.
         -1   -1    0    0    0  501 -0.00000000000E+00 -0.00000000000E+00 -0.25066662223E+03  0.25066662223E+03  0.00000000000E+00 0.  1.
         23    2    1    2    0    0  0.32238969385E+02  0.20006068974E+02 -0.12284464896E+03  0.15663393014E+03  0.89463882932E+02 0.  0.
         24    2    1    2    0    0 -0.46680477943E+02 -0.57150554134E+02  0.89193083702E+02  0.14082109088E+03  0.80186785674E+02 0.  0.
        -11    1    4    4    0    0 -0.57623053033E+02 -0.70831276646E+02  0.72084783070E+02  0.11633444005E+03  0.00000000000E+00 0.  1.
         12    1    4    4    0    0  0.10942575090E+02  0.13680722513E+02  0.17108300632E+02  0.24486650824E+02  0.00000000000E+00 0. -1.
        -11    1    3    3    0    0 -0.14514249469E+02  0.38220448848E+02 -0.28695575017E+02  0.49948995719E+02  0.00000000000E+00 0. -1.
         11    1    3    3    0    0  0.46753218853E+02 -0.18214379874E+02 -0.94149073948E+02  0.10668493442E+03  0.00000000000E+00 0.  1.
         -2    1    1    2    0  502  0.14441508559E+02  0.37144485160E+02 -0.80448166880E+02  0.89778491308E+02  0.00000000000E+00 0.  1.
<scales pt_clust_5="13000.00000" pt_clust_6="13000.00000" pt_clust_7="13000.00000" pt_clust_8="13000.00000" pt_clust_9="39.85312"></scales>
<clustering>
<clus scale="   39.853">  1  9  2 -1</clus>
<clus scale="   80.187">  5  6 -1 -1</clus>
<clus scale="   89.464">  7  8 -1 -1</clus>
<clus scale="   90.583">  1  5  2 -1</clus>
<clus scale="   39.853">  1  5  2 -1</clus>
</clustering>
</event>
<event>
 9    2  0.1302972E-004  0.1144495E+03  0.7546771E-02  0.1256525E+00
         21   -1    0    0  501  502  0.00000000000E+00  0.00000000000E+00  0.15141851605E+03  0.15141851605E+03  0.00000000000E+00 0.  1.
         -3   -1    0    0    0  501 -0.00000000000E+00 -0.00000000000E+00 -0.21798056385E+03  0.21798056385E+03  0.00000000000E+00 0.  1.
         24    2    1    2    0    0  0.74537500912E+02  0.22171665345E+01 -0.16018409335E+03  0.19408218968E+03  0.80300670739E+02 0.  0.
         23    2    1    2    0    0 -0.33921676846E+02 -0.24837250975E+02  0.73692682191E+02  0.12473534310E+03  0.91437001338E+02 0.  0.
        -11    1    3    3    0    0 -0.73157325219E+00 -0.27760661475E+02 -0.51660571844E+02  0.58651549069E+02  0.00000000000E+00 0.  1.
         12    1    3    3    0    0  0.75269074164E+02  0.29977828010E+02 -0.10852352150E+03  0.13543064061E+03  0.00000000000E+00 0. -1.
        -11    1    4    4    0    0  0.12822171300E+02 -0.46797936943E+02  0.41733542517E+02  0.64001121475E+02  0.00000000000E+00 0.  1.
         11    1    4    4    0    0 -0.46743848146E+02  0.21960685969E+02  0.31959139674E+02  0.60734221625E+02  0.00000000000E+00 0. -1.
         -4    1    1    2    0  502 -0.40615824066E+02  0.22620084440E+02  0.19929363361E+02  0.50581547116E+02  0.00000000000E+00 0.  1.
<scales pt_clust_5="13000.00000" pt_clust_6="13000.00000" pt_clust_7="13000.00000" pt_clust_8="13000.00000" pt_clust_9="46.48993"></scales>
<clustering>
<clus scale="   46.490">  1  9  2 -1</clus>
<clus scale="   80.301">  5  6 -1 -1</clus>
<clus scale="   91.437">  7  8 -1 -1</clus>
<clus scale="  105.765">  2  5  1 -1</clus>
<clus scale="   46.490">  1  5  2 -1</clus>
</clustering>
</event>
<event>
 9    2  0.1302972E-004  0.1169747E+03  0.7546771E-02  0.1250736E+00
         21   -1    0    0  501  502  0.00000000000E+00  0.00000000000E+00  0.44576265196E+02  0.44576265196E+02  0.00000000000E+00 0. -1.
          2   -1    0    0  502    0 -0.00000000000E+00 -0.00000000000E+00 -0.61068688279E+03  0.61068688279E+03  0.00000000000E+00 0. -1.
         24    2    1    2    0    0  0.57194558634E+02 -0.54726293033E+02 -0.39535476483E+03  0.41160555968E+03  0.82749996993E+02 0.  0.
         23    2    1    2    0    0 -0.57550322751E+02  0.32440330719E+02 -0.18567151615E+03  0.21683842168E+03  0.90446528398E+02 0.  0.
        -11    1    3    3    0    0  0.26128276771E+02 -0.72905039770E+02 -0.24232892751E+03  0.25440349993E+03  0.00000000000E+00 0.  1.
         12    1    3    3    0    0  0.31066281863E+02  0.18178746738E+02 -0.15302583732E+03  0.15720205975E+03  0.00000000000E+00 0. -1.
        -11    1    4    4    0    0 -0.25059764510E+02  0.30078859452E+02 -0.17945302529E+03  0.18367394445E+03  0.00000000000E+00 0. -1.
         11    1    4    4    0    0 -0.32490558241E+02  0.23614712677E+01 -0.62184908638E+01  0.33164477231E+02  0.00000000000E+00 0.  1.
          1    1    1    2  501    0  0.35576411724E+00  0.22285962313E+02  0.14915663386E+02  0.26819166627E+02  0.00000000000E+00 0. -1.
<scales pt_clust_5="13000.00000" pt_clust_6="13000.00000" pt_clust_7="13000.00000" pt_clust_8="13000.00000" pt_clust_9="22.28880"></scales>
<clustering>
<clus scale="   22.289">  1  9  2 -1</clus>
<clus scale="   82.750">  5  6 -1 -1</clus>
<clus scale="   90.447">  7  8 -1 -1</clus>
<clus scale="  111.131">  2  5  1 -1</clus>
<clus scale="   22.289">  1  5  2 -1</clus>
</clustering>
</event>
<event>
 9    2  0.1302972E-004  0.1171898E+03  0.7546771E-02  0.1251419E+00
         21   -1    0    0  501  502  0.00000000000E+00  0.00000000000E+00  0.33860959448E+02  0.33860959448E+02  0.00000000000E+00 0. -1.
          2   -1    0    0  502    0 -0.00000000000E+00 -0.00000000000E+00 -0.80946680804E+03  0.80946680804E+03  0.00000000000E+00 0. -1.
         24    2    1    2    0    0 -0.48598413660E+02 -0.60790305256E+02 -0.54930517397E+03  0.56077770262E+03  0.81720196906E+02 0.  0.
         23    2    1    2    0    0  0.61387371664E+02  0.11752173210E+02 -0.11459540648E+03  0.15988644854E+03  0.92331177096E+02 0.  0.
        -11    1    3    3    0    0  0.71673545978E+01 -0.54753110439E+02 -0.31871729854E+03  0.32346559394E+03  0.00000000000E+00 0.  1.
         12    1    3    3    0    0 -0.55765768257E+02 -0.60371948170E+01 -0.23058787543E+03  0.23731210868E+03  0.00000000000E+00 0. -1.
        -11    1    4    4    0    0  0.80382155440E+01  0.46906064571E+02 -0.47535539823E+02  0.67263804152E+02  0.00000000000E+00 0.  1.
         11    1    4    4    0    0  0.53349156119E+02 -0.35153891361E+02 -0.67059866660E+02  0.92622644386E+02  0.00000000000E+00 0. -1.
          1    1    1    2  501    0 -0.12788958004E+02  0.49038132046E+02 -0.11170526814E+03  0.12266361633E+03  0.00000000000E+00 0. -1.
<scales pt_clust_5="13000.00000" pt_clust_6="13000.00000" pt_clust_7="13000.00000" pt_clust_8="13000.00000" pt_clust_9="50.67836"></scales>
<clustering>
<clus scale="   50.678">  1  9  2 -1</clus>
<clus scale="   81.720">  5  6 -1 -1</clus>
<clus scale="   92.331">  7  8 -1 -1</clus>
<clus scale="  109.026">  2  5  1 -1</clus>
<clus scale="   50.678">  1  5  2 -1</clus>
</clustering>
</event>
<event>
 9    2  0.1302972E-004  0.1422174E+03  0.7546771E-02  0.1212440E+00
         21   -1    0    0  501  502  0.00000000000E+00  0.00000000000E+00  0.28863173716E+02  0.28863173716E+02  0.00000000000E+00 0. -1.
          2   -1    0    0  502    0 -0.00000000000E+00 -0.00000000000E+00 -0.12120978847E+04  0.12120978847E+04  0.00000000000E+00 0. -1.
         24    2    1    2    0    0  0.14787937503E+02 -0.12107304124E+03 -0.64489412897E+03  0.66134895265E+03  0.81342702034E+02 0.  0.
         23    2    1    2    0    0  0.24898835787E+02  0.96056538336E+02 -0.50336120913E+03  0.52109354529E+03  0.91209459536E+02 0.  0.
        -13    1    3    3    0    0  0.42656170329E+02 -0.35662589028E+02 -0.20726042627E+03  0.21458856778E+03  0.00000000000E+00 0.  1.
         14    1    3    3    0    0 -0.27868232826E+02 -0.85410452214E+02 -0.43763370270E+03  0.44676038487E+03  0.00000000000E+00 0. -1.
        -11    1    4    4    0    0  0.49222475509E+02  0.24175550991E+02 -0.15089454903E+03  0.16055053499E+03  0.00000000000E+00 0. -1.
         11    1    4    4    0    0 -0.24323639722E+02  0.71880987344E+02 -0.35246666010E+03  0.36054301030E+03  0.00000000000E+00 0.  1.
          1    1    1    2  501    0 -0.39686773290E+02  0.25016502907E+02 -0.34979372858E+02  0.58518560452E+02  0.00000000000E+00 0. -1.
<scales pt_clust_5="13000.00000" pt_clust_6="13000.00000" pt_clust_7="13000.00000" pt_clust_8="13000.00000" pt_clust_9="46.91338"></scales>
<clustering>
<clus scale="   46.913">  1  9  2 -1</clus>
<clus scale="   81.343">  5  6 -1 -1</clus>
<clus scale="   91.209">  7  8 -1 -1</clus>
<clus scale="  136.100">  2  5  1 -1</clus>
<clus scale="   46.913">  1  5  2 -1</clus>
</clustering>
</event>
<event>
 9    2  0.1302972E-004  0.1480079E+03  0.7546771E-02  0.1206656E+00
         -1   -1    0    0    0  501 -0.00000000000E+00  0.00000000000E+00  0.75312028608E+03  0.75312028608E+03  0.00000000000E+00 0.  1.
         21   -1    0    0  501  502  0.00000000000E+00 -0.00000000000E+00 -0.46976857344E+02  0.46976857344E+02  0.00000000000E+00 0. -1.
         24    2    1    2    0    0  0.11235560774E+03 -0.32075914637E+02  0.57155316867E+03  0.58899809453E+03  0.81197806961E+02 0.  0.
         23    2    1    2    0    0 -0.81421875499E+02  0.24007822390E+02  0.10467764661E+03  0.16731829574E+03  0.99156971733E+02 0.  0.
        -11    1    3    3    0    0  0.10878551061E+03 -0.26266847091E+00  0.40258332395E+03  0.41702240832E+03  0.00000000000E+00 0.  1.
         12    1    3    3    0    0  0.35700971263E+01 -0.31813246166E+02  0.16896984472E+03  0.17197568622E+03  0.00000000000E+00 0. -1.
        -11    1    4    4    0    0  0.49889228775E+01  0.33789797747E+02  0.41676901736E+01  0.34409438017E+02  0.00000000000E+00 0. -1.
         11    1    4    4    0    0 -0.86410798376E+02 -0.97819753571E+01  0.10050995644E+03  0.13290885772E+03  0.00000000000E+00 0.  1.
         -2    1    1    2    0  502 -0.30933732242E+02  0.80680922462E+01  0.29912613455E+02  0.43780753153E+02  0.00000000000E+00 0.  1.
<scales pt_clust_5="13000.00000" pt_clust_6="13000.00000" pt_clust_7="13000.00000" pt_clust_8="13000.00000" pt_clust_9="31.96858"></scales>
<clustering>
<clus scale="   31.969">  2  9  1 -1</clus>
<clus scale="   81.198">  5  6 -1 -1</clus>
<clus scale="   99.157">  7  8 -1 -1</clus>
<clus scale="  136.628">  1  5  2 -1</clus>
<clus scale="   31.969">  2  5  1 -1</clus>
</clustering>
</event>
<event>
 9    2  0.1302972E-004  0.3614250E+03  0.7546771E-02  0.1102135E+00
         21   -1    0    0  501  502  0.00000000000E+00  0.00000000000E+00  0.32472211716E+03  0.32472211716E+03  0.00000000000E+00 0. -1.
          2   -1    0    0  502    0 -0.00000000000E+00 -0.00000000000E+00 -0.68284211748E+03  0.68284211748E+03  0.00000000000E+00 0. -1.
         24    2    1    2    0    0  0.36424737281E+02  0.66202645660E+02 -0.22836011049E+03  0.25351677396E+03  0.80080352369E+02 0.  0.
         23    2    1    2    0    0 -0.26476837727E+03  0.21849849230E+03  0.28045438764E+02  0.35643197103E+03  0.91724143997E+02 0.  0.
        -11    1    3    3    0    0 -0.12310410525E+01  0.71833336431E+02 -0.14217884126E+03  0.15929961264E+03  0.00000000000E+00 0.  1.
         12    1    3    3    0    0  0.37655778334E+02 -0.56306907713E+01 -0.86181269236E+02  0.94217161322E+02  0.00000000000E+00 0. -1.
        -11    1    4    4    0    0 -0.36049824580E+02 -0.29395261536E+01 -0.43835748781E+01  0.36434137769E+02  0.00000000000E+00 0.  1.
         11    1    4    4    0    0 -0.22871855269E+03  0.22143801845E+03  0.32429013642E+02  0.31999783326E+03  0.00000000000E+00 0. -1.
          1    1    1    2  501    0  0.22834363999E+03 -0.28470113796E+03 -0.15780532859E+03  0.39761548965E+03  0.00000000000E+00 0. -1.
<scales pt_clust_5="13000.00000" pt_clust_6="13000.00000" pt_clust_7="13000.00000" pt_clust_8="13000.00000" pt_clust_9="349.59242"></scales>
<clustering>
<clus scale="   80.080">  5  6 -1 -1</clus>
<clus scale="   91.724">  7  8 -1 -1</clus>
<clus scale="  110.102">  2  5  1 -1</clus>
<clus scale="  349.592">  1  9  2 -1</clus>
<clus scale="  349.592">  1  5  2 -1</clus>
</clustering>
</event>
<event>
 9    2  0.1302972E-004  0.9648832E+02  0.7546771E-02  0.1297272E+00
          2   -1    0    0  502    0 -0.00000000000E+00  0.00000000000E+00  0.26022388673E+03  0.26022388673E+03  0.00000000000E+00 0. -1.
         21   -1    0    0  501  502  0.00000000000E+00 -0.00000000000E+00 -0.29956569334E+03  0.29956569334E+03  0.00000000000E+00 0. -1.
         23    2    1    2    0    0 -0.66343402712E+01  0.42332962135E+02  0.20979886676E+03  0.23101674709E+03  0.86701088731E+02 0.  0.
         24    2    1    2    0    0 -0.63596402628E+02 -0.42099599027E+02 -0.43851615331E+02  0.11180276810E+03  0.68992870076E+02 0.  0.
        -13    1    4    4    0    0 -0.17502772284E+02 -0.43419085547E+02 -0.46010970145E+02  0.65639724261E+02  0.00000000000E+00 0.  1.
         14    1    4    4    0    0 -0.46093630344E+02  0.13194865197E+01  0.21593548136E+01  0.46163043835E+02  0.00000000000E+00 0. -1.
        -13    1    3    3    0    0 -0.40334899770E+02  0.18376793954E+02  0.16132779602E+03  0.16730591282E+03  0.00000000000E+00 0.  1.
         13    1    3    3    0    0  0.33700559499E+02  0.23956168180E+02  0.48471070735E+02  0.63710834263E+02  0.00000000000E+00 0. -1.
          1    1    1    2  501    0  0.70230742899E+02 -0.23336310739E+00 -0.20528905804E+03  0.21697006489E+03  0.00000000000E+00 0. -1.
<scales pt_clust_5="13000.00000" pt_clust_6="13000.00000" pt_clust_7="13000.00000" pt_clust_8="13000.00000" pt_clust_9="70.23113"></scales>
<clustering>
<clus scale="   68.993">  5  6 -1 -1</clus>
<clus scale="   70.231">  2  9  1 -1</clus>
<clus scale="   80.950">  2  5  1 -1</clus>
<clus scale="   86.701">  7  8 -1 -1</clus>
<clus scale="   70.231">  2  5  1 -1</clus>
</clustering>
</event>
<event>
 9    2  0.1302972E-004  0.1264473E+03  0.7546771E-02  0.1256282E+00
          2   -1    0    0  502    0 -0.00000000000E+00  0.00000000000E+00  0.14454838496E+03  0.14454838496E+03  0.00000000000E+00 0. -1.
         21   -1    0    0  501  502  0.00000000000E+00 -0.00000000000E+00 -0.16043332322E+03  0.16043332322E+03  0.00000000000E+00 0. -1.
         24    2    1    2    0    0 -0.20334030488E+01  0.10411769968E+02  0.31415824334E+02  0.84833278206E+02  0.78084514411E+02 0.  0.
         23    2    1    2    0    0 -0.69107388451E+02 -0.59212918637E+02 -0.24211019129E+02  0.13084165207E+03  0.90837016670E+02 0.  0.
        -13    1    3    3    0    0  0.22594860640E+02 -0.20383654488E+01 -0.17512191138E+02  0.28659370186E+02  0.00000000000E+00 0.  1.
         14    1    3    3    0    0 -0.24628263689E+02  0.12450135416E+02  0.48928015471E+02  0.56173908019E+02  0.00000000000E+00 0. -1.
        -11    1    4    4    0    0 -0.37001159113E+02  0.19703610084E+02 -0.17347731005E+02  0.45368070237E+02  0.00000000000E+00 0.  1.
         11    1    4    4    0    0 -0.32106229339E+02 -0.78916528721E+02 -0.68632881242E+01  0.85473581835E+02  0.00000000000E+00 0. -1.
          1    1    1    2  501    0  0.71140791500E+02  0.48801148670E+02 -0.23089743459E+02  0.89306777905E+02  0.00000000000E+00 0. -1.
<scales pt_clust_5="13000.00000" pt_clust_6="13000.00000" pt_clust_7="13000.00000" pt_clust_8="13000.00000" pt_clust_9="87.96335"></scales>
<clustering>
<clus scale="   78.085">  5  6 -1 -1</clus>
<clus scale="   78.802">  1  5  2 -1</clus>
<clus scale="   87.963">  2  9  1 -1</clus>
<clus scale="   90.837">  7  8 -1 -1</clus>
<clus scale="   87.963">  2  5  1 -1</clus>
</clustering>
</event>
<event>
 9    2  0.1302972E-004  0.1073151E+03  0.7546771E-02  0.1270885E+00
         21   -1    0    0  501  502  0.00000000000E+00  0.00000000000E+00  0.75052545209E+02  0.75052545209E+02  0.00000000000E+00 0.  1.
          2   -1    0    0  502    0 -0.00000000000E+00 -0.00000000000E+00 -0.76969174611E+03  0.76969174611E+03  0.00000000000E+00 0. -1.
         24    2    1    2    0    0 -0.50413201604E+02 -0.29501957846E+01 -0.50874752254E+03  0.51749453164E+03  0.80164543486E+02 0.  0.
         23    2    1    2    0    0  0.11344241805E+03 -0.11309523599E+02 -0.18674355793E+02  0.14797997782E+03  0.92478401450E+02 0.  0.
        -11    1    3    3    0    0 -0.86938688085E+01 -0.33252918584E+02 -0.10535211525E+03  0.11081700293E+03  0.00000000000E+00 0.  1.
         12    1    3    3    0    0 -0.41719332796E+02  0.30302722800E+02 -0.40339540729E+03  0.40667752871E+03  0.00000000000E+00 0. -1.
        -11    1    4    4    0    0  0.11198023838E+03  0.21049299617E+02 -0.96217895065E+01  0.11434695289E+03  0.00000000000E+00 0.  1.
         11    1    4    4    0    0  0.14621796634E+01 -0.32358823216E+02 -0.90525662860E+01  0.33633024925E+02  0.00000000000E+00 0. -1.
          1    1    1    2  501    0 -0.63029216443E+02  0.14259719384E+02 -0.16721732257E+03  0.17926978186E+03  0.00000000000E+00 0. -1.
<scales pt_clust_5="13000.00000" pt_clust_6="13000.00000" pt_clust_7="13000.00000" pt_clust_8="13000.00000" pt_clust_9="64.62218"></scales>
<clustering>
<clus scale="   64.622">  1  9  2 -1</clus>
<clus scale="   80.165">  5  6 -1 -1</clus>
<clus scale="   92.478">  7  8 -1 -1</clus>
<clus scale="   96.905">  2  5  1 -1</clus>
<clus scale="   64.622">  1  5  2 -1</clus>
</clustering>
</event>
<event>
 9    2  0.1302972E-004  0.1239724E+03  0.7546771E-02  0.1254125E+00
         -3   -1    0    0    0  501 -0.00000000000E+00  0.00000000000E+00  0.58432471626E+03  0.58432471626E+03  0.00000000000E+00 0.  1.
         21   -1    0    0  501  502  0.00000000000E+00 -0.00000000000E+00 -0.44078657586E+02  0.44078657586E+02  0.00000000000E+00 0.  1.
         24    2    1    2    0    0  0.22475492373E+02  0.22919836773E+02  0.89084268482E+02  0.12470532772E+03  0.81147675227E+02 0.  0.
         23    2    1    2    0    0  0.38668058067E+02  0.60207395705E+02  0.31172240767E+03  0.33022755314E+03  0.82214525460E+02 0.  0.
        -11    1    3    3    0    0 -0.18795254550E+02 -0.14178658361E+02  0.51751517224E+01  0.24105562467E+02  0.00000000000E+00 0.  1.
         12    1    3    3    0    0  0.41270746922E+02  0.37098495134E+02  0.83909116760E+02  0.10059976525E+03  0.00000000000E+00 0. -1.
        -11    1    4    4    0    0 -0.13332341340E+02  0.54242610410E+02  0.14096728697E+03  0.15163043265E+03  0.00000000000E+00 0.  1.
         11    1    4    4    0    0  0.52000399408E+02  0.59647852958E+01  0.17075512070E+03  0.17859712049E+03  0.00000000000E+00 0. -1.
         -4    1    1    2    0  502 -0.61143550440E+02 -0.83127232478E+02  0.13943938252E+03  0.17347049299E+03  0.00000000000E+00 0.  1.
<scales pt_clust_5="13000.00000" pt_clust_6="13000.00000" pt_clust_7="13000.00000" pt_clust_8="13000.00000" pt_clust_9="92.78974"></scales>
<clustering>
<clus scale="   81.148">  5  6 -1 -1</clus>
<clus scale="   82.215">  7  8 -1 -1</clus>
<clus scale="   87.266">  1  5  2 -1</clus>
<clus scale="   92.790">  2  9  1 -1</clus>
<clus scale="   92.790">  2  5  1 -1</clus>
</clustering>
</event>
<event>
 9    2  0.1302972E-004  0.1634262E+03  0.7546771E-02  0.1190984E+00
         21   -1    0    0  501  502  0.00000000000E+00  0.00000000000E+00  0.49984340368E+02  0.49984340368E+02  0.00000000000E+00 0. -1.
          2   -1    0    0  502    0 -0.00000000000E+00 -0.00000000000E+00 -0.60698038875E+03  0.60698038875E+03  0.00000000000E+00 0. -1.
         23    2    1    2    0    0 -0.88213680282E+02 -0.67450970048E+02 -0.27503400875E+03  0.31739659840E+03  0.11298498998E+03 0.  0.
         24    2    1    2    0    0  0.93072880693E+02  0.87376472353E+02 -0.17648768572E+03  0.23211825028E+03  0.80210783961E+02 0.  0.
        -13    1    4    4    0    0  0.12126607628E+02  0.23409201875E+02 -0.10072450768E+03  0.10411758637E+03  0.00000000000E+00 0.  1.
         14    1    4    4    0    0  0.80946273065E+02  0.63967270478E+02 -0.75763178043E+02  0.12800066392E+03  0.00000000000E+00 0. -1.
        -13    1    3    3    0    0 -0.67835093692E+02 -0.98476552671E+02 -0.18840025638E+03  0.22314544129E+03  0.00000000000E+00 0. -1.
         13    1    3    3    0    0 -0.20378586591E+02  0.31025582623E+02 -0.86633752364E+02  0.94251157113E+02  0.00000000000E+00 0.  1.
          1    1    1    2  501    0 -0.48592004112E+01 -0.19925502305E+02 -0.10547435392E+03  0.10744988043E+03  0.00000000000E+00 0. -1.
<scales pt_clust_5="13000.00000" pt_clust_6="13000.00000" pt_clust_7="13000.00000" pt_clust_8="13000.00000" pt_clust_9="20.50946"></scales>
<clustering>
<clus scale="   20.509">  1  9  2 -1</clus>
<clus scale="   80.211">  5  6 -1 -1</clus>
<clus scale="  112.985">  7  8 -1 -1</clus>
<clus scale="  142.746">  1  5  2 -1</clus>
<clus scale="   20.509">  1  5  2 -1</clus>
</clustering>
</event>
<event>
 9    2  0.1302972E-004  0.3379413E+03  0.7546771E-02  0.1068027E+00
         -1   -1    0    0    0  501 -0.00000000000E+00  0.00000000000E+00  0.27668054068E+04  0.27668054068E+04  0.00000000000E+00 0.  1.
         21   -1    0    0  501  502  0.00000000000E+00 -0.00000000000E+00 -0.63464945805E+02  0.63464945805E+02  0.00000000000E+00 0.  1.
         23    2    1    2    0    0  0.19747369098E+03  0.29383743609E+03  0.12092929477E+04  0.12633744780E+04  0.91593344901E+02 0.  0.
         24    2    1    2    0    0 -0.92513866289E+02 -0.28206292620E+03  0.68138546758E+03  0.74739919711E+03  0.78747029256E+02 0.  0.
        -13    1    4    4    0    0 -0.76947600567E+02 -0.17266109749E+03  0.34588654091E+03  0.39417037814E+03  0.00000000000E+00 0.  1.
         14    1    4    4    0    0 -0.15566265722E+02 -0.10940182871E+03  0.33549892667E+03  0.35322881897E+03  0.00000000000E+00 0. -1.
        -13    1    3    3    0    0  0.20544461012E+03  0.27128728995E+03  0.10973246805E+04  0.11488802095E+04  0.00000000000E+00 0.  1.
         13    1    3    3    0    0 -0.79709191389E+01  0.22550146137E+02  0.11196826721E+03  0.11449426844E+03  0.00000000000E+00 0. -1.
         -2    1    1    2    0  502 -0.10495982469E+03 -0.11774509891E+02  0.81266204571E+03  0.81949667749E+03  0.00000000000E+00 0.  1.
<scales pt_clust_5="13000.00000" pt_clust_6="13000.00000" pt_clust_7="13000.00000" pt_clust_8="13000.00000" pt_clust_9="105.61825"></scales>
<clustering>
<clus scale="   78.747">  5  6 -1 -1</clus>
<clus scale="   91.593">  7  8 -1 -1</clus>
<clus scale="  105.618">  2  9  1 -1</clus>
<clus scale="  334.688">  2  5  1 -1</clus>
<clus scale="  105.618">  2  5  1 -1</clus>
</clustering>
</event>
<event>
 9    2  0.1302972E-004  0.9269733E+02  0.7546771E-02  0.1303208E+00
          2   -1    0    0  502    0 -0.00000000000E+00  0.00000000000E+00  0.55733526009E+03  0.55733526009E+03  0.00000000000E+00 0. -1.
         21   -1    0    0  501  502  0.00000000000E+00 -0.00000000000E+00 -0.29285948350E+02  0.29285948350E+02  0.00000000000E+00 0.  1.
         23    2    1    2    0    0  0.60451486819E+01  0.74413076815E+01  0.36055375917E+03  0.37226447870E+03  0.92140718311E+02 0.  0.
         24    2    1    2    0    0 -0.23365415388E+02  0.27537245518E+02  0.84450037381E+02  0.12259590794E+03  0.81201633629E+02 0.  0.
        -11    1    4    4    0    0 -0.31977853325E+02 -0.12904060880E+02  0.75735370422E+01  0.35305188766E+02  0.00000000000E+00 0.  1.
         12    1    4    4    0    0  0.86124379365E+01  0.40441306398E+02  0.76876500338E+02  0.87290719178E+02  0.00000000000E+00 0. -1.
        -13    1    3    3    0    0  0.30141786565E+02 -0.33538289042E+02  0.17769397085E+03  0.18332618854E+03  0.00000000000E+00 0.  1.
         13    1    3    3    0    0 -0.24096637883E+02  0.40979596723E+02  0.18285978832E+03  0.18893829016E+03  0.00000000000E+00 0. -1.
          1    1    1    2  501    0  0.17320266706E+02 -0.34978553200E+02  0.83045515190E+02  0.91760821792E+02  0.00000000000E+00 0. -1.
<scales pt_clust_5="13000.00000" pt_clust_6="13000.00000" pt_clust_7="13000.00000" pt_clust_8="13000.00000" pt_clust_9="39.03194"></scales>
<clustering>
<clus scale="   39.032">  2  9  1 -1</clus>
<clus scale="   81.202">  5  6 -1 -1</clus>
<clus scale="   81.833">  2  5  1 -1</clus>
<clus scale="   92.141">  7  8 -1 -1</clus>
<clus scale="   39.032">  2  5  1 -1</clus>
</clustering>
</event>
<event>
 9    2  0.1302972E-004  0.3407198E+03  0.7546771E-02  0.1066885E+00
         21   -1    0    0  501  502  0.00000000000E+00  0.00000000000E+00  0.13585789472E+03  0.13585789472E+03  0.00000000000E+00 0. -1.
          4   -1    0    0  502    0 -0.00000000000E+00 -0.00000000000E+00 -0.18557242975E+04  0.18557242975E+04  0.00000000000E+00 0. -1.
         24    2    1    2    0    0 -0.16210151798E+02 -0.25604361505E+03 -0.49646041936E+03  0.56466729119E+03  0.80963571556E+02 0.  0.
         23    2    1    2    0    0 -0.48333850819E+02  0.48219581297E+03 -0.74511857385E+03  0.89393310860E+03  0.95214234171E+02 0.  0.
        -13    1    3    3    0    0 -0.38829884357E+02 -0.62956901082E+02 -0.15494705036E+03  0.17169717449E+03  0.00000000000E+00 0.  1.
         14    1    3    3    0    0  0.22619732560E+02 -0.19308671397E+03 -0.34151336900E+03  0.39297011670E+03  0.00000000000E+00 0. -1.
        -13    1    4    4    0    0 -0.28572586694E+02  0.32873589295E+03 -0.58247678387E+03  0.66944968725E+03  0.00000000000E+00 0. -1.
         13    1    4    4    0    0 -0.19761264125E+02  0.15345992002E+03 -0.16264178998E+03  0.22448342135E+03  0.00000000000E+00 0.  1.
          3    1    1    2  501    0  0.64544002616E+02 -0.22615219791E+03 -0.47828740956E+03  0.53298179241E+03  0.00000000000E+00 0. -1.
<scales pt_clust_5="13000.00000" pt_clust_6="13000.00000" pt_clust_7="13000.00000" pt_clust_8="13000.00000" pt_clust_9="235.18248"></scales>
<clustering>
<clus scale="   80.964">  5  6 -1 -1</clus>
<clus scale="   95.214">  7  8 -1 -1</clus>
<clus scale="  235.182">  1  9  2 -1</clus>
<clus scale="  337.015">  2  5  1 -1</clus>
<clus scale="  235.182">  1  5  2 -1</clus>
</clustering>
</event>
<event>
 9    2  0.1302972E-004  0.1544437E+03  0.7546771E-02  0.1208268E+00
         21   -1    0    0  501  502  0.00000000000E+00  0.00000000000E+00  0.48138366182E+02  0.48138366182E+02  0.00000000000E+00 0. -1.
          2   -1    0    0  502    0 -0.00000000000E+00 -0.00000000000E+00 -0.92663761242E+03  0.92663761242E+03  0.00000000000E+00 0. -1.
         24    2    1    2    0    0  0.27398352422E+02 -0.80175230313E+02 -0.19836498785E+03  0.22987549229E+03  0.79469090090E+02 0.  0.
         23    2    1    2    0    0 -0.74490201322E+02 -0.56688615213E+02 -0.48349248396E+03  0.50073385900E+03  0.90592639379E+02 0.  0.
        -13    1    3    3    0    0 -0.11187388499E+02 -0.34232225577E+02 -0.18951108416E+02  0.40695791423E+02  0.00000000000E+00 0.  1.
         14    1    3    3    0    0  0.38585740921E+02 -0.45943004737E+02 -0.17941387943E+03  0.18917970086E+03  0.00000000000E+00 0. -1.
        -13    1    4    4    0    0  0.18908356690E+02 -0.23745394051E+02 -0.13974896518E+03  0.14300749267E+03  0.00000000000E+00 0.  1.
         13    1    4    4    0    0 -0.93398558012E+02 -0.32943221162E+02 -0.34374351879E+03  0.35772636633E+03  0.00000000000E+00 0. -1.
          1    1    1    2  501    0  0.47091848900E+02  0.13686384553E+03 -0.19664177442E+03  0.24416662731E+03  0.00000000000E+00 0. -1.
<scales pt_clust_5="13000.00000" pt_clust_6="13000.00000" pt_clust_7="13000.00000" pt_clust_8="13000.00000" pt_clust_9="125.08331"></scales>
<clustering>
<clus scale="   79.469">  5  6 -1 -1</clus>
<clus scale="   90.593">  7  8 -1 -1</clus>
<clus scale="  116.164">  2  5  1 -1</clus>
<clus scale="  125.083">  1  9  2 -1</clus>
<clus scale="  125.083">  1  5  2 -1</clus>
</clustering>
</event>
<event>
 9    2  0.1302972E-004  0.2058333E+03  0.7546771E-02  0.1146346E+00
         -1   -1    0    0    0  501 -0.00000000000E+00  0.00000000000E+00  0.29745927134E+03  0.29745927134E+03  0.00000000000E+00 0.  1.
         21   -1    0    0  501  502  0.00000000000E+00 -0.00000000000E+00 -0.26047645337E+03  0.26047645337E+03  0.00000000000E+00 0.  1.
         23    2    1    2    0    0  0.96368760219E+02  0.19376563337E+03  0.14938240613E+03  0.27833961861E+03  0.91245719927E+02 0.  0.
         24    2    1    2    0    0 -0.31944496936E+02 -0.11154580687E+03 -0.10800192795E+03  0.17504982454E+03  0.74263764507E+02 0.  0.
        -13    1    4    4    0    0  0.22644888393E+02 -0.31629594364E+02 -0.17906884545E+02  0.42823810247E+02  0.00000000000E+00 0.  1.
         14    1    4    4    0    0 -0.54589385329E+02 -0.79916212502E+02 -0.90095043402E+02  0.13222601430E+03  0.00000000000E+00 0. -1.
        -11    1    3    3    0    0 -0.17521623855E+02  0.28737004033E+02  0.29265158622E+02  0.44601257970E+02  0.00000000000E+00 0. -1.
         11    1    3    3    0    0  0.11389038407E+03  0.16502862934E+03  0.12011724750E+03  0.23373836064E+03  0.00000000000E+00 0.  1.
         -2    1    1    2    0  502 -0.64424263283E+02 -0.82219826507E+02 -0.43976602091E+01  0.10454628155E+03  0.00000000000E+00 0.  1.
<scales pt_clust_5="13000.00000" pt_clust_6="13000.00000" pt_clust_7="13000.00000" pt_clust_8="13000.00000" pt_clust_9="104.45375"></scales>
<clustering>
<clus scale="   74.264">  5  6 -1 -1</clus>
<clus scale="   91.246">  7  8 -1 -1</clus>
<clus scale="  104.454">  2  9  1 -1</clus>
<clus scale="  198.889">  2  5  1 -1</clus>
<clus scale="  104.454">  2  5  1 -1</clus>
</clustering>
</event>
<event>
 9    2  0.1302972E-004  0.9354047E+02  0.7546771E-02  0.1304575E+00
         21   -1    0    0  501  502  0.00000000000E+00  0.00000000000E+00  0.39064377251E+03  0.39064377251E+03  0.00000000000E+00 0. -1.
         -3   -1    0    0    0  501 -0.00000000000E+00 -0.00000000000E+00 -0.28723184652E+02  0.28723184652E+02  0.00000000000E+00 0.  1.
         23    2    1    2    0    0 -0.16358785126E+02 -0.54932404930E+01  0.98329302496E+02  0.13489253023E+03  0.90716908236E+02 0.  0.
         24    2    1    2    0    0  0.27001675595E+02  0.23379832992E+02  0.23561796634E+03  0.24960742411E+03  0.74245087604E+02 0.  0.
        -13    1    4    4    0    0  0.48380427040E+02  0.75519514761E+01  0.99279903602E+02  0.11069867637E+03  0.00000000000E+00 0.  1.
         14    1    4    4    0    0 -0.21378751446E+02  0.15827881516E+02  0.13633806274E+03  0.13890874774E+03  0.00000000000E+00 0. -1.
        -13    1    3    3    0    0 -0.49072251723E+02  0.10850346933E+02  0.78727285799E+02  0.93401292534E+02  0.00000000000E+00 0. -1.
         13    1    3    3    0    0  0.32713466597E+02 -0.16343587426E+02  0.19602016697E+02  0.41491237694E+02  0.00000000000E+00 0.  1.
         -4    1    1    2    0  502 -0.10642890469E+02 -0.17886592499E+02  0.27973319020E+02  0.34867002822E+02  0.00000000000E+00 0.  1.
<scales pt_clust_5="13000.00000" pt_clust_6="13000.00000" pt_clust_7="13000.00000" pt_clust_8="13000.00000" pt_clust_9="20.81350"></scales>
<clustering>
<clus scale="   20.813">  1  9  2 -1</clus>
<clus scale="   74.245">  5  6 -1 -1</clus>
<clus scale="   77.670">  1  5  2 -1</clus>
<clus scale="   90.717">  7  8 -1 -1</clus>
<clus scale="   20.813">  1  5  2 -1</clus>
</clustering>
</event>
<event>
 9    2  0.1302972E-004  0.1069888E+03  0.7546771E-02  0.1271798E+00
          2   -1    0    0  502    0 -0.00000000000E+00  0.00000000000E+00  0.94521448103E+02  0.94521448103E+02  0.00000000000E+00 0. -1.
         21   -1    0    0  501  502  0.00000000000E+00 -0.00000000000E+00 -0.30303549219E+03  0.30303549219E+03  0.00000000000E+00 0. -1.
         23    2    1    2    0    0 -0.32805826800E+02 -0.39050865004E+02  0.22415748100E+02  0.10772528640E+03  0.92201297377E+02 0.  0.
         24    2    1    2    0    0  0.74601424658E+01  0.69610653527E+02 -0.76922817981E+02  0.13078935608E+03  0.79293372533E+02 0.  0.
        -11    1    4    4    0    0  0.37373025900E+02  0.65696585778E+02 -0.53661678634E+02  0.92694984771E+02  0.00000000000E+00 0.  1.
         12    1    4    4    0    0 -0.29912883435E+02  0.39140677490E+01 -0.23261139347E+02  0.38094371309E+02  0.00000000000E+00 0. -1.
        -13    1    3    3    0    0 -0.53820362890E+02  0.58011128291E+01  0.21328701286E+02  0.58182453284E+02  0.00000000000E+00 0. -1.
         13    1    3    3    0    0  0.21014536090E+02 -0.44851977833E+02  0.10870468143E+01  0.49542833118E+02  0.00000000000E+00 0.  1.
          1    1    1    2  501    0  0.25345684334E+02 -0.30559788523E+02 -0.15400697420E+03  0.15904229781E+03  0.00000000000E+00 0. -1.
<scales pt_clust_5="13000.00000" pt_clust_6="13000.00000" pt_clust_7="13000.00000" pt_clust_8="13000.00000" pt_clust_9="39.70270"></scales>
<clustering>
<clus scale="   39.703">  2  9  1 -1</clus>
<clus scale="   79.293">  5  6 -1 -1</clus>
<clus scale="   92.201">  7  8 -1 -1</clus>
<clus scale="   96.088">  2  5  1 -1</clus>
<clus scale="   39.703">  2  5  1 -1</clus>
</clustering>
</event>
<event>
 9    2  0.1302972E-004  0.2065622E+03  0.7546771E-02  0.1164236E+00
         21   -1    0    0  501  502  0.00000000000E+00  0.00000000000E+00  0.22714841270E+03  0.22714841270E+03  0.00000000000E+00 0.  1.
         -3   -1    0    0    0  501 -0.00000000000E+00 -0.00000000000E+00 -0.51323125835E+03  0.51323125835E+03  0.00000000000E+00 0.  1.
         23    2    1    2    0    0 -0.36536359762E+02 -0.81169392952E+02  0.85492356747E+02  0.15501187104E+03  0.93788918126E+02 0.  0.
         24    2    1    2    0    0 -0.17942456692E+03  0.29538392139E+02 -0.69913915384E+02  0.21079549166E+03  0.80505229111E+02 0.  0.
        -13    1    4    4    0    0 -0.17536982990E+03  0.20005160965E+02 -0.82213141255E+02  0.19471462272E+03  0.00000000000E+00 0.  1.
         14    1    4    4    0    0 -0.40547370220E+01  0.95332311736E+01  0.12299225871E+02  0.16080868943E+02  0.00000000000E+00 0. -1.
        -11    1    3    3    0    0 -0.63258957960E+02 -0.56115150809E+02  0.32500729585E+02  0.90591960659E+02  0.00000000000E+00 0.  1.
         11    1    3    3    0    0  0.26722598198E+02 -0.25054242143E+02  0.52991627162E+02  0.64419910378E+02  0.00000000000E+00 0. -1.
         -4    1    1    2    0  502  0.21596092669E+03  0.51631000813E+02 -0.30166128701E+03  0.37457230835E+03  0.00000000000E+00 0.  1.
<scales pt_clust_5="13000.00000" pt_clust_6="13000.00000" pt_clust_7="13000.00000" pt_clust_8="13000.00000" pt_clust_9="190.22849"></scales>
<clustering>
<clus scale="   80.505">  5  6 -1 -1</clus>
<clus scale="   93.789">  7  8 -1 -1</clus>
<clus scale="  129.305">  2  7  1 -1</clus>
<clus scale="  190.228">  1  9  2 -1</clus>
<clus scale="  190.228">  1  5  2 -1</clus>
</clustering>
</event>
<event>
 9    2  0.1302972E-004  0.1544631E+03  0.7546771E-02  0.1211181E+00
         21   -1    0    0  501  502  0.00000000000E+00  0.00000000000E+00  0.31633348322E+03  0.31633348322E+03  0.00000000000E+00 0.  1.
         -3   -1    0    0    0  501 -0.00000000000E+00 -0.00000000000E+00 -0.14570238836E+03  0.14570238836E+03  0.00000000000E+00 0.  1.
         24    2    1    2    0    0  0.29776819539E+01 -0.75653851671E+02  0.56197534226E+01  0.10925885084E+03  0.78571896988E+02 0.  0.
         23    2    1    2    0    0 -0.90545752384E+02 -0.31290658413E+02 -0.60231861735E+01  0.13287225764E+03  0.91875565307E+02 0.  0.
        -11    1    3    3    0    0 -0.30900221357E+02 -0.63604418468E+02  0.14583924202E+02  0.72201361301E+02  0.00000000000E+00 0.  1.
         12    1    3    3    0    0  0.33877903311E+02 -0.12049433203E+02 -0.89641707796E+01  0.37057489541E+02  0.00000000000E+00 0. -1.
        -13    1    4    4    0    0 -0.47851552616E+02 -0.56411058399E+02 -0.27448527605E+02  0.78901205727E+02  0.00000000000E+00 0.  1.
         13    1    4    4    0    0 -0.42694199768E+02  0.25120399987E+02  0.21425341431E+02  0.53971051915E+02  0.00000000000E+00 0. -1.
         -4    1    1    2    0  502  0.87568070430E+02  0.10694451008E+03  0.17103452761E+03  0.21990476310E+03  0.00000000000E+00 0.  1.
<scales pt_clust_5="13000.00000" pt_clust_6="13000.00000" pt_clust_7="13000.00000" pt_clust_8="13000.00000" pt_clust_9="124.16820"></scales>
<clustering>
<clus scale="   78.572">  5  6 -1 -1</clus>
<clus scale="   91.876">  7  8 -1 -1</clus>
<clus scale="  109.114">  2  5  1 -1</clus>
<clus scale="  124.168">  1  9  2 -1</clus>
<clus scale="  124.168">  1  5  2 -1</clus>
</clustering>
</event>
<event>
 9    2  0.1302972E-004  0.1550173E+03  0.7546771E-02  0.1196057E+00
         -1   -1    0    0    0  501 -0.00000000000E+00  0.00000000000E+00  0.85376662590E+02  0.85376662590E+02  0.00000000000E+00 0.  1.
         21   -1    0    0  501  502  0.00000000000E+00 -0.00000000000E+00 -0.40862227244E+03  0.40862227244E+03  0.00000000000E+00 0. -1.
         24    2    1    2    0    0 -0.13742868886E+03  0.67568739515E+02 -0.98203691850E+02  0.19855337436E+03  0.79544316547E+02 0.  0.
         23    2    1    2    0    0  0.91553430647E+02 -0.28143579619E+02 -0.15425215752E+03  0.20233233530E+03  0.89277959609E+02 0.  0.
        -13    1    3    3    0    0 -0.95241171219E+02  0.53865652344E+01 -0.39713325477E+02  0.10332978274E+03  0.00000000000E+00 0.  1.
         14    1    3    3    0    0 -0.42187517645E+02  0.62182174281E+02 -0.58490366373E+02  0.95223591624E+02  0.00000000000E+00 0. -1.
        -13    1    4    4    0    0  0.73193247197E+02  0.16911300725E+02 -0.59541587870E+02  0.95856372838E+02  0.00000000000E+00 0.  1.
         13    1    4    4    0    0  0.18360183450E+02 -0.45054880344E+02 -0.94710569651E+02  0.10647596246E+03  0.00000000000E+00 0. -1.
         -2    1    1    2    0  502  0.45875258217E+02 -0.39425159896E+02 -0.70789760478E+02  0.93113225365E+02  0.00000000000E+00 0.  1.
<scales pt_clust_5="13000.00000" pt_clust_6="13000.00000" pt_clust_7="13000.00000" pt_clust_8="13000.00000" pt_clust_9="60.48870"></scales>
<clustering>
<clus scale="   60.489">  2  9  1 -1</clus>
<clus scale="   79.544">  5  6 -1 -1</clus>
<clus scale="   89.278">  7  8 -1 -1</clus>
<clus scale="  149.623">  1  5  2 -1</clus>
<clus scale="   60.489">  2  5  1 -1</clus>
</clustering>
</event>
<event>
 9    2  0.1302972E-004  0.3706180E+03  0.7546771E-02  0.1055130E+00
          2   -1    0    0  502    0 -0.00000000000E+00  0.00000000000E+00  0.19939884237E+04  0.19939884237E+04  0.00000000000E+00 0. -1.
         21   -1    0    0  501  502  0.00000000000E+00 -0.00000000000E+00 -0.12279784610E+03  0.12279784610E+03  0.00000000000E+00 0. -1.
         24    2    1    2    0    0 -0.24755748964E+03  0.16957529418E+03  0.66629479223E+03  0.73466181771E+03  0.75754505901E+02 0.  0.
         23    2    1    2    0    0  0.41875488986E+03 -0.22185694247E+03  0.74998939202E+03  0.89326685800E+03  0.10423737701E+03 0.  0.
        -13    1    3    3    0    0 -0.16457938292E+03  0.70878226862E+02  0.42076671397E+03  0.45733436774E+03  0.00000000000E+00 0.  1.
         14    1    3    3    0    0 -0.82978106722E+02  0.98697067321E+02  0.24552807826E+03  0.27732744997E+03  0.00000000000E+00 0. -1.
        -13    1    4    4    0    0  0.29910684856E+02 -0.47575205125E+02  0.12244368715E+03  0.13472381279E+03  0.00000000000E+00 0. -1.
         13    1    4    4    0    0  0.38884420500E+03 -0.17428173735E+03  0.62754570487E+03  0.75854304521E+03  0.00000000000E+00 0.  1.
          1    1    1    2  501    0 -0.17119740022E+03  0.52281648288E+02  0.45490639338E+03  0.48885759412E+03  0.00000000000E+00 0. -1.
<scales pt_clust_5="13000.00000" pt_clust_6="13000.00000" pt_clust_7="13000.00000" pt_clust_8="13000.00000" pt_clust_9="179.00266"></scales>
<clustering>
<clus scale="   75.755">  5  6 -1 -1</clus>
<clus scale="  104.237">  7  8 -1 -1</clus>
<clus scale="  179.003">  2  9  1 -1</clus>
<clus scale="  363.636">  1  5  2 -1</clus>
<clus scale="  179.003">  2  5  1 -1</clus>
</clustering>
</event>
<event>
 9    2  0.1302972E-004  0.1060962E+03  0.7546771E-02  0.1272544E+00
         -1   -1    0    0    0  501 -0.00000000000E+00  0.00000000000E+00  0.32583125662E+03  0.32583125662E+03  0.00000000000E+00 0.  1.
         21   -1    0    0  501  502  0.00000000000E+00 -0.00000000000E+00 -0.14551804124E+03  0.14551804124E+03  0.00000000000E+00 0. -1.
         23    2    1    2    0    0  0.43579367891E+02 -0.26044418524E+01  0.80657445663E+02  0.12928822106E+03  0.91125606390E+02 0.  0.
         24    2    1    2    0    0 -0.10151439918E+03  0.35754214545E+02 -0.75822331886E+02  0.15431673089E+03  0.80505219207E+02 0.  0.
        -13    1    4    4    0    0 -0.58104420224E+02  0.49877684273E+02 -0.14611105474E+02  0.77957625934E+02  0.00000000000E+00 0.  1.
         14    1    4    4    0    0 -0.43409978960E+02 -0.14123469728E+02 -0.61211226411E+02  0.76359104953E+02  0.00000000000E+00 0. -1.
        -13    1    3    3    0    0  0.24691049734E+02  0.37489742969E+02  0.70884160878E+02  0.83902878546E+02  0.00000000000E+00 0. -1.
         13    1    3    3    0    0  0.18888318157E+02 -0.40094184822E+02  0.97732847852E+01  0.45385342511E+02  0.00000000000E+00 0.  1.
         -2    1    1    2    0  502  0.57935031293E+02 -0.33149772693E+02  0.17547810160E+03  0.18774434591E+03  0.00000000000E+00 0.  1.
<scales pt_clust_5="13000.00000" pt_clust_6="13000.00000" pt_clust_7="13000.00000" pt_clust_8="13000.00000" pt_clust_9="66.74863"></scales>
<clustering>
<clus scale="   66.749">  2  9  1 -1</clus>
<clus scale="   80.505">  5  6 -1 -1</clus>
<clus scale="   91.126">  7  8 -1 -1</clus>
<clus scale="   97.127">  2  5  1 -1</clus>
<clus scale="   66.749">  2  5  1 -1</clus>
</clustering>
</event>
<event>
 9    2  0.1302972E-004  0.1242469E+03  0.7546771E-02  0.1240165E+00
          2   -1    0    0  502    0 -0.00000000000E+00  0.00000000000E+00  0.80553659642E+03  0.80553659642E+03  0.00000000000E+00 0. -1.
         21   -1    0    0  501  502  0.00000000000E+00 -0.00000000000E+00 -0.34081949994E+02  0.34081949994E+02  0.00000000000E+00 0. -1.
         24    2    1    2    0    0  0.84043448816E+02  0.44442223565E+02  0.46466981953E+03  0.48087760748E+03  0.79289467577E+02 0.  0.
         23    2    1    2    0    0 -0.36975099891E+02 -0.32482661761E+02  0.94985444024E+02  0.14144519767E+03  0.92532308082E+02 0.  0.
        -13    1    3    3    0    0  0.48279216164E+02  0.47919494950E+02  0.15681772551E+03  0.17093554266E+03  0.00000000000E+00 0.  1.
         14    1    3    3    0    0  0.35764232652E+02 -0.34772713853E+01  0.30785209401E+03  0.30994206481E+03  0.00000000000E+00 0. -1.
        -13    1    4    4    0    0  0.43600589216E+01 -0.56588510819E+02  0.47168172563E+02  0.73797738268E+02  0.00000000000E+00 0.  1.
         13    1    4    4    0    0 -0.41335158813E+02  0.24105849059E+02  0.47817271461E+02  0.67647459397E+02  0.00000000000E+00 0. -1.
          1    1    1    2  501    0 -0.47068348925E+02 -0.11959561804E+02  0.21179938287E+03  0.21729574127E+03  0.00000000000E+00 0. -1.
<scales pt_clust_5="13000.00000" pt_clust_6="13000.00000" pt_clust_7="13000.00000" pt_clust_8="13000.00000" pt_clust_9="48.56401"></scales>
<clustering>
<clus scale="   48.564">  2  9  1 -1</clus>
<clus scale="   79.289">  5  6 -1 -1</clus>
<clus scale="   92.532">  7  8 -1 -1</clus>
<clus scale="  114.725">  1  5  2 -1</clus>
<clus scale="   48.564">  2  5  1 -1</clus>
</clustering>
</event>
<event>
 9    2  0.1302972E-004  0.1894261E+03  0.7546771E-02  0.1160633E+00
         21   -1    0    0  501  502  0.00000000000E+00  0.00000000000E+00  0.12604696736E+03  0.12604696736E+03  0.00000000000E+00 0. -1.
          2   -1    0    0  502    0 -0.00000000000E+00 -0.00000000000E+00 -0.50876281896E+03  0.50876281896E+03  0.00000000000E+00 0. -1.
         24    2    1    2    0    0 -0.13367567473E+03 -0.76636079935E+02 -0.13371139205E+03  0.21758339530E+03  0.75640748170E+02 0.  0.
         23    2    1    2    0    0  0.19356753894E+03  0.26802724045E+02 -0.78264804907E+02  0.22954999819E+03  0.91548041124E+02 0.  0.
        -11    1    3    3    0    0 -0.43156161059E+02 -0.64857158823E+02 -0.43406593800E+02  0.89179805300E+02  0.00000000000E+00 0.  1.
         12    1    3    3    0    0 -0.90519513669E+02 -0.11778921112E+02 -0.90304798251E+02  0.12840359000E+03  0.00000000000E+00 0. -1.
        -11    1    4    4    0    0  0.12725048161E+03  0.20048297637E+02 -0.95899382407E+02  0.16059673363E+03  0.00000000000E+00 0.  1.
         11    1    4    4    0    0  0.66317057332E+02  0.67544264082E+01  0.17634577500E+02  0.68953264555E+02  0.00000000000E+00 0. -1.
          1    1    1    2  501    0 -0.59891864214E+02  0.49833355890E+02 -0.17073965465E+03  0.18767639283E+03  0.00000000000E+00 0. -1.
<scales pt_clust_5="13000.00000" pt_clust_6="13000.00000" pt_clust_7="13000.00000" pt_clust_8="13000.00000" pt_clust_9="77.91280"></scales>
<clustering>
<clus scale="   75.641">  5  6 -1 -1</clus>
<clus scale="   77.913">  1  9  2 -1</clus>
<clus scale="   91.548">  7  8 -1 -1</clus>
<clus scale="  182.271">  2  5  1 -1</clus>
<clus scale="   77.913">  1  5  2 -1</clus>
</clustering>
</event>
<event>
 9    2  0.1302972E-004  0.1239543E+03  0.7546771E-02  0.1249659E+00
         21   -1    0    0  501  502  0.00000000000E+00  0.00000000000E+00  0.14066656291E+03  0.14066656291E+03  0.00000000000E+00 0.  1.
         -3   -1    0    0    0  501 -0.00000000000E+00 -0.00000000000E+00 -0.26577469163E+03  0.26577469163E+03  0.00000000000E+00 0.  1.
         23    2    1    2    0    0 -0.25025501386E+02  0.45397506624E+01  0.46777022701E+02  0.10627442141E+03  0.91974331951E+02 0.  0.
         24    2    1    2    0    0 -0.38100069716E+02 -0.78091333415E+02 -0.16481361547E+03  0.20298309131E+03  0.80552689881E+02 0.  0.
        -13    1    4    4    0    0  0.23535378197E+02 -0.14000696768E+02 -0.56962019656E+02  0.63202889334E+02  0.00000000000E+00 0.  1.
         14    1    4    4    0    0 -0.61635447913E+02 -0.64090636647E+02 -0.10785159581E+03  0.13978020198E+03  0.00000000000E+00 0. -1.
        -13    1    3    3    0    0 -0.52041971875E+02  0.28289387182E+02  0.25571610156E+02  0.64517931692E+02  0.00000000000E+00 0.  1.
         13    1    3    3    0    0  0.27016470489E+02 -0.23749636520E+02  0.21205412544E+02  0.41756489720E+02  0.00000000000E+00 0. -1.
         -4    1    1    2    0  502  0.63125571101E+02  0.73551582753E+02 -0.70715359481E+01  0.97183741814E+02  0.00000000000E+00 0.  1.
<scales pt_clust_5="13000.00000" pt_clust_6="13000.00000" pt_clust_7="13000.00000" pt_clust_8="13000.00000" pt_clust_9="94.21212"></scales>
<clustering>
<clus scale="   80.553">  5  6 -1 -1</clus>
<clus scale="   91.974">  7  8 -1 -1</clus>
<clus scale="   95.426">  2  7  1 -1</clus>
<clus scale="   94.212">  1  9  2 -1</clus>
<clus scale="   94.212">  1  5  2 -1</clus>
</clustering>
</event>
<event>
 9    2  0.1302972E-004  0.1997102E+03  0.7546771E-02  0.1169734E+00
         -1   -1    0    0    0  501 -0.00000000000E+00  0.00000000000E+00  0.31776018739E+03  0.31776018739E+03  0.00000000000E+00 0.  1.
         21   -1    0    0  501  502  0.00000000000E+00 -0.00000000000E+00 -0.25460373335E+03  0.25460373335E+03  0.00000000000E+00 0. -1.
         23    2    1    2    0    0 -0.84779997888E+02 -0.15603530401E+02  0.37141282934E+02  0.13144182240E+03  0.92012822888E+02 0.  0.
         24    2    1    2    0    0  0.19308359001E+03 -0.67651060372E+02 -0.11248125410E+03  0.24639124025E+03  0.78731645769E+02 0.  0.
        -11    1    4    4    0    0  0.32830779659E+02  0.13645955169E+02 -0.23465665787E+01  0.35631145929E+02  0.00000000000E+00 0.  1.
         12    1    4    4    0    0  0.16025281035E+03 -0.81297015541E+02 -0.11013468752E+03  0.21076009432E+03  0.00000000000E+00 0. -1.
        -11    1    3    3    0    0  0.39431616444E+01 -0.20751018004E+02 -0.17228466418E+02  0.27257537069E+02  0.00000000000E+00 0.  1.
         11    1    3    3    0    0 -0.88723159532E+02  0.51474876023E+01  0.54369749352E+02  0.10418428533E+03  0.00000000000E+00 0. -1.
         -2    1    1    2    0  502 -0.10830359213E+03  0.83254590773E+02  0.13849642520E+03  0.19453085808E+03  0.00000000000E+00 0.  1.
<scales pt_clust_5="13000.00000" pt_clust_6="13000.00000" pt_clust_7="13000.00000" pt_clust_8="13000.00000" pt_clust_9="183.53614"></scales>
<clustering>
<clus scale="   78.732">  5  6 -1 -1</clus>
<clus scale="   92.013">  7  8 -1 -1</clus>
<clus scale="  126.085">  1  7  2 -1</clus>
<clus scale="  183.536">  2  9  1 -1</clus>
<clus scale="  183.536">  2  5  1 -1</clus>
</clustering>
</event>
<event>
 9    2  0.1302972E-004  0.2348825E+03  0.7546771E-02  0.1161611E+00
         21   -1    0    0  501  502  0.00000000000E+00  0.00000000000E+00  0.39732297872E+03  0.39732297872E+03  0.00000000000E+00 0. -1.
          2   -1    0    0  502    0 -0.00000000000E+00 -0.00000000000E+00 -0.21830607230E+03  0.21830607230E+03  0.00000000000E+00 0. -1.
         24    2    1    2    0    0  0.18542490299E+02  0.42823880294E+02  0.31498853746E+02  0.98624039535E+02  0.80974160797E+02 0.  0.
         23    2    1    2    0    0  0.19812522486E+03  0.58146526967E+02  0.16117694387E+03  0.27757550779E+03  0.91845152113E+02 0.  0.
        -11    1    3    3    0    0  0.10698404794E+02  0.62779590756E+02  0.40779764142E+01  0.63815066969E+02  0.00000000000E+00 0.  1.
         12    1    3    3    0    0  0.78440855054E+01 -0.19955710461E+02  0.27420877332E+02  0.34808972566E+02  0.00000000000E+00 0. -1.
        -11    1    4    4    0    0  0.60583904132E+02  0.20280444097E+02  0.10769877088E+03  0.12522272598E+03  0.00000000000E+00 0.  1.
         11    1    4    4    0    0  0.13754132073E+03  0.37866082870E+02  0.53478172985E+02  0.15235278181E+03  0.00000000000E+00 0. -1.
          1    1    1    2  501    0 -0.21666771516E+03 -0.10097040726E+03 -0.13658891186E+02  0.23942950370E+03  0.00000000000E+00 0. -1.
<scales pt_clust_5="13000.00000" pt_clust_6="13000.00000" pt_clust_7="13000.00000" pt_clust_8="13000.00000" pt_clust_9="216.18122"></scales>
<clustering>
<clus scale="   80.974">  5  6 -1 -1</clus>
<clus scale="   91.845">  7  8 -1 -1</clus>
<clus scale="   93.459">  2  5  1 -1</clus>
<clus scale="  216.181">  1  9  2 -1</clus>
<clus scale="  216.181">  1  5  2 -1</clus>
</clustering>
</event>
<event>
 9    2  0.1302972E-004  0.1205316E+03  0.7546771E-02  0.1248194E+00
         21   -1    0    0  501  502  0.00000000000E+00  0.00000000000E+00  0.43558929810E+02  0.43558929810E+02  0.00000000000E+00 0. -1.
         -1   -1    0    0    0  501 -0.00000000000E+00 -0.00000000000E+00 -0.79728605222E+03  0.79728605222E+03  0.00000000000E+00 0.  1.
         23    2    1    2    0    0 -0.17005295699E+02  0.71299372051E+02 -0.70148764221E+03  0.71207503569E+03  0.97944697311E+02 0.  0.
         24    2    1    2    0    0  0.15178941721E+02 -0.50945435545E+02 -0.48449932939E+02  0.10798584260E+03  0.80546312925E+02 0.  0.
        -13    1    4    4    0    0  0.10384727404E+02  0.19143143517E+02 -0.26674935264E+02  0.34436240769E+02  0.00000000000E+00 0.  1.
         14    1    4    4    0    0  0.47942143160E+01 -0.70088579063E+02 -0.21774997675E+02  0.73549601832E+02  0.00000000000E+00 0. -1.
        -11    1    3    3    0    0 -0.51350993073E+02  0.71405683598E+02 -0.51223186317E+03  0.51972798442E+03  0.00000000000E+00 0.  1.
         11    1    3    3    0    0  0.34345697374E+02 -0.10631154680E+00 -0.18925577904E+03  0.19234705127E+03  0.00000000000E+00 0. -1.
         -2    1    1    2    0  502  0.18263539783E+01 -0.20353936505E+02 -0.37895472609E+01  0.20784103747E+02  0.00000000000E+00 0.  1.
<scales pt_clust_5="13000.00000" pt_clust_6="13000.00000" pt_clust_7="13000.00000" pt_clust_8="13000.00000" pt_clust_9="20.43571"></scales>
<clustering>
<clus scale="   20.436">  1  9  2 -1</clus>
<clus scale="   80.546">  5  6 -1 -1</clus>
<clus scale="   97.945">  7  8 -1 -1</clus>
<clus scale="  106.876">  1  5  2 -1</clus>
<clus scale="   20.436">  1  5  2 -1</clus>
</clustering>
</event>
<event>
 9    2  0.1302972E-004  0.1236810E+03  0.7546771E-02  0.1254019E+00
         21   -1    0    0  501  502  0.00000000000E+00  0.00000000000E+00  0.16559277542E+03  0.16559277542E+03  0.00000000000E+00 0. -1.
          4   -1    0    0  502    0 -0.00000000000E+00 -0.00000000000E+00 -0.18567856228E+03  0.18567856228E+03  0.00000000000E+00 0. -1.
         24    2    1    2    0    0 -0.22324911413E+01 -0.36952040517E+02 -0.87111871442E+02  0.12387403709E+03  0.79911586169E+02 0.  0.
         23    2    1    2    0    0  0.32377163114E+01 -0.58475696916E+02 -0.51216690266E+01  0.10776134489E+03  0.90312712407E+02 0.  0.
        -13    1    3    3    0    0  0.29097325896E+01 -0.42745784925E+02 -0.10002538503E+03  0.10881519343E+03  0.00000000000E+00 0.  1.
         14    1    3    3    0    0 -0.51422237309E+01  0.57937444076E+01  0.12913513584E+02  0.15058843656E+02  0.00000000000E+00 0. -1.
        -11    1    4    4    0    0  0.24225330832E+02 -0.22436420287E+02 -0.41072904213E+02  0.52699554740E+02  0.00000000000E+00 0. -1.
         11    1    4    4    0    0 -0.20987614521E+02 -0.36039276629E+02  0.35951235187E+02  0.55061790151E+02  0.00000000000E+00 0.  1.
          3    1    1    2  501    0 -0.10052251701E+01  0.95427737433E+02  0.72147753610E+02  0.11963595572E+03  0.00000000000E+00 0. -1.
<scales pt_clust_5="13000.00000" pt_clust_6="13000.00000" pt_clust_7="13000.00000" pt_clust_8="13000.00000" pt_clust_9="84.50214"></scales>
<clustering>
<clus scale="   79.912">  5  6 -1 -1</clus>
<clus scale="   88.070">  2  5  1 -1</clus>
<clus scale="   84.502">  1  9  2 -1</clus>
<clus scale="   90.313">  7  8 -1 -1</clus>
<clus scale="   84.502">  1  5  2 -1</clus>
</clustering>
</event>
<event>
 9    2  0.1302972E-004  0.9916821E+02  0.7546771E-02  0.1288449E+00
          2   -1    0    0  502    0 -0.00000000000E+00  0.00000000000E+00  0.41268962135E+03  0.41268962135E+03  0.00000000000E+00 0. -1.
         21   -1    0    0  501  502  0.00000000000E+00 -0.00000000000E+00 -0.40847382636E+02  0.40847382636E+02  0.00000000000E+00 0. -1.
         24    2    1    2    0    0  0.42797948182E+02  0.10967257223E+02  0.10228245153E+03  0.13762180001E+03  0.80784372536E+02 0.  0.
         23    2    1    2    0    0 -0.10363367369E+02 -0.31591472299E+02  0.94339259035E+02  0.13652848829E+03  0.92923150051E+02 0.  0.
        -13    1    3    3    0    0  0.18597938644E+02 -0.14550230434E+02  0.99589776784E+02  0.10235094610E+03  0.00000000000E+00 0.  1.
         14    1    3    3    0    0  0.24200009537E+02  0.25517487657E+02  0.26926747459E+01  0.35270853906E+02  0.00000000000E+00 0. -1.
        -13    1    4    4    0    0  0.28216846216E+02  0.18090982877E+02  0.19549039557E+02  0.38802564599E+02  0.00000000000E+00 0.  1.
         13    1    4    4    0    0 -0.38580213585E+02 -0.49682455176E+02  0.74790219478E+02  0.97725923696E+02  0.00000000000E+00 0. -1.
          1    1    1    2  501    0 -0.32434580813E+02  0.20624215075E+02  0.17522052815E+03  0.17938671568E+03  0.00000000000E+00 0. -1.
<scales pt_clust_5="13000.00000" pt_clust_6="13000.00000" pt_clust_7="13000.00000" pt_clust_8="13000.00000" pt_clust_9="38.43646"></scales>
<clustering>
<clus scale="   38.436">  2  9  1 -1</clus>
<clus scale="   80.784">  5  6 -1 -1</clus>
<clus scale="   87.896">  1  5  2 -1</clus>
<clus scale="   92.923">  7  8 -1 -1</clus>
<clus scale="   38.436">  2  5  1 -1</clus>
</clustering>
</event>
<event>
 9    2  0.1611261E-004  0.1351619E+03  0.7546771E-02  0.1220011E+00
         -3   -1    0    0    0  501 -0.00000000000E+00  0.00000000000E+00  0.74954975672E+03  0.74954975672E+03  0.00000000000E+00 0.  1.
         21   -1    0    0  501  502  0.00000000000E+00 -0.00000000000E+00 -0.61334504620E+02  0.61334504620E+02  0.00000000000E+00 0. -1.
         24    2    1    2    0    0 -0.91906387586E+02  0.56534723796E+02  0.40579374546E+03  0.42931780480E+03  0.89455321734E+02 0.  0.
         23    2    1    2    0    0  0.52205635165E+02 -0.55735455445E+02  0.23992000343E+02  0.12010403420E+03  0.89540457973E+02 0.  0.
        -11    1    3    3    0    0 -0.49187370000E+02  0.65257091542E+02  0.34474679773E+03  0.35429964706E+03  0.00000000000E+00 0.  1.
         12    1    3    3    0    0 -0.42719017586E+02 -0.87223677457E+01  0.61046947735E+02  0.75018157738E+02  0.00000000000E+00 0. -1.
        -13    1    4    4    0    0  0.32114575421E+02 -0.29598510745E+02 -0.32675771139E+02  0.54544695547E+02  0.00000000000E+00 0. -1.
         13    1    4    4    0    0  0.20091059745E+02 -0.26136944700E+02  0.56667771482E+02  0.65559338653E+02  0.00000000000E+00 0.  1.
         -4    1    1    2    0  502  0.39700752421E+02 -0.79926835096E+00  0.25842950630E+03  0.26146242235E+03  0.00000000000E+00 0.  1.
<scales pt_clust_5="13000.00000" pt_clust_6="13000.00000" pt_clust_7="13000.00000" pt_clust_8="13000.00000" pt_clust_9="39.70882"></scales>
<clustering>
<clus scale="   39.709">  2  9  1 -1</clus>
<clus scale="   89.455">  5  6 -1 -1</clus>
<clus scale="   89.540">  7  8 -1 -1</clus>
<clus scale="  135.106">  1  5  2 -1</clus>
<clus scale="   39.709">  2  5  1 -1</clus>
</clustering>
</event>
<event>
 9    2  0.1302972E-004  0.1164382E+03  0.7546771E-02  0.1266611E+00
          4   -1    0    0  502    0 -0.00000000000E+00  0.00000000000E+00  0.55358855720E+02  0.55358855720E+02  0.00000000000E+00 0. -1.
         21   -1    0    0  501  502  0.00000000000E+00 -0.00000000000E+00 -0.63637034673E+03  0.63637034673E+03  0.00000000000E+00 0.  1.
         23    2    1    2    0    0  0.27975364795E+02 -0.36225254719E+01 -0.52971318978E+02  0.12957471952E+03  0.11483859795E+03 0.  0.
         24    2    1    2    0    0  0.38985649925E+02  0.44854823278E+02 -0.39686265158E+03  0.40921193899E+03  0.80141192422E+02 0.  0.
        -11    1    4    4    0    0  0.33990838579E+02  0.53425205464E+02 -0.15903593649E+03  0.17117844135E+03  0.00000000000E+00 0.  1.
         12    1    4    4    0    0  0.49948113459E+01 -0.85703821865E+01 -0.23782671509E+03  0.23803349764E+03  0.00000000000E+00 0. -1.
        -11    1    3    3    0    0  0.10956630689E+02  0.39226495856E+02  0.18332360258E+02  0.44663644789E+02  0.00000000000E+00 0.  1.
         11    1    3    3    0    0  0.17018734106E+02 -0.42849021328E+02 -0.71303679236E+02  0.84911074731E+02  0.00000000000E+00 0. -1.
          3    1    1    2  501    0 -0.66961014720E+02 -0.41232297806E+02 -0.13117752045E+03  0.15294254394E+03  0.00000000000E+00 0. -1.
<scales pt_clust_5="13000.00000" pt_clust_6="13000.00000" pt_clust_7="13000.00000" pt_clust_8="13000.00000" pt_clust_9="78.63765"></scales>
<clustering>
<clus scale="   78.638">  2  9  1 -1</clus>
<clus scale="   80.141">  5  6 -1 -1</clus>
<clus scale="   82.417">  2  5  1 -1</clus>
<clus scale="  114.839">  7  8 -1 -1</clus>
<clus scale="   78.638">  2  5  1 -1</clus>
</clustering>
</event>
<event>
 9    2  0.1302972E-004  0.1075973E+03  0.7546771E-02  0.1267589E+00
         21   -1    0    0  501  502  0.00000000000E+00  0.00000000000E+00  0.61075575659E+02  0.61075575659E+02  0.00000000000E+00 0. -1.
          2   -1    0    0  502    0 -0.00000000000E+00 -0.00000000000E+00 -0.99355842669E+03  0.99355842669E+03  0.00000000000E+00 0. -1.
         24    2    1    2    0    0 -0.43073202812E+02 -0.50042892291E+02 -0.84272103626E+03  0.84967253337E+03  0.86052757835E+02 0.  0.
         23    2    1    2    0    0  0.12363935455E+02 -0.11756749979E+02 -0.97890443494E+02  0.13547528696E+03  0.92086515733E+02 0.  0.
        -13    1    3    3    0    0 -0.36705376429E+02 -0.60796326166E+02 -0.36816262437E+03  0.37494959117E+03  0.00000000000E+00 0.  1.
         14    1    3    3    0    0 -0.63678263828E+01  0.10753433875E+02 -0.47455841189E+03  0.47472294220E+03  0.00000000000E+00 0. -1.
        -13    1    4    4    0    0 -0.39119659288E+02 -0.12304874774E+02 -0.32985056317E+02  0.52628619840E+02  0.00000000000E+00 0.  1.
         13    1    4    4    0    0  0.51483594743E+02  0.54812479589E+00 -0.64905387177E+02  0.82846667121E+02  0.00000000000E+00 0. -1.
          1    1    1    2  501    0  0.30709267357E+02  0.61799642270E+02  0.81286287285E+01  0.69486182017E+02  0.00000000000E+00 0. -1.
<scales pt_clust_5="13000.00000" pt_clust_6="13000.00000" pt_clust_7="13000.00000" pt_clust_8="13000.00000" pt_clust_9="69.00909"></scales>
<clustering>
<clus scale="   69.009">  1  9  2 -1</clus>
<clus scale="   86.053">  5  6 -1 -1</clus>
<clus scale="   92.087">  7  8 -1 -1</clus>
<clus scale="  102.481">  2  5  1 -1</clus>
<clus scale="   69.009">  1  5  2 -1</clus>
</clustering>
</event>
<event>
 9    2  0.1302972E-004  0.8731390E+02  0.7546771E-02  0.1311360E+00
         21   -1    0    0  501  502  0.00000000000E+00  0.00000000000E+00  0.71657246937E+03  0.71657246937E+03  0.00000000000E+00 0. -1.
         -3   -1    0    0    0  501 -0.00000000000E+00 -0.00000000000E+00 -0.29993879459E+02  0.29993879459E+02  0.00000000000E+00 0.  1.
         23    2    1    2    0    0 -0.27879764852E+02  0.13461785102E+02  0.13153542016E+03  0.16032167595E+03  0.86272661225E+02 0.  0.
         24    2    1    2    0    0 -0.51336686077E+02 -0.59565245108E+01  0.40160701226E+03  0.41340304173E+03  0.83324348740E+02 0.  0.
        -11    1    4    4    0    0  0.14269816169E+02 -0.16093906172E+02  0.36965189902E+02  0.42767589760E+02  0.00000000000E+00 0.  1.
         12    1    4    4    0    0 -0.65606502247E+02  0.10137381662E+02  0.36464182236E+03  0.37063545197E+03  0.00000000000E+00 0. -1.
        -11    1    3    3    0    0  0.10554148016E+02 -0.22730688461E+02  0.85425497853E+01  0.26477337387E+02  0.00000000000E+00 0.  1.
         11    1    3    3    0    0 -0.38433912868E+02  0.36192473563E+02  0.12299287038E+03  0.13384433856E+03  0.00000000000E+00 0. -1.
         -4    1    1    2    0  502  0.79216450930E+02 -0.75052605909E+01  0.15343615749E+03  0.17284163115E+03  0.00000000000E+00 0.  1.
<scales pt_clust_5="13000.00000" pt_clust_6="13000.00000" pt_clust_7="13000.00000" pt_clust_8="13000.00000" pt_clust_9="79.57123"></scales>
<clustering>
<clus scale="   79.571">  1  9  2 -1</clus>
<clus scale="   83.324">  5  6 -1 -1</clus>
<clus scale="   84.402">  1  5  2 -1</clus>
<clus scale="   86.273">  7  8 -1 -1</clus>
<clus scale="   79.571">  1  5  2 -1</clus>
</clustering>
</event>
<event>
 9    2  0.1302972E-004  0.2990715E+03  0.7546771E-02  0.1086033E+00
          2   -1    0    0  502    0 -0.00000000000E+00  0.00000000000E+00  0.20333718489E+04  0.20333718489E+04  0.00000000000E+00 0. -1.
         21   -1    0    0  501  502  0.00000000000E+00 -0.00000000000E+00 -0.23407154640E+03  0.23407154640E+03  0.00000000000E+00 0. -1.
         23    2    1    2    0    0 -0.26297214571E+02  0.26192427679E+03  0.10122635799E+04  0.10499394473E+04  0.91648335844E+02 0.  0.
         24    2    1    2    0    0 -0.17049265661E+03 -0.32060705735E+03  0.90643286667E+03  0.97996371696E+03  0.82775078404E+02 0.  0.
        -13    1    4    4    0    0 -0.94824303156E+02 -0.16187457691E+03  0.57411313373E+03  0.60398751431E+03  0.00000000000E+00 0.  1.
         14    1    4    4    0    0 -0.75668353451E+02 -0.15873248045E+03  0.33231973293E+03  0.37597620265E+03  0.00000000000E+00 0. -1.
        -13    1    3    3    0    0  0.22317627775E+02  0.13295327950E+03  0.39159070500E+03  0.41414723382E+03  0.00000000000E+00 0.  1.
         13    1    3    3    0    0 -0.48614842346E+02  0.12897099729E+03  0.62067287490E+03  0.63579221344E+03  0.00000000000E+00 0. -1.
          1    1    1    2  501    0  0.19678987118E+03  0.58682780562E+02 -0.11939614411E+03  0.23754023104E+03  0.00000000000E+00 0. -1.
<scales pt_clust_5="13000.00000" pt_clust_6="13000.00000" pt_clust_7="13000.00000" pt_clust_8="13000.00000" pt_clust_9="205.35316"></scales>
<clustering>
<clus scale="   82.775">  5  6 -1 -1</clus>
<clus scale="   91.648">  7  8 -1 -1</clus>
<clus scale="  205.353">  2  9  1 -1</clus>
<clus scale="  296.473">  2  5  1 -1</clus>
<clus scale="  205.353">  2  5  1 -1</clus>
</clustering>
</event>
<event>
 9    2  0.1302972E-004  0.9630222E+02  0.7546771E-02  0.1293318E+00
          2   -1    0    0  502    0 -0.00000000000E+00  0.00000000000E+00  0.58835183706E+03  0.58835183706E+03  0.00000000000E+00 0. -1.
         21   -1    0    0  501  502  0.00000000000E+00 -0.00000000000E+00 -0.24838233003E+02  0.24838233003E+02  0.00000000000E+00 0. -1.
         24    2    1    2    0    0  0.11530846518E+01 -0.37766034450E+02  0.33675773851E+03  0.34879514330E+03  0.82611588662E+02 0.  0.
         23    2    1    2    0    0  0.23644812571E+02  0.66295393369E+01  0.14320573853E+03  0.17184742134E+03  0.91763961997E+02 0.  0.
        -11    1    3    3    0    0 -0.26814899844E+02  0.14509460359E+02  0.90357544849E+02  0.95362724399E+02  0.00000000000E+00 0.  1.
         12    1    3    3    0    0  0.27967984496E+02 -0.52275494808E+02  0.24640019366E+03  0.25343241890E+03  0.00000000000E+00 0. -1.
        -11    1    4    4    0    0  0.28699249443E+02 -0.31603685627E+02  0.11872727800E+03  0.12616895975E+03  0.00000000000E+00 0.  1.
         11    1    4    4    0    0 -0.50544368719E+01  0.38233224964E+02  0.24478460525E+02  0.45678461587E+02  0.00000000000E+00 0. -1.
          1    1    1    2  501    0 -0.24797897223E+02  0.31136495113E+02  0.83550127026E+02  0.92547505426E+02  0.00000000000E+00 0. -1.
<scales pt_clust_5="13000.00000" pt_clust_6="13000.00000" pt_clust_7="13000.00000" pt_clust_8="13000.00000" pt_clust_9="39.80474"></scales>
<clustering>
<clus scale="   39.805">  2  9  1 -1</clus>
<clus scale="   82.612">  5  6 -1 -1</clus>
<clus scale="   87.625">  1  5  2 -1</clus>
<clus scale="   91.764">  7  8 -1 -1</clus>
<clus scale="   39.805">  2  5  1 -1</clus>
</clustering>
</event>
<event>
 9    2  0.1302972E-004  0.2215309E+03  0.7546771E-02  0.1132747E+00
         21   -1    0    0  501  502  0.00000000000E+00  0.00000000000E+00  0.18508235323E+03  0.18508235323E+03  0.00000000000E+00 0.  1.
          2   -1    0    0  502    0 -0.00000000000E+00 -0.00000000000E+00 -0.19892420448E+03  0.19892420448E+03  0.00000000000E+00 0. -1.
         24    2    1    2    0    0 -0.60031870151E+01 -0.71406655507E+02  0.51614025105E+02  0.12477706227E+03  0.88149639681E+02 0.  0.
         23    2    1    2    0    0 -0.37041154774E+02 -0.41011105138E+02  0.23945877791E+02  0.10928536613E+03  0.91191711774E+02 0.  0.
        -13    1    3    3    0    0 -0.87369351424E+01 -0.31912380151E+02  0.72734708043E+02  0.79906644259E+02  0.00000000000E+00 0.  1.
         14    1    3    3    0    0  0.27337481274E+01 -0.39494275355E+02 -0.21120682938E+02  0.44870418010E+02  0.00000000000E+00 0. -1.
        -13    1    4    4    0    0  0.22821427582E+02 -0.24535104030E+02  0.32416006048E+02  0.46621736719E+02  0.00000000000E+00 0. -1.
         13    1    4    4    0    0 -0.59862582355E+02 -0.16476001108E+02 -0.84701282568E+01  0.62663629415E+02  0.00000000000E+00 0.  1.
          1    1    1    2  501    0  0.43044341789E+02  0.11241776065E+03 -0.89401754143E+02  0.14994412930E+03  0.00000000000E+00 0. -1.
<scales pt_clust_5="13000.00000" pt_clust_6="13000.00000" pt_clust_7="13000.00000" pt_clust_8="13000.00000" pt_clust_9="120.37684"></scales>
<clustering>
<clus scale="   88.150">  5  6 -1 -1</clus>
<clus scale="   91.192">  7  8 -1 -1</clus>
<clus scale="   98.652">  5  7 -1 -1</clus>
<clus scale="  120.377">  1  9  2 -1</clus>
<clus scale="  120.377">  1  5  2 -1</clus>
</clustering>
</event>
<event>
 9    2  0.1302972E-004  0.9864896E+02  0.7546771E-02  0.1289808E+00
         21   -1    0    0  501  502  0.00000000000E+00  0.00000000000E+00  0.71639031246E+02  0.71639031246E+02  0.00000000000E+00 0.  1.
          4   -1    0    0  502    0 -0.00000000000E+00 -0.00000000000E+00 -0.48810925982E+03  0.48810925982E+03  0.00000000000E+00 0. -1.
         23    2    1    2    0    0  0.25524084387E+02  0.22773683520E+02 -0.42175148760E+03  0.43323339946E+03  0.92987857094E+02 0.  0.
         24    2    1    2    0    0 -0.33528821255E+02  0.12695817279E+01 -0.21248200197E+02  0.89827473826E+02  0.80571057768E+02 0.  0.
        -11    1    4    4    0    0 -0.27735455138E+02  0.10848483280E+02  0.27060011406E+02  0.40239151066E+02  0.00000000000E+00 0.  1.
         12    1    4    4    0    0 -0.57933661166E+01 -0.95789015519E+01 -0.48308211603E+02  0.49588322760E+02  0.00000000000E+00 0. -1.
        -11    1    3    3    0    0 -0.40878536087E+00  0.55168137214E+02 -0.28634338602E+03  0.29160971381E+03  0.00000000000E+00 0.  1.
         11    1    3    3    0    0  0.25932869748E+02 -0.32394453694E+02 -0.13540810158E+03  0.14162368565E+03  0.00000000000E+00 0. -1.
          3    1    1    2  501    0  0.80047368678E+01 -0.24043265248E+02  0.26529459230E+02  0.36687417777E+02  0.00000000000E+00 0. -1.
<scales pt_clust_5="13000.00000" pt_clust_6="13000.00000" pt_clust_7="13000.00000" pt_clust_8="13000.00000" pt_clust_9="25.34077"></scales>
<clustering>
<clus scale="   25.341">  1  9  2 -1</clus>
<clus scale="   80.571">  5  6 -1 -1</clus>
<clus scale="   87.044">  1  5  2 -1</clus>
<clus scale="   92.988">  7  8 -1 -1</clus>
<clus scale="   25.341">  1  5  2 -1</clus>
</clustering>
</event>
<event>
 9    2  0.1302972E-004  0.2062135E+03  0.7546771E-02  0.1145499E+00
         -3   -1    0    0    0  501 -0.00000000000E+00  0.00000000000E+00  0.11633806841E+03  0.11633806841E+03  0.00000000000E+00 0.  1.
         21   -1    0    0  501  502  0.00000000000E+00 -0.00000000000E+00 -0.49299830155E+03  0.49299830155E+03  0.00000000000E+00 0.  1.
         23    2    1    2    0    0  0.43090906391E+02  0.17082290350E+03 -0.16791153397E+03  0.25957647030E+03  0.90268322902E+02 0.  0.
         24    2    1    2    0    0 -0.38874357708E+02 -0.19353225861E+03 -0.23344433605E+03  0.31594616616E+03  0.79748172828E+02 0.  0.
        -13    1    4    4    0    0 -0.13748691811E+02 -0.18522527186E+03 -0.21225132582E+03  0.28204264425E+03  0.00000000000E+00 0.  1.
         14    1    4    4    0    0 -0.25125665897E+02 -0.83069867507E+01 -0.21193010227E+02  0.33903521914E+02  0.00000000000E+00 0. -1.
        -11    1    3    3    0    0 -0.67252622005E+01  0.11659006925E+03 -0.13616154280E+03  0.17938349740E+03  0.00000000000E+00 0.  1.
         11    1    3    3    0    0  0.49816168592E+02  0.54232834257E+02 -0.31749991163E+02  0.80192972906E+02  0.00000000000E+00 0. -1.
         -4    1    1    2    0  502 -0.42165486829E+01  0.22709355104E+02  0.24695636874E+02  0.33813733492E+02  0.00000000000E+00 0.  1.
<scales pt_clust_5="13000.00000" pt_clust_6="13000.00000" pt_clust_7="13000.00000" pt_clust_8="13000.00000" pt_clust_9="23.09750"></scales>
<clustering>
<clus scale="   23.098">  2  9  1 -1</clus>
<clus scale="   79.748">  5  6 -1 -1</clus>
<clus scale="   90.268">  7  8 -1 -1</clus>
<clus scale="  201.830">  2  5  1 -1</clus>
<clus scale="   23.098">  2  5  1 -1</clus>
</clustering>
</event>
<event>
 9    2  0.1302972E-004  0.9928062E+02  0.7546771E-02  0.1289102E+00
         21   -1    0    0  501  502  0.00000000000E+00  0.00000000000E+00  0.17074436617E+02  0.17074436617E+02  0.00000000000E+00 0.  1.
          2   -1    0    0  502    0 -0.00000000000E+00 -0.00000000000E+00 -0.83669061663E+03  0.83669061663E+03  0.00000000000E+00 0. -1.
         24    2    1    2    0    0  0.18116007702E+02  0.32309890684E+02 -0.45552145824E+03  0.46351985600E+03  0.77322307378E+02 0.  0.
         23    2    1    2    0    0 -0.48051835077E+02 -0.16796580766E+02 -0.30183020613E+03  0.31943780742E+03  0.91367037276E+02 0.  0.
        -13    1    3    3    0    0  0.26006872288E+02  0.53633450963E+02 -0.26353749700E+03  0.27019422051E+03  0.00000000000E+00 0.  1.
         14    1    3    3    0    0 -0.78908645861E+01 -0.21323560279E+02 -0.19198396123E+03  0.19332563549E+03  0.00000000000E+00 0. -1.
        -11    1    4    4    0    0 -0.67481636534E+00 -0.45938858901E+02 -0.17531639344E+03  0.18123650831E+03  0.00000000000E+00 0. -1.
         11    1    4    4    0    0 -0.47377018712E+02  0.29142278135E+02 -0.12651381269E+03  0.13820129912E+03  0.00000000000E+00 0.  1.
          1    1    1    2  501    0  0.29935827375E+02 -0.15513309918E+02 -0.62264515651E+02  0.70807389829E+02  0.00000000000E+00 0. -1.
<scales pt_clust_5="13000.00000" pt_clust_6="13000.00000" pt_clust_7="13000.00000" pt_clust_8="13000.00000" pt_clust_9="33.71671"></scales>
<clustering>
<clus scale="   33.717">  1  9  2 -1</clus>
<clus scale="   77.322">  5  6 -1 -1</clus>
<clus scale="   86.530">  2  5  1 -1</clus>
<clus scale="   91.367">  7  8 -1 -1</clus>
<clus scale="   33.717">  1  5  2 -1</clus>
</clustering>
</event>
<event>
 9    2  0.1302972E-004  0.1465459E+03  0.7546771E-02  0.1206123E+00
         -3   -1    0    0    0  501 -0.00000000000E+00  0.00000000000E+00  0.98937305393E+03  0.98937305393E+03  0.00000000000E+00 0.  1.
         21   -1    0    0  501  502  0.00000000000E+00 -0.00000000000E+00 -0.44809955960E+02  0.44809955960E+02  0.00000000000E+00 0. -1.
         23    2    1    2    0    0  0.13094857525E+03  0.63702991842E+02  0.53731993323E+03  0.56350379286E+03  0.87282377292E+02 0.  0.
         24    2    1    2    0    0 -0.10103167888E+03  0.20762920974E+02  0.31998322626E+03  0.34560400774E+03  0.80089737505E+02 0.  0.
        -13    1    4    4    0    0 -0.38210434504E+02 -0.24530641359E+02  0.17985201294E+03  0.18549538062E+03  0.00000000000E+00 0.  1.
         14    1    4    4    0    0 -0.62821244377E+02  0.45293562333E+02  0.14013121332E+03  0.16010862713E+03  0.00000000000E+00 0. -1.
        -13    1    3    3    0    0  0.35669801969E+02 -0.21500577044E+02  0.14716786832E+03  0.15294767423E+03  0.00000000000E+00 0.  1.
         13    1    3    3    0    0  0.95278773282E+02  0.85203568885E+02  0.39015206491E+03  0.41055611863E+03  0.00000000000E+00 0. -1.
         -4    1    1    2    0  502 -0.29916896371E+02 -0.84465912816E+02  0.87259938475E+02  0.12507520929E+03  0.00000000000E+00 0.  1.
<scales pt_clust_5="13000.00000" pt_clust_6="13000.00000" pt_clust_7="13000.00000" pt_clust_8="13000.00000" pt_clust_9="89.60754"></scales>
<clustering>
<clus scale="   80.090">  5  6 -1 -1</clus>
<clus scale="   87.282">  7  8 -1 -1</clus>
<clus scale="   89.608">  2  9  1 -1</clus>
<clus scale="  142.379">  2  5  1 -1</clus>
<clus scale="   89.608">  2  5  1 -1</clus>
</clustering>
</event>
<event>
 9    2  0.1302972E-004  0.1128007E+03  0.7546771E-02  0.1262886E+00
         21   -1    0    0  501  502  0.00000000000E+00  0.00000000000E+00  0.12553734913E+03  0.12553734913E+03  0.00000000000E+00 0.  1.
         -1   -1    0    0    0  501 -0.00000000000E+00 -0.00000000000E+00 -0.23185265017E+03  0.23185265017E+03  0.00000000000E+00 0.  1.
         24    2    1    2    0    0 -0.61390339784E+02  0.13095134843E+02 -0.16280931002E+03  0.18865970952E+03  0.71731152163E+02 0.  0.
         23    2    1    2    0    0  0.82955354080E+02 -0.34896762346E+02  0.45050237138E+02  0.13599925379E+03  0.91470751455E+02 0.  0.
        -11    1    3    3    0    0 -0.44863558547E+02  0.65520761504E+01 -0.16466058454E+03  0.17078869017E+03  0.00000000000E+00 0.  1.
         12    1    3    3    0    0 -0.16526781237E+02  0.65430586930E+01  0.18512745257E+01  0.17871019346E+02  0.00000000000E+00 0. -1.
        -11    1    4    4    0    0  0.46855910185E+02  0.21594844260E+02  0.45748772364E+02  0.68954795270E+02  0.00000000000E+00 0. -1.
         11    1    4    4    0    0  0.36099443895E+02 -0.56491606606E+02 -0.69853522571E+00  0.67044458518E+02  0.00000000000E+00 0.  1.
         -2    1    1    2    0  502 -0.21565014297E+02  0.21801627503E+02  0.11443771842E+02  0.32731035996E+02  0.00000000000E+00 0.  1.
<scales pt_clust_5="13000.00000" pt_clust_6="13000.00000" pt_clust_7="13000.00000" pt_clust_8="13000.00000" pt_clust_9="30.66530"></scales>
<clustering>
<clus scale="   30.665">  1  9  2 -1</clus>
<clus scale="   71.731">  5  6 -1 -1</clus>
<clus scale="   91.471">  7  8 -1 -1</clus>
<clus scale="   97.481">  2  5  1 -1</clus>
<clus scale="   30.665">  1  5  2 -1</clus>
</clustering>
</event>
<event>
 9    2  0.1302972E-004  0.1571437E+03  0.7546771E-02  0.1219751E+00
         21   -1    0    0  501  502  0.00000000000E+00  0.00000000000E+00  0.19821614172E+03  0.19821614172E+03  0.00000000000E+00 0. -1.
          2   -1    0    0  502    0 -0.00000000000E+00 -0.00000000000E+00 -0.26479409988E+03  0.26479409988E+03  0.00000000000E+00 0. -1.
         24    2    1    2    0    0 -0.20331849409E+02 -0.17234735459E+02 -0.14155068949E+03  0.16585732963E+03  0.82229166914E+02 0.  0.
         23    2    1    2    0    0 -0.10698873902E+03 -0.35119748790E+02  0.11799701733E+02  0.14568556920E+03  0.91679142020E+02 0.  0.
        -11    1    3    3    0    0  0.20142702350E+02  0.10336615096E+02 -0.86769594939E+01  0.24245900595E+02  0.00000000000E+00 0.  1.
         12    1    3    3    0    0 -0.40474551759E+02 -0.27571350555E+02 -0.13287372999E+03  0.14161142904E+03  0.00000000000E+00 0. -1.
        -11    1    4    4    0    0 -0.45035437510E+02 -0.39106453334E+02  0.45526365754E+02  0.75034360815E+02  0.00000000000E+00 0. -1.
         11    1    4    4    0    0 -0.61953301507E+02  0.39867045444E+01 -0.33726664021E+02  0.70651208388E+02  0.00000000000E+00 0.  1.
          1    1    1    2  501    0  0.12732058843E+03  0.52354484249E+02  0.63173029597E+02  0.15146734277E+03  0.00000000000E+00 0. -1.
<scales pt_clust_5="13000.00000" pt_clust_6="13000.00000" pt_clust_7="13000.00000" pt_clust_8="13000.00000" pt_clust_9="127.62872"></scales>
<clustering>
<clus scale="   82.229">  5  6 -1 -1</clus>
<clus scale="   86.441">  2  5  1 -1</clus>
<clus scale="   91.679">  7  8 -1 -1</clus>
<clus scale="  127.629">  1  9  2 -1</clus>
<clus scale="  127.629">  1  5  2 -1</clus>
</clustering>
</event>
<event>
 9    2  0.1302972E-004  0.1018925E+03  0.7546771E-02  0.1280501E+00
         21   -1    0    0  501  502  0.00000000000E+00  0.00000000000E+00  0.74351063037E+02  0.74351063037E+02  0.00000000000E+00 0.  1.
          2   -1    0    0  502    0 -0.00000000000E+00 -0.00000000000E+00 -0.25445508977E+03  0.25445508977E+03  0.00000000000E+00 0. -1.
         23    2    1    2    0    0 -0.50460194179E+02 -0.51972441739E+02 -0.11955883954E+03  0.16463703853E+03  0.86969376476E+02 0.  0.
         24    2    1    2    0    0 -0.57750132742E+00  0.25117475598E+02 -0.16591952532E+01  0.81745843204E+02  0.77771517049E+02 0.  0.
        -11    1    4    4    0    0 -0.13618576594E+02  0.45703809307E+02  0.17445539575E+02  0.50780416153E+02  0.00000000000E+00 0.  1.
         12    1    4    4    0    0  0.13041075267E+02 -0.20586333708E+02 -0.19104734828E+02  0.30965427052E+02  0.00000000000E+00 0. -1.
        -11    1    3    3    0    0 -0.53438007076E+02 -0.45178927967E+01 -0.25802458626E+02  0.59513013927E+02  0.00000000000E+00 0. -1.
         11    1    3    3    0    0  0.29778128968E+01 -0.47454548943E+02 -0.93756380918E+02  0.10512402460E+03  0.00000000000E+00 0.  1.
          1    1    1    2  501    0  0.51037695506E+02  0.26854966141E+02 -0.58885991940E+02  0.82423271082E+02  0.00000000000E+00 0. -1.
<scales pt_clust_5="13000.00000" pt_clust_6="13000.00000" pt_clust_7="13000.00000" pt_clust_8="13000.00000" pt_clust_9="57.67182"></scales>
<clustering>
<clus scale="   57.672">  1  9  2 -1</clus>
<clus scale="   77.772">  5  6 -1 -1</clus>
<clus scale="   86.969">  7  8 -1 -1</clus>
<clus scale="   94.164">  1  5  2 -1</clus>
<clus scale="   57.672">  1  5  2 -1</clus>
</clustering>
</event>
<event>
 9    2  0.1302972E-004  0.2002579E+03  0.7546771E-02  0.1183962E+00
         21   -1    0    0  501  502  0.00000000000E+00  0.00000000000E+00  0.83887098229E+02  0.83887098229E+02  0.00000000000E+00 0. -1.
          2   -1    0    0  502    0 -0.00000000000E+00 -0.00000000000E+00 -0.69430847215E+03  0.69430847215E+03  0.00000000000E+00 0. -1.
         24    2    1    2    0    0 -0.41033019720E+02  0.18741659247E+02 -0.65540850799E+02  0.11187178428E+03  0.78643082953E+02 0.  0.
         23    2    1    2    0    0  0.19436717573E+03  0.39802653637E+02 -0.26994872922E+03  0.34612651679E+03  0.86996545792E+02 0.  0.
        -11    1    3    3    0    0 -0.12772892826E+02  0.16283060048E+02 -0.78139091612E+02  0.80833176813E+02  0.00000000000E+00 0.  1.
         12    1    3    3    0    0 -0.28260126894E+02  0.24585991990E+01  0.12598240813E+02  0.31038607470E+02  0.00000000000E+00 0. -1.
        -11    1    4    4    0    0  0.58659382848E+02  0.47483501985E+02 -0.13455645800E+03  0.15427587805E+03  0.00000000000E+00 0.  1.
         11    1    4    4    0    0  0.13570779289E+03 -0.76808483479E+01 -0.13539227121E+03  0.19185063874E+03  0.00000000000E+00 0. -1.
          1    1    1    2  501    0 -0.15333415601E+03 -0.58544312884E+02 -0.27493179390E+03  0.32019726930E+03  0.00000000000E+00 0. -1.
<scales pt_clust_5="13000.00000" pt_clust_6="13000.00000" pt_clust_7="13000.00000" pt_clust_8="13000.00000" pt_clust_9="180.37417"></scales>
<clustering>
<clus scale="   78.643">  5  6 -1 -1</clus>
<clus scale="   86.997">  7  8 -1 -1</clus>
<clus scale="   90.663">  2  5  1 -1</clus>
<clus scale="  180.374">  1  9  2 -1</clus>
<clus scale="  180.374">  1  5  2 -1</clus>
</clustering>
</event>
<event>
 9    2  0.1302972E-004  0.1415815E+03  0.7546771E-02  0.1214263E+00
          2   -1    0    0  502    0 -0.00000000000E+00  0.00000000000E+00  0.77006769998E+03  0.77006769998E+03  0.00000000000E+00 0. -1.
         21   -1    0    0  501  502  0.00000000000E+00 -0.00000000000E+00 -0.11045632654E+03  0.11045632654E+03  0.00000000000E+00 0.  1.
         24    2    1    2    0    0 -0.69240132799E+02  0.61951211270E+02  0.46165206932E+03  0.47754138276E+03  0.79315764987E+02 0.  0.
         23    2    1    2    0    0  0.17135841199E+03 -0.70032845404E+02  0.21549818054E+03  0.29905445729E+03  0.93411978979E+02 0.  0.
        -11    1    3    3    0    0 -0.12941377325E+02 -0.19122541601E+02  0.73870648491E+02  0.77395242443E+02  0.00000000000E+00 0.  1.
         12    1    3    3    0    0 -0.56298755474E+02  0.81073752871E+02  0.38778142083E+03  0.40014614032E+03  0.00000000000E+00 0. -1.
        -13    1    4    4    0    0  0.21865891146E+02 -0.49820382347E+02  0.39390967520E+02  0.67170201838E+02  0.00000000000E+00 0.  1.
         13    1    4    4    0    0  0.14949252085E+03 -0.20212463057E+02  0.17610721302E+03  0.23188425546E+03  0.00000000000E+00 0. -1.
          1    1    1    2  501    0 -0.10211827919E+03  0.80816341340E+01 -0.17538876413E+02  0.10392818646E+03  0.00000000000E+00 0. -1.
<scales pt_clust_5="13000.00000" pt_clust_6="13000.00000" pt_clust_7="13000.00000" pt_clust_8="13000.00000" pt_clust_9="102.43757"></scales>
<clustering>
<clus scale="   79.316">  5  6 -1 -1</clus>
<clus scale="   93.412">  7  8 -1 -1</clus>
<clus scale="  102.438">  2  9  1 -1</clus>
<clus scale="  132.705">  1  5  2 -1</clus>
<clus scale="  102.438">  2  5  1 -1</clus>
</clustering>
</event>
<event>
 9    2  0.1302972E-004  0.1053431E+03  0.7546771E-02  0.1271821E+00
          2   -1    0    0  502    0 -0.00000000000E+00  0.00000000000E+00  0.65394427747E+03  0.65394427747E+03  0.00000000000E+00 0. -1.
         21   -1    0    0  501  502  0.00000000000E+00 -0.00000000000E+00 -0.77927042816E+02  0.77927042816E+02  0.00000000000E+00 0.  1.
         23    2    1    2    0    0 -0.32327761147E+02 -0.45393704073E+02  0.43130609000E+03  0.44356949332E+03  0.87311394609E+02 0.  0.
         24    2    1    2    0    0 -0.44620086169E+02  0.11022253912E+03  0.11419421760E+03  0.18315891518E+03  0.79792911087E+02 0.  0.
        -11    1    4    4    0    0 -0.33485997914E+02  0.10030220222E+03  0.49478796227E+02  0.11674757001E+03  0.00000000000E+00 0.  1.
         12    1    4    4    0    0 -0.11134088255E+02  0.99203369000E+01  0.64715421369E+02  0.66411345179E+02  0.00000000000E+00 0. -1.
        -13    1    3    3    0    0  0.25803975448E+02 -0.27355132281E+02  0.10257356528E+03  0.10924964396E+03  0.00000000000E+00 0.  1.
         13    1    3    3    0    0 -0.58131736595E+02 -0.18038571792E+02  0.32873252472E+03  0.33431984937E+03  0.00000000000E+00 0. -1.
          1    1    1    2  501    0  0.76947847316E+02 -0.64828835045E+02  0.30516927060E+02  0.10514291178E+03  0.00000000000E+00 0. -1.
<scales pt_clust_5="13000.00000" pt_clust_6="13000.00000" pt_clust_7="13000.00000" pt_clust_8="13000.00000" pt_clust_9="100.61684"></scales>
<clustering>
<clus scale="   79.793">  5  6 -1 -1</clus>
<clus scale="   87.311">  7  8 -1 -1</clus>
<clus scale="  100.617">  2  9  1 -1</clus>
<clus scale="  100.617">  2  5  1 -1</clus>
<clus scale="  100.617">  2  5  1 -1</clus>
</clustering>
</event>
<event>
 9    2  0.1302972E-004  0.1054159E+03  0.7546771E-02  0.1274341E+00
          2   -1    0    0  502    0 -0.00000000000E+00  0.00000000000E+00  0.13043416015E+04  0.13043416015E+04  0.00000000000E+00 0. -1.
         21   -1    0    0  501  502  0.00000000000E+00 -0.00000000000E+00 -0.23649275128E+02  0.23649275128E+02  0.00000000000E+00 0.  1.
         24    2    1    2    0    0 -0.38904672937E+02 -0.31931097241E+02  0.10781704109E+04  0.10823542988E+04  0.80661170989E+02 0.  0.
         23    2    1    2    0    0  0.61128526628E+02  0.21218194321E+02  0.14897784287E+03  0.18668207278E+03  0.92026572763E+02 0.  0.
        -13    1    3    3    0    0  0.50764728569E+01 -0.20789878732E+02  0.70824025552E+02  0.73986703060E+02  0.00000000000E+00 0.  1.
         14    1    3    3    0    0 -0.43981145793E+02 -0.11141218509E+02  0.10073463854E+04  0.10083675957E+04  0.00000000000E+00 0. -1.
        -13    1    4    4    0    0  0.77786359974E+02  0.39165992023E+02  0.12550465757E+03  0.15276161756E+03  0.00000000000E+00 0.  1.
         13    1    4    4    0    0 -0.16657833347E+02 -0.17947797701E+02  0.23473185301E+02  0.33920455219E+02  0.00000000000E+00 0. -1.
          1    1    1    2  501    0 -0.22223853691E+02  0.10712902919E+02  0.53544072602E+02  0.58954505109E+02  0.00000000000E+00 0. -1.
<scales pt_clust_5="13000.00000" pt_clust_6="13000.00000" pt_clust_7="13000.00000" pt_clust_8="13000.00000" pt_clust_9="24.67116"></scales>
<clustering>
<clus scale="   24.671">  2  9  1 -1</clus>
<clus scale="   80.661">  5  6 -1 -1</clus>
<clus scale="   92.027">  7  8 -1 -1</clus>
<clus scale="   95.655">  1  5  2 -1</clus>
<clus scale="   24.671">  2  5  1 -1</clus>
</clustering>
</event>
<event>
 9    2  0.1302972E-004  0.1384218E+03  0.7546771E-02  0.1219668E+00
         21   -1    0    0  501  502  0.00000000000E+00  0.00000000000E+00  0.64359471079E+02  0.64359471079E+02  0.00000000000E+00 0. -1.
          2   -1    0    0  502    0 -0.00000000000E+00 -0.00000000000E+00 -0.89717125116E+03  0.89717125116E+03  0.00000000000E+00 0. -1.
         24    2    1    2    0    0 -0.12253927587E+03  0.14105534571E+02 -0.30854867910E+03  0.34112843487E+03  0.77145845452E+02 0.  0.
         23    2    1    2    0    0  0.41251668844E+02  0.31997283574E+02 -0.23612841937E+02  0.11110490196E+03  0.95190370293E+02 0.  0.
        -11    1    3    3    0    0 -0.14415406304E+02  0.32702193891E+02 -0.72559955021E+02  0.80883771530E+02  0.00000000000E+00 0.  1.
         12    1    3    3    0    0 -0.10812386957E+03 -0.18596659321E+02 -0.23598872407E+03  0.26024466334E+03  0.00000000000E+00 0. -1.
        -13    1    4    4    0    0 -0.15734742200E+02 -0.23439839352E+02 -0.22141558325E+00  0.28232201576E+02  0.00000000000E+00 0.  1.
         13    1    4    4    0    0  0.56986411044E+02  0.55437122926E+02 -0.23391426354E+02  0.82872700384E+02  0.00000000000E+00 0. -1.
          1    1    1    2  501    0  0.81287607028E+02 -0.46102818145E+02 -0.50065025905E+03  0.50929738541E+03  0.00000000000E+00 0. -1.
<scales pt_clust_5="13000.00000" pt_clust_6="13000.00000" pt_clust_7="13000.00000" pt_clust_8="13000.00000" pt_clust_9="93.45134"></scales>
<clustering>
<clus scale="   77.146">  5  6 -1 -1</clus>
<clus scale="   93.451">  1  9  2 -1</clus>
<clus scale="   95.190">  7  8 -1 -1</clus>
<clus scale="  126.692">  2  5  1 -1</clus>
<clus scale="   93.451">  1  5  2 -1</clus>
</clustering>
</event>
<event>
 9    2  0.1302972E-004  0.1542387E+03  0.7546771E-02  0.1198371E+00
         21   -1    0    0  501  502  0.00000000000E+00  0.00000000000E+00  0.32717511861E+02  0.32717511861E+02  0.00000000000E+00 0. -1.
          2   -1    0    0  502    0 -0.00000000000E+00 -0.00000000000E+00 -0.11282585068E+04  0.11282585068E+04  0.00000000000E+00 0. -1.
         24    2    1    2    0    0  0.99803754838E+01 -0.15136565354E+03 -0.65988168135E+03  0.68211537091E+03  0.82621891084E+02 0.  0.
         23    2    1    2    0    0 -0.22489826860E+02  0.93028532859E+02 -0.15871556698E+03  0.19556302191E+03  0.62403237866E+02 0.  0.
        -13    1    3    3    0    0  0.28296279455E+02 -0.19436193271E+02 -0.78612013905E+02  0.85780497609E+02  0.00000000000E+00 0.  1.
         14    1    3    3    0    0 -0.18315903971E+02 -0.13192946027E+03 -0.58126966744E+03  0.59633487330E+03  0.00000000000E+00 0. -1.
        -13    1    4    4    0    0 -0.39832116995E+02  0.73450522310E+02 -0.14124960146E+03  0.16411284741E+03  0.00000000000E+00 0.  1.
         13    1    4    4    0    0  0.17342290135E+02  0.19578010549E+02 -0.17465965520E+02  0.31450174495E+02  0.00000000000E+00 0. -1.
          1    1    1    2  501    0  0.12509451376E+02  0.58337120683E+02 -0.27694374656E+03  0.28329762580E+03  0.00000000000E+00 0. -1.
<scales pt_clust_5="13000.00000" pt_clust_6="13000.00000" pt_clust_7="13000.00000" pt_clust_8="13000.00000" pt_clust_9="59.66330"></scales>
<clustering>
<clus scale="   59.663">  1  9  2 -1</clus>
<clus scale="   62.403">  7  8 -1 -1</clus>
<clus scale="   82.622">  5  6 -1 -1</clus>
<clus scale="  144.421">  1  7  2 -1</clus>
<clus scale="   59.663">  1  5  2 -1</clus>
</clustering>
</event>
<event>
 9    2  0.1302972E-004  0.1380905E+03  0.7546771E-02  0.1218204E+00
          2   -1    0    0  502    0 -0.00000000000E+00  0.00000000000E+00  0.35102888827E+03  0.35102888827E+03  0.00000000000E+00 0. -1.
         21   -1    0    0  501  502  0.00000000000E+00 -0.00000000000E+00 -0.12330948827E+03  0.12330948827E+03  0.00000000000E+00 0.  1.
         23    2    1    2    0    0  0.20606621741E+02  0.12427183523E+03  0.10217740138E+03  0.18565712153E+03  0.90333955591E+02 0.  0.
         24    2    1    2    0    0  0.79517961729E+02 -0.72070739652E+02  0.22402147874E+02  0.13575082831E+03  0.80057063443E+02 0.  0.
        -11    1    4    4    0    0  0.72400528654E+02 -0.39018188271E+02 -0.16841041375E+02  0.83951630359E+02  0.00000000000E+00 0.  1.
         12    1    4    4    0    0  0.71174330755E+01 -0.33052551381E+02  0.39243189250E+02  0.51799197956E+02  0.00000000000E+00 0. -1.
        -13    1    3    3    0    0  0.24692258822E+02  0.93048858173E+02  0.11644466643E+03  0.15108659104E+03  0.00000000000E+00 0. -1.
         13    1    3    3    0    0 -0.40856370814E+01  0.31222977054E+02 -0.14267265048E+02  0.34570530491E+02  0.00000000000E+00 0.  1.
          1    1    1    2  501    0 -0.10012458347E+03 -0.52201095576E+02  0.10313985075E+03  0.15293042669E+03  0.00000000000E+00 0. -1.
<scales pt_clust_5="13000.00000" pt_clust_6="13000.00000" pt_clust_7="13000.00000" pt_clust_8="13000.00000" pt_clust_9="112.91545"></scales>
<clustering>
<clus scale="   80.057">  5  6 -1 -1</clus>
<clus scale="   90.334">  7  8 -1 -1</clus>
<clus scale="  112.915">  2  9  1 -1</clus>
<clus scale="  131.597">  2  5  1 -1</clus>
<clus scale="  112.915">  2  5  1 -1</clus>
</clustering>
</event>
<event>
 9    2  0.1302972E-004  0.1988280E+03  0.7546771E-02  0.1166732E+00
         21   -1    0    0  501  502  0.00000000000E+00  0.00000000000E+00  0.17517342808E+03  0.17517342808E+03  0.00000000000E+00 0. -1.
         -1   -1    0    0    0  501 -0.00000000000E+00 -0.00000000000E+00 -0.40281327843E+03  0.40281327843E+03  0.00000000000E+00 0.  1.
         23    2    1    2    0    0 -0.24603825295E+01 -0.10221896875E+03 -0.62259215411E+02  0.15037602614E+03  0.91005320063E+02 0.  0.
         24    2    1    2    0    0  0.17973059725E+03  0.86946586656E+02 -0.73933562103E+02  0.22755933243E+03  0.80338543996E+02 0.  0.
        -11    1    4    4    0    0  0.24939741472E+02  0.28627442602E+02 -0.46263442985E+02  0.59848369496E+02  0.00000000000E+00 0.  1.
         12    1    4    4    0    0  0.15479085578E+03  0.58319144054E+02 -0.27670119119E+02  0.16771096293E+03  0.00000000000E+00 0. -1.
        -11    1    3    3    0    0  0.18401965361E+02 -0.81345106876E+02 -0.80309940716E+02  0.11578145499E+03  0.00000000000E+00 0.  1.
         11    1    3    3    0    0 -0.20862347890E+02 -0.20873861876E+02  0.18050725306E+02  0.34594571151E+02  0.00000000000E+00 0. -1.
         -2    1    1    2    0  502 -0.17727021472E+03  0.15272382096E+02 -0.91447072833E+02  0.20005134794E+03  0.00000000000E+00 0.  1.
<scales pt_clust_5="13000.00000" pt_clust_6="13000.00000" pt_clust_7="13000.00000" pt_clust_8="13000.00000" pt_clust_9="181.87448"></scales>
<clustering>
<clus scale="   80.339">  5  6 -1 -1</clus>
<clus scale="   91.005">  7  8 -1 -1</clus>
<clus scale="  136.882">  2  7  1 -1</clus>
<clus scale="  181.874">  1  9  2 -1</clus>
<clus scale="  181.874">  1  5  2 -1</clus>
</clustering>
</event>
<event>
 9    2  0.1302972E-004  0.1975061E+03  0.7546771E-02  0.1182493E+00
         21   -1    0    0  501  502  0.00000000000E+00  0.00000000000E+00  0.49239222059E+03  0.49239222059E+03  0.00000000000E+00 0. -1.
          2   -1    0    0  502    0 -0.00000000000E+00 -0.00000000000E+00 -0.13677292555E+03  0.13677292555E+03  0.00000000000E+00 0. -1.
         24    2    1    2    0    0 -0.49078888253E+02 -0.71812425121E+01 -0.19644832670E+00  0.97660919513E+02  0.84126744214E+02 0.  0.
         23    2    1    2    0    0  0.18854920583E+03  0.41079465741E+02  0.31766696977E+03  0.38299029480E+03  0.92363069989E+02 0.  0.
        -13    1    3    3    0    0 -0.34799535514E+02 -0.43120999909E+02  0.12785882547E+02  0.56867452006E+02  0.00000000000E+00 0.  1.
         14    1    3    3    0    0 -0.14279352739E+02  0.35939757397E+02 -0.12982330874E+02  0.40793467508E+02  0.00000000000E+00 0. -1.
        -11    1    4    4    0    0  0.43008463428E+02 -0.20029579531E+02  0.34022380795E+02  0.58381798342E+02  0.00000000000E+00 0.  1.
         11    1    4    4    0    0  0.14554074240E+03  0.61109045273E+02  0.28364458898E+03  0.32460849645E+03  0.00000000000E+00 0. -1.
          1    1    1    2  501    0 -0.13947031757E+03 -0.33898223229E+02  0.38148773582E+02  0.14851393183E+03  0.00000000000E+00 0. -1.
<scales pt_clust_5="13000.00000" pt_clust_6="13000.00000" pt_clust_7="13000.00000" pt_clust_8="13000.00000" pt_clust_9="174.57877"></scales>
<clustering>
<clus scale="   84.127">  5  6 -1 -1</clus>
<clus scale="   92.363">  7  8 -1 -1</clus>
<clus scale="   97.661">  2  5  1 -1</clus>
<clus scale="  174.579">  1  9  2 -1</clus>
<clus scale="  174.579">  1  5  2 -1</clus>
</clustering>
</event>
<event>
 9    2  0.1302972E-004  0.1150164E+03  0.7546771E-02  0.1256430E+00
          2   -1    0    0  502    0 -0.00000000000E+00  0.00000000000E+00  0.13220299392E+03  0.13220299392E+03  0.00000000000E+00 0. -1.
         21   -1    0    0  501  502  0.00000000000E+00 -0.00000000000E+00 -0.14238219207E+03  0.14238219207E+03  0.00000000000E+00 0. -1.
         23    2    1    2    0    0  0.54396792115E+02  0.65857448787E+02  0.32830709387E+02  0.13053323814E+03  0.93085209500E+02 0.  0.
         24    2    1    2    0    0 -0.26952521553E+02 -0.40769947795E+02 -0.93089636838E+01  0.93869039318E+02  0.79599702740E+02 0.  0.
        -11    1    4    4    0    0 -0.36263392599E+00 -0.41836010717E+02  0.26298286008E+02  0.49416425843E+02  0.00000000000E+00 0.  1.
         12    1    4    4    0    0 -0.26589887627E+02  0.10660629226E+01 -0.35607249692E+02  0.44452613475E+02  0.00000000000E+00 0. -1.
        -13    1    3    3    0    0 -0.15408981723E+02 -0.13285170919E+02  0.12665392926E+01  0.20384715006E+02  0.00000000000E+00 0.  1.
         13    1    3    3    0    0  0.69805773838E+02  0.79142619706E+02  0.31564170095E+02  0.11014852314E+03  0.00000000000E+00 0. -1.
          1    1    1    2  501    0 -0.27444270562E+02 -0.25087500992E+02 -0.33700943855E+02  0.50182908539E+02  0.00000000000E+00 0. -1.
<scales pt_clust_5="13000.00000" pt_clust_6="13000.00000" pt_clust_7="13000.00000" pt_clust_8="13000.00000" pt_clust_9="37.18294"></scales>
<clustering>
<clus scale="   37.183">  2  9  1 -1</clus>
<clus scale="   79.600">  5  6 -1 -1</clus>
<clus scale="   93.085">  7  8 -1 -1</clus>
<clus scale="  104.403">  2  5  1 -1</clus>
<clus scale="   37.183">  2  5  1 -1</clus>
</clustering>
</event>
<event>
 9    2  0.1302972E-004  0.1287245E+03  0.7546771E-02  0.1231713E+00
          2   -1    0    0  502    0 -0.00000000000E+00  0.00000000000E+00  0.25811989015E+03  0.25811989015E+03  0.00000000000E+00 0. -1.
         21   -1    0    0  501  502  0.00000000000E+00 -0.00000000000E+00 -0.13398568974E+03  0.13398568974E+03  0.00000000000E+00 0. -1.
         23    2    1    2    0    0  0.79892181685E+02  0.46876011908E+02  0.14968398312E+03  0.19793584936E+03  0.90516211107E+02 0.  0.
         24    2    1    2    0    0 -0.89954969797E+02 -0.20452631216E+02  0.34402509770E+02  0.12788449743E+03  0.81613144100E+02 0.  0.
        -13    1    4    4    0    0 -0.13089676159E+02  0.28710621063E+02  0.45385639841E+01  0.31878487210E+02  0.00000000000E+00 0.  1.
         14    1    4    4    0    0 -0.76865293638E+02 -0.49163252279E+02  0.29863945786E+02  0.96006010221E+02  0.00000000000E+00 0. -1.
        -11    1    3    3    0    0  0.14652647004E+02  0.60923742629E+02  0.76675118092E+02  0.99022604563E+02  0.00000000000E+00 0.  1.
         11    1    3    3    0    0  0.65239534682E+02 -0.14047730721E+02  0.73008865031E+02  0.98913244801E+02  0.00000000000E+00 0. -1.
          1    1    1    2  501    0  0.10062788111E+02 -0.26423380692E+02 -0.59952292481E+02  0.66285233088E+02  0.00000000000E+00 0. -1.
<scales pt_clust_5="13000.00000" pt_clust_6="13000.00000" pt_clust_7="13000.00000" pt_clust_8="13000.00000" pt_clust_9="28.27463"></scales>
<clustering>
<clus scale="   28.275">  2  9  1 -1</clus>
<clus scale="   81.613">  5  6 -1 -1</clus>
<clus scale="   90.516">  7  8 -1 -1</clus>
<clus scale="  122.628">  2  5  1 -1</clus>
<clus scale="   28.275">  2  5  1 -1</clus>
</clustering>
</event>
<event>
 9    2  0.1302972E-004  0.1240027E+03  0.7546771E-02  0.1241648E+00
          2   -1    0    0  502    0 -0.00000000000E+00  0.00000000000E+00  0.41197972721E+03  0.41197972721E+03  0.00000000000E+00 0. -1.
         21   -1    0    0  501  502  0.00000000000E+00 -0.00000000000E+00 -0.18752998972E+03  0.18752998972E+03  0.00000000000E+00 0.  1.
         23    2    1    2    0    0  0.16722654502E+02  0.69159987929E+02  0.27201012519E+03  0.29585766408E+03  0.92084190215E+02 0.  0.
         24    2    1    2    0    0 -0.76460091574E+02 -0.14135702615E+03  0.32557197301E+02  0.18036457927E+03  0.75122938667E+02 0.  0.
        -11    1    4    4    0    0  0.29398032367E+01 -0.68611795953E+02  0.22238232968E+02  0.72185594078E+02  0.00000000000E+00 0.  1.
         12    1    4    4    0    0 -0.79399894811E+02 -0.72745230200E+02  0.10318964333E+02  0.10817898519E+03  0.00000000000E+00 0. -1.
        -11    1    3    3    0    0 -0.21328381659E+02  0.48459775565E+02  0.62477604067E+02  0.81894448664E+02  0.00000000000E+00 0.  1.
         11    1    3    3    0    0  0.38051036162E+02  0.20700212364E+02  0.20953252112E+03  0.21396321542E+03  0.00000000000E+00 0. -1.
          1    1    1    2  501    0  0.59737437072E+02  0.72197038224E+02 -0.80117584997E+02  0.12328747358E+03  0.00000000000E+00 0. -1.
<scales pt_clust_5="13000.00000" pt_clust_6="13000.00000" pt_clust_7="13000.00000" pt_clust_8="13000.00000" pt_clust_9="93.70685"></scales>
<clustering>
<clus scale="   75.123">  5  6 -1 -1</clus>
<clus scale="   92.084">  7  8 -1 -1</clus>
<clus scale="   93.707">  2  9  1 -1</clus>
<clus scale="  111.985">  2  5  1 -1</clus>
<clus scale="   93.707">  2  5  1 -1</clus>
</clustering>
</event>
<event>
 9    2  0.1302972E-004  0.2870323E+03  0.7546771E-02  0.1133212E+00
         -3   -1    0    0    0  501 -0.00000000000E+00  0.00000000000E+00  0.22648281761E+03  0.22648281761E+03  0.00000000000E+00 0.  1.
         21   -1    0    0  501  502  0.00000000000E+00 -0.00000000000E+00 -0.63601443395E+03  0.63601443395E+03  0.00000000000E+00 0.  1.
         23    2    1    2    0    0 -0.44512185502E+01 -0.43038494505E+02 -0.14725211181E+03  0.17838942816E+03  0.90925674546E+02 0.  0.
         24    2    1    2    0    0  0.71244534768E+01  0.30738530923E+03 -0.84764257276E+01  0.31763492202E+03  0.79269210465E+02 0.  0.
        -13    1    4    4    0    0  0.15119268902E+01  0.31018154852E+03 -0.12046983758E+02  0.31041908572E+03  0.00000000000E+00 0.  1.
         14    1    4    4    0    0  0.56125265866E+01 -0.27962392888E+01  0.35705580299E+01  0.72158362987E+01  0.00000000000E+00 0. -1.
        -11    1    3    3    0    0  0.24095099937E+02 -0.54696136430E+02 -0.12994062328E+03  0.14302729376E+03  0.00000000000E+00 0.  1.
         11    1    3    3    0    0 -0.28546318488E+02  0.11657641925E+02 -0.17311488528E+02  0.35362134403E+02  0.00000000000E+00 0. -1.
         -4    1    1    2    0  502 -0.26732349266E+01 -0.26434681472E+03 -0.25380307879E+03  0.36647290138E+03  0.00000000000E+00 0.  1.
<scales pt_clust_5="13000.00000" pt_clust_6="13000.00000" pt_clust_7="13000.00000" pt_clust_8="13000.00000" pt_clust_9="275.86938"></scales>
<clustering>
<clus scale="   79.269">  5  6 -1 -1</clus>
<clus scale="   90.926">  7  8 -1 -1</clus>
<clus scale="  100.696">  1  7  2 -1</clus>
<clus scale="  275.869">  2  9  1 -1</clus>
<clus scale="  275.869">  2  5  1 -1</clus>
</clustering>
</event>
<event>
 9    2  0.1302972E-004  0.1963876E+03  0.7546771E-02  0.1163606E+00
         -3   -1    0    0    0  501 -0.00000000000E+00  0.00000000000E+00  0.22457765405E+03  0.22457765405E+03  0.00000000000E+00 0.  1.
         21   -1    0    0  501  502  0.00000000000E+00 -0.00000000000E+00 -0.51813051111E+03  0.51813051111E+03  0.00000000000E+00 0.  1.
         24    2    1    2    0    0  0.59763416582E+02  0.11511928972E+03  0.67061869069E+02  0.16674969336E+03  0.80523593598E+02 0.  0.
         23    2    1    2    0    0 -0.19719903127E+03 -0.10602673620E+01 -0.57462302158E+02  0.22410708140E+03  0.89629714167E+02 0.  0.
        -11    1    3    3    0    0  0.44283170764E+02  0.11856225140E+03  0.76894399318E+02  0.14809036200E+03  0.00000000000E+00 0.  1.
         12    1    3    3    0    0  0.15480245818E+02 -0.34429616838E+01 -0.98325302494E+01  0.18659331362E+02  0.00000000000E+00 0. -1.
        -11    1    4    4    0    0 -0.29647144828E+02 -0.62534492898E+01 -0.47292952908E+02  0.56166557836E+02  0.00000000000E+00 0. -1.
         11    1    4    4    0    0 -0.16755188645E+03  0.51931819278E+01 -0.10169349250E+02  0.16794052356E+03  0.00000000000E+00 0.  1.
         -4    1    1    2    0  502  0.13743561469E+03 -0.11405902236E+03 -0.30315242397E+03  0.35185139040E+03  0.00000000000E+00 0.  1.
<scales pt_clust_5="13000.00000" pt_clust_6="13000.00000" pt_clust_7="13000.00000" pt_clust_8="13000.00000" pt_clust_9="174.74156"></scales>
<clustering>
<clus scale="   80.524">  5  6 -1 -1</clus>
<clus scale="   89.630">  7  8 -1 -1</clus>
<clus scale="  152.670">  1  5  2 -1</clus>
<clus scale="  174.742">  2  9  1 -1</clus>
<clus scale="  174.742">  2  5  1 -1</clus>
</clustering>
</event>
<event>
 9    2  0.1302972E-004  0.1013306E+03  0.7546771E-02  0.1288208E+00
         21   -1    0    0  501  502  0.00000000000E+00  0.00000000000E+00  0.12743664636E+03  0.12743664636E+03  0.00000000000E+00 0.  1.
          2   -1    0    0  502    0 -0.00000000000E+00 -0.00000000000E+00 -0.18762821493E+03  0.18762821493E+03  0.00000000000E+00 0. -1.
         24    2    1    2    0    0  0.26931007277E+02 -0.11930463592E+02 -0.11371406702E+03  0.13918614612E+03  0.74661095082E+02 0.  0.
         23    2    1    2    0    0 -0.64595096407E+02  0.16523195643E+02  0.74071073248E+01  0.11616015779E+03  0.94830240665E+02 0.  0.
        -11    1    3    3    0    0 -0.23855958088E+02 -0.16873195361E+02 -0.42682295992E+02  0.51726104137E+02  0.00000000000E+00 0.  1.
         12    1    3    3    0    0  0.50786965365E+02  0.49427317692E+01 -0.71031771028E+02  0.87460041983E+02  0.00000000000E+00 0. -1.
        -11    1    4    4    0    0 -0.79069609747E+02  0.20087921535E+01  0.30958133254E+02  0.84937885811E+02  0.00000000000E+00 0.  1.
         11    1    4    4    0    0  0.14474513340E+02  0.14514403490E+02 -0.23551025929E+02  0.31222271977E+02  0.00000000000E+00 0. -1.
          1    1    1    2  501    0  0.37664089131E+02 -0.45927320519E+01  0.46115391127E+02  0.59718557388E+02  0.00000000000E+00 0. -1.
<scales pt_clust_5="13000.00000" pt_clust_6="13000.00000" pt_clust_7="13000.00000" pt_clust_8="13000.00000" pt_clust_9="37.94307"></scales>
<clustering>
<clus scale="   37.943">  1  9  2 -1</clus>
<clus scale="   74.661">  5  6 -1 -1</clus>
<clus scale="   82.761">  2  5  1 -1</clus>
<clus scale="   94.830">  7  8 -1 -1</clus>
<clus scale="   37.943">  1  5  2 -1</clus>
</clustering>
</event>
<event>
 9    2  0.1302972E-004  0.1289451E+03  0.7546771E-02  0.1230127E+00
         -1   -1    0    0    0  501 -0.00000000000E+00  0.00000000000E+00  0.57437703216E+03  0.57437703216E+03  0.00000000000E+00 0.  1.
         21   -1    0    0  501  502  0.00000000000E+00 -0.00000000000E+00 -0.56163729421E+02  0.56163729421E+02  0.00000000000E+00 0.  1.
         24    2    1    2    0    0  0.73457582426E+02  0.62383899428E+02  0.31946735541E+03  0.34496992816E+03  0.87504816097E+02 0.  0.
         23    2    1    2    0    0 -0.85069875720E+02 -0.90126419507E+01  0.65212415437E+02  0.14129838068E+03  0.91621295478E+02 0.  0.
        -13    1    3    3    0    0  0.15793578182E+02  0.63820092509E+02  0.22381345311E+03  0.23327002189E+03  0.00000000000E+00 0.  1.
         14    1    3    3    0    0  0.57664004244E+02 -0.14361930807E+01  0.95653902297E+02  0.11169990627E+03  0.00000000000E+00 0. -1.
        -13    1    4    4    0    0  0.79430194660E+00  0.22190279149E+02 -0.86367742454E+01  0.23825055586E+02  0.00000000000E+00 0. -1.
         13    1    4    4    0    0 -0.85864177666E+02 -0.31202921100E+02  0.73849189683E+02  0.11747332509E+03  0.00000000000E+00 0.  1.
         -2    1    1    2    0  502  0.11612293294E+02 -0.53371257477E+02  0.13353353189E+03  0.14427245274E+03  0.00000000000E+00 0.  1.
<scales pt_clust_5="13000.00000" pt_clust_6="13000.00000" pt_clust_7="13000.00000" pt_clust_8="13000.00000" pt_clust_9="54.61995"></scales>
<clustering>
<clus scale="   54.620">  2  9  1 -1</clus>
<clus scale="   87.505">  5  6 -1 -1</clus>
<clus scale="   91.621">  7  8 -1 -1</clus>
<clus scale="  126.053">  1  5  2 -1</clus>
<clus scale="   54.620">  2  5  1 -1</clus>
</clustering>
</event>
<event>
 9    2  0.1302972E-004  0.9990591E+02  0.7546771E-02  0.1284971E+00
         21   -1    0    0  501  502  0.00000000000E+00  0.00000000000E+00  0.16046587982E+03  0.16046587982E+03  0.00000000000E+00 0.  1.
          2   -1    0    0  502    0 -0.00000000000E+00 -0.00000000000E+00 -0.14504561438E+03  0.14504561438E+03  0.00000000000E+00 0. -1.
         24    2    1    2    0    0  0.15575827893E+02  0.35010778567E+02 -0.73376895302E+02  0.11665535605E+03  0.82194539356E+02 0.  0.
         23    2    1    2    0    0  0.28951449742E+02 -0.61688165455E+02  0.51494046959E+02  0.12493522043E+03  0.91178704935E+02 0.  0.
        -13    1    3    3    0    0  0.42640722605E+02  0.46293143055E+01 -0.14879592027E+02  0.45398943095E+02  0.00000000000E+00 0.  1.
         14    1    3    3    0    0 -0.27064894712E+02  0.30381464261E+02 -0.58497303275E+02  0.71256412953E+02  0.00000000000E+00 0. -1.
        -13    1    4    4    0    0 -0.19259993134E+02  0.13204754736E+02  0.30671673195E+01  0.23552503020E+02  0.00000000000E+00 0. -1.
         13    1    4    4    0    0  0.48211442876E+02 -0.74892920190E+02  0.48426879639E+02  0.10138271741E+03  0.00000000000E+00 0.  1.
          1    1    1    2  501    0 -0.44527277635E+02  0.26677386888E+02  0.37303113776E+02  0.63920917720E+02  0.00000000000E+00 0. -1.
<scales pt_clust_5="13000.00000" pt_clust_6="13000.00000" pt_clust_7="13000.00000" pt_clust_8="13000.00000" pt_clust_9="51.90724"></scales>
<clustering>
<clus scale="   51.907">  1  9  2 -1</clus>
<clus scale="   82.195">  5  6 -1 -1</clus>
<clus scale="   91.179">  7  8 -1 -1</clus>
<clus scale="   91.780">  2  5  1 -1</clus>
<clus scale="   51.907">  1  5  2 -1</clus>
</clustering>
</event>
<event>
 9    2  0.1302972E-004  0.1161161E+03  0.7546771E-02  0.1251566E+00
         21   -1    0    0  501  502  0.00000000000E+00  0.00000000000E+00  0.20670834541E+03  0.20670834541E+03  0.00000000000E+00 0. -1.
          2   -1    0    0  502    0 -0.00000000000E+00 -0.00000000000E+00 -0.33650858573E+03  0.33650858573E+03  0.00000000000E+00 0. -1.
         23    2    1    2    0    0  0.82016608612E+02  0.26008421318E+02 -0.27299988902E+03  0.29930526157E+03  0.87473070865E+02 0.  0.
         24    2    1    2    0    0  0.86301040871E+01 -0.57445422783E+02  0.58875245182E+02  0.11617868004E+03  0.81588822189E+02 0.  0.
        -11    1    4    4    0    0  0.14069470138E+02 -0.73320914772E+02  0.64311442492E+02  0.98538663317E+02  0.00000000000E+00 0.  1.
         12    1    4    4    0    0 -0.54393660505E+01  0.15875491989E+02 -0.54361973095E+01  0.17640016727E+02  0.00000000000E+00 0. -1.
        -11    1    3    3    0    0  0.81260378136E+02  0.47191545018E+02 -0.25405323167E+03  0.27087512897E+03  0.00000000000E+00 0. -1.
         11    1    3    3    0    0  0.75623047510E+00 -0.21183123700E+02 -0.18946657357E+02  0.28430132593E+02  0.00000000000E+00 0.  1.
          1    1    1    2  501    0 -0.90646712699E+02  0.31437001465E+02  0.84324403523E+02  0.12773298953E+03  0.00000000000E+00 0. -1.
<scales pt_clust_5="13000.00000" pt_clust_6="13000.00000" pt_clust_7="13000.00000" pt_clust_8="13000.00000" pt_clust_9="95.94327"></scales>
<clustering>
<clus scale="   81.589">  5  6 -1 -1</clus>
<clus scale="   87.473">  7  8 -1 -1</clus>
<clus scale="   95.943">  1  9  2 -1</clus>
<clus scale="  111.750">  1  5  2 -1</clus>
<clus scale="   95.943">  1  5  2 -1</clus>
</clustering>
</event>
<event>
 9    2  0.1302972E-004  0.3335146E+03  0.7546771E-02  0.1069592E+00
          2   -1    0    0  502    0 -0.00000000000E+00  0.00000000000E+00  0.68851714690E+03  0.68851714690E+03  0.00000000000E+00 0. -1.
         21   -1    0    0  501  502  0.00000000000E+00 -0.00000000000E+00 -0.15478887074E+03  0.15478887074E+03  0.00000000000E+00 0. -1.
         24    2    1    2    0    0 -0.15838860163E+02 -0.86890156760E+02  0.69879626622E+02  0.13717054181E+03  0.78305979912E+02 0.  0.
         23    2    1    2    0    0 -0.15044386831E+01 -0.19310400432E+03  0.74509448710E+02  0.22625785231E+03  0.91375806225E+02 0.  0.
        -13    1    3    3    0    0 -0.42398366943E+02 -0.77693435829E+02  0.43490416329E+02  0.98616975227E+02  0.00000000000E+00 0.  1.
         14    1    3    3    0    0  0.26559506780E+02 -0.91967209315E+01  0.26389210292E+02  0.38553566581E+02  0.00000000000E+00 0. -1.
        -13    1    4    4    0    0  0.89162095268E+01 -0.16366562606E+03  0.94481076495E+02  0.18918934897E+03  0.00000000000E+00 0. -1.
         13    1    4    4    0    0 -0.10420648210E+02 -0.29438378260E+02 -0.19971627785E+02  0.37068503342E+02  0.00000000000E+00 0.  1.
          1    1    1    2  501    0  0.17343298846E+02  0.27999416108E+03  0.38933920083E+03  0.47987762352E+03  0.00000000000E+00 0. -1.
<scales pt_clust_5="13000.00000" pt_clust_6="13000.00000" pt_clust_7="13000.00000" pt_clust_8="13000.00000" pt_clust_9="280.53092"></scales>
<clustering>
<clus scale="   78.306">  5  6 -1 -1</clus>
<clus scale="   91.376">  7  8 -1 -1</clus>
<clus scale="   94.300">  5  7 -1 -1</clus>
<clus scale="  280.531">  2  9  1 -1</clus>
<clus scale="  280.531">  2  5  1 -1</clus>
</clustering>
</event>
<event>
 9    2  0.1302972E-004  0.1122974E+03  0.7546771E-02  0.1259971E+00
          2   -1    0    0  502    0 -0.00000000000E+00  0.00000000000E+00  0.38571953609E+03  0.38571953609E+03  0.00000000000E+00 0. -1.
         21   -1    0    0  501  502  0.00000000000E+00 -0.00000000000E+00 -0.52055713397E+02  0.52055713397E+02  0.00000000000E+00 0.  1.
         24    2    1    2    0    0 -0.66788475016E+02 -0.26466269907E+02  0.17700291058E+03  0.20756798658E+03  0.81198983132E+02 0.  0.
         23    2    1    2    0    0  0.63445772609E+02 -0.94679857818E+01  0.15898669006E+03  0.19404300383E+03  0.90889553307E+02 0.  0.
        -11    1    3    3    0    0 -0.49335932136E+02 -0.36669561032E+02  0.50769450314E+02  0.79725955568E+02  0.00000000000E+00 0.  1.
         12    1    3    3    0    0 -0.17452542879E+02  0.10203291125E+02  0.12623346027E+03  0.12784203101E+03  0.00000000000E+00 0. -1.
        -13    1    4    4    0    0  0.35553985182E+02 -0.80575576048E+01  0.41306767141E+01  0.36688861893E+02  0.00000000000E+00 0.  1.
         13    1    4    4    0    0  0.27891787427E+02 -0.14104281770E+01  0.15485601335E+03  0.15735414193E+03  0.00000000000E+00 0. -1.
          1    1    1    2  501    0  0.33427024067E+01  0.35934255689E+02 -0.23257779547E+01  0.36164259074E+02  0.00000000000E+00 0. -1.
<scales pt_clust_5="13000.00000" pt_clust_6="13000.00000" pt_clust_7="13000.00000" pt_clust_8="13000.00000" pt_clust_9="36.08939"></scales>
<clustering>
<clus scale="   36.089">  2  9  1 -1</clus>
<clus scale="   81.199">  5  6 -1 -1</clus>
<clus scale="   90.890">  7  8 -1 -1</clus>
<clus scale="  104.609">  1  5  2 -1</clus>
<clus scale="   36.089">  2  5  1 -1</clus>
</clustering>
</event>
<event>
 9    2  0.1302972E-004  0.1033097E+03  0.7546771E-02  0.1278030E+00
         21   -1    0    0  501  502  0.00000000000E+00  0.00000000000E+00  0.29502835778E+02  0.29502835778E+02  0.00000000000E+00 0.  1.
          2   -1    0    0  502    0 -0.00000000000E+00 -0.00000000000E+00 -0.71088304366E+03  0.71088304366E+03  0.00000000000E+00 0. -1.
         24    2    1    2    0    0 -0.42776952752E+02  0.23861637109E+02 -0.48446035018E+03  0.49351138665E+03  0.80326909894E+02 0.  0.
         23    2    1    2    0    0  0.33791011675E+02 -0.51538852909E+02 -0.10953149321E+03  0.15476856647E+03  0.90322064498E+02 0.  0.
        -11    1    3    3    0    0 -0.33356707603E+02 -0.15709606933E+02 -0.94547146867E+02  0.10148213967E+03  0.00000000000E+00 0.  1.
         12    1    3    3    0    0 -0.94202451489E+01  0.39571244042E+02 -0.38991320331E+03  0.39202924698E+03  0.00000000000E+00 0. -1.
        -11    1    4    4    0    0  0.31489116737E+02 -0.13083784704E+02  0.45099363418E+01  0.34396066939E+02  0.00000000000E+00 0.  1.
         11    1    4    4    0    0  0.23018949381E+01 -0.38455068205E+02 -0.11404142955E+03  0.12037249954E+03  0.00000000000E+00 0. -1.
          1    1    1    2  501    0  0.89859410774E+01  0.27677215800E+02 -0.87388364497E+02  0.92105926307E+02  0.00000000000E+00 0. -1.
<scales pt_clust_5="13000.00000" pt_clust_6="13000.00000" pt_clust_7="13000.00000" pt_clust_8="13000.00000" pt_clust_9="29.09942"></scales>
<clustering>
<clus scale="   29.099">  1  9  2 -1</clus>
<clus scale="   80.327">  5  6 -1 -1</clus>
<clus scale="   90.322">  7  8 -1 -1</clus>
<clus scale="   94.695">  2  5  1 -1</clus>
<clus scale="   29.099">  1  5  2 -1</clus>
</clustering>
</event>
<event>
 9    2  0.1302972E-004  0.1024698E+03  0.7546771E-02  0.1284244E+00
         21   -1    0    0  501  502  0.00000000000E+00  0.00000000000E+00  0.42440626850E+03  0.42440626850E+03  0.00000000000E+00 0.  1.
         -1   -1    0    0    0  501 -0.00000000000E+00 -0.00000000000E+00 -0.74384968638E+02  0.74384968638E+02  0.00000000000E+00 0.  1.
         24    2    1    2    0    0 -0.23240844207E+02 -0.33136662925E+02  0.25644249892E+02  0.86008084944E+02  0.71425400622E+02 0.  0.
         23    2    1    2    0    0  0.10129458058E+03  0.34537444259E+02  0.29985728429E+03  0.33095670867E+03  0.90357760956E+02 0.  0.
        -11    1    3    3    0    0 -0.41059650448E+02 -0.12846541341E+02  0.36970590646E+02  0.56725242107E+02  0.00000000000E+00 0.  1.
         12    1    3    3    0    0  0.17818806241E+02 -0.20290121583E+02 -0.11326340755E+02  0.29282842837E+02  0.00000000000E+00 0. -1.
        -13    1    4    4    0    0  0.28708906524E+02  0.36838607130E+02  0.41138727192E+02  0.62238887876E+02  0.00000000000E+00 0. -1.
         13    1    4    4    0    0  0.72585674053E+02 -0.23011628707E+01  0.25871855710E+03  0.26871782080E+03  0.00000000000E+00 0.  1.
         -2    1    1    2    0  502 -0.78053736370E+02 -0.14007813344E+01  0.24519765677E+02  0.81826443517E+02  0.00000000000E+00 0.  1.
<scales pt_clust_5="13000.00000" pt_clust_6="13000.00000" pt_clust_7="13000.00000" pt_clust_8="13000.00000" pt_clust_9="78.06634"></scales>
<clustering>
<clus scale="   71.425">  5  6 -1 -1</clus>
<clus scale="   78.066">  1  9  2 -1</clus>
<clus scale="   86.239">  2  5  1 -1</clus>
<clus scale="   90.358">  7  8 -1 -1</clus>
<clus scale="   78.066">  1  5  2 -1</clus>
</clustering>
</event>
<event>
 9    2  0.1302972E-004  0.9159460E+02  0.7546771E-02  0.1305580E+00
          2   -1    0    0  502    0 -0.00000000000E+00  0.00000000000E+00  0.46144812523E+03  0.46144812523E+03  0.00000000000E+00 0. -1.
         21   -1    0    0  501  502  0.00000000000E+00 -0.00000000000E+00 -0.55322512949E+02  0.55322512949E+02  0.00000000000E+00 0. -1.
         24    2    1    2    0    0 -0.12793782520E+02  0.81892351495E+01  0.30166603959E+03  0.31262715237E+03  0.80638653963E+02 0.  0.
         23    2    1    2    0    0 -0.82722810120E+01  0.56364313279E+02  0.66617970117E+02  0.12640722315E+03  0.91079447059E+02 0.  0.
        -13    1    3    3    0    0  0.32761219947E+01  0.40214026451E+02  0.10052707439E+03  0.10832171335E+03  0.00000000000E+00 0.  1.
         14    1    3    3    0    0 -0.16069904514E+02 -0.32024791301E+02  0.20113896521E+03  0.20430543902E+03  0.00000000000E+00 0. -1.
        -11    1    4    4    0    0  0.11534850705E+02 -0.17557648724E+02  0.40356844173E+02  0.45497238170E+02  0.00000000000E+00 0.  1.
         11    1    4    4    0    0 -0.19807131717E+02  0.73921962002E+02  0.26261125944E+02  0.80909984977E+02  0.00000000000E+00 0. -1.
          1    1    1    2  501    0  0.21066063532E+02 -0.64553548428E+02  0.37841602575E+02  0.77736262663E+02  0.00000000000E+00 0. -1.
<scales pt_clust_5="13000.00000" pt_clust_6="13000.00000" pt_clust_7="13000.00000" pt_clust_8="13000.00000" pt_clust_9="67.90390"></scales>
<clustering>
<clus scale="   67.904">  2  9  1 -1</clus>
<clus scale="   80.639">  5  6 -1 -1</clus>
<clus scale="   81.220">  1  5  2 -1</clus>
<clus scale="   91.079">  7  8 -1 -1</clus>
<clus scale="   67.904">  2  5  1 -1</clus>
</clustering>
</event>
<event>
 9    2  0.1302972E-004  0.1263151E+03  0.7546771E-02  0.1235395E+00
          2   -1    0    0  502    0 -0.00000000000E+00  0.00000000000E+00  0.10945834749E+03  0.10945834749E+03  0.00000000000E+00 0. -1.
         21   -1    0    0  501  502  0.00000000000E+00 -0.00000000000E+00 -0.61871231176E+03  0.61871231176E+03  0.00000000000E+00 0.  1.
         24    2    1    2    0    0 -0.63117309093E+02 -0.69435124274E+02  0.57328286128E+02  0.13792294668E+03  0.83253682436E+02 0.  0.
         23    2    1    2    0    0  0.10108853839E+02  0.39484774954E+02 -0.28469763586E+03  0.30186280371E+03  0.91690632118E+02 0.  0.
        -13    1    3    3    0    0  0.98503240670E+01 -0.22832316246E+02 -0.11424229724E+02  0.27365243908E+02  0.00000000000E+00 0.  1.
         14    1    3    3    0    0 -0.72967633160E+02 -0.46602808029E+02  0.68752515852E+02  0.11055770277E+03  0.00000000000E+00 0. -1.
        -13    1    4    4    0    0 -0.36436694559E+02  0.41799508295E+01 -0.66096627570E+02  0.75590137421E+02  0.00000000000E+00 0.  1.
         13    1    4    4    0    0  0.46545548398E+02  0.35304824125E+02 -0.21860100829E+03  0.22627266629E+03  0.00000000000E+00 0. -1.
          1    1    1    2  501    0  0.53008455254E+02  0.29950349320E+02 -0.28188461453E+03  0.28838490887E+03  0.00000000000E+00 0. -1.
<scales pt_clust_5="13000.00000" pt_clust_6="13000.00000" pt_clust_7="13000.00000" pt_clust_8="13000.00000" pt_clust_9="60.88448"></scales>
<clustering>
<clus scale="   60.884">  2  9  1 -1</clus>
<clus scale="   83.254">  5  6 -1 -1</clus>
<clus scale="   91.691">  7  8 -1 -1</clus>
<clus scale="  120.331">  1  5  2 -1</clus>
<clus scale="   60.884">  2  5  1 -1</clus>
</clustering>
</event>
<event>
 9    2  0.1302972E-004  0.3776791E+03  0.7546771E-02  0.1052120E+00
         21   -1    0    0  501  502  0.00000000000E+00  0.00000000000E+00  0.85507165500E+02  0.85507165500E+02  0.00000000000E+00 0. -1.
          2   -1    0    0  502    0 -0.00000000000E+00 -0.00000000000E+00 -0.25014653866E+04  0.25014653866E+04  0.00000000000E+00 0. -1.
         24    2    1    2    0    0  0.37848642539E+03  0.18488531711E+03 -0.16468106526E+04  0.17017253778E+04  0.80308040352E+02 0.  0.
         23    2    1    2    0    0 -0.25476172938E+03 -0.13440044263E+03 -0.56417372174E+03  0.64056206887E+03  0.95188014159E+02 0.  0.
        -11    1    3    3    0    0  0.95086504623E+02  0.74705270106E+02 -0.57747478894E+03  0.58999953610E+03  0.00000000000E+00 0.  1.
         12    1    3    3    0    0  0.28339992076E+03  0.11018004700E+03 -0.10693358636E+04  0.11117258417E+04  0.00000000000E+00 0. -1.
        -11    1    4    4    0    0 -0.10461192364E+03 -0.85772535105E+02 -0.17949175573E+03  0.22476181331E+03  0.00000000000E+00 0.  1.
         11    1    4    4    0    0 -0.15014980574E+03 -0.48627907521E+02 -0.38468196601E+03  0.41580025556E+03  0.00000000000E+00 0. -1.
          1    1    1    2  501    0 -0.12372469600E+03 -0.50484874484E+02 -0.20497384682E+03  0.24468510546E+03  0.00000000000E+00 0. -1.
<scales pt_clust_5="13000.00000" pt_clust_6="13000.00000" pt_clust_7="13000.00000" pt_clust_8="13000.00000" pt_clust_9="133.62830"></scales>
<clustering>
<clus scale="   80.308">  5  6 -1 -1</clus>
<clus scale="   95.188">  7  8 -1 -1</clus>
<clus scale="  133.628">  1  9  2 -1</clus>
<clus scale="  374.206">  2  5  1 -1</clus>
<clus scale="  133.628">  1  5  2 -1</clus>
</clustering>
</event>
<event>
 9    2  0.1302972E-004  0.9673120E+02  0.7546771E-02  0.1293161E+00
          2   -1    0    0  502    0 -0.00000000000E+00  0.00000000000E+00  0.40995472505E+03  0.40995472505E+03  0.00000000000E+00 0. -1.
         21   -1    0    0  501  502  0.00000000000E+00 -0.00000000000E+00 -0.21966946019E+03  0.21966946019E+03  0.00000000000E+00 0.  1.
         23    2    1    2    0    0 -0.12593274395E+02  0.26085874775E+02  0.36524684955E+03  0.37767888088E+03  0.91635214511E+02 0.  0.
         24    2    1    2    0    0  0.25460627450E+02 -0.43902546321E+02 -0.22874933236E+02  0.98278938144E+02  0.80992653917E+02 0.  0.
        -13    1    4    4    0    0  0.18151188296E+02 -0.42109869768E+02  0.23341188031E+02  0.51454036063E+02  0.00000000000E+00 0.  1.
         14    1    4    4    0    0  0.73094391540E+01 -0.17926765526E+01 -0.46216121267E+02  0.46824902081E+02  0.00000000000E+00 0. -1.
        -13    1    3    3    0    0  0.30796986149E+02 -0.16173374509E+02  0.15669957718E+03  0.16051414233E+03  0.00000000000E+00 0.  1.
         13    1    3    3    0    0 -0.43390260544E+02  0.42259249283E+02  0.20854727236E+03  0.21716473855E+03  0.00000000000E+00 0. -1.
          1    1    1    2  501    0 -0.12867353054E+02  0.17816671546E+02 -0.15208665144E+03  0.15366636622E+03  0.00000000000E+00 0. -1.
<scales pt_clust_5="13000.00000" pt_clust_6="13000.00000" pt_clust_7="13000.00000" pt_clust_8="13000.00000" pt_clust_9="21.97732"></scales>
<clustering>
<clus scale="   21.977">  2  9  1 -1</clus>
<clus scale="   80.993">  5  6 -1 -1</clus>
<clus scale="   86.716">  2  5  1 -1</clus>
<clus scale="   91.635">  7  8 -1 -1</clus>
<clus scale="   21.977">  2  5  1 -1</clus>
</clustering>
</event>
<event>
 9    2  0.1302972E-004  0.9538243E+02  0.7546771E-02  0.1295276E+00
         -1   -1    0    0    0  501 -0.00000000000E+00  0.00000000000E+00  0.31397534983E+03  0.31397534983E+03  0.00000000000E+00 0.  1.
         21   -1    0    0  501  502  0.00000000000E+00 -0.00000000000E+00 -0.46919024726E+02  0.46919024726E+02  0.00000000000E+00 0.  1.
         23    2    1    2    0    0 -0.29958197297E+02  0.27554395082E+02  0.19956988090E+03  0.22249033481E+03  0.89538111717E+02 0.  0.
         24    2    1    2    0    0  0.22033689412E+02  0.61828376135E+01  0.34393761073E+02  0.90486147761E+02  0.80505286695E+02 0.  0.
        -11    1    4    4    0    0  0.10114088288E+02  0.30167795468E+02 -0.14322246674E+02  0.34892942196E+02  0.00000000000E+00 0.  1.
         12    1    4    4    0    0  0.11919601124E+02 -0.23984957854E+02  0.48716007746E+02  0.55593205565E+02  0.00000000000E+00 0. -1.
        -11    1    3    3    0    0 -0.56568924275E+02  0.15716533897E+02  0.17432807110E+03  0.18394925660E+03  0.00000000000E+00 0. -1.
         11    1    3    3    0    0  0.26610726978E+02  0.11837861184E+02  0.25241809799E+02  0.38541078210E+02  0.00000000000E+00 0.  1.
         -2    1    1    2    0  502  0.79245078846E+01 -0.33737232695E+02  0.33092683133E+02  0.47917891983E+02  0.00000000000E+00 0.  1.
<scales pt_clust_5="13000.00000" pt_clust_6="13000.00000" pt_clust_7="13000.00000" pt_clust_8="13000.00000" pt_clust_9="34.65543"></scales>
<clustering>
<clus scale="   34.655">  2  9  1 -1</clus>
<clus scale="   80.505">  5  6 -1 -1</clus>
<clus scale="   86.959">  2  5  1 -1</clus>
<clus scale="   89.538">  7  8 -1 -1</clus>
<clus scale="   34.655">  2  5  1 -1</clus>
</clustering>
</event>
<event>
 9    2  0.1302972E-004  0.1005893E+03  0.7546771E-02  0.1286881E+00
          2   -1    0    0  502    0 -0.00000000000E+00  0.00000000000E+00  0.47958750578E+03  0.47958750578E+03  0.00000000000E+00 0. -1.
         21   -1    0    0  501  502  0.00000000000E+00 -0.00000000000E+00 -0.39804619307E+02  0.39804619307E+02  0.00000000000E+00 0.  1.
         23    2    1    2    0    0  0.21424901630E+02 -0.17587213640E+02  0.17606226016E+03  0.20032106686E+03  0.91445469445E+02 0.  0.
         24    2    1    2    0    0 -0.75484499091E+02  0.14252886897E+01  0.10240233978E+03  0.14816980760E+03  0.75948085168E+02 0.  0.
        -13    1    4    4    0    0 -0.54001580926E+02  0.13667952346E+01  0.12113576966E+02  0.55360433693E+02  0.00000000000E+00 0.  1.
         14    1    4    4    0    0 -0.21482918165E+02  0.58493455049E-01  0.90288762815E+02  0.92809373907E+02  0.00000000000E+00 0. -1.
        -13    1    3    3    0    0 -0.15987825818E+02 -0.40559047767E+02  0.12802415051E+03  0.13524359521E+03  0.00000000000E+00 0.  1.
         13    1    3    3    0    0  0.37412727448E+02  0.22971834127E+02  0.48038109647E+02  0.65077471653E+02  0.00000000000E+00 0. -1.
          1    1    1    2  501    0  0.54059597462E+02  0.16161924951E+02  0.16131828653E+03  0.17090125063E+03  0.00000000000E+00 0. -1.
<scales pt_clust_5="13000.00000" pt_clust_6="13000.00000" pt_clust_7="13000.00000" pt_clust_8="13000.00000" pt_clust_9="56.42385"></scales>
<clustering>
<clus scale="   56.424">  2  9  1 -1</clus>
<clus scale="   75.948">  5  6 -1 -1</clus>
<clus scale="   86.741">  2  5  1 -1</clus>
<clus scale="   91.445">  7  8 -1 -1</clus>
<clus scale="   56.424">  2  5  1 -1</clus>
</clustering>
</event>
<event>
 9    2  0.1302972E-004  0.1155090E+03  0.7546771E-02  0.1252721E+00
         -1   -1    0    0    0  501 -0.00000000000E+00  0.00000000000E+00  0.29751692842E+03  0.29751692842E+03  0.00000000000E+00 0.  1.
         21   -1    0    0  501  502  0.00000000000E+00 -0.00000000000E+00 -0.85140667871E+02  0.85140667871E+02  0.00000000000E+00 0.  1.
         24    2    1    2    0    0  0.10500211053E+02  0.83266403461E+02  0.15436995166E+03  0.19502899001E+03  0.84632597667E+02 0.  0.
         23    2    1    2    0    0  0.25243027739E+02 -0.40789272752E+02 -0.63246188069E+01  0.10265594003E+03  0.90538754131E+02 0.  0.
        -11    1    3    3    0    0  0.34439881123E+02  0.34005243078E+02  0.12237519604E+03  0.13159844442E+03  0.00000000000E+00 0.  1.
         12    1    3    3    0    0 -0.23939670069E+02  0.49261160383E+02  0.31994755623E+02  0.63430545581E+02  0.00000000000E+00 0. -1.
        -11    1    4    4    0    0 -0.60584601532E+01  0.25502282357E+02  0.90889503094E+01  0.27743113787E+02  0.00000000000E+00 0.  1.
         11    1    4    4    0    0  0.31301487892E+02 -0.66291555109E+02 -0.15413569116E+02  0.74912826245E+02  0.00000000000E+00 0. -1.
         -2    1    1    2    0  502 -0.35743238792E+02 -0.42477130708E+02  0.64330927688E+02  0.84972666251E+02  0.00000000000E+00 0.  1.
<scales pt_clust_5="13000.00000" pt_clust_6="13000.00000" pt_clust_7="13000.00000" pt_clust_8="13000.00000" pt_clust_9="55.51476"></scales>
<clustering>
<clus scale="   55.515">  2  9  1 -1</clus>
<clus scale="   84.633">  5  6 -1 -1</clus>
<clus scale="   90.539">  7  8 -1 -1</clus>
<clus scale="  110.940">  1  5  2 -1</clus>
<clus scale="   55.515">  2  5  1 -1</clus>
</clustering>
</event>
<event>
 9    2  0.1302972E-004  0.2133052E+03  0.7546771E-02  0.1177826E+00
         21   -1    0    0  501  502  0.00000000000E+00  0.00000000000E+00  0.60679581543E+03  0.60679581543E+03  0.00000000000E+00 0. -1.
         -3   -1    0    0    0  501 -0.00000000000E+00 -0.00000000000E+00 -0.10473166905E+03  0.10473166905E+03  0.00000000000E+00 0.  1.
         24    2    1    2    0    0 -0.21285935894E+02 -0.30841517905E+02  0.10413529743E+03  0.13512054312E+03  0.77518453988E+02 0.  0.
         23    2    1    2    0    0 -0.13290034714E+03 -0.10616074304E+03  0.10988768617E+03  0.22213199046E+03  0.91294643759E+02 0.  0.
        -11    1    3    3    0    0 -0.17592763610E+02  0.18652681699E+02  0.78818415803E+01  0.26824453260E+02  0.00000000000E+00 0.  1.
         12    1    3    3    0    0 -0.36931722843E+01 -0.49494199604E+02  0.96253455852E+02  0.10829608986E+03  0.00000000000E+00 0. -1.
        -11    1    4    4    0    0 -0.28633236272E+02 -0.77200868925E+02  0.30041709481E+02  0.87648962861E+02  0.00000000000E+00 0.  1.
         11    1    4    4    0    0 -0.10426711087E+03 -0.28959874117E+02  0.79845976690E+02  0.13448302759E+03  0.00000000000E+00 0. -1.
         -4    1    1    2    0  502  0.15418628303E+03  0.13700226095E+03  0.28804116278E+03  0.35427495090E+03  0.00000000000E+00 0.  1.
<scales pt_clust_5="13000.00000" pt_clust_6="13000.00000" pt_clust_7="13000.00000" pt_clust_8="13000.00000" pt_clust_9="192.78075"></scales>
<clustering>
<clus scale="   77.518">  5  6 -1 -1</clus>
<clus scale="   86.101">  2  5  1 -1</clus>
<clus scale="   91.295">  7  8 -1 -1</clus>
<clus scale="  192.781">  1  9  2 -1</clus>
<clus scale="  192.781">  1  5  2 -1</clus>
</clustering>
</event>
<event>
 9    2  0.1302972E-004  0.1540546E+03  0.7546771E-02  0.1210435E+00
          2   -1    0    0  502    0 -0.00000000000E+00  0.00000000000E+00  0.10704713697E+03  0.10704713697E+03  0.00000000000E+00 0. -1.
         21   -1    0    0  501  502  0.00000000000E+00 -0.00000000000E+00 -0.94246869275E+03  0.94246869275E+03  0.00000000000E+00 0. -1.
         24    2    1    2    0    0  0.66783663887E+02 -0.42928586923E+02  0.42218067032E+02  0.11945700153E+03  0.78642791738E+02 0.  0.
         23    2    1    2    0    0  0.95230223272E+02  0.49945614387E+02 -0.49383581088E+03  0.51340176973E+03  0.90245272635E+02 0.  0.
        -11    1    3    3    0    0  0.72975454345E+02 -0.58409668014E+02  0.42728858343E+02  0.10277578309E+03  0.00000000000E+00 0.  1.
         12    1    3    3    0    0 -0.61917904579E+01  0.15481081090E+02 -0.51079131118E+00  0.16681218437E+02  0.00000000000E+00 0. -1.
        -13    1    4    4    0    0  0.47881269802E+02  0.72733810617E+02 -0.33313041272E+03  0.34432353257E+03  0.00000000000E+00 0.  1.
         13    1    4    4    0    0  0.47348953470E+02 -0.22788196230E+02 -0.16070539816E+03  0.16907823716E+03  0.00000000000E+00 0. -1.
          1    1    1    2  501    0 -0.16201388716E+03 -0.70170274638E+01 -0.38380381194E+03  0.41665705846E+03  0.00000000000E+00 0. -1.
<scales pt_clust_5="13000.00000" pt_clust_6="13000.00000" pt_clust_7="13000.00000" pt_clust_8="13000.00000" pt_clust_9="124.85445"></scales>
<clustering>
<clus scale="   78.643">  5  6 -1 -1</clus>
<clus scale="   90.245">  7  8 -1 -1</clus>
<clus scale="  111.748">  1  5  2 -1</clus>
<clus scale="  124.854">  2  9  1 -1</clus>
<clus scale="  124.854">  2  5  1 -1</clus>
</clustering>
</event>
<event>
 9    2  0.1302972E-004  0.9272309E+02  0.7546771E-02  0.1298761E+00
         21   -1    0    0  501  502  0.00000000000E+00  0.00000000000E+00  0.88704798035E+02  0.88704798035E+02  0.00000000000E+00 0. -1.
          2   -1    0    0  502    0 -0.00000000000E+00 -0.00000000000E+00 -0.31323545418E+03  0.31323545418E+03  0.00000000000E+00 0. -1.
         23    2    1    2    0    0  0.38221025154E+02  0.19108127329E+01 -0.20748228242E+03  0.22616706939E+03  0.81474829196E+02 0.  0.
         24    2    1    2    0    0 -0.16737637914E+02 -0.44401675666E+02 -0.57182743088E+02  0.11350138372E+03  0.85796507351E+02 0.  0.
        -13    1    4    4    0    0 -0.96640479912E+01  0.25466895356E+02 -0.10591228739E+02  0.29225514689E+02  0.00000000000E+00 0.  1.
         14    1    4    4    0    0 -0.70735899226E+01 -0.69868571022E+02 -0.46591514350E+02  0.84275869028E+02  0.00000000000E+00 0. -1.
        -11    1    3    3    0    0  0.55385053898E+02 -0.97067818968E+01 -0.84814350815E+02  0.10176050272E+03  0.00000000000E+00 0. -1.
         11    1    3    3    0    0 -0.17164028744E+02  0.11617594630E+02 -0.12266793160E+03  0.12440656667E+03  0.00000000000E+00 0.  1.
          1    1    1    2  501    0 -0.21483387241E+02  0.42490862933E+02  0.40134369357E+02  0.62271799106E+02  0.00000000000E+00 0. -1.
<scales pt_clust_5="13000.00000" pt_clust_6="13000.00000" pt_clust_7="13000.00000" pt_clust_8="13000.00000" pt_clust_9="47.61312"></scales>
<clustering>
<clus scale="   47.613">  1  9  2 -1</clus>
<clus scale="   81.475">  7  8 -1 -1</clus>
<clus scale="   85.797">  5  6 -1 -1</clus>
<clus scale="   88.739">  2  7  1 -1</clus>
<clus scale="   47.613">  1  5  2 -1</clus>
</clustering>
</event>
<event>
 9    2  0.1302972E-004  0.1446690E+03  0.7546771E-02  0.1215691E+00
          2   -1    0    0  502    0 -0.00000000000E+00  0.00000000000E+00  0.39025174284E+03  0.39025174284E+03  0.00000000000E+00 0. -1.
         21   -1    0    0  501  502  0.00000000000E+00 -0.00000000000E+00 -0.14246273855E+03  0.14246273855E+03  0.00000000000E+00 0.  1.
         24    2    1    2    0    0  0.62657796458E+02  0.67539149922E+02 -0.38360025409E+02  0.12663347879E+03  0.77955180537E+02 0.  0.
         23    2    1    2    0    0 -0.67181294383E+02  0.61874729831E+02  0.23284208444E+03  0.26604513319E+03  0.90679480060E+02 0.  0.
        -11    1    3    3    0    0  0.28033112344E+02  0.78827472840E+02 -0.32461305404E+02  0.89740527136E+02  0.00000000000E+00 0.  1.
         12    1    3    3    0    0  0.34624684114E+02 -0.11288322918E+02 -0.58987200049E+01  0.36892951657E+02  0.00000000000E+00 0. -1.
        -13    1    4    4    0    0 -0.27294054810E+02  0.80020426444E+02  0.14406001448E+03  0.16703748636E+03  0.00000000000E+00 0. -1.
         13    1    4    4    0    0 -0.39887239573E+02 -0.18145696612E+02  0.88782069957E+02  0.99007646836E+02  0.00000000000E+00 0.  1.
          1    1    1    2  501    0  0.45234979255E+01 -0.12941387975E+03  0.53306945255E+02  0.14003586940E+03  0.00000000000E+00 0. -1.
<scales pt_clust_5="13000.00000" pt_clust_6="13000.00000" pt_clust_7="13000.00000" pt_clust_8="13000.00000" pt_clust_9="112.72241"></scales>
<clustering>
<clus scale="   77.955">  5  6 -1 -1</clus>
<clus scale="   90.679">  7  8 -1 -1</clus>
<clus scale="  120.684">  1  5  2 -1</clus>
<clus scale="  112.722">  2  9  1 -1</clus>
<clus scale="  112.722">  2  5  1 -1</clus>
</clustering>
</event>
<event>
 9    2  0.1302972E-004  0.1125343E+03  0.7546771E-02  0.1257295E+00
         21   -1    0    0  501  502  0.00000000000E+00  0.00000000000E+00  0.17453402062E+03  0.17453402062E+03  0.00000000000E+00 0. -1.
         -3   -1    0    0    0  501 -0.00000000000E+00 -0.00000000000E+00 -0.27364845781E+03  0.27364845781E+03  0.00000000000E+00 0.  1.
         24    2    1    2    0    0 -0.58678211305E+02  0.25712352220E+02 -0.20198141430E+03  0.22945655247E+03  0.88031586440E+02 0.  0.
         23    2    1    2    0    0  0.61670207678E+02 -0.54147758175E+02  0.13021680596E+03  0.17915905228E+03  0.91686177949E+02 0.  0.
        -13    1    3    3    0    0 -0.86790962223E+01 -0.30267378956E+02 -0.83078265079E+02  0.88845028385E+02  0.00000000000E+00 0.  1.
         14    1    3    3    0    0 -0.49999115083E+02  0.55979731176E+02 -0.11890314922E+03  0.14061152409E+03  0.00000000000E+00 0. -1.
        -13    1    4    4    0    0  0.47629872953E+02  0.29906365372E+01  0.10462664848E+03  0.11499688812E+03  0.00000000000E+00 0. -1.
         13    1    4    4    0    0  0.14040334725E+02 -0.57138394713E+02  0.25590157481E+02  0.64162164158E+02  0.00000000000E+00 0.  1.
         -4    1    1    2    0  502 -0.29919963734E+01  0.28435405956E+02 -0.27349828854E+02  0.39566873676E+02  0.00000000000E+00 0.  1.
<scales pt_clust_5="13000.00000" pt_clust_6="13000.00000" pt_clust_7="13000.00000" pt_clust_8="13000.00000" pt_clust_9="28.59240"></scales>
<clustering>
<clus scale="   28.592">  1  9  2 -1</clus>
<clus scale="   88.032">  5  6 -1 -1</clus>
<clus scale="   91.686">  7  8 -1 -1</clus>
<clus scale="  109.577">  2  5  1 -1</clus>
<clus scale="   28.592">  1  5  2 -1</clus>
</clustering>
</event>
<event>
 9    2  0.1302972E-004  0.1188928E+03  0.7546771E-02  0.1246982E+00
          2   -1    0    0  502    0 -0.00000000000E+00  0.00000000000E+00  0.37786953878E+03  0.37786953878E+03  0.00000000000E+00 0. -1.
         21   -1    0    0  501  502  0.00000000000E+00 -0.00000000000E+00 -0.50627542415E+02  0.50627542415E+02  0.00000000000E+00 0. -1.
         23    2    1    2    0    0 -0.20362751027E+02 -0.57899927829E+02  0.13121587552E+03  0.17112784708E+03  0.91104834039E+02 0.  0.
         24    2    1    2    0    0  0.76747462368E+01  0.92783085684E+02  0.17199749511E+03  0.21315164687E+03  0.84751893891E+02 0.  0.
        -13    1    4    4    0    0  0.27708779288E+02  0.19263429166E+02  0.11792930011E+02  0.35748137730E+02  0.00000000000E+00 0.  1.
         14    1    4    4    0    0 -0.20034033051E+02  0.73519656517E+02  0.16020456510E+03  0.17740350914E+03  0.00000000000E+00 0. -1.
        -13    1    3    3    0    0 -0.20227423456E+02  0.61623884389E+01  0.95436582050E+02  0.97751035208E+02  0.00000000000E+00 0.  1.
         13    1    3    3    0    0 -0.13532757101E+00 -0.64062316268E+02  0.35779293475E+02  0.73376811874E+02  0.00000000000E+00 0. -1.
          1    1    1    2  501    0  0.12688004790E+02 -0.34883157854E+02  0.24028625725E+02  0.44217587244E+02  0.00000000000E+00 0. -1.
<scales pt_clust_5="13000.00000" pt_clust_6="13000.00000" pt_clust_7="13000.00000" pt_clust_8="13000.00000" pt_clust_9="37.11900"></scales>
<clustering>
<clus scale="   37.119">  2  9  1 -1</clus>
<clus scale="   84.752">  5  6 -1 -1</clus>
<clus scale="   91.105">  7  8 -1 -1</clus>
<clus scale="  114.098">  2  5  1 -1</clus>
<clus scale="   37.119">  2  5  1 -1</clus>
</clustering>
</event>
<event>
 9    2  0.1302972E-004  0.9722854E+02  0.7546771E-02  0.1288705E+00
          4   -1    0    0  502    0 -0.00000000000E+00  0.00000000000E+00  0.48731044406E+03  0.48731044406E+03  0.00000000000E+00 0. -1.
         21   -1    0    0  501  502  0.00000000000E+00 -0.00000000000E+00 -0.42748917533E+02  0.42748917533E+02  0.00000000000E+00 0. -1.
         24    2    1    2    0    0  0.16516432047E+02  0.22563410614E+02  0.27626101482E+03  0.29302392042E+03  0.93600051280E+02 0.  0.
         23    2    1    2    0    0 -0.45817634223E+02  0.29912615635E+02  0.12524575746E+03  0.16310300146E+03  0.89006006215E+02 0.  0.
        -13    1    3    3    0    0  0.12719816851E+02 -0.34003248737E+02  0.66823478093E+02  0.76048615305E+02  0.00000000000E+00 0.  1.
         14    1    3    3    0    0  0.37966151966E+01  0.56566659350E+02  0.20943753673E+03  0.21697530511E+03  0.00000000000E+00 0. -1.
        -11    1    4    4    0    0 -0.13723996374E+02  0.59136773321E+02  0.66231058197E+02  0.89844638712E+02  0.00000000000E+00 0. -1.
         11    1    4    4    0    0 -0.32093637849E+02 -0.29224157687E+02  0.59014699266E+02  0.73258362747E+02  0.00000000000E+00 0.  1.
          3    1    1    2  501    0  0.29301202176E+02 -0.52476026249E+02  0.43054754241E+02  0.73932439717E+02  0.00000000000E+00 0. -1.
<scales pt_clust_5="13000.00000" pt_clust_6="13000.00000" pt_clust_7="13000.00000" pt_clust_8="13000.00000" pt_clust_9="60.10236"></scales>
<clustering>
<clus scale="   60.102">  2  9  1 -1</clus>
<clus scale="   89.006">  7  8 -1 -1</clus>
<clus scale="   92.814">  2  7  1 -1</clus>
<clus scale="   93.600">  5  6 -1 -1</clus>
<clus scale="   60.102">  2  5  1 -1</clus>
</clustering>
</event>
<event>
 9    2  0.1302972E-004  0.1211948E+03  0.7546771E-02  0.1261091E+00
         21   -1    0    0  501  502  0.00000000000E+00  0.00000000000E+00  0.11758957753E+03  0.11758957753E+03  0.00000000000E+00 0. -1.
          2   -1    0    0  502    0 -0.00000000000E+00 -0.00000000000E+00 -0.39343209692E+03  0.39343209692E+03  0.00000000000E+00 0. -1.
         24    2    1    2    0    0  0.14993887479E+02  0.58802304142E+01 -0.26037712454E+03  0.27280723565E+03  0.79800670854E+02 0.  0.
         23    2    1    2    0    0  0.62361371714E+02 -0.46461144433E+02 -0.69789480024E+02  0.13534679113E+03  0.86026761672E+02 0.  0.
        -11    1    3    3    0    0  0.64139773600E+01 -0.31783298153E+02 -0.18791667122E+03  0.19069345157E+03  0.00000000000E+00 0.  1.
         12    1    3    3    0    0  0.85799101192E+01  0.37663528567E+02 -0.72460453316E+02  0.82113784084E+02  0.00000000000E+00 0. -1.
        -13    1    4    4    0    0  0.16857486795E+02 -0.43959569054E+02  0.54360063396E+01  0.47393762642E+02  0.00000000000E+00 0.  1.
         13    1    4    4    0    0  0.45503884919E+02 -0.25015753797E+01 -0.75225486363E+02  0.87953028491E+02  0.00000000000E+00 0. -1.
          1    1    1    2  501    0 -0.77355259194E+02  0.40580914019E+02  0.54324085168E+02  0.10286764767E+03  0.00000000000E+00 0. -1.
<scales pt_clust_5="13000.00000" pt_clust_6="13000.00000" pt_clust_7="13000.00000" pt_clust_8="13000.00000" pt_clust_9="85.36730"></scales>
<clustering>
<clus scale="   79.801">  5  6 -1 -1</clus>
<clus scale="   81.410">  2  5  1 -1</clus>
<clus scale="   85.367">  1  9  2 -1</clus>
<clus scale="   86.027">  7  8 -1 -1</clus>
<clus scale="   85.367">  1  5  2 -1</clus>
</clustering>
</event>
<event>
 9    2  0.1302972E-004  0.9408312E+02  0.7546771E-02  0.1299997E+00
         -1   -1    0    0    0  501 -0.00000000000E+00  0.00000000000E+00  0.44701408623E+03  0.44701408623E+03  0.00000000000E+00 0.  1.
         21   -1    0    0  501  502  0.00000000000E+00 -0.00000000000E+00 -0.37721357397E+02  0.37721357397E+02  0.00000000000E+00 0.  1.
         24    2    1    2    0    0 -0.35714426515E+02  0.71257781451E+00  0.24761168250E+03  0.26283201252E+03  0.80579733599E+02 0.  0.
         23    2    1    2    0    0 -0.17707159029E+02 -0.16441084576E+02  0.11531609560E+03  0.14943992041E+03  0.91927336322E+02 0.  0.
        -13    1    3    3    0    0 -0.15424200726E+01 -0.36930934095E+02  0.11575881449E+03  0.12151697859E+03  0.00000000000E+00 0.  1.
         14    1    3    3    0    0 -0.34172006442E+02  0.37643511910E+02  0.13185286800E+03  0.14131503393E+03  0.00000000000E+00 0. -1.
        -13    1    4    4    0    0  0.83985233575E+01 -0.46135638680E+02  0.92710794026E+02  0.10389573466E+03  0.00000000000E+00 0.  1.
         13    1    4    4    0    0 -0.26105682387E+02  0.29694554104E+02  0.22605301579E+02  0.45544185752E+02  0.00000000000E+00 0. -1.
         -2    1    1    2    0  502  0.53421585544E+02  0.15728506761E+02  0.46364950738E+02  0.72463510706E+02  0.00000000000E+00 0.  1.
<scales pt_clust_5="13000.00000" pt_clust_6="13000.00000" pt_clust_7="13000.00000" pt_clust_8="13000.00000" pt_clust_9="55.68888"></scales>
<clustering>
<clus scale="   55.689">  2  9  1 -1</clus>
<clus scale="   80.580">  5  6 -1 -1</clus>
<clus scale="   83.031">  1  5  2 -1</clus>
<clus scale="   91.927">  7  8 -1 -1</clus>
<clus scale="   55.689">  2  5  1 -1</clus>
</clustering>
</event>
<event>
 9    2  0.1302972E-004  0.3121819E+03  0.7546771E-02  0.1079305E+00
         21   -1    0    0  501  502  0.00000000000E+00  0.00000000000E+00  0.17013884483E+03  0.17013884483E+03  0.00000000000E+00 0. -1.
          4   -1    0    0  502    0 -0.00000000000E+00 -0.00000000000E+00 -0.79030533248E+03  0.79030533248E+03  0.00000000000E+00 0. -1.
         24    2    1    2    0    0 -0.71659120202E+02  0.13204503527E+03 -0.46881343108E+03  0.49890204336E+03  0.80909176555E+02 0.  0.
         23    2    1    2    0    0 -0.58437887025E+02  0.69637256881E+02 -0.17874828000E+03  0.21998163114E+03  0.90424754615E+02 0.  0.
        -11    1    3    3    0    0 -0.19650350384E+02 -0.79521017036E+01 -0.63923081934E+02  0.67346362899E+02  0.00000000000E+00 0.  1.
         12    1    3    3    0    0 -0.52008769818E+02  0.13999713697E+03 -0.40489034915E+03  0.43155568046E+03  0.00000000000E+00 0. -1.
        -13    1    4    4    0    0 -0.51568105026E+01  0.63788077359E+02 -0.52324154629E+02  0.82663950217E+02  0.00000000000E+00 0.  1.
         13    1    4    4    0    0 -0.53281076523E+02  0.58491795218E+01 -0.12642412537E+03  0.13731768092E+03  0.00000000000E+00 0. -1.
          3    1    1    2  501    0  0.13009700723E+03 -0.20168229215E+03  0.27395223437E+02  0.24156050282E+03  0.00000000000E+00 0. -1.
<scales pt_clust_5="13000.00000" pt_clust_6="13000.00000" pt_clust_7="13000.00000" pt_clust_8="13000.00000" pt_clust_9="240.00204"></scales>
<clustering>
<clus scale="   80.909">  5  6 -1 -1</clus>
<clus scale="   90.425">  7  8 -1 -1</clus>
<clus scale="  105.616">  5  7 -1 -1</clus>
<clus scale="  240.002">  1  9  2 -1</clus>
<clus scale="  240.002">  1  5  2 -1</clus>
</clustering>
</event>
<event>
 9    2  0.1302972E-004  0.1855933E+03  0.7546771E-02  0.1185642E+00
         -3   -1    0    0    0  501 -0.00000000000E+00  0.00000000000E+00  0.37770395436E+03  0.37770395436E+03  0.00000000000E+00 0.  1.
         21   -1    0    0  501  502  0.00000000000E+00 -0.00000000000E+00 -0.75854521876E+03  0.75854521876E+03  0.00000000000E+00 0.  1.
         23    2    1    2    0    0 -0.25823502141E+02 -0.52848755310E+02 -0.92713742129E+02  0.14363884181E+03  0.92609042191E+02 0.  0.
         24    2    1    2    0    0  0.44678761242E+02 -0.11477227681E+03  0.32493499675E+03  0.35676602377E+03  0.80810744164E+02 0.  0.
        -11    1    4    4    0    0  0.54982543994E+01 -0.84592501175E+02  0.26929883164E+03  0.28232602214E+03  0.00000000000E+00 0.  1.
         12    1    4    4    0    0  0.39180506843E+02 -0.30179775639E+02  0.55636165112E+02  0.74440001628E+02  0.00000000000E+00 0. -1.
        -13    1    3    3    0    0 -0.59609646102E+02 -0.29144101740E+02 -0.43187448111E+02  0.79169718005E+02  0.00000000000E+00 0.  1.
         13    1    3    3    0    0  0.33786143961E+02 -0.23704653570E+02 -0.49526294019E+02  0.64469123803E+02  0.00000000000E+00 0. -1.
         -4    1    1    2    0  502 -0.18855259101E+02  0.16762103212E+03 -0.61306251902E+03  0.63584430755E+03  0.00000000000E+00 0.  1.
<scales pt_clust_5="13000.00000" pt_clust_6="13000.00000" pt_clust_7="13000.00000" pt_clust_8="13000.00000" pt_clust_9="167.07633"></scales>
<clustering>
<clus scale="   80.811">  5  6 -1 -1</clus>
<clus scale="   92.609">  7  8 -1 -1</clus>
<clus scale="  109.710">  1  7  2 -1</clus>
<clus scale="  167.076">  2  9  1 -1</clus>
<clus scale="  167.076">  2  5  1 -1</clus>
</clustering>
</event>
<event>
 9    2  0.1302972E-004  0.9461930E+02  0.7546771E-02  0.1297337E+00
         21   -1    0    0  501  502  0.00000000000E+00  0.00000000000E+00  0.59573861568E+02  0.59573861568E+02  0.00000000000E+00 0.  1.
         -1   -1    0    0    0  501 -0.00000000000E+00 -0.00000000000E+00 -0.42973273595E+03  0.42973273595E+03  0.00000000000E+00 0.  1.
         23    2    1    2    0    0  0.34346472736E+02 -0.42842590551E+02 -0.27255535535E+03  0.29221983477E+03  0.89949109765E+02 0.  0.
         24    2    1    2    0    0  0.10291441775E+02 -0.18857392809E+00 -0.10705108681E+03  0.13436929257E+03  0.80555709080E+02 0.  0.
        -11    1    4    4    0    0  0.35670925422E+02 -0.16025049722E+02 -0.23497480862E+02  0.45621801213E+02  0.00000000000E+00 0.  1.
         12    1    4    4    0    0 -0.25379483647E+02  0.15836475793E+02 -0.83553605949E+02  0.88747491361E+02  0.00000000000E+00 0. -1.
        -13    1    3    3    0    0  0.40892468839E+02  0.17631321269E+02 -0.11198212972E+03  0.12051163792E+03  0.00000000000E+00 0. -1.
         13    1    3    3    0    0 -0.65459961030E+01 -0.60473911820E+02 -0.16057322563E+03  0.17170819685E+03  0.00000000000E+00 0.  1.
         -2    1    1    2    0  502 -0.44637914511E+02  0.43031164479E+02  0.94475677796E+01  0.62717470176E+02  0.00000000000E+00 0.  1.
<scales pt_clust_5="13000.00000" pt_clust_6="13000.00000" pt_clust_7="13000.00000" pt_clust_8="13000.00000" pt_clust_9="62.00181"></scales>
<clustering>
<clus scale="   62.002">  1  9  2 -1</clus>
<clus scale="   80.556">  5  6 -1 -1</clus>
<clus scale="   85.739">  1  5  2 -1</clus>
<clus scale="   89.949">  7  8 -1 -1</clus>
<clus scale="   62.002">  1  5  2 -1</clus>
</clustering>
</event>
<event>
 9    2  0.1302972E-004  0.1058135E+03  0.7546771E-02  0.1273286E+00
         21   -1    0    0  501  502  0.00000000000E+00  0.00000000000E+00  0.20591137524E+03  0.20591137524E+03  0.00000000000E+00 0.  1.
         -1   -1    0    0    0  501 -0.00000000000E+00 -0.00000000000E+00 -0.22089270355E+03  0.22089270355E+03  0.00000000000E+00 0.  1.
         23    2    1    2    0    0  0.15347169093E+02  0.40171639584E+02 -0.91507268638E+02  0.13562575290E+03  0.90396174748E+02 0.  0.
         24    2    1    2    0    0 -0.22895662734E+02 -0.65291393560E+02 -0.80166376987E+02  0.13230584842E+03  0.79315900553E+02 0.  0.
        -13    1    4    4    0    0 -0.25662703771E+02 -0.55888363133E+02 -0.95807619164E+02  0.11384719315E+03  0.00000000000E+00 0.  1.
         14    1    4    4    0    0  0.27670410372E+01 -0.94030304268E+01  0.15641242177E+02  0.18458655264E+02  0.00000000000E+00 0. -1.
        -13    1    3    3    0    0  0.22649081945E+02 -0.19192412598E+02 -0.44749581506E+01  0.30022572586E+02  0.00000000000E+00 0. -1.
         13    1    3    3    0    0 -0.73019128513E+01  0.59364052181E+02 -0.87032310487E+02  0.10560318031E+03  0.00000000000E+00 0.  1.
         -2    1    1    2    0  502  0.75484936405E+01  0.25119753977E+02  0.15669231732E+03  0.15887247748E+03  0.00000000000E+00 0.  1.
<scales pt_clust_5="13000.00000" pt_clust_6="13000.00000" pt_clust_7="13000.00000" pt_clust_8="13000.00000" pt_clust_9="26.22941"></scales>
<clustering>
<clus scale="   26.229">  1  9  2 -1</clus>
<clus scale="   79.316">  5  6 -1 -1</clus>
<clus scale="   90.396">  7  8 -1 -1</clus>
<clus scale="   96.520">  1  5  2 -1</clus>
<clus scale="   26.229">  1  5  2 -1</clus>
</clustering>
</event>
<event>
 9    2  0.1302972E-004  0.1176293E+03  0.7546771E-02  0.1252411E+00
          2   -1    0    0  502    0 -0.00000000000E+00  0.00000000000E+00  0.95872077637E+03  0.95872077637E+03  0.00000000000E+00 0. -1.
         21   -1    0    0  501  502  0.00000000000E+00 -0.00000000000E+00 -0.40041564213E+02  0.40041564213E+02  0.00000000000E+00 0.  1.
         24    2    1    2    0    0  0.63657152904E+02  0.16856447351E+02  0.57167846494E+03  0.58095653895E+03  0.79736189636E+02 0.  0.
         23    2    1    2    0    0 -0.78532492727E+02 -0.11791068944E+01  0.36774463101E+03  0.38784977629E+03  0.94987328788E+02 0.  0.
        -11    1    3    3    0    0  0.67362427715E+02  0.41081759184E+02  0.43384190020E+03  0.44095827691E+03  0.00000000000E+00 0.  1.
         12    1    3    3    0    0 -0.37052748107E+01 -0.24225311832E+02  0.13783656475E+03  0.13999826205E+03  0.00000000000E+00 0. -1.
        -11    1    4    4    0    0  0.75745399636E+00 -0.31130694985E+02  0.49240262929E+02  0.58260599037E+02  0.00000000000E+00 0. -1.
         11    1    4    4    0    0 -0.79289946723E+02  0.29951588091E+02  0.31850436808E+03  0.32958917726E+03  0.00000000000E+00 0.  1.
          1    1    1    2  501    0  0.14875339822E+02 -0.15677340457E+02 -0.20743883799E+02  0.29956025332E+02  0.00000000000E+00 0. -1.
<scales pt_clust_5="13000.00000" pt_clust_6="13000.00000" pt_clust_7="13000.00000" pt_clust_8="13000.00000" pt_clust_9="21.61145"></scales>
<clustering>
<clus scale="   21.611">  2  9  1 -1</clus>
<clus scale="   79.736">  5  6 -1 -1</clus>
<clus scale="   94.987">  7  8 -1 -1</clus>
<clus scale="  105.697">  1  5  2 -1</clus>
<clus scale="   21.611">  2  5  1 -1</clus>
</clustering>
</event>
<event>
 9    2  0.1302972E-004  0.1187580E+03  0.7546771E-02  0.1248107E+00
         21   -1    0    0  501  502  0.00000000000E+00  0.00000000000E+00  0.17891594606E+03  0.17891594606E+03  0.00000000000E+00 0.  1.
          2   -1    0    0  502    0 -0.00000000000E+00 -0.00000000000E+00 -0.35403878937E+03  0.35403878937E+03  0.00000000000E+00 0. -1.
         23    2    1    2    0    0 -0.27623067967E+02 -0.67208261096E+02 -0.30199840802E+03  0.32408803983E+03  0.92466398584E+02 0.  0.
         24    2    1    2    0    0  0.25812245190E+02  0.87482303950E+02  0.57161815656E+02  0.13624216324E+03  0.83516635276E+02 0.  0.
        -11    1    4    4    0    0  0.26434925330E+02  0.85483107510E+02  0.75933268254E+02  0.11735428486E+03  0.00000000000E+00 0.  1.
         12    1    4    4    0    0 -0.62268014022E+00  0.19991964394E+01 -0.18771452598E+02  0.18887878377E+02  0.00000000000E+00 0. -1.
        -11    1    3    3    0    0  0.42360110877E+00 -0.84358678610E+02 -0.22839357846E+03  0.24347524058E+03  0.00000000000E+00 0. -1.
         11    1    3    3    0    0 -0.28046669076E+02  0.17150417514E+02 -0.73604829567E+02  0.80612799249E+02  0.00000000000E+00 0.  1.
          1    1    1    2  501    0  0.18108227773E+01 -0.20274042854E+02  0.69713749062E+02  0.72624532364E+02  0.00000000000E+00 0. -1.
<scales pt_clust_5="13000.00000" pt_clust_6="13000.00000" pt_clust_7="13000.00000" pt_clust_8="13000.00000" pt_clust_9="20.35475"></scales>
<clustering>
<clus scale="   20.355">  1  9  2 -1</clus>
<clus scale="   83.517">  5  6 -1 -1</clus>
<clus scale="   92.466">  7  8 -1 -1</clus>
<clus scale="  111.931">  1  5  2 -1</clus>
<clus scale="   20.355">  1  5  2 -1</clus>
</clustering>
</event>
<event>
 9    2  0.1302972E-004  0.1639652E+03  0.7546771E-02  0.1211134E+00
         21   -1    0    0  501  502  0.00000000000E+00  0.00000000000E+00  0.54390033934E+02  0.54390033934E+02  0.00000000000E+00 0. -1.
          2   -1    0    0  502    0 -0.00000000000E+00 -0.00000000000E+00 -0.88189600856E+03  0.88189600856E+03  0.00000000000E+00 0. -1.
         24    2    1    2    0    0  0.11852612580E+02 -0.42325804470E+02 -0.18995211220E+03  0.21076056650E+03  0.80039073663E+02 0.  0.
         23    2    1    2    0    0 -0.13293746974E+03 -0.29266840934E+02 -0.16581769439E+03  0.23326328798E+03  0.91582394105E+02 0.  0.
        -13    1    3    3    0    0  0.19690202566E+02  0.15320154977E+02 -0.10414258822E+03  0.10708916802E+03  0.00000000000E+00 0.  1.
         14    1    3    3    0    0 -0.78375899860E+01 -0.57645959447E+02 -0.85809523976E+02  0.10367139848E+03  0.00000000000E+00 0. -1.
        -11    1    4    4    0    0 -0.60151247190E+02 -0.12433916697E+01 -0.13784773907E+03  0.15040517853E+03  0.00000000000E+00 0.  1.
         11    1    4    4    0    0 -0.72786222548E+02 -0.28023449265E+02 -0.27969955312E+02  0.82858109450E+02  0.00000000000E+00 0. -1.
          1    1    1    2  501    0  0.12108485716E+03  0.71592645404E+02 -0.47173616805E+03  0.49226218802E+03  0.00000000000E+00 0. -1.
<scales pt_clust_5="13000.00000" pt_clust_6="13000.00000" pt_clust_7="13000.00000" pt_clust_8="13000.00000" pt_clust_9="136.00464"></scales>
<clustering>
<clus scale="   80.039">  5  6 -1 -1</clus>
<clus scale="   91.314">  2  5  1 -1</clus>
<clus scale="   91.582">  7  8 -1 -1</clus>
<clus scale="  136.005">  1  9  2 -1</clus>
<clus scale="  136.005">  1  5  2 -1</clus>
</clustering>
</event>
<event>
 9    2  0.1302972E-004  0.1131873E+03  0.7546771E-02  0.1257921E+00
         21   -1    0    0  501  502  0.00000000000E+00  0.00000000000E+00  0.10647505525E+03  0.10647505525E+03  0.00000000000E+00 0. -1.
          2   -1    0    0  502    0 -0.00000000000E+00 -0.00000000000E+00 -0.69098464759E+03  0.69098464759E+03  0.00000000000E+00 0. -1.
         24    2    1    2    0    0 -0.53000590652E+02  0.45121138094E+02 -0.63174522556E+03  0.64074646586E+03  0.81295902605E+02 0.  0.
         23    2    1    2    0    0  0.54897462963E+02 -0.10195175742E+02  0.57129237053E+02  0.12036348640E+03  0.90033027740E+02 0.  0.
        -13    1    3    3    0    0 -0.22336250882E+02  0.21262115350E+02 -0.58011612211E+02  0.65698803672E+02  0.00000000000E+00 0.  1.
         14    1    3    3    0    0 -0.30664339770E+02  0.23859022744E+02 -0.57373361335E+03  0.57504766219E+03  0.00000000000E+00 0. -1.
        -11    1    4    4    0    0  0.77367672203E+02 -0.19341655512E+02  0.53000035597E+02  0.95754164992E+02  0.00000000000E+00 0.  1.
         11    1    4    4    0    0 -0.22470209241E+02  0.91464797703E+01  0.41292014569E+01  0.24609321408E+02  0.00000000000E+00 0. -1.
          1    1    1    2  501    0 -0.18968723109E+01 -0.34925962352E+02 -0.98936038342E+01  0.36349750585E+02  0.00000000000E+00 0. -1.
<scales pt_clust_5="13000.00000" pt_clust_6="13000.00000" pt_clust_7="13000.00000" pt_clust_8="13000.00000" pt_clust_9="34.97744"></scales>
<clustering>
<clus scale="   34.977">  1  9  2 -1</clus>
<clus scale="   81.296">  5  6 -1 -1</clus>
<clus scale="   90.033">  7  8 -1 -1</clus>
<clus scale="  106.369">  2  5  1 -1</clus>
<clus scale="   34.977">  1  5  2 -1</clus>
</clustering>
</event>
<event>
 9    2  0.1302972E-004  0.9894140E+02  0.7546771E-02  0.1288452E+00
          2   -1    0    0  502    0 -0.00000000000E+00  0.00000000000E+00  0.20289827743E+03  0.20289827743E+03  0.00000000000E+00 0. -1.
         21   -1    0    0  501  502  0.00000000000E+00 -0.00000000000E+00 -0.12335640964E+03  0.12335640964E+03  0.00000000000E+00 0. -1.
         24    2    1    2    0    0  0.49801592629E+02  0.16004129861E+02  0.87141712820E+02  0.12961964537E+03  0.80444039871E+02 0.  0.
         23    2    1    2    0    0  0.26531718921E+02 -0.49537876226E+02  0.18607599380E+02  0.10923872177E+03  0.91809162334E+02 0.  0.
        -13    1    3    3    0    0  0.17985406650E+02  0.43258361651E+02  0.70273255594E+02  0.84457629359E+02  0.00000000000E+00 0.  1.
         14    1    3    3    0    0  0.31816185979E+02 -0.27254231790E+02  0.16868457226E+02  0.45162016008E+02  0.00000000000E+00 0. -1.
        -11    1    4    4    0    0 -0.21895601719E+01  0.25270557480E+02  0.14003683997E+02  0.28974099029E+02  0.00000000000E+00 0.  1.
         11    1    4    4    0    0  0.28721279093E+02 -0.74808433705E+02  0.46039153829E+01  0.80264622736E+02  0.00000000000E+00 0. -1.
          1    1    1    2  501    0 -0.76333311550E+02  0.33533746365E+02 -0.26207444406E+02  0.87396319944E+02  0.00000000000E+00 0. -1.
<scales pt_clust_5="13000.00000" pt_clust_6="13000.00000" pt_clust_7="13000.00000" pt_clust_8="13000.00000" pt_clust_9="83.37438"></scales>
<clustering>
<clus scale="   80.444">  5  6 -1 -1</clus>
<clus scale="   83.374">  2  9  1 -1</clus>
<clus scale="   88.497">  1  5  2 -1</clus>
<clus scale="   91.809">  7  8 -1 -1</clus>
<clus scale="   83.374">  2  5  1 -1</clus>
</clustering>
</event>
<event>
 9    2  0.1302972E-004  0.1451454E+03  0.7546771E-02  0.1207358E+00
          2   -1    0    0  502    0 -0.00000000000E+00  0.00000000000E+00  0.10506486911E+04  0.10506486911E+04  0.00000000000E+00 0. -1.
         21   -1    0    0  501  502  0.00000000000E+00 -0.00000000000E+00 -0.34344563236E+02  0.34344563236E+02  0.00000000000E+00 0. -1.
         24    2    1    2    0    0  0.99373391468E+02 -0.22705877573E+02  0.45455525265E+03  0.47273654180E+03  0.80428430493E+02 0.  0.
         23    2    1    2    0    0 -0.15623700462E+03  0.93693267543E+01  0.35058708674E+03  0.39316624036E+03  0.84679402874E+02 0.  0.
        -13    1    3    3    0    0  0.99425773902E+02 -0.43118808976E+02  0.35784252573E+03  0.37389301869E+03  0.00000000000E+00 0.  1.
         14    1    3    3    0    0 -0.52382433685E-01  0.20412931403E+02  0.96712726922E+02  0.98843523111E+02  0.00000000000E+00 0. -1.
        -11    1    4    4    0    0 -0.22922461595E+02  0.26196194103E+02  0.31523329005E+02  0.46961687605E+02  0.00000000000E+00 0.  1.
         11    1    4    4    0    0 -0.13331454303E+03 -0.16826867349E+02  0.31906375774E+03  0.34620455275E+03  0.00000000000E+00 0. -1.
          1    1    1    2  501    0  0.56863613153E+02  0.13336550819E+02  0.21116178847E+03  0.21909047217E+03  0.00000000000E+00 0. -1.
<scales pt_clust_5="13000.00000" pt_clust_6="13000.00000" pt_clust_7="13000.00000" pt_clust_8="13000.00000" pt_clust_9="58.40666"></scales>
<clustering>
<clus scale="   58.407">  2  9  1 -1</clus>
<clus scale="   80.428">  5  6 -1 -1</clus>
<clus scale="   84.679">  7  8 -1 -1</clus>
<clus scale="  142.707">  1  5  2 -1</clus>
<clus scale="   58.407">  2  5  1 -1</clus>
</clustering>
</event>
<event>
 9    2  0.1302972E-004  0.1978281E+03  0.7546771E-02  0.1152669E+00
         21   -1    0    0  501  502  0.00000000000E+00  0.00000000000E+00  0.44149966162E+03  0.44149966162E+03  0.00000000000E+00 0. -1.
          2   -1    0    0  502    0 -0.00000000000E+00 -0.00000000000E+00 -0.60291081948E+03  0.60291081948E+03  0.00000000000E+00 0. -1.
         23    2    1    2    0    0 -0.17804929633E+03 -0.62880001444E+02 -0.54390636589E+03  0.58295582545E+03  0.91366914516E+02 0.  0.
         24    2    1    2    0    0  0.94063169188E+02  0.21262288691E+01  0.94854488041E+02  0.15570659887E+03  0.79967308216E+02 0.  0.
        -13    1    4    4    0    0  0.76042449610E+02 -0.33853280422E+02  0.63563514983E+02  0.10473213058E+03  0.00000000000E+00 0.  1.
         14    1    4    4    0    0  0.18020719578E+02  0.35979509291E+02  0.31290973058E+02  0.50974468294E+02  0.00000000000E+00 0. -1.
        -11    1    3    3    0    0 -0.13448280765E+03 -0.79860166500E+02 -0.34777205128E+03  0.38132488955E+03  0.00000000000E+00 0.  1.
         11    1    3    3    0    0 -0.43566488682E+02  0.16980165055E+02 -0.19613431461E+03  0.20163093590E+03  0.00000000000E+00 0. -1.
          1    1    1    2  501    0  0.83986127140E+02  0.60753772575E+02  0.28764071998E+03  0.30574805678E+03  0.00000000000E+00 0. -1.
<scales pt_clust_5="13000.00000" pt_clust_6="13000.00000" pt_clust_7="13000.00000" pt_clust_8="13000.00000" pt_clust_9="103.65660"></scales>
<clustering>
<clus scale="   79.967">  5  6 -1 -1</clus>
<clus scale="   91.367">  7  8 -1 -1</clus>
<clus scale="  103.657">  1  9  2 -1</clus>
<clus scale="  192.829">  1  5  2 -1</clus>
<clus scale="  103.657">  1  5  2 -1</clus>
</clustering>
</event>
<event>
 9    2  0.1302972E-004  0.9519778E+02  0.7546771E-02  0.1295606E+00
          2   -1    0    0  502    0 -0.00000000000E+00  0.00000000000E+00  0.80019918493E+02  0.80019918493E+02  0.00000000000E+00 0. -1.
         21   -1    0    0  501  502  0.00000000000E+00 -0.00000000000E+00 -0.68057924450E+03  0.68057924450E+03  0.00000000000E+00 0.  1.
         24    2    1    2    0    0 -0.18394191569E+02 -0.23135150514E+02  0.33558017761E+02  0.92261601238E+02  0.80699944449E+02 0.  0.
         23    2    1    2    0    0 -0.25646551119E+01  0.95790358603E+02 -0.46383841915E+03  0.48202340587E+03  0.89543924774E+02 0.  0.
        -11    1    3    3    0    0  0.15455714613E+02 -0.19059669908E+02 -0.18012232310E+02  0.30439951445E+02  0.00000000000E+00 0.  1.
         12    1    3    3    0    0 -0.33849906182E+02 -0.40754806066E+01  0.51570250071E+02  0.61821649793E+02  0.00000000000E+00 0. -1.
        -13    1    4    4    0    0 -0.38827636938E+02  0.23164484548E+02 -0.23252247725E+03  0.23687735468E+03  0.00000000000E+00 0.  1.
         13    1    4    4    0    0  0.36262981826E+02  0.72625874056E+02 -0.23131594190E+03  0.24514605119E+03  0.00000000000E+00 0. -1.
          1    1    1    2  501    0  0.20958846681E+02 -0.72655208089E+02 -0.17027892462E+03  0.18631415589E+03  0.00000000000E+00 0. -1.
<scales pt_clust_5="13000.00000" pt_clust_6="13000.00000" pt_clust_7="13000.00000" pt_clust_8="13000.00000" pt_clust_9="75.61781"></scales>
<clustering>
<clus scale="   75.618">  2  9  1 -1</clus>
<clus scale="   80.700">  5  6 -1 -1</clus>
<clus scale="   86.931">  1  5  2 -1</clus>
<clus scale="   89.544">  7  8 -1 -1</clus>
<clus scale="   75.618">  2  5  1 -1</clus>
</clustering>
</event>
<event>
 9    2  0.1302972E-004  0.9597433E+02  0.7546771E-02  0.1296330E+00
         -1   -1    0    0    0  501 -0.00000000000E+00  0.00000000000E+00  0.81687335006E+02  0.81687335006E+02  0.00000000000E+00 0.  1.
         21   -1    0    0  501  502  0.00000000000E+00 -0.00000000000E+00 -0.14040907475E+03  0.14040907475E+03  0.00000000000E+00 0.  1.
         24    2    1    2    0    0 -0.12852624882E+02  0.13408897580E+01 -0.15126923727E+02  0.85213557601E+02  0.82858545883E+02 0.  0.
         23    2    1    2    0    0 -0.77488743213E+01 -0.24027851729E+02 -0.27621825481E+02  0.10232483660E+03  0.95236674813E+02 0.  0.
        -13    1    3    3    0    0 -0.48094664200E+02 -0.37709700934E+01 -0.81568352704E+01  0.48926995632E+02  0.00000000000E+00 0.  1.
         14    1    3    3    0    0  0.35242039318E+02  0.51118598514E+01 -0.69700884564E+01  0.36286561969E+02  0.00000000000E+00 0. -1.
        -11    1    4    4    0    0  0.14684096002E+02  0.24762855491E+02 -0.37955705088E+02  0.47638820685E+02  0.00000000000E+00 0.  1.
         11    1    4    4    0    0 -0.22432970324E+02 -0.48790707220E+02  0.10333879607E+02  0.54686015911E+02  0.00000000000E+00 0. -1.
         -2    1    1    2    0  502  0.20601499203E+02  0.22686961971E+02 -0.15972990538E+02  0.34558015562E+02  0.00000000000E+00 0.  1.
<scales pt_clust_5="13000.00000" pt_clust_6="13000.00000" pt_clust_7="13000.00000" pt_clust_8="13000.00000" pt_clust_9="30.64507"></scales>
<clustering>
<clus scale="   30.645">  2  9  1 -1</clus>
<clus scale="   82.859">  5  6 -1 -1</clus>
<clus scale="   83.705">  1  5  2 -1</clus>
<clus scale="   95.237">  7  8 -1 -1</clus>
<clus scale="   30.645">  2  5  1 -1</clus>
</clustering>
</event>
<event>
 9    2  0.1302972E-004  0.1031656E+03  0.7546771E-02  0.1280605E+00
         21   -1    0    0  501  502  0.00000000000E+00  0.00000000000E+00  0.91646971065E+02  0.91646971065E+02  0.00000000000E+00 0.  1.
          2   -1    0    0  502    0 -0.00000000000E+00 -0.00000000000E+00 -0.38396710174E+03  0.38396710174E+03  0.00000000000E+00 0. -1.
         23    2    1    2    0    0  0.45063904571E+02  0.17658728031E+02 -0.33176058569E+03  0.34747639398E+03  0.91280731746E+02 0.  0.
         24    2    1    2    0    0 -0.49970050299E+02  0.33765516344E+01  0.10789804318E+02  0.92257140341E+02  0.76723875286E+02 0.  0.
        -11    1    4    4    0    0 -0.31178736607E+02  0.39706297324E+02  0.26570846718E+01  0.50554562233E+02  0.00000000000E+00 0.  1.
         12    1    4    4    0    0 -0.18791313692E+02 -0.36329745689E+02  0.81327196457E+01  0.41702578109E+02  0.00000000000E+00 0. -1.
        -11    1    3    3    0    0 -0.11465113979E+02 -0.27961528221E+02 -0.11295469473E+03  0.11692757998E+03  0.00000000000E+00 0. -1.
         11    1    3    3    0    0  0.56529018550E+02  0.45620256252E+02 -0.21880589096E+03  0.23054881400E+03  0.00000000000E+00 0.  1.
          1    1    1    2  501    0  0.49061457277E+01 -0.21035279665E+02  0.28650650695E+02  0.35880538482E+02  0.00000000000E+00 0. -1.
<scales pt_clust_5="13000.00000" pt_clust_6="13000.00000" pt_clust_7="13000.00000" pt_clust_8="13000.00000" pt_clust_9="21.59984"></scales>
<clustering>
<clus scale="   21.600">  1  9  2 -1</clus>
<clus scale="   76.724">  5  6 -1 -1</clus>
<clus scale="   90.540">  1  5  2 -1</clus>
<clus scale="   91.281">  7  8 -1 -1</clus>
<clus scale="   21.600">  1  5  2 -1</clus>
</clustering>
</event>
<event>
 9    2  0.1302972E-004  0.1226956E+03  0.7546771E-02  0.1241397E+00
          2   -1    0    0  502    0 -0.00000000000E+00  0.00000000000E+00  0.49268914675E+02  0.49268914675E+02  0.00000000000E+00 0. -1.
         21   -1    0    0  501  502  0.00000000000E+00 -0.00000000000E+00 -0.41130075670E+03  0.41130075670E+03  0.00000000000E+00 0. -1.
         24    2    1    2    0    0 -0.49733800170E+02 -0.65293955939E+02 -0.14509863524E+03  0.18545076861E+03  0.81250366562E+02 0.  0.
         23    2    1    2    0    0  0.16718054707E+02  0.87724866204E+02 -0.18285473867E+03  0.22263531321E+03  0.90307705828E+02 0.  0.
        -13    1    3    3    0    0  0.15130181594E+02 -0.45074519588E+02 -0.59036627607E+02  0.75802098325E+02  0.00000000000E+00 0.  1.
         14    1    3    3    0    0 -0.64863981764E+02 -0.20219436351E+02 -0.86062007634E+02  0.10964867028E+03  0.00000000000E+00 0. -1.
        -13    1    4    4    0    0  0.44268357089E+02  0.33929995136E+02 -0.43482491538E+02  0.70722408610E+02  0.00000000000E+00 0. -1.
         13    1    4    4    0    0 -0.27550302382E+02  0.53794871068E+02 -0.13937224713E+03  0.15191290460E+03  0.00000000000E+00 0.  1.
          1    1    1    2  501    0  0.33015745462E+02 -0.22430910265E+02 -0.34078468123E+02  0.52483589563E+02  0.00000000000E+00 0. -1.
<scales pt_clust_5="13000.00000" pt_clust_6="13000.00000" pt_clust_7="13000.00000" pt_clust_8="13000.00000" pt_clust_9="39.91474"></scales>
<clustering>
<clus scale="   39.915">  2  9  1 -1</clus>
<clus scale="   81.250">  5  6 -1 -1</clus>
<clus scale="   90.308">  7  8 -1 -1</clus>
<clus scale="  116.191">  1  5  2 -1</clus>
<clus scale="   39.915">  2  5  1 -1</clus>
</clustering>
</event>
<event>
 9    2  0.1302972E-004  0.9682419E+02  0.7546771E-02  0.1291434E+00
          4   -1    0    0  502    0 -0.00000000000E+00  0.00000000000E+00  0.78258156750E+02  0.78258156750E+02  0.00000000000E+00 0. -1.
         21   -1    0    0  501  502  0.00000000000E+00 -0.00000000000E+00 -0.10969775015E+04  0.10969775015E+04  0.00000000000E+00 0. -1.
         24    2    1    2    0    0  0.34300703254E+00 -0.36112652731E+02  0.39720179643E+02  0.97334930342E+02  0.81192084914E+02 0.  0.
         23    2    1    2    0    0  0.71209012270E+02  0.57559157342E+02 -0.60949768115E+03  0.62278709084E+03  0.89401102745E+02 0.  0.
        -11    1    3    3    0    0  0.39798510125E+02 -0.12185011975E+02  0.11253087206E+02  0.43116445779E+02  0.00000000000E+00 0.  1.
         12    1    3    3    0    0 -0.39455503092E+02 -0.23927640757E+02  0.28467092438E+02  0.54218484563E+02  0.00000000000E+00 0. -1.
        -13    1    4    4    0    0  0.73628251490E+02  0.38191535419E+01 -0.37777756535E+03  0.38490465603E+03  0.00000000000E+00 0. -1.
         13    1    4    4    0    0 -0.24192392201E+01  0.53740003801E+02 -0.23172011580E+03  0.23788243482E+03  0.00000000000E+00 0.  1.
          3    1    1    2  501    0 -0.71552019303E+02 -0.21446504611E+02 -0.44894184324E+03  0.45511363706E+03  0.00000000000E+00 0. -1.
<scales pt_clust_5="13000.00000" pt_clust_6="13000.00000" pt_clust_7="13000.00000" pt_clust_8="13000.00000" pt_clust_9="74.69701"></scales>
<clustering>
<clus scale="   74.697">  2  9  1 -1</clus>
<clus scale="   81.192">  5  6 -1 -1</clus>
<clus scale="   89.300">  1  5  2 -1</clus>
<clus scale="   89.401">  7  8 -1 -1</clus>
<clus scale="   74.697">  2  5  1 -1</clus>
</clustering>
</event>
<event>
 9    2  0.1302972E-004  0.9847563E+02  0.7546771E-02  0.1289985E+00
          4   -1    0    0  502    0 -0.00000000000E+00  0.00000000000E+00  0.14875698690E+03  0.14875698690E+03  0.00000000000E+00 0. -1.
         21   -1    0    0  501  502  0.00000000000E+00 -0.00000000000E+00 -0.22245574402E+03  0.22245574402E+03  0.00000000000E+00 0. -1.
         23    2    1    2    0    0  0.19594450389E+02  0.20121384999E+02  0.95519641027E+02  0.13566744866E+03  0.92156617681E+02 0.  0.
         24    2    1    2    0    0 -0.64418848652E+02 -0.32080265900E+02 -0.77029989061E+02  0.13234187010E+03  0.80011373218E+02 0.  0.
        -11    1    4    4    0    0 -0.70947282692E+01 -0.44597004415E+02 -0.51096521979E+02  0.68191513624E+02  0.00000000000E+00 0.  1.
         12    1    4    4    0    0 -0.57324120383E+02  0.12516738515E+02 -0.25933467083E+02  0.64150356473E+02  0.00000000000E+00 0. -1.
        -11    1    3    3    0    0  0.19425926471E+02 -0.23580702126E+02 -0.80379840521E-01  0.30551965451E+02  0.00000000000E+00 0.  1.
         11    1    3    3    0    0  0.16852391763E+00  0.43702087125E+02  0.95600020868E+02  0.10511548320E+03  0.00000000000E+00 0. -1.
          3    1    1    2  501    0  0.44824398264E+02  0.11958880900E+02 -0.92188409086E+02  0.10320341216E+03  0.00000000000E+00 0. -1.
<scales pt_clust_5="13000.00000" pt_clust_6="13000.00000" pt_clust_7="13000.00000" pt_clust_8="13000.00000" pt_clust_9="46.39226"></scales>
<clustering>
<clus scale="   46.392">  2  9  1 -1</clus>
<clus scale="   80.011">  5  6 -1 -1</clus>
<clus scale="   87.215">  2  5  1 -1</clus>
<clus scale="   92.157">  7  8 -1 -1</clus>
<clus scale="   46.392">  2  5  1 -1</clus>
</clustering>
</event>
<event>
 9    2  0.1302972E-004  0.1824898E+03  0.7546771E-02  0.1195710E+00
         21   -1    0    0  501  502  0.00000000000E+00  0.00000000000E+00  0.29010294354E+03  0.29010294354E+03  0.00000000000E+00 0. -1.
          2   -1    0    0  502    0 -0.00000000000E+00 -0.00000000000E+00 -0.25737063730E+03  0.25737063730E+03  0.00000000000E+00 0. -1.
         23    2    1    2    0    0  0.12529216931E+02 -0.22758282936E+02 -0.56561199352E+02  0.10834554745E+03  0.88682961504E+02 0.  0.
         24    2    1    2    0    0  0.12577215896E+03 -0.97663696981E+02  0.16334139801E+03  0.24136096285E+03  0.78853461620E+02 0.  0.
        -11    1    4    4    0    0  0.81377300942E+02 -0.18917605957E+02  0.53953641484E+02  0.99454192235E+02  0.00000000000E+00 0.  1.
         12    1    4    4    0    0  0.44394858013E+02 -0.78746091023E+02  0.10938775653E+03  0.14190677062E+03  0.00000000000E+00 0. -1.
        -11    1    3    3    0    0  0.44238436678E+02 -0.23302654506E+02 -0.84311413048E+01  0.50706381556E+02  0.00000000000E+00 0. -1.
         11    1    3    3    0    0 -0.31709219747E+02  0.54437157052E+00 -0.48130058048E+02  0.57639165895E+02  0.00000000000E+00 0.  1.
          1    1    1    2  501    0 -0.13830137589E+03  0.12042197992E+03 -0.74047892420E+02  0.19776707054E+03  0.00000000000E+00 0. -1.
<scales pt_clust_5="13000.00000" pt_clust_6="13000.00000" pt_clust_7="13000.00000" pt_clust_8="13000.00000" pt_clust_9="164.57428"></scales>
<clustering>
<clus scale="   78.853">  5  6 -1 -1</clus>
<clus scale="   88.683">  7  8 -1 -1</clus>
<clus scale="   92.410">  2  7  1 -1</clus>
<clus scale="  164.574">  1  9  2 -1</clus>
<clus scale="  164.574">  1  5  2 -1</clus>
</clustering>
</event>
<event>
 9    2  0.1302972E-004  0.1512934E+03  0.7546771E-02  0.1200364E+00
         21   -1    0    0  501  502  0.00000000000E+00  0.00000000000E+00  0.18335190812E+03  0.18335190812E+03  0.00000000000E+00 0. -1.
          2   -1    0    0  502    0 -0.00000000000E+00 -0.00000000000E+00 -0.24574945464E+03  0.24574945464E+03  0.00000000000E+00 0. -1.
         24    2    1    2    0    0 -0.40855095585E+02  0.11584240233E+03 -0.12835439445E+02  0.14766598058E+03  0.80943760113E+02 0.  0.
         23    2    1    2    0    0  0.11271394177E+03 -0.77031328522E+02  0.31757339327E+02  0.16618415404E+03  0.89277019496E+02 0.  0.
        -13    1    3    3    0    0 -0.32375286577E+02  0.15409809195E+01 -0.81941420040E+00  0.32422295458E+02  0.00000000000E+00 0.  1.
         14    1    3    3    0    0 -0.84798090084E+01  0.11430142141E+03 -0.12016025244E+02  0.11524368512E+03  0.00000000000E+00 0. -1.
        -13    1    4    4    0    0  0.52186977894E+02 -0.17296265926E+02  0.55265689279E+02  0.77954716908E+02  0.00000000000E+00 0. -1.
         13    1    4    4    0    0  0.60526963879E+02 -0.59735062595E+02 -0.23508349952E+02  0.88229437135E+02  0.00000000000E+00 0.  1.
          1    1    1    2  501    0 -0.71858846187E+02 -0.38811073806E+02 -0.81319446400E+02  0.11525122814E+03  0.00000000000E+00 0. -1.
<scales pt_clust_5="13000.00000" pt_clust_6="13000.00000" pt_clust_7="13000.00000" pt_clust_8="13000.00000" pt_clust_9="81.67007"></scales>
<clustering>
<clus scale="   80.944">  5  6 -1 -1</clus>
<clus scale="   81.670">  1  9  2 -1</clus>
<clus scale="   89.277">  7  8 -1 -1</clus>
<clus scale="  146.531">  2  5  1 -1</clus>
<clus scale="   81.670">  1  5  2 -1</clus>
</clustering>
</event>
<event>
 9    2  0.1302972E-004  0.9173488E+02  0.7546771E-02  0.1303784E+00
         21   -1    0    0  501  502  0.00000000000E+00  0.00000000000E+00  0.18109905612E+02  0.18109905612E+02  0.00000000000E+00 0.  1.
          2   -1    0    0  502    0 -0.00000000000E+00 -0.00000000000E+00 -0.63821491431E+03  0.63821491431E+03  0.00000000000E+00 0. -1.
         24    2    1    2    0    0 -0.69279402925E+01  0.11276430172E+02 -0.32990908678E+03  0.33989211389E+03  0.80693799677E+02 0.  0.
         23    2    1    2    0    0  0.33143097499E+02 -0.21316896081E+02 -0.23762288674E+03  0.25683430462E+03  0.89142295012E+02 0.  0.
        -11    1    3    3    0    0  0.11733348340E+02 -0.31652930401E+02 -0.16769891560E+03  0.17106287078E+03  0.00000000000E+00 0.  1.
         12    1    3    3    0    0 -0.18661288632E+02  0.42929360573E+02 -0.16221017118E+03  0.16882924310E+03  0.00000000000E+00 0. -1.
        -11    1    4    4    0    0  0.30110761317E+02 -0.53001611813E+02 -0.19012186447E+03  0.19965508296E+03  0.00000000000E+00 0.  1.
         11    1    4    4    0    0  0.30323361827E+01  0.31684715732E+02 -0.47501022263E+02  0.57179221661E+02  0.00000000000E+00 0. -1.
          1    1    1    2  501    0 -0.26215157207E+02  0.10040465909E+02 -0.52573035182E+02  0.59598401416E+02  0.00000000000E+00 0. -1.
<scales pt_clust_5="13000.00000" pt_clust_6="13000.00000" pt_clust_7="13000.00000" pt_clust_8="13000.00000" pt_clust_9="28.07215"></scales>
<clustering>
<clus scale="   28.072">  1  9  2 -1</clus>
<clus scale="   80.694">  5  6 -1 -1</clus>
<clus scale="   83.549">  2  5  1 -1</clus>
<clus scale="   89.142">  7  8 -1 -1</clus>
<clus scale="   28.072">  1  5  2 -1</clus>
</clustering>
</event>
<event>
 9    2  0.1302972E-004  0.1140667E+03  0.7546771E-02  0.1258924E+00
          4   -1    0    0  502    0 -0.00000000000E+00  0.00000000000E+00  0.47549400649E+03  0.47549400649E+03  0.00000000000E+00 0. -1.
         21   -1    0    0  501  502  0.00000000000E+00 -0.00000000000E+00 -0.21285927135E+03  0.21285927135E+03  0.00000000000E+00 0. -1.
         24    2    1    2    0    0  0.60444364809E+02  0.87146728018E+01  0.29112071994E+03  0.30754456792E+03  0.78121193785E+02 0.  0.
         23    2    1    2    0    0 -0.78460518990E+02  0.16543838462E+02  0.15316791887E+03  0.19652437818E+03  0.93443395808E+02 0.  0.
        -11    1    3    3    0    0 -0.53531254179E+00  0.29458210577E+02  0.50642291183E+02  0.58589370932E+02  0.00000000000E+00 0.  1.
         12    1    3    3    0    0  0.60979677350E+02 -0.20743537775E+02  0.24047842876E+03  0.24895519699E+03  0.00000000000E+00 0. -1.
        -13    1    4    4    0    0 -0.98414724712E+02  0.97310133869E+01  0.10661929162E+03  0.14542291431E+03  0.00000000000E+00 0.  1.
         13    1    4    4    0    0  0.19954205722E+02  0.68128250746E+01  0.46548627242E+02  0.51101463869E+02  0.00000000000E+00 0. -1.
          3    1    1    2  501    0  0.18016154181E+02 -0.25258511263E+02 -0.18165390367E+03  0.18428433173E+03  0.00000000000E+00 0. -1.
<scales pt_clust_5="13000.00000" pt_clust_6="13000.00000" pt_clust_7="13000.00000" pt_clust_8="13000.00000" pt_clust_9="31.02538"></scales>
<clustering>
<clus scale="   31.025">  2  9  1 -1</clus>
<clus scale="   78.121">  5  6 -1 -1</clus>
<clus scale="   93.443">  7  8 -1 -1</clus>
<clus scale="  101.894">  1  5  2 -1</clus>
<clus scale="   31.025">  2  5  1 -1</clus>
</clustering>
</event>
<event>
 9    2  0.1302972E-004  0.1152865E+03  0.7546771E-02  0.1256109E+00
         21   -1    0    0  501  502  0.00000000000E+00  0.00000000000E+00  0.40633355773E+02  0.40633355773E+02  0.00000000000E+00 0. -1.
          2   -1    0    0  502    0 -0.00000000000E+00 -0.00000000000E+00 -0.50159828869E+03  0.50159828869E+03  0.00000000000E+00 0. -1.
         23    2    1    2    0    0  0.37117444741E+00 -0.76206969204E+02 -0.31420321073E+03  0.33669513485E+03  0.93980403673E+02 0.  0.
         24    2    1    2    0    0 -0.17453925812E+02  0.44339774176E+02 -0.58329148078E+02  0.10999772860E+03  0.80165801198E+02 0.  0.
        -11    1    4    4    0    0 -0.46505438339E+02  0.15927451353E+02 -0.46523010121E+02  0.67681828968E+02  0.00000000000E+00 0.  1.
         12    1    4    4    0    0  0.29051512527E+02  0.28412322823E+02 -0.11806137958E+02  0.42315899634E+02  0.00000000000E+00 0. -1.
        -11    1    3    3    0    0 -0.12793025917E+02  0.18811557798E+02 -0.90039788673E+02  0.92869261670E+02  0.00000000000E+00 0.  1.
         11    1    3    3    0    0  0.13164200364E+02 -0.95018527002E+02 -0.22416342205E+03  0.24382587318E+03  0.00000000000E+00 0. -1.
          1    1    1    2  501    0  0.17082751365E+02  0.31867195028E+02 -0.88432574117E+02  0.95538781017E+02  0.00000000000E+00 0. -1.
<scales pt_clust_5="13000.00000" pt_clust_6="13000.00000" pt_clust_7="13000.00000" pt_clust_8="13000.00000" pt_clust_9="36.15715"></scales>
<clustering>
<clus scale="   36.157">  1  9  2 -1</clus>
<clus scale="   80.166">  5  6 -1 -1</clus>
<clus scale="   93.980">  7  8 -1 -1</clus>
<clus scale="  104.332">  1  5  2 -1</clus>
<clus scale="   36.157">  1  5  2 -1</clus>
</clustering>
</event>
<event>
 9    2  0.1302972E-004  0.1051299E+03  0.7546771E-02  0.1275323E+00
         21   -1    0    0  501  502  0.00000000000E+00  0.00000000000E+00  0.86504060418E+02  0.86504060418E+02  0.00000000000E+00 0.  1.
         -3   -1    0    0    0  501 -0.00000000000E+00 -0.00000000000E+00 -0.30018860986E+03  0.30018860986E+03  0.00000000000E+00 0.  1.
         24    2    1    2    0    0 -0.11589745580E+02  0.36391086606E+02 -0.10879477293E+03  0.14092354585E+03  0.81021662360E+02 0.  0.
         23    2    1    2    0    0  0.81936392681E+02 -0.55447833697E+02 -0.25862791542E+02  0.13826528858E+03  0.93061116117E+02 0.  0.
        -13    1    3    3    0    0 -0.21262275820E+02 -0.21263103498E+02 -0.47520970387E+02  0.56235634343E+02  0.00000000000E+00 0.  1.
         14    1    3    3    0    0  0.96725302399E+01  0.57654190103E+02 -0.61273802547E+02  0.84687911512E+02  0.00000000000E+00 0. -1.
        -13    1    4    4    0    0  0.42150226392E+02 -0.74744280405E+02  0.22982188648E+01  0.85840729541E+02  0.00000000000E+00 0.  1.
         13    1    4    4    0    0  0.39786166288E+02  0.19296446708E+02 -0.28161010407E+02  0.52424559040E+02  0.00000000000E+00 0. -1.
         -4    1    1    2    0  502 -0.70346647100E+02  0.19056747091E+02 -0.79026984971E+02  0.10750383585E+03  0.00000000000E+00 0.  1.
<scales pt_clust_5="13000.00000" pt_clust_6="13000.00000" pt_clust_7="13000.00000" pt_clust_8="13000.00000" pt_clust_9="72.88220"></scales>
<clustering>
<clus scale="   72.882">  1  9  2 -1</clus>
<clus scale="   81.022">  5  6 -1 -1</clus>
<clus scale="   93.061">  7  8 -1 -1</clus>
<clus scale="   94.638">  2  5  1 -1</clus>
<clus scale="   72.882">  1  5  2 -1</clus>
</clustering>
</event>
<event>
 9    2  0.1302972E-004  0.1079542E+03  0.7546771E-02  0.1268509E+00
         21   -1    0    0  501  502  0.00000000000E+00  0.00000000000E+00  0.53342652357E+02  0.53342652357E+02  0.00000000000E+00 0. -1.
          2   -1    0    0  502    0 -0.00000000000E+00 -0.00000000000E+00 -0.15529786895E+04  0.15529786895E+04  0.00000000000E+00 0. -1.
         24    2    1    2    0    0  0.25894771982E+02  0.58087850867E+02 -0.14526692363E+04  0.14561365250E+04  0.77723430421E+02 0.  0.
         23    2    1    2    0    0 -0.29798786059E+02 -0.34900011164E+02 -0.66567951895E+02  0.11957236250E+03  0.88092447041E+02 0.  0.
        -11    1    3    3    0    0  0.11841030850E+02  0.21029839509E+02 -0.99432664988E+02  0.10231969032E+03  0.00000000000E+00 0.  1.
         12    1    3    3    0    0  0.14053741132E+02  0.37058011358E+02 -0.13532365713E+04  0.13538168347E+04  0.00000000000E+00 0. -1.
        -13    1    4    4    0    0 -0.54517560552E+02 -0.28035596403E+02 -0.70711538669E+02  0.93585686807E+02  0.00000000000E+00 0. -1.
         13    1    4    4    0    0  0.24718774493E+02 -0.68644147612E+01  0.41435867741E+01  0.25986675698E+02  0.00000000000E+00 0.  1.
          1    1    1    2  501    0  0.39040140774E+01 -0.23187839703E+02  0.19601151097E+02  0.30612454334E+02  0.00000000000E+00 0. -1.
<scales pt_clust_5="13000.00000" pt_clust_6="13000.00000" pt_clust_7="13000.00000" pt_clust_8="13000.00000" pt_clust_9="23.51419"></scales>
<clustering>
<clus scale="   23.514">  1  9  2 -1</clus>
<clus scale="   77.723">  5  6 -1 -1</clus>
<clus scale="   88.092">  7  8 -1 -1</clus>
<clus scale="   99.673">  2  5  1 -1</clus>
<clus scale="   23.514">  1  5  2 -1</clus>
</clustering>
</event>
<event>
 9    2  0.1302972E-004  0.3467629E+03  0.7546771E-02  0.1064241E+00
         21   -1    0    0  501  502  0.00000000000E+00  0.00000000000E+00  0.27435393971E+03  0.27435393971E+03  0.00000000000E+00 0. -1.
          2   -1    0    0  502    0 -0.00000000000E+00 -0.00000000000E+00 -0.85435730516E+03  0.85435730516E+03  0.00000000000E+00 0. -1.
         23    2    1    2    0    0  0.36943490929E+03  0.16424689640E+03 -0.56244908374E+03  0.69848411412E+03  0.89843701465E+02 0.  0.
         24    2    1    2    0    0 -0.17460482156E+03 -0.12626054543E+03  0.11609236735E+02  0.22959752986E+03  0.78432660906E+02 0.  0.
        -11    1    4    4    0    0 -0.23258384778E+02 -0.20906526987E+02  0.31174473804E+02  0.44157481247E+02  0.00000000000E+00 0.  1.
         12    1    4    4    0    0 -0.15134643678E+03 -0.10535401844E+03 -0.19565237069E+02  0.18544004861E+03  0.00000000000E+00 0. -1.
        -13    1    3    3    0    0  0.90391917109E+02  0.54626935135E+02 -0.89098973212E+02  0.13817896999E+03  0.00000000000E+00 0.  1.
         13    1    3    3    0    0  0.27904299218E+03  0.10961996126E+03 -0.47335011053E+03  0.56030514412E+03  0.00000000000E+00 0. -1.
          1    1    1    2  501    0 -0.19483008773E+03 -0.37986350970E+02 -0.29163518449E+02  0.20062960089E+03  0.00000000000E+00 0. -1.
<scales pt_clust_5="13000.00000" pt_clust_6="13000.00000" pt_clust_7="13000.00000" pt_clust_8="13000.00000" pt_clust_9="198.49868"></scales>
<clustering>
<clus scale="   78.433">  5  6 -1 -1</clus>
<clus scale="   89.844">  7  8 -1 -1</clus>
<clus scale="  198.499">  1  9  2 -1</clus>
<clus scale="  343.983">  1  5  2 -1</clus>
<clus scale="  198.499">  1  5  2 -1</clus>
</clustering>
</event>
<event>
 9    2  0.1302972E-004  0.1250453E+03  0.7546771E-02  0.1239124E+00
         21   -1    0    0  501  502  0.00000000000E+00  0.00000000000E+00  0.21591174580E+02  0.21591174580E+02  0.00000000000E+00 0.  1.
          2   -1    0    0  502    0 -0.00000000000E+00 -0.00000000000E+00 -0.14013827283E+04  0.14013827283E+04  0.00000000000E+00 0. -1.
         24    2    1    2    0    0 -0.52818063897E+02 -0.63598950497E+02 -0.97650857952E+03  0.98322792253E+03  0.79583713079E+02 0.  0.
         23    2    1    2    0    0  0.20494573206E+02  0.89192927851E+02 -0.33884685482E+03  0.36324844307E+03  0.93577959296E+02 0.  0.
        -13    1    3    3    0    0 -0.49733875439E+02 -0.53198923466E+01 -0.29358628760E+03  0.29781650036E+03  0.00000000000E+00 0.  1.
         14    1    3    3    0    0 -0.30841884585E+01 -0.58279058150E+02 -0.68292229193E+03  0.68541142217E+03  0.00000000000E+00 0. -1.
        -13    1    4    4    0    0 -0.17491266634E+02 -0.12363439838E+02 -0.74789720657E+02  0.77796538284E+02  0.00000000000E+00 0. -1.
         13    1    4    4    0    0  0.37985839840E+02  0.10155636769E+03 -0.26405713416E+03  0.28545190479E+03  0.00000000000E+00 0.  1.
          1    1    1    2  501    0  0.32323490692E+02 -0.25593977355E+02 -0.64436119338E+02  0.76497537232E+02  0.00000000000E+00 0. -1.
<scales pt_clust_5="13000.00000" pt_clust_6="13000.00000" pt_clust_7="13000.00000" pt_clust_8="13000.00000" pt_clust_9="41.22936"></scales>
<clustering>
<clus scale="   41.229">  1  9  2 -1</clus>
<clus scale="   79.584">  5  6 -1 -1</clus>
<clus scale="   93.578">  7  8 -1 -1</clus>
<clus scale="  114.948">  2  5  1 -1</clus>
<clus scale="   41.229">  1  5  2 -1</clus>
</clustering>
</event>
<event>
 9    2  0.1302972E-004  0.1278051E+03  0.7546771E-02  0.1243170E+00
         21   -1    0    0  501  502  0.00000000000E+00  0.00000000000E+00  0.20731942466E+02  0.20731942466E+02  0.00000000000E+00 0.  1.
          2   -1    0    0  502    0 -0.00000000000E+00 -0.00000000000E+00 -0.13726048135E+04  0.13726048135E+04  0.00000000000E+00 0. -1.
         23    2    1    2    0    0  0.26521098634E+02 -0.36906629086E+02 -0.28753185217E+03  0.30415795893E+03  0.88159117650E+02 0.  0.
         24    2    1    2    0    0  0.76837367998E+02 -0.17950222660E+02 -0.57427361515E+03  0.58533526280E+03  0.81246496579E+02 0.  0.
        -13    1    4    4    0    0  0.37032308015E+02  0.31955065270E+02 -0.22202181886E+03  0.22734600520E+03  0.00000000000E+00 0.  1.
         14    1    4    4    0    0  0.39805059983E+02 -0.49905287931E+02 -0.35225179629E+03  0.35798925759E+03  0.00000000000E+00 0. -1.
        -13    1    3    3    0    0  0.33164901037E+02 -0.60284868332E+02 -0.25115384049E+03  0.26040819419E+03  0.00000000000E+00 0. -1.
         13    1    3    3    0    0 -0.66438024033E+01  0.23378239246E+02 -0.36378011679E+02  0.43749764735E+02  0.00000000000E+00 0.  1.
          1    1    1    2  501    0 -0.10335846663E+03  0.54856851747E+02 -0.49006740372E+03  0.50384353425E+03  0.00000000000E+00 0. -1.
<scales pt_clust_5="13000.00000" pt_clust_6="13000.00000" pt_clust_7="13000.00000" pt_clust_8="13000.00000" pt_clust_9="98.65672"></scales>
<clustering>
<clus scale="   81.246">  5  6 -1 -1</clus>
<clus scale="   88.159">  7  8 -1 -1</clus>
<clus scale="   99.184">  2  7  1 -1</clus>
<clus scale="   98.657">  1  9  2 -1</clus>
<clus scale="   98.657">  1  5  2 -1</clus>
</clustering>
</event>
<event>
 9    2  0.1302972E-004  0.9209597E+02  0.7546771E-02  0.1305486E+00
         21   -1    0    0  501  502  0.00000000000E+00  0.00000000000E+00  0.15827131856E+03  0.15827131856E+03  0.00000000000E+00 0. -1.
          4   -1    0    0  502    0 -0.00000000000E+00 -0.00000000000E+00 -0.86001441991E+02  0.86001441991E+02  0.00000000000E+00 0. -1.
         24    2    1    2    0    0  0.10339243479E+02  0.44674372281E+01 -0.30054031570E+02  0.85879461639E+02  0.79656632911E+02 0.  0.
         23    2    1    2    0    0  0.10571001686E+02 -0.10027486254E+02  0.59273186942E+02  0.11021117470E+03  0.91765438925E+02 0.  0.
        -11    1    3    3    0    0 -0.22738041633E+02 -0.19635835259E+02 -0.33268093435E+02  0.44825780578E+02  0.00000000000E+00 0.  1.
         12    1    3    3    0    0  0.33077285112E+02  0.24103272487E+02  0.32140618651E+01  0.41053681061E+02  0.00000000000E+00 0. -1.
        -11    1    4    4    0    0 -0.13306682479E+02 -0.37187367459E+02  0.62467938926E+02  0.73906775676E+02  0.00000000000E+00 0.  1.
         11    1    4    4    0    0  0.23877684165E+02  0.27159881205E+02 -0.31947519845E+01  0.36304399023E+02  0.00000000000E+00 0. -1.
          3    1    1    2  501    0 -0.20910245165E+02  0.55600490257E+01  0.43050721201E+02  0.48182124216E+02  0.00000000000E+00 0. -1.
<scales pt_clust_5="13000.00000" pt_clust_6="13000.00000" pt_clust_7="13000.00000" pt_clust_8="13000.00000" pt_clust_9="21.63683"></scales>
<clustering>
<clus scale="   21.637">  1  9  2 -1</clus>
<clus scale="   79.657">  5  6 -1 -1</clus>
<clus scale="   80.037">  2  5  1 -1</clus>
<clus scale="   91.765">  7  8 -1 -1</clus>
<clus scale="   21.637">  1  5  2 -1</clus>
</clustering>
</event>
<event>
 9    2  0.1302972E-004  0.1338446E+03  0.7546771E-02  0.1227412E+00
         21   -1    0    0  501  502  0.00000000000E+00  0.00000000000E+00  0.31456066581E+03  0.31456066581E+03  0.00000000000E+00 0. -1.
         -1   -1    0    0    0  501 -0.00000000000E+00 -0.00000000000E+00 -0.24095307420E+03  0.24095307420E+03  0.00000000000E+00 0.  1.
         23    2    1    2    0    0  0.10081449462E+03  0.13429244472E+02 -0.16035282951E+02  0.14370795036E+03  0.10025436532E+03 0.  0.
         24    2    1    2    0    0 -0.29740471164E+02 -0.55058553759E+02  0.22872433867E+03  0.25016368541E+03  0.79693829322E+02 0.  0.
        -11    1    4    4    0    0 -0.38529046210E+02 -0.30934723232E+02  0.52562066621E+02  0.72140247787E+02  0.00000000000E+00 0.  1.
         12    1    4    4    0    0  0.87885750457E+01 -0.24123830527E+02  0.17616227205E+03  0.17802343763E+03  0.00000000000E+00 0. -1.
        -13    1    3    3    0    0  0.69637428853E+02  0.49363536135E+02 -0.35315056897E+02  0.92375773018E+02  0.00000000000E+00 0.  1.
         13    1    3    3    0    0  0.31177065765E+02 -0.35934291664E+02  0.19279773946E+02  0.51332177341E+02  0.00000000000E+00 0. -1.
         -2    1    1    2    0  502 -0.71074023454E+02  0.41629309287E+02 -0.13908146411E+03  0.16164210423E+03  0.00000000000E+00 0.  1.
<scales pt_clust_5="13000.00000" pt_clust_6="13000.00000" pt_clust_7="13000.00000" pt_clust_8="13000.00000" pt_clust_9="82.36822"></scales>
<clustering>
<clus scale="   79.694">  5  6 -1 -1</clus>
<clus scale="   82.368">  1  9  2 -1</clus>
<clus scale="  100.254">  7  8 -1 -1</clus>
<clus scale="  119.225">  1  5  2 -1</clus>
<clus scale="   82.368">  1  5  2 -1</clus>
</clustering>
</event>
<event>
 9    2  0.1302972E-004  0.1603651E+03  0.7546771E-02  0.1189788E+00
          2   -1    0    0  502    0 -0.00000000000E+00  0.00000000000E+00  0.12463130003E+04  0.12463130003E+04  0.00000000000E+00 0. -1.
         21   -1    0    0  501  502  0.00000000000E+00 -0.00000000000E+00 -0.72977717743E+02  0.72977717743E+02  0.00000000000E+00 0. -1.
         24    2    1    2    0    0  0.16814041073E+03  0.23809901346E+02  0.86876951184E+03  0.88885504358E+03  0.80403449350E+02 0.  0.
         23    2    1    2    0    0 -0.89030321856E+02  0.57412219204E+01  0.32034194222E+03  0.34452547346E+03  0.90108168739E+02 0.  0.
        -13    1    3    3    0    0  0.11303628213E+03  0.52438834140E+02  0.62499850215E+03  0.63729911352E+03  0.00000000000E+00 0.  1.
         14    1    3    3    0    0  0.55104128600E+02 -0.28628932793E+02  0.24377100970E+03  0.25155593006E+03  0.00000000000E+00 0. -1.
        -11    1    4    4    0    0 -0.15465913620E+02  0.41653897332E+02  0.98368535258E+02  0.10793799320E+03  0.00000000000E+00 0. -1.
         11    1    4    4    0    0 -0.73564408236E+02 -0.35912675412E+02  0.22197340697E+03  0.23658748026E+03  0.00000000000E+00 0.  1.
          1    1    1    2  501    0 -0.79110088870E+02 -0.29551123267E+02 -0.15776171522E+02  0.85910200996E+02  0.00000000000E+00 0. -1.
<scales pt_clust_5="13000.00000" pt_clust_6="13000.00000" pt_clust_7="13000.00000" pt_clust_8="13000.00000" pt_clust_9="84.44925"></scales>
<clustering>
<clus scale="   80.403">  5  6 -1 -1</clus>
<clus scale="   84.449">  2  9  1 -1</clus>
<clus scale="   90.108">  7  8 -1 -1</clus>
<clus scale="  155.120">  1  5  2 -1</clus>
<clus scale="   84.449">  2  5  1 -1</clus>
</clustering>
</event>
<event>
 9    2  0.1302972E-004  0.9429440E+02  0.7546771E-02  0.1298876E+00
          2   -1    0    0  502    0 -0.00000000000E+00  0.00000000000E+00  0.23327819397E+03  0.23327819397E+03  0.00000000000E+00 0. -1.
         21   -1    0    0  501  502  0.00000000000E+00 -0.00000000000E+00 -0.95500217757E+02  0.95500217757E+02  0.00000000000E+00 0.  1.
         24    2    1    2    0    0 -0.34993352945E+02 -0.34326800587E+02  0.62111800215E+02  0.11274029414E+03  0.80309614663E+02 0.  0.
         23    2    1    2    0    0 -0.20916712136E+02 -0.18006268551E+02 -0.16334407645E+02  0.96335181563E+02  0.90840078049E+02 0.  0.
        -13    1    3    3    0    0 -0.33120845873E+02 -0.54747981594E+02  0.65936185749E+02  0.91879880883E+02  0.00000000000E+00 0.  1.
         14    1    3    3    0    0 -0.18725070718E+01  0.20421181006E+02 -0.38243855338E+01  0.20860413254E+02  0.00000000000E+00 0. -1.
        -13    1    4    4    0    0 -0.90036762677E+01  0.20116056493E+02  0.28670981708E+02  0.36162786221E+02  0.00000000000E+00 0. -1.
         13    1    4    4    0    0 -0.11913035869E+02 -0.38122325044E+02 -0.45005389353E+02  0.60172395342E+02  0.00000000000E+00 0.  1.
          1    1    1    2  501    0  0.55910065081E+02  0.52333069138E+02  0.92000583639E+02  0.11970293602E+03  0.00000000000E+00 0. -1.
<scales pt_clust_5="13000.00000" pt_clust_6="13000.00000" pt_clust_7="13000.00000" pt_clust_8="13000.00000" pt_clust_9="76.58127"></scales>
<clustering>
<clus scale="   76.581">  2  9  1 -1</clus>
<clus scale="   80.310">  5  6 -1 -1</clus>
<clus scale="   84.197">  1  5  2 -1</clus>
<clus scale="   90.840">  7  8 -1 -1</clus>
<clus scale="   76.581">  2  5  1 -1</clus>
</clustering>
</event>
<event>
 9    2  0.1302972E-004  0.1326044E+03  0.7546771E-02  0.1239246E+00
          2   -1    0    0  502    0 -0.00000000000E+00  0.00000000000E+00  0.69159191916E+03  0.69159191916E+03  0.00000000000E+00 0. -1.
         21   -1    0    0  501  502  0.00000000000E+00 -0.00000000000E+00 -0.90560942712E+02  0.90560942712E+02  0.00000000000E+00 0.  1.
         23    2    1    2    0    0 -0.19052560590E+02 -0.19550739936E+02 -0.31683632833E+02  0.10123599091E+03  0.92193501770E+02 0.  0.
         24    2    1    2    0    0 -0.90940733458E+02 -0.56408230621E-01  0.45543058244E+03  0.47136355753E+03  0.80600048200E+02 0.  0.
        -13    1    4    4    0    0 -0.27241181250E+02  0.34798244780E+02  0.11332597606E+03  0.12163789148E+03  0.00000000000E+00 0.  1.
         14    1    4    4    0    0 -0.63699552208E+02 -0.34854653011E+02  0.34210460638E+03  0.34972566605E+03  0.00000000000E+00 0. -1.
        -11    1    3    3    0    0  0.74049259551E+01 -0.52837879337E+02 -0.21423315687E+02  0.57494633456E+02  0.00000000000E+00 0.  1.
         11    1    3    3    0    0 -0.26457486545E+02  0.33287139401E+02 -0.10260317146E+02  0.43741357452E+02  0.00000000000E+00 0. -1.
          1    1    1    2  501    0  0.10999329405E+03  0.19607148166E+02  0.17728402685E+03  0.20955331343E+03  0.00000000000E+00 0. -1.
<scales pt_clust_5="13000.00000" pt_clust_6="13000.00000" pt_clust_7="13000.00000" pt_clust_8="13000.00000" pt_clust_9="105.29752"></scales>
<clustering>
<clus scale="   80.600">  5  6 -1 -1</clus>
<clus scale="   92.194">  7  8 -1 -1</clus>
<clus scale="   96.150">  1  7  2 -1</clus>
<clus scale="  105.298">  2  9  1 -1</clus>
<clus scale="  105.298">  2  5  1 -1</clus>
</clustering>
</event>
<event>
 9    2  0.1302972E-004  0.1297692E+03  0.7546771E-02  0.1231881E+00
          2   -1    0    0  502    0 -0.00000000000E+00  0.00000000000E+00  0.53006815987E+03  0.53006815987E+03  0.00000000000E+00 0. -1.
         21   -1    0    0  501  502  0.00000000000E+00 -0.00000000000E+00 -0.77941343197E+02  0.77941343197E+02  0.00000000000E+00 0. -1.
         23    2    1    2    0    0 -0.76498349337E+02 -0.12307618116E+00  0.21866907830E+03  0.24886984952E+03  0.90928673121E+02 0.  0.
         24    2    1    2    0    0  0.15056008834E+03 -0.80042591519E+01  0.75775767078E+02  0.18474126240E+03  0.75199460039E+02 0.  0.
        -13    1    4    4    0    0  0.37964993982E+02  0.11689969514E+02 -0.11012478804E+02  0.41222213001E+02  0.00000000000E+00 0.  1.
         14    1    4    4    0    0  0.11259509436E+03 -0.19694228666E+02  0.86788245882E+02  0.14351904940E+03  0.00000000000E+00 0. -1.
        -11    1    3    3    0    0 -0.20474598578E+02  0.40136226871E+02  0.53971650775E+02  0.70306934094E+02  0.00000000000E+00 0.  1.
         11    1    3    3    0    0 -0.56023750759E+02 -0.40259303052E+02  0.16469742752E+03  0.17856291542E+03  0.00000000000E+00 0. -1.
          1    1    1    2  501    0 -0.74061739006E+02  0.81273353331E+01  0.15768197130E+03  0.17439839115E+03  0.00000000000E+00 0. -1.
<scales pt_clust_5="13000.00000" pt_clust_6="13000.00000" pt_clust_7="13000.00000" pt_clust_8="13000.00000" pt_clust_9="74.50638"></scales>
<clustering>
<clus scale="   74.506">  2  9  1 -1</clus>
<clus scale="   75.199">  5  6 -1 -1</clus>
<clus scale="   90.929">  7  8 -1 -1</clus>
<clus scale="  119.277">  2  5  1 -1</clus>
<clus scale="   74.506">  2  5  1 -1</clus>
</clustering>
</event>
<event>
 9    2  0.1302972E-004  0.1511833E+03  0.7546771E-02  0.1200513E+00
          2   -1    0    0  502    0 -0.00000000000E+00  0.00000000000E+00  0.47755735942E+03  0.47755735942E+03  0.00000000000E+00 0. -1.
         21   -1    0    0  501  502  0.00000000000E+00 -0.00000000000E+00 -0.27620419432E+03  0.27620419432E+03  0.00000000000E+00 0. -1.
         24    2    1    2    0    0  0.11239691616E+03  0.35063222068E+02  0.36534067839E+03  0.39252543151E+03  0.82096935333E+02 0.  0.
         23    2    1    2    0    0 -0.13862424850E+03 -0.22654271463E+02  0.26001918532E+02  0.16904392878E+03  0.90387232518E+02 0.  0.
        -13    1    3    3    0    0  0.86423122490E+02 -0.98295972879E+01  0.27414663981E+03  0.28761425070E+03  0.00000000000E+00 0.  1.
         14    1    3    3    0    0  0.25973793674E+02  0.44892819356E+02  0.91194038578E+02  0.10491118081E+03  0.00000000000E+00 0. -1.
        -11    1    4    4    0    0 -0.47735804211E+02 -0.51229654331E+02 -0.95444214813E+00  0.70029247078E+02  0.00000000000E+00 0.  1.
         11    1    4    4    0    0 -0.90888444287E+02  0.28575382868E+02  0.26956360680E+02  0.99014681700E+02  0.00000000000E+00 0. -1.
          1    1    1    2  501    0  0.26227332334E+02 -0.12408950605E+02 -0.18998943183E+03  0.19219219345E+03  0.00000000000E+00 0. -1.
<scales pt_clust_5="13000.00000" pt_clust_6="13000.00000" pt_clust_7="13000.00000" pt_clust_8="13000.00000" pt_clust_9="29.01474"></scales>
<clustering>
<clus scale="   29.015">  2  9  1 -1</clus>
<clus scale="   82.097">  5  6 -1 -1</clus>
<clus scale="   90.387">  7  8 -1 -1</clus>
<clus scale="  146.378">  1  5  2 -1</clus>
<clus scale="   29.015">  2  5  1 -1</clus>
</clustering>
</event>
<event>
 9    2  0.1302972E-004  0.2736350E+03  0.7546771E-02  0.1119553E+00
         21   -1    0    0  501  502  0.00000000000E+00  0.00000000000E+00  0.73279392486E+03  0.73279392486E+03  0.00000000000E+00 0. -1.
          2   -1    0    0  502    0 -0.00000000000E+00 -0.00000000000E+00 -0.18661356466E+03  0.18661356466E+03  0.00000000000E+00 0. -1.
         24    2    1    2    0    0  0.47340878584E+02  0.13392042253E+03  0.42270563245E+02  0.16829902442E+03  0.79761662161E+02 0.  0.
         23    2    1    2    0    0 -0.21122718795E+03 -0.23237953171E+03  0.44282819422E+03  0.55040001791E+03  0.90698392689E+02 0.  0.
        -13    1    3    3    0    0  0.55400873489E+02  0.43287992460E+02  0.30172765875E+02  0.76508188288E+02  0.00000000000E+00 0.  1.
         14    1    3    3    0    0 -0.80599949049E+01  0.90632430066E+02  0.12097797371E+02  0.91790836137E+02  0.00000000000E+00 0. -1.
        -13    1    4    4    0    0 -0.15051508835E+03 -0.18014038186E+03  0.38748856507E+03  0.45304827233E+03  0.00000000000E+00 0. -1.
         13    1    4    4    0    0 -0.60712099595E+02 -0.52239149845E+02  0.55339629150E+02  0.97351745584E+02  0.00000000000E+00 0.  1.
          1    1    1    2  501    0  0.16388630936E+03  0.98459109181E+02  0.61081602741E+02  0.20070844718E+03  0.00000000000E+00 0. -1.
<scales pt_clust_5="13000.00000" pt_clust_6="13000.00000" pt_clust_7="13000.00000" pt_clust_8="13000.00000" pt_clust_9="258.16661"></scales>
<clustering>
<clus scale="   79.762">  5  6 -1 -1</clus>
<clus scale="   90.698">  7  8 -1 -1</clus>
<clus scale="  162.904">  2  5  1 -1</clus>
<clus scale="  258.167">  1  9  2 -1</clus>
<clus scale="  258.167">  1  5  2 -1</clus>
</clustering>
</event>
<event>
 9    2  0.1302972E-004  0.1218277E+03  0.7546771E-02  0.1259360E+00
         21   -1    0    0  501  502  0.00000000000E+00  0.00000000000E+00  0.11987960432E+03  0.11987960432E+03  0.00000000000E+00 0.  1.
          2   -1    0    0  502    0 -0.00000000000E+00 -0.00000000000E+00 -0.40872343658E+03  0.40872343658E+03  0.00000000000E+00 0. -1.
         24    2    1    2    0    0  0.13774164059E+02  0.10136029169E+02  0.54078236104E+02  0.98996716304E+02  0.81138323474E+02 0.  0.
         23    2    1    2    0    0  0.76973243237E+02  0.63184903282E+01 -0.63165603524E+02  0.13503965513E+03  0.91000063150E+02 0.  0.
        -11    1    3    3    0    0  0.36696835087E+02  0.16650351187E+02  0.61947072823E+02  0.73900823618E+02  0.00000000000E+00 0.  1.
         12    1    3    3    0    0 -0.22922671028E+02 -0.65143220184E+01 -0.78688367191E+01  0.25095892687E+02  0.00000000000E+00 0. -1.
        -13    1    4    4    0    0  0.79175962370E+02  0.29210464558E+02 -0.71468982349E+02  0.11058887690E+03  0.00000000000E+00 0. -1.
         13    1    4    4    0    0 -0.22027191329E+01 -0.22891974230E+02  0.83033788243E+01  0.24450778222E+02  0.00000000000E+00 0.  1.
          1    1    1    2  501    0 -0.90747407296E+02 -0.16454519497E+02 -0.27975646484E+03  0.29456666947E+03  0.00000000000E+00 0. -1.
<scales pt_clust_5="13000.00000" pt_clust_6="13000.00000" pt_clust_7="13000.00000" pt_clust_8="13000.00000" pt_clust_9="80.99983"></scales>
<clustering>
<clus scale="   81.138">  5  6 -1 -1</clus>
<clus scale="   82.921">  2  5  1 -1</clus>
<clus scale="   81.000">  1  9  2 -1</clus>
<clus scale="   91.000">  7  8 -1 -1</clus>
<clus scale="   81.000">  1  5  2 -1</clus>
</clustering>
</event>
<event>
 9    2  0.1302972E-004  0.2190730E+03  0.7546771E-02  0.1135044E+00
         21   -1    0    0  501  502  0.00000000000E+00  0.00000000000E+00  0.27210298138E+03  0.27210298138E+03  0.00000000000E+00 0.  1.
          2   -1    0    0  502    0 -0.00000000000E+00 -0.00000000000E+00 -0.21458192046E+04  0.21458192046E+04  0.00000000000E+00 0. -1.
         24    2    1    2    0    0 -0.11139428170E+03 -0.16547038574E+03 -0.20331066926E+04  0.20446500644E+04  0.85334212349E+02 0.  0.
         23    2    1    2    0    0  0.18353027328E+03  0.97694355637E+02  0.15344772585E+03  0.27411311921E+03  0.91456269454E+02 0.  0.
        -13    1    3    3    0    0  0.43697783923E+01 -0.23644012661E+02 -0.98160254674E+02  0.10106220805E+03  0.00000000000E+00 0.  1.
         14    1    3    3    0    0 -0.11576406009E+03 -0.14182637308E+03 -0.19349464379E+04  0.19435878564E+04  0.00000000000E+00 0. -1.
        -11    1    4    4    0    0  0.99952739559E+02  0.49157904023E+02  0.26383752244E+02  0.11446900041E+03  0.00000000000E+00 0. -1.
         11    1    4    4    0    0  0.83577533719E+02  0.48536451614E+02  0.12706397361E+03  0.15964411880E+03  0.00000000000E+00 0.  1.
          1    1    1    2  501    0 -0.72135991578E+02  0.67776030108E+02  0.59427435783E+01  0.99159002311E+02  0.00000000000E+00 0. -1.
<scales pt_clust_5="13000.00000" pt_clust_6="13000.00000" pt_clust_7="13000.00000" pt_clust_8="13000.00000" pt_clust_9="98.98076"></scales>
<clustering>
<clus scale="   85.334">  5  6 -1 -1</clus>
<clus scale="   91.456">  7  8 -1 -1</clus>
<clus scale="   98.981">  1  9  2 -1</clus>
<clus scale="  216.589">  2  5  1 -1</clus>
<clus scale="   98.981">  1  5  2 -1</clus>
</clustering>
</event>
<event>
 9    2  0.1302972E-004  0.1873283E+03  0.7546771E-02  0.1175957E+00
         21   -1    0    0  501  502  0.00000000000E+00  0.00000000000E+00  0.50323876362E+03  0.50323876362E+03  0.00000000000E+00 0.  1.
          2   -1    0    0  502    0 -0.00000000000E+00 -0.00000000000E+00 -0.73796601493E+03  0.73796601493E+03  0.00000000000E+00 0. -1.
         23    2    1    2    0    0 -0.94135570796E+02  0.22407485855E+02 -0.11742228454E+03  0.17711700460E+03  0.90657814350E+02 0.  0.
         24    2    1    2    0    0 -0.11094862738E+03  0.12499073067E+03  0.42628414342E+03  0.46469234244E+03  0.79300198724E+02 0.  0.
        -13    1    4    4    0    0 -0.54160587497E+02  0.10554677580E+03  0.33552383877E+03  0.35587882419E+03  0.00000000000E+00 0.  1.
         14    1    4    4    0    0 -0.56788039879E+02  0.19443954872E+02  0.90760304651E+02  0.10881351825E+03  0.00000000000E+00 0. -1.
        -13    1    3    3    0    0 -0.16050294132E+02 -0.23051367325E+02 -0.69236693651E+02  0.74717449267E+02  0.00000000000E+00 0. -1.
         13    1    3    3    0    0 -0.78085276665E+02  0.45458853180E+02 -0.48185590885E+02  0.10239955534E+03  0.00000000000E+00 0.  1.
          1    1    1    2  501    0  0.20508419817E+03 -0.14739821653E+03 -0.54358911020E+03  0.59939543150E+03  0.00000000000E+00 0. -1.
<scales pt_clust_5="13000.00000" pt_clust_6="13000.00000" pt_clust_7="13000.00000" pt_clust_8="13000.00000" pt_clust_9="169.71570"></scales>
<clustering>
<clus scale="   79.300">  5  6 -1 -1</clus>
<clus scale="   90.658">  7  8 -1 -1</clus>
<clus scale="  132.599">  2  7  1 -1</clus>
<clus scale="  169.716">  1  9  2 -1</clus>
<clus scale="  169.716">  1  5  2 -1</clus>
</clustering>
</event>
<event>
 9    2  0.1302972E-004  0.1462267E+03  0.7546771E-02  0.1209279E+00
         21   -1    0    0  501  502  0.00000000000E+00  0.00000000000E+00  0.79112995110E+02  0.79112995110E+02  0.00000000000E+00 0. -1.
          2   -1    0    0  502    0 -0.00000000000E+00 -0.00000000000E+00 -0.80747458928E+03  0.80747458928E+03  0.00000000000E+00 0. -1.
         23    2    1    2    0    0 -0.84003353396E+02  0.86422288108E+02 -0.58602808315E+03  0.60126734988E+03  0.59733880852E+02 0.  0.
         24    2    1    2    0    0  0.11699749110E+03 -0.44032657493E+02 -0.20089814592E+02  0.15179489901E+03  0.83730537224E+02 0.  0.
        -13    1    4    4    0    0  0.35483055891E+02 -0.15519173558E+02  0.32608429651E+02  0.50628072130E+02  0.00000000000E+00 0.  1.
         14    1    4    4    0    0  0.81514435210E+02 -0.28513483935E+02 -0.52698244243E+02  0.10116682688E+03  0.00000000000E+00 0. -1.
        -11    1    3    3    0    0 -0.51034179179E+02  0.14708638068E+02 -0.29410558307E+03  0.29886272011E+03  0.00000000000E+00 0.  1.
         11    1    3    3    0    0 -0.32969174217E+02  0.71713650040E+02 -0.29192250008E+03  0.30240462977E+03  0.00000000000E+00 0. -1.
          1    1    1    2  501    0 -0.32994137705E+02 -0.42389630615E+02 -0.12224369643E+03  0.13352533551E+03  0.00000000000E+00 0. -1.
<scales pt_clust_5="13000.00000" pt_clust_6="13000.00000" pt_clust_7="13000.00000" pt_clust_8="13000.00000" pt_clust_9="53.71682"></scales>
<clustering>
<clus scale="   53.717">  1  9  2 -1</clus>
<clus scale="   59.734">  7  8 -1 -1</clus>
<clus scale="   83.731">  5  6 -1 -1</clus>
<clus scale="  133.939">  2  7  1 -1</clus>
<clus scale="   53.717">  1  5  2 -1</clus>
</clustering>
</event>
<event>
 9    2  0.1302972E-004  0.1178046E+03  0.7546771E-02  0.1261443E+00
         21   -1    0    0  501  502  0.00000000000E+00  0.00000000000E+00  0.85316461019E+02  0.85316461019E+02  0.00000000000E+00 0. -1.
          2   -1    0    0  502    0 -0.00000000000E+00 -0.00000000000E+00 -0.30490035769E+03  0.30490035769E+03  0.00000000000E+00 0. -1.
         23    2    1    2    0    0  0.61223612635E+01  0.36701252256E+02 -0.11234805176E+03  0.14273005194E+03  0.79782941580E+02 0.  0.
         24    2    1    2    0    0 -0.83515833694E+02  0.91972759909E+01 -0.10696146107E+03  0.15750621468E+03  0.79422724359E+02 0.  0.
        -11    1    4    4    0    0 -0.63579606783E+02  0.42713265179E+02 -0.72436142565E+02  0.10542193401E+03  0.00000000000E+00 0.  1.
         12    1    4    4    0    0 -0.19936226911E+02 -0.33515989188E+02 -0.34525318504E+02  0.52084280666E+02  0.00000000000E+00 0. -1.
        -13    1    3    3    0    0  0.20220637688E+01 -0.23027101248E+02 -0.55710697806E+02  0.60315984481E+02  0.00000000000E+00 0.  1.
         13    1    3    3    0    0  0.41002974947E+01  0.59728353504E+02 -0.56637353952E+02  0.82414067455E+02  0.00000000000E+00 0. -1.
          1    1    1    2  501    0  0.77393472430E+02 -0.45898528247E+02 -0.27438384903E+00  0.89980552102E+02  0.00000000000E+00 0. -1.
<scales pt_clust_5="13000.00000" pt_clust_6="13000.00000" pt_clust_7="13000.00000" pt_clust_8="13000.00000" pt_clust_9="87.00549"></scales>
<clustering>
<clus scale="   79.423">  5  6 -1 -1</clus>
<clus scale="   79.783">  7  8 -1 -1</clus>
<clus scale="   88.033">  2  7  1 -1</clus>
<clus scale="   87.005">  1  9  2 -1</clus>
<clus scale="   87.005">  1  5  2 -1</clus>
</clustering>
</event>
<event>
 9    2  0.1302972E-004  0.1465325E+03  0.7546771E-02  0.1206461E+00
         -3   -1    0    0    0  501 -0.00000000000E+00  0.00000000000E+00  0.20447546725E+03  0.20447546725E+03  0.00000000000E+00 0.  1.
         21   -1    0    0  501  502  0.00000000000E+00 -0.00000000000E+00 -0.33742987324E+03  0.33742987324E+03  0.00000000000E+00 0.  1.
         23    2    1    2    0    0 -0.13405550861E+03 -0.63661441878E+02  0.11213024077E+03  0.20736491563E+03  0.91669835645E+02 0.  0.
         24    2    1    2    0    0  0.50705925605E+02  0.34424128551E+02 -0.39220994937E+02  0.11052744171E+03  0.83198061335E+02 0.  0.
        -13    1    4    4    0    0  0.78361678512E+01  0.48705471781E+02  0.19885827802E+01  0.49371884403E+02  0.00000000000E+00 0.  1.
         14    1    4    4    0    0  0.42869757754E+02 -0.14281343231E+02 -0.41209577717E+02  0.61155557311E+02  0.00000000000E+00 0. -1.
        -13    1    3    3    0    0 -0.49150068176E+02 -0.26751824172E+02 -0.71038173616E+01  0.56407920715E+02  0.00000000000E+00 0. -1.
         13    1    3    3    0    0 -0.84905440434E+02 -0.36909617706E+02  0.11923405813E+03  0.15095699491E+03  0.00000000000E+00 0.  1.
         -4    1    1    2    0  502  0.83349583006E+02  0.29237313327E+02 -0.20586365182E+03  0.22401298315E+03  0.00000000000E+00 0.  1.
<scales pt_clust_5="13000.00000" pt_clust_6="13000.00000" pt_clust_7="13000.00000" pt_clust_8="13000.00000" pt_clust_9="88.32878"></scales>
<clustering>
<clus scale="   83.198">  5  6 -1 -1</clus>
<clus scale="   88.329">  2  9  1 -1</clus>
<clus scale="   91.670">  7  8 -1 -1</clus>
<clus scale="  141.387">  2  5  1 -1</clus>
<clus scale="   88.329">  2  5  1 -1</clus>
</clustering>
</event>
<event>
 9    2  0.1302972E-004  0.1816250E+03  0.7546771E-02  0.1181964E+00
         21   -1    0    0  501  502  0.00000000000E+00  0.00000000000E+00  0.49426510530E+03  0.49426510530E+03  0.00000000000E+00 0. -1.
          2   -1    0    0  502    0 -0.00000000000E+00 -0.00000000000E+00 -0.27784420251E+03  0.27784420251E+03  0.00000000000E+00 0. -1.
         24    2    1    2    0    0  0.17257441213E+02 -0.97391200365E+02 -0.16156159989E+03  0.20555223201E+03  0.79791630766E+02 0.  0.
         23    2    1    2    0    0  0.13473151815E+03  0.28451610465E+02  0.13753237593E+02  0.16591226006E+03  0.91518579387E+02 0.  0.
        -13    1    3    3    0    0 -0.18842584594E+02 -0.57130081919E+02 -0.39275203450E+02  0.71843098905E+02  0.00000000000E+00 0.  1.
         14    1    3    3    0    0  0.36100025807E+02 -0.40261118446E+02 -0.12228639644E+03  0.13370913311E+03  0.00000000000E+00 0. -1.
        -13    1    4    4    0    0 -0.35486175102E+00  0.30135709573E+02  0.48150994504E+01  0.30520027868E+02  0.00000000000E+00 0.  1.
         13    1    4    4    0    0  0.13508637990E+03 -0.16840991085E+01  0.89381381425E+01  0.13539223219E+03  0.00000000000E+00 0. -1.
          1    1    1    2  501    0 -0.15198895936E+03  0.68939589900E+02  0.36422926509E+03  0.40064481573E+03  0.00000000000E+00 0. -1.
<scales pt_clust_5="13000.00000" pt_clust_6="13000.00000" pt_clust_7="13000.00000" pt_clust_8="13000.00000" pt_clust_9="156.88206"></scales>
<clustering>
<clus scale="   79.792">  5  6 -1 -1</clus>
<clus scale="   91.519">  7  8 -1 -1</clus>
<clus scale="  127.081">  2  5  1 -1</clus>
<clus scale="  156.882">  1  9  2 -1</clus>
<clus scale="  156.882">  1  5  2 -1</clus>
</clustering>
</event>
<event>
 9    2  0.1302972E-004  0.1112752E+03  0.7546771E-02  0.1262578E+00
         -1   -1    0    0    0  501 -0.00000000000E+00  0.00000000000E+00  0.25532242833E+03  0.25532242833E+03  0.00000000000E+00 0.  1.
         21   -1    0    0  501  502  0.00000000000E+00 -0.00000000000E+00 -0.12651426348E+03  0.12651426348E+03  0.00000000000E+00 0. -1.
         24    2    1    2    0    0  0.48298736797E+02  0.58938187326E+02  0.20310951754E+02  0.11207927996E+03  0.79641398370E+02 0.  0.
         23    2    1    2    0    0 -0.79593104522E+02  0.39758047980E+02  0.11386342913E+02  0.12780387922E+03  0.91040749520E+02 0.  0.
        -11    1    3    3    0    0 -0.79393355357E+01  0.36961940317E+02  0.33229775414E+02  0.50333249993E+02  0.00000000000E+00 0.  1.
         12    1    3    3    0    0  0.56238072333E+02  0.21976247009E+02 -0.12918823660E+02  0.61746029970E+02  0.00000000000E+00 0. -1.
        -11    1    4    4    0    0 -0.12870565769E+02  0.21996426734E+02  0.44459094957E+02  0.51245540066E+02  0.00000000000E+00 0.  1.
         11    1    4    4    0    0 -0.66722538753E+02  0.17761621246E+02 -0.33072752044E+02  0.76558339158E+02  0.00000000000E+00 0. -1.
         -2    1    1    2    0  502  0.31294367725E+02 -0.98696235307E+02  0.97110870184E+02  0.14195353262E+03  0.00000000000E+00 0.  1.
<scales pt_clust_5="13000.00000" pt_clust_6="13000.00000" pt_clust_7="13000.00000" pt_clust_8="13000.00000" pt_clust_9="103.53886"></scales>
<clustering>
<clus scale="   79.641">  5  6 -1 -1</clus>
<clus scale="   91.041">  7  8 -1 -1</clus>
<clus scale="  103.539">  2  9  1 -1</clus>
<clus scale="  102.159">  1  5  2 -1</clus>
<clus scale="  103.539">  2  5  1 -1</clus>
</clustering>
</event>
<event>
 9    2  0.1302972E-004  0.1373994E+03  0.7546771E-02  0.1227002E+00
          2   -1    0    0  502    0 -0.00000000000E+00  0.00000000000E+00  0.19520690450E+03  0.19520690450E+03  0.00000000000E+00 0. -1.
         21   -1    0    0  501  502  0.00000000000E+00 -0.00000000000E+00 -0.18466160574E+03  0.18466160574E+03  0.00000000000E+00 0. -1.
         23    2    1    2    0    0  0.38471325362E+02  0.47503908225E+02 -0.37337991230E+02  0.11725352787E+03  0.92831029499E+02 0.  0.
         24    2    1    2    0    0 -0.57762247859E+01  0.81276509710E+02  0.60321845163E+02  0.12916805172E+03  0.80040144789E+02 0.  0.
        -13    1    4    4    0    0 -0.36314731409E+02  0.37876256573E+02  0.53239949028E+01  0.52741970489E+02  0.00000000000E+00 0.  1.
         14    1    4    4    0    0  0.30538506623E+02  0.43400253137E+02  0.54997850260E+02  0.76426081231E+02  0.00000000000E+00 0. -1.
        -11    1    3    3    0    0 -0.23543274223E+02  0.29497346470E+02 -0.36745984985E+02  0.52674914545E+02  0.00000000000E+00 0.  1.
         11    1    3    3    0    0  0.62014599585E+02  0.18006561756E+02 -0.59200624540E+00  0.64578613327E+02  0.00000000000E+00 0. -1.
          1    1    1    2  501    0 -0.32695100576E+02 -0.12878041794E+03 -0.12438555178E+02  0.13344693065E+03  0.00000000000E+00 0. -1.
<scales pt_clust_5="13000.00000" pt_clust_6="13000.00000" pt_clust_7="13000.00000" pt_clust_8="13000.00000" pt_clust_9="111.67891"></scales>
<clustering>
<clus scale="   80.040">  5  6 -1 -1</clus>
<clus scale="   92.831">  7  8 -1 -1</clus>
<clus scale="  111.150">  1  7  2 -1</clus>
<clus scale="  111.679">  2  9  1 -1</clus>
<clus scale="  111.679">  2  5  1 -1</clus>
</clustering>
</event>
<event>
 9    2  0.1302972E-004  0.9109678E+02  0.7546771E-02  0.1305424E+00
         -1   -1    0    0    0  501 -0.00000000000E+00  0.00000000000E+00  0.62343637937E+02  0.62343637937E+02  0.00000000000E+00 0.  1.
         21   -1    0    0  501  502  0.00000000000E+00 -0.00000000000E+00 -0.26444926334E+03  0.26444926334E+03  0.00000000000E+00 0. -1.
         24    2    1    2    0    0 -0.13466174310E+02  0.20876311170E+02 -0.23701688077E+02  0.87733309159E+02  0.80735403013E+02 0.  0.
         23    2    1    2    0    0  0.28063344285E+02  0.35332021524E+02 -0.99219667529E+02  0.14086283749E+03  0.89229443150E+02 0.  0.
        -11    1    3    3    0    0  0.62879558538E+01 -0.25477822864E+02 -0.26464698048E+02  0.37269801308E+02  0.00000000000E+00 0.  1.
         12    1    3    3    0    0 -0.19754130164E+02  0.46354134034E+02  0.27630099713E+01  0.50463507852E+02  0.00000000000E+00 0. -1.
        -13    1    4    4    0    0 -0.87503100617E+01 -0.25995243451E+02 -0.37015420771E+02  0.46070185403E+02  0.00000000000E+00 0. -1.
         13    1    4    4    0    0  0.36813654347E+02  0.61327264975E+02 -0.62204246759E+02  0.94792652091E+02  0.00000000000E+00 0.  1.
         -2    1    1    2    0  502 -0.14597169975E+02 -0.56208332693E+02 -0.79184269797E+02  0.98196754624E+02  0.00000000000E+00 0.  1.
<scales pt_clust_5="13000.00000" pt_clust_6="13000.00000" pt_clust_7="13000.00000" pt_clust_8="13000.00000" pt_clust_9="58.07283"></scales>
<clustering>
<clus scale="   58.073">  2  9  1 -1</clus>
<clus scale="   80.735">  5  6 -1 -1</clus>
<clus scale="   82.795">  1  5  2 -1</clus>
<clus scale="   89.229">  7  8 -1 -1</clus>
<clus scale="   58.073">  2  5  1 -1</clus>
</clustering>
</event>
<event>
 9    2  0.1302972E-004  0.1856864E+03  0.7546771E-02  0.1163473E+00
         21   -1    0    0  501  502  0.00000000000E+00  0.00000000000E+00  0.46663686751E+03  0.46663686751E+03  0.00000000000E+00 0.  1.
          2   -1    0    0  502    0 -0.00000000000E+00 -0.00000000000E+00 -0.35354140123E+03  0.35354140123E+03  0.00000000000E+00 0. -1.
         24    2    1    2    0    0  0.11007785148E+03  0.12035427467E+03 -0.30287443861E+03  0.35359252713E+03  0.81807486601E+02 0.  0.
         23    2    1    2    0    0 -0.74706431150E+02 -0.12503569060E+03  0.30630335898E+03  0.35126096405E+03  0.91364885822E+02 0.  0.
        -11    1    3    3    0    0  0.51304879525E+02  0.28235026214E+02 -0.17937113991E+03  0.18868866739E+03  0.00000000000E+00 0.  1.
         12    1    3    3    0    0  0.58772971956E+02  0.92119248458E+02 -0.12350329869E+03  0.16490385974E+03  0.00000000000E+00 0. -1.
        -13    1    4    4    0    0 -0.29127455217E+02 -0.11097194881E+03  0.15652205820E+03  0.19406786642E+03  0.00000000000E+00 0.  1.
         13    1    4    4    0    0 -0.45578975933E+02 -0.14063741784E+02  0.14978130078E+03  0.15719309763E+03  0.00000000000E+00 0. -1.
          1    1    1    2  501    0 -0.35371420331E+02  0.46814159251E+01  0.10966654590E+03  0.11532477757E+03  0.00000000000E+00 0. -1.
<scales pt_clust_5="13000.00000" pt_clust_6="13000.00000" pt_clust_7="13000.00000" pt_clust_8="13000.00000" pt_clust_9="35.67987"></scales>
<clustering>
<clus scale="   35.680">  1  9  2 -1</clus>
<clus scale="   81.807">  5  6 -1 -1</clus>
<clus scale="   91.365">  7  8 -1 -1</clus>
<clus scale="  181.175">  2  5  1 -1</clus>
<clus scale="   35.680">  1  5  2 -1</clus>
</clustering>
</event>
<event>
 9    2  0.1302972E-004  0.9816646E+02  0.7546771E-02  0.1289961E+00
         21   -1    0    0  501  502  0.00000000000E+00  0.00000000000E+00  0.17461354868E+02  0.17461354868E+02  0.00000000000E+00 0. -1.
          2   -1    0    0  502    0 -0.00000000000E+00 -0.00000000000E+00 -0.95789258099E+03  0.95789258099E+03  0.00000000000E+00 0. -1.
         24    2    1    2    0    0 -0.15875303226E+01  0.43615187747E+02 -0.53508489678E+03  0.54290910771E+03  0.80806234972E+02 0.  0.
         23    2    1    2    0    0 -0.31546310924E+02 -0.89470262969E+01 -0.21292081517E+03  0.23413368032E+03  0.91695625369E+02 0.  0.
        -13    1    3    3    0    0 -0.34116633026E+02  0.20264173443E+02 -0.13187123426E+03  0.13771203215E+03  0.00000000000E+00 0.  1.
         14    1    3    3    0    0  0.32529102704E+02  0.23351014304E+02 -0.40321366253E+03  0.40519707556E+03  0.00000000000E+00 0. -1.
        -11    1    4    4    0    0 -0.22962619038E+02  0.39003211699E+02 -0.13350354883E+03  0.14096712363E+03  0.00000000000E+00 0. -1.
         11    1    4    4    0    0 -0.85836918861E+01 -0.47950237996E+02 -0.79417266347E+02  0.93166556683E+02  0.00000000000E+00 0.  1.
          1    1    1    2  501    0  0.33133841246E+02 -0.34668161450E+02 -0.19242551416E+03  0.19831114783E+03  0.00000000000E+00 0. -1.
<scales pt_clust_5="13000.00000" pt_clust_6="13000.00000" pt_clust_7="13000.00000" pt_clust_8="13000.00000" pt_clust_9="47.95555"></scales>
<clustering>
<clus scale="   47.956">  1  9  2 -1</clus>
<clus scale="   80.806">  5  6 -1 -1</clus>
<clus scale="   88.081">  2  5  1 -1</clus>
<clus scale="   91.696">  7  8 -1 -1</clus>
<clus scale="   47.956">  1  5  2 -1</clus>
</clustering>
</event>
<event>
 9    2  0.1302972E-004  0.1240610E+03  0.7546771E-02  0.1239369E+00
         -3   -1    0    0    0  501 -0.00000000000E+00  0.00000000000E+00  0.61986630803E+03  0.61986630803E+03  0.00000000000E+00 0.  1.
         21   -1    0    0  501  502  0.00000000000E+00 -0.00000000000E+00 -0.11941056393E+03  0.11941056393E+03  0.00000000000E+00 0.  1.
         24    2    1    2    0    0 -0.92424490749E+02  0.14821212161E+02  0.52905194157E+03  0.54362534248E+03  0.82889090283E+02 0.  0.
         23    2    1    2    0    0  0.18898186775E+01 -0.35032192523E+02 -0.10119402629E+01  0.98873940026E+02  0.92434874726E+02 0.  0.
        -11    1    3    3    0    0 -0.59640420618E+02  0.33354854052E+02  0.17977838746E+03  0.19232731127E+03  0.00000000000E+00 0.  1.
         12    1    3    3    0    0 -0.32784070131E+02 -0.18533641891E+02  0.34927355411E+03  0.35129803122E+03  0.00000000000E+00 0. -1.
        -11    1    4    4    0    0 -0.10883172824E+02  0.28545065379E+02 -0.12515872367E+02  0.33013804223E+02  0.00000000000E+00 0. -1.
         11    1    4    4    0    0  0.12772991502E+02 -0.63577257901E+02  0.11503932104E+02  0.65860135803E+02  0.00000000000E+00 0.  1.
         -4    1    1    2    0  502  0.90534672072E+02  0.20210980362E+02 -0.27584257207E+02  0.96777589451E+02  0.00000000000E+00 0.  1.
<scales pt_clust_5="13000.00000" pt_clust_6="13000.00000" pt_clust_7="13000.00000" pt_clust_8="13000.00000" pt_clust_9="92.76320"></scales>
<clustering>
<clus scale="   82.889">  5  6 -1 -1</clus>
<clus scale="   92.435">  7  8 -1 -1</clus>
<clus scale="   92.763">  2  9  1 -1</clus>
<clus scale="  117.122">  1  5  2 -1</clus>
<clus scale="   92.763">  2  5  1 -1</clus>
</clustering>
</event>
<event>
 9    2  0.1302972E-004  0.9711237E+02  0.7546771E-02  0.1291981E+00
          2   -1    0    0  502    0 -0.00000000000E+00  0.00000000000E+00  0.68122537786E+03  0.68122537786E+03  0.00000000000E+00 0. -1.
         21   -1    0    0  501  502  0.00000000000E+00 -0.00000000000E+00 -0.61360922785E+02  0.61360922785E+02  0.00000000000E+00 0. -1.
         24    2    1    2    0    0  0.26522630011E+02 -0.19724326500E+02  0.51897463968E+03  0.52635232188E+03  0.81360869914E+02 0.  0.
         23    2    1    2    0    0 -0.57782926561E+02 -0.45059680515E+02  0.77732282526E+02  0.14066649215E+03  0.91517828086E+02 0.  0.
        -13    1    3    3    0    0 -0.12705947625E+02  0.18666687308E+02  0.60019421242E+02  0.64126572077E+02  0.00000000000E+00 0.  1.
         14    1    3    3    0    0  0.39228577636E+02 -0.38391013808E+02  0.45895521844E+03  0.46222574980E+03  0.00000000000E+00 0. -1.
        -13    1    4    4    0    0 -0.45302259588E+02  0.15216870597E+02  0.59805292767E+02  0.76554039198E+02  0.00000000000E+00 0.  1.
         13    1    4    4    0    0 -0.12480666972E+02 -0.60276551111E+02  0.17926989759E+02  0.64112452954E+02  0.00000000000E+00 0. -1.
          1    1    1    2  501    0  0.31260296549E+02  0.64784007014E+02  0.23157532868E+02  0.75567486618E+02  0.00000000000E+00 0. -1.
<scales pt_clust_5="13000.00000" pt_clust_6="13000.00000" pt_clust_7="13000.00000" pt_clust_8="13000.00000" pt_clust_9="71.93173"></scales>
<clustering>
<clus scale="   71.932">  2  9  1 -1</clus>
<clus scale="   81.361">  5  6 -1 -1</clus>
<clus scale="   87.606">  1  5  2 -1</clus>
<clus scale="   91.518">  7  8 -1 -1</clus>
<clus scale="   71.932">  2  5  1 -1</clus>
</clustering>
</event>
<event>
 9    2  0.1302972E-004  0.2761944E+03  0.7546771E-02  0.1140282E+00
         -1   -1    0    0    0  501 -0.00000000000E+00  0.00000000000E+00  0.16559982252E+03  0.16559982252E+03  0.00000000000E+00 0.  1.
         21   -1    0    0  501  502  0.00000000000E+00 -0.00000000000E+00 -0.23646405152E+04  0.23646405152E+04  0.00000000000E+00 0.  1.
         23    2    1    2    0    0 -0.27520647929E+02  0.56434311686E+02  0.11682266019E+03  0.15070406080E+03  0.71567886724E+02 0.  0.
         24    2    1    2    0    0 -0.73286552753E+02 -0.28039459392E+03 -0.12441715691E+04  0.12800620484E+04  0.81264428606E+02 0.  0.
        -13    1    4    4    0    0 -0.17853782913E+02 -0.12400676010E+02 -0.43900273738E+02  0.48987430674E+02  0.00000000000E+00 0.  1.
         14    1    4    4    0    0 -0.55432769840E+02 -0.26799391791E+03 -0.12002712954E+04  0.12310746178E+04  0.00000000000E+00 0. -1.
        -11    1    3    3    0    0  0.25869907997E+00  0.61671951134E+02  0.10091141385E+03  0.11826499874E+03  0.00000000000E+00 0.  1.
         11    1    3    3    0    0 -0.27779347009E+02 -0.52376394477E+01  0.15911246336E+02  0.32439062058E+02  0.00000000000E+00 0. -1.
         -2    1    1    2    0  502  0.10080720068E+03  0.22396028224E+03 -0.10716917837E+04  0.10994742284E+04  0.00000000000E+00 0.  1.
<scales pt_clust_5="13000.00000" pt_clust_6="13000.00000" pt_clust_7="13000.00000" pt_clust_8="13000.00000" pt_clust_9="263.96862"></scales>
<clustering>
<clus scale="   71.568">  7  8 -1 -1</clus>
<clus scale="   81.264">  5  6 -1 -1</clus>
<clus scale="   95.206">  1  7  2 -1</clus>
<clus scale="  263.969">  2  9  1 -1</clus>
<clus scale="  263.969">  2  5  1 -1</clus>
</clustering>
</event>
<event>
 9    2  0.1302972E-004  0.9887178E+02  0.7546771E-02  0.1288848E+00
         21   -1    0    0  501  502  0.00000000000E+00  0.00000000000E+00  0.41414299219E+02  0.41414299219E+02  0.00000000000E+00 0.  1.
          2   -1    0    0  502    0 -0.00000000000E+00 -0.00000000000E+00 -0.73014108120E+03  0.73014108120E+03  0.00000000000E+00 0. -1.
         24    2    1    2    0    0 -0.27269266912E+02 -0.19061145229E+02 -0.56689546262E+03  0.57359118409E+03  0.80804955038E+02 0.  0.
         23    2    1    2    0    0  0.11839749195E+02  0.59517320280E+02 -0.10146994794E+03  0.15011696481E+03  0.92501144406E+02 0.  0.
        -11    1    3    3    0    0 -0.25416095098E+02  0.20517627820E+02 -0.10413933210E+03  0.10914188670E+03  0.00000000000E+00 0.  1.
         12    1    3    3    0    0 -0.18531718139E+01 -0.39578773049E+02 -0.46275613051E+03  0.46444929740E+03  0.00000000000E+00 0. -1.
        -11    1    4    4    0    0  0.46923871675E+02  0.13542594586E+02 -0.66591040324E+02  0.82580979968E+02  0.00000000000E+00 0. -1.
         11    1    4    4    0    0 -0.35084122480E+02  0.45974725694E+02 -0.34878907613E+02  0.67535984846E+02  0.00000000000E+00 0.  1.
          1    1    1    2  501    0  0.15429517717E+02 -0.40456175051E+02 -0.20361371422E+02  0.47847231507E+02  0.00000000000E+00 0. -1.
<scales pt_clust_5="13000.00000" pt_clust_6="13000.00000" pt_clust_7="13000.00000" pt_clust_8="13000.00000" pt_clust_9="43.29864"></scales>
<clustering>
<clus scale="   43.299">  1  9  2 -1</clus>
<clus scale="   80.805">  5  6 -1 -1</clus>
<clus scale="   88.026">  2  5  1 -1</clus>
<clus scale="   92.501">  7  8 -1 -1</clus>
<clus scale="   43.299">  1  5  2 -1</clus>
</clustering>
</event>
<event>
 9    2  0.1302972E-004  0.1277664E+03  0.7546771E-02  0.1233159E+00
          2   -1    0    0  502    0 -0.00000000000E+00  0.00000000000E+00  0.18824472768E+04  0.18824472768E+04  0.00000000000E+00 0. -1.
         21   -1    0    0  501  502  0.00000000000E+00 -0.00000000000E+00 -0.14690783627E+02  0.14690783627E+02  0.00000000000E+00 0.  1.
         24    2    1    2    0    0  0.43158964430E+02  0.79719428184E+02  0.14124915426E+04  0.14178030746E+04  0.82554931789E+02 0.  0.
         23    2    1    2    0    0 -0.58152658754E+02 -0.64906011302E+02  0.41679567361E+03  0.43547004022E+03  0.91219517463E+02 0.  0.
        -13    1    3    3    0    0 -0.77223305291E+01  0.26472883361E+02  0.11644751995E+03  0.11966817808E+03  0.00000000000E+00 0.  1.
         14    1    3    3    0    0  0.50881294959E+02  0.53246544824E+02  0.12960440227E+04  0.12981348965E+04  0.00000000000E+00 0. -1.
        -11    1    4    4    0    0 -0.78966351509E+02 -0.28117976506E+02  0.27036539021E+03  0.28306138821E+03  0.00000000000E+00 0.  1.
         11    1    4    4    0    0  0.20813692755E+02 -0.36788034795E+02  0.14643028341E+03  0.15240865201E+03  0.00000000000E+00 0. -1.
          1    1    1    2  501    0  0.14993694324E+02 -0.14813416883E+02  0.38469276885E+02  0.43864945609E+02  0.00000000000E+00 0. -1.
<scales pt_clust_5="13000.00000" pt_clust_6="13000.00000" pt_clust_7="13000.00000" pt_clust_8="13000.00000" pt_clust_9="21.07720"></scales>
<clustering>
<clus scale="   21.077">  2  9  1 -1</clus>
<clus scale="   82.555">  5  6 -1 -1</clus>
<clus scale="   91.220">  7  8 -1 -1</clus>
<clus scale="  121.732">  1  5  2 -1</clus>
<clus scale="   21.077">  2  5  1 -1</clus>
</clustering>
</event>
<event>
 9    2  0.1302972E-004  0.1440068E+03  0.7546771E-02  0.1212447E+00
          2   -1    0    0  502    0 -0.00000000000E+00  0.00000000000E+00  0.10016833605E+03  0.10016833605E+03  0.00000000000E+00 0. -1.
         21   -1    0    0  501  502  0.00000000000E+00 -0.00000000000E+00 -0.42534105538E+03  0.42534105538E+03  0.00000000000E+00 0.  1.
         24    2    1    2    0    0 -0.95812905154E+02 -0.61979419072E+02  0.27820371751E+02  0.13628822248E+03  0.69129916246E+02 0.  0.
         23    2    1    2    0    0  0.70128590158E+02  0.64568624792E+02 -0.32676676303E+03  0.35242159957E+03  0.91309035479E+02 0.  0.
        -11    1    3    3    0    0 -0.70266166336E+02 -0.62577384059E+01  0.25278976482E+02  0.74936773839E+02  0.00000000000E+00 0.  1.
         12    1    3    3    0    0 -0.25546738818E+02 -0.55721680666E+02  0.25413952690E+01  0.61351448641E+02  0.00000000000E+00 0. -1.
        -11    1    4    4    0    0  0.83952847330E+01  0.69337947719E+02 -0.18378262227E+03  0.19660692777E+03  0.00000000000E+00 0.  1.
         11    1    4    4    0    0  0.61733305425E+02 -0.47693229263E+01 -0.14298414076E+03  0.15581467180E+03  0.00000000000E+00 0. -1.
          1    1    1    2  501    0  0.25684314995E+02 -0.25892057204E+01 -0.26226328051E+02  0.36799569374E+02  0.00000000000E+00 0. -1.
<scales pt_clust_5="13000.00000" pt_clust_6="13000.00000" pt_clust_7="13000.00000" pt_clust_8="13000.00000" pt_clust_9="25.81449"></scales>
<clustering>
<clus scale="   25.814">  2  9  1 -1</clus>
<clus scale="   69.130">  5  6 -1 -1</clus>
<clus scale="   91.309">  7  8 -1 -1</clus>
<clus scale="  131.071">  1  5  2 -1</clus>
<clus scale="   25.814">  2  5  1 -1</clus>
</clustering>
</event>
<event>
 9    2  0.1302972E-004  0.1015032E+03  0.7546771E-02  0.1282465E+00
         21   -1    0    0  501  502  0.00000000000E+00  0.00000000000E+00  0.13828169371E+03  0.13828169371E+03  0.00000000000E+00 0. -1.
         -3   -1    0    0    0  501 -0.00000000000E+00 -0.00000000000E+00 -0.17866589435E+03  0.17866589435E+03  0.00000000000E+00 0.  1.
         23    2    1    2    0    0 -0.45577813970E+02 -0.24221942272E+02 -0.10398034879E+03  0.14832692391E+03  0.92330513957E+02 0.  0.
         24    2    1    2    0    0  0.86002694356E+01  0.31768136821E+02 -0.74097453547E+01  0.88208471271E+02  0.81502459633E+02 0.  0.
        -11    1    4    4    0    0  0.41311823178E+02  0.74390154013E+01 -0.18631183204E+02  0.45925229145E+02  0.00000000000E+00 0.  1.
         12    1    4    4    0    0 -0.32711553742E+02  0.24329121420E+02  0.11221437849E+02  0.42283242126E+02  0.00000000000E+00 0. -1.
        -11    1    3    3    0    0  0.20922945827E+01 -0.29103677677E+02  0.46964970054E+01  0.29554336993E+02  0.00000000000E+00 0.  1.
         11    1    3    3    0    0 -0.47670108553E+02  0.48817354048E+01 -0.10867684580E+03  0.11877258692E+03  0.00000000000E+00 0. -1.
         -4    1    1    2    0  502  0.36977544535E+02 -0.75461945489E+01  0.71005893510E+02  0.80412192888E+02  0.00000000000E+00 0.  1.
<scales pt_clust_5="13000.00000" pt_clust_6="13000.00000" pt_clust_7="13000.00000" pt_clust_8="13000.00000" pt_clust_9="37.73969"></scales>
<clustering>
<clus scale="   37.740">  1  9  2 -1</clus>
<clus scale="   81.502">  5  6 -1 -1</clus>
<clus scale="   91.764">  1  5  2 -1</clus>
<clus scale="   92.331">  7  8 -1 -1</clus>
<clus scale="   37.740">  1  5  2 -1</clus>
</clustering>
</event>
<event>
 9    2  0.4122067E-004  0.9610599E+02  0.7546771E-02  0.1294712E+00
          2   -1    0    0  502    0 -0.00000000000E+00  0.00000000000E+00  0.59129015785E+03  0.59129015785E+03  0.00000000000E+00 0. -1.
         21   -1    0    0  501  502  0.00000000000E+00 -0.00000000000E+00 -0.26174233603E+03  0.26174233603E+03  0.00000000000E+00 0.  1.
         24    2    1    2    0    0  0.14450376711E+02  0.26880277278E+02  0.56165265097E+03  0.56814956183E+03  0.80055365676E+02 0.  0.
         23    2    1    2    0    0 -0.33575733642E+02 -0.41573155299E+02 -0.83990449675E+02  0.13481784833E+03  0.90916442185E+02 0.  0.
        -13    1    3    3    0    0  0.36415101418E+02 -0.12332637597E+02  0.19514067221E+03  0.19889201972E+03  0.00000000000E+00 0.  1.
         14    1    3    3    0    0 -0.21964724707E+02  0.39212914875E+02  0.36651197877E+03  0.36925754211E+03  0.00000000000E+00 0. -1.
        -11    1    4    4    0    0 -0.85891953039E+00 -0.30159422531E+02 -0.94021947716E+02  0.98744393068E+02  0.00000000000E+00 0.  1.
         11    1    4    4    0    0 -0.32716814112E+02 -0.11413732767E+02  0.10031498040E+02  0.36073455258E+02  0.00000000000E+00 0. -1.
          1    1    1    2  501    0  0.19125356931E+02  0.14692878020E+02 -0.14811437948E+03  0.15006508372E+03  0.00000000000E+00 0. -1.
<scales pt_clust_5="13000.00000" pt_clust_6="13000.00000" pt_clust_7="13000.00000" pt_clust_8="13000.00000" pt_clust_9="24.11763"></scales>
<clustering>
<clus scale="   24.118">  2  9  1 -1</clus>
<clus scale="   80.055">  5  6 -1 -1</clus>
<clus scale="   85.904">  1  5  2 -1</clus>
<clus scale="   90.916">  7  8 -1 -1</clus>
<clus scale="   24.118">  2  5  1 -1</clus>
</clustering>
</event>
<event>
 9    2  0.1302972E-004  0.6689347E+03  0.7546771E-02  0.1035470E+00
         21   -1    0    0  501  502  0.00000000000E+00  0.00000000000E+00  0.38771489617E+04  0.38771489617E+04  0.00000000000E+00 0. -1.
          4   -1    0    0  502    0 -0.00000000000E+00 -0.00000000000E+00 -0.13609562402E+03  0.13609562402E+03  0.00000000000E+00 0. -1.
         24    2    1    2    0    0 -0.59712381055E+02  0.43691814583E+02  0.18958463628E+03  0.21865306415E+03  0.79951766933E+02 0.  0.
         23    2    1    2    0    0  0.55856087053E+03  0.37898462429E+03  0.17217399536E+04  0.18515494536E+04  0.90704573911E+02 0.  0.
        -13    1    3    3    0    0 -0.44262142190E+02  0.65887065802E+02  0.15977216449E+03  0.17840231842E+03  0.00000000000E+00 0.  1.
         14    1    3    3    0    0 -0.15450238865E+02 -0.22195251219E+02  0.29812471788E+02  0.40250745729E+02  0.00000000000E+00 0. -1.
        -13    1    4    4    0    0  0.45947879519E+02  0.28781293048E+02  0.82829169744E+02  0.98996170746E+02  0.00000000000E+00 0.  1.
         13    1    4    4    0    0  0.51261299101E+03  0.35020333124E+03  0.16389107839E+04  0.17525532829E+04  0.00000000000E+00 0. -1.
          3    1    1    2  501    0 -0.49884848948E+03 -0.42267643887E+03  0.18297287478E+04  0.19430420680E+04  0.00000000000E+00 0. -1.
<scales pt_clust_5="13000.00000" pt_clust_6="13000.00000" pt_clust_7="13000.00000" pt_clust_8="13000.00000" pt_clust_9="662.75656"></scales>
<clustering>
<clus scale="   79.952">  5  6 -1 -1</clus>
<clus scale="   90.705">  7  8 -1 -1</clus>
<clus scale="  108.935">  2  5  1 -1</clus>
<clus scale="  662.757">  1  9  2 -1</clus>
<clus scale="  662.757">  1  5  2 -1</clus>
</clustering>
</event>
<event>
 9    2  0.1302972E-004  0.1812345E+03  0.7546771E-02  0.1168873E+00
         -1   -1    0    0    0  501 -0.00000000000E+00  0.00000000000E+00  0.12575215697E+04  0.12575215697E+04  0.00000000000E+00 0.  1.
         21   -1    0    0  501  502  0.00000000000E+00 -0.00000000000E+00 -0.59089746100E+02  0.59089746100E+02  0.00000000000E+00 0. -1.
         24    2    1    2    0    0 -0.37990236639E+02  0.14744965685E+03  0.10571105654E+04  0.10718098815E+04  0.90050070935E+02 0.  0.
         23    2    1    2    0    0  0.33917359746E+02 -0.10714478137E+03  0.88896041355E+02  0.17854832360E+03  0.10652044980E+03 0.  0.
        -11    1    3    3    0    0 -0.20938544315E+02  0.14406285787E+03  0.73771026421E+03  0.75193680823E+03  0.00000000000E+00 0.  1.
         12    1    3    3    0    0 -0.17051692324E+02  0.33867989765E+01  0.31940030114E+03  0.31987307325E+03  0.00000000000E+00 0. -1.
        -13    1    4    4    0    0  0.13198829950E+02 -0.55745348360E+02 -0.16375277819E+02  0.59581059906E+02  0.00000000000E+00 0. -1.
         13    1    4    4    0    0  0.20718529796E+02 -0.51399433010E+02  0.10527131917E+03  0.11896726370E+03  0.00000000000E+00 0.  1.
         -2    1    1    2    0  502  0.40728768930E+01 -0.40304875480E+02  0.52425216898E+02  0.66253110722E+02  0.00000000000E+00 0.  1.
<scales pt_clust_5="13000.00000" pt_clust_6="13000.00000" pt_clust_7="13000.00000" pt_clust_8="13000.00000" pt_clust_9="40.51014"></scales>
<clustering>
<clus scale="   40.510">  2  9  1 -1</clus>
<clus scale="   90.050">  5  6 -1 -1</clus>
<clus scale="  106.520">  7  8 -1 -1</clus>
<clus scale="  172.071">  1  5  2 -1</clus>
<clus scale="   40.510">  2  5  1 -1</clus>
</clustering>
</event>
<event>
 9    2  0.1302972E-004  0.9934589E+02  0.7546771E-02  0.1285526E+00
         21   -1    0    0  501  502  0.00000000000E+00  0.00000000000E+00  0.41825682034E+02  0.41825682034E+02  0.00000000000E+00 0.  1.
          2   -1    0    0  502    0 -0.00000000000E+00 -0.00000000000E+00 -0.78616918123E+03  0.78616918123E+03  0.00000000000E+00 0. -1.
         23    2    1    2    0    0 -0.99010371991E+01  0.20327555867E+02 -0.30628178682E+03  0.32063777172E+03  0.92134725550E+02 0.  0.
         24    2    1    2    0    0  0.10030495316E+03 -0.39281358939E+02 -0.11180210199E+03  0.16827384507E+03  0.64901988695E+02 0.  0.
        -13    1    4    4    0    0  0.10513739561E+03 -0.40812393202E+02 -0.85602976349E+02  0.14158881649E+03  0.00000000000E+00 0.  1.
         14    1    4    4    0    0 -0.48324424525E+01  0.15310342624E+01 -0.26199125644E+02  0.26685028583E+02  0.00000000000E+00 0. -1.
        -11    1    3    3    0    0 -0.33743968532E+02  0.47734415009E+02 -0.19542731419E+03  0.20398300155E+03  0.00000000000E+00 0.  1.
         11    1    3    3    0    0  0.23842931333E+02 -0.27406859142E+02 -0.11085447263E+03  0.11665477017E+03  0.00000000000E+00 0. -1.
          1    1    1    2  501    0 -0.90403915956E+02  0.18953803072E+02 -0.32625961039E+03  0.33908324648E+03  0.00000000000E+00 0. -1.
<scales pt_clust_5="13000.00000" pt_clust_6="13000.00000" pt_clust_7="13000.00000" pt_clust_8="13000.00000" pt_clust_9="92.36949"></scales>
<clustering>
<clus scale="   64.902">  5  6 -1 -1</clus>
<clus scale="   92.135">  7  8 -1 -1</clus>
<clus scale="   92.369">  1  9  2 -1</clus>
<clus scale="   92.369">  1  5  2 -1</clus>
<clus scale="   92.369">  1  5  2 -1</clus>
</clustering>
</event>
<event>
 9    2  0.1302972E-004  0.1071427E+03  0.7546771E-02  0.1271033E+00
          4   -1    0    0  502    0 -0.00000000000E+00  0.00000000000E+00  0.65870115989E+03  0.65870115989E+03  0.00000000000E+00 0. -1.
         21   -1    0    0  501  502  0.00000000000E+00 -0.00000000000E+00 -0.62759937073E+02  0.62759937073E+02  0.00000000000E+00 0.  1.
         24    2    1    2    0    0  0.57246715163E+02 -0.13061760208E+02  0.58236915899E+03  0.59068525319E+03  0.79419361734E+02 0.  0.
         23    2    1    2    0    0 -0.30205827152E+02 -0.43445845285E+01  0.18778213478E+02  0.98198329206E+02  0.91427693555E+02 0.  0.
        -13    1    3    3    0    0  0.33391398870E+02  0.32167299413E+02  0.23016907172E+03  0.23479250893E+03  0.00000000000E+00 0.  1.
         14    1    3    3    0    0  0.23855316293E+02 -0.45229059621E+02  0.35220008727E+03  0.35589274426E+03  0.00000000000E+00 0. -1.
        -13    1    4    4    0    0 -0.50716747614E+02  0.25477233637E+02  0.24013296486E+02  0.61627236920E+02  0.00000000000E+00 0.  1.
         13    1    4    4    0    0  0.20510920462E+02 -0.29821818165E+02 -0.52350830074E+01  0.36571092286E+02  0.00000000000E+00 0. -1.
          3    1    1    2  501    0 -0.27040888011E+02  0.17406344737E+02 -0.52061496450E+01  0.32577514571E+02  0.00000000000E+00 0. -1.
<scales pt_clust_5="13000.00000" pt_clust_6="13000.00000" pt_clust_7="13000.00000" pt_clust_8="13000.00000" pt_clust_9="32.15883"></scales>
<clustering>
<clus scale="   32.159">  2  9  1 -1</clus>
<clus scale="   79.419">  5  6 -1 -1</clus>
<clus scale="   91.428">  7  8 -1 -1</clus>
<clus scale="   97.098">  1  5  2 -1</clus>
<clus scale="   32.159">  2  5  1 -1</clus>
</clustering>
</event>
<event>
 9    2  0.1302972E-004  0.9730887E+02  0.7546771E-02  0.1294213E+00
         21   -1    0    0  501  502  0.00000000000E+00  0.00000000000E+00  0.36825563443E+02  0.36825563443E+02  0.00000000000E+00 0. -1.
          2   -1    0    0  502    0 -0.00000000000E+00 -0.00000000000E+00 -0.62021011377E+03  0.62021011377E+03  0.00000000000E+00 0. -1.
         24    2    1    2    0    0  0.14893719392E+02  0.55281875361E+02 -0.24480092999E+03  0.26349823510E+03  0.78904473618E+02 0.  0.
         23    2    1    2    0    0  0.34990489168E+02  0.24086493330E+02 -0.13629055143E+03  0.17057946863E+03  0.93368877123E+02 0.  0.
        -11    1    3    3    0    0  0.41535056597E+02  0.97010860897E+01 -0.13659229675E+03  0.14309691656E+03  0.00000000000E+00 0.  1.
         12    1    3    3    0    0 -0.26641337205E+02  0.45580789271E+02 -0.10820863324E+03  0.12040131854E+03  0.00000000000E+00 0. -1.
        -11    1    4    4    0    0  0.60409295747E+02  0.26998109486E+02 -0.57236286268E+02  0.87488132877E+02  0.00000000000E+00 0. -1.
         11    1    4    4    0    0 -0.25418806580E+02 -0.29116161559E+01 -0.79054265164E+02  0.83091335753E+02  0.00000000000E+00 0.  1.
          1    1    1    2  501    0 -0.49884208560E+02 -0.79368368691E+02 -0.20229306891E+03  0.22295797349E+03  0.00000000000E+00 0. -1.
<scales pt_clust_5="13000.00000" pt_clust_6="13000.00000" pt_clust_7="13000.00000" pt_clust_8="13000.00000" pt_clust_9="93.74317"></scales>
<clustering>
<clus scale="   78.904">  5  6 -1 -1</clus>
<clus scale="   93.369">  7  8 -1 -1</clus>
<clus scale="   93.743">  1  9  2 -1</clus>
<clus scale="   83.530">  2  5  1 -1</clus>
<clus scale="   93.743">  1  5  2 -1</clus>
</clustering>
</event>
<event>
 9    2  0.1302972E-004  0.1061676E+03  0.7546771E-02  0.1272755E+00
          2   -1    0    0  502    0 -0.00000000000E+00  0.00000000000E+00  0.62982337932E+03  0.62982337932E+03  0.00000000000E+00 0. -1.
         21   -1    0    0  501  502  0.00000000000E+00 -0.00000000000E+00 -0.72546283758E+02  0.72546283758E+02  0.00000000000E+00 0.  1.
         23    2    1    2    0    0 -0.43299121548E+00 -0.40362814086E+02  0.39158957428E+03  0.40428190941E+03  0.92044138060E+02 0.  0.
         24    2    1    2    0    0  0.56493402328E+02  0.11168209221E+03  0.13849558286E+03  0.20338500481E+03  0.80746761452E+02 0.  0.
        -11    1    4    4    0    0  0.70631388121E+02  0.96333184321E+02  0.13799045693E+03  0.18251093554E+03  0.00000000000E+00 0.  1.
         12    1    4    4    0    0 -0.14137985794E+02  0.15348907884E+02  0.50512592717E+00  0.20874069267E+02  0.00000000000E+00 0. -1.
        -13    1    3    3    0    0 -0.15755362865E+02  0.21099388378E+02  0.46601288376E+02  0.53526588974E+02  0.00000000000E+00 0.  1.
         13    1    3    3    0    0  0.15322371649E+02 -0.61462202465E+02  0.34498828590E+03  0.35075532043E+03  0.00000000000E+00 0. -1.
          1    1    1    2  501    0 -0.56060411112E+02 -0.71319278119E+02  0.27191938426E+02  0.94702748856E+02  0.00000000000E+00 0. -1.
<scales pt_clust_5="13000.00000" pt_clust_6="13000.00000" pt_clust_7="13000.00000" pt_clust_8="13000.00000" pt_clust_9="90.71499"></scales>
<clustering>
<clus scale="   80.747">  5  6 -1 -1</clus>
<clus scale="   90.715">  2  9  1 -1</clus>
<clus scale="   92.044">  7  8 -1 -1</clus>
<clus scale="   96.537">  2  5  1 -1</clus>
<clus scale="   90.715">  2  5  1 -1</clus>
</clustering>
</event>
